Membrane in water
40155
    1TCq1    O1    1   1.011   1.553  12.218  0.2459 -0.2907 -0.4370
    1TCq1    C1    2   0.904   1.474  12.257 -0.2749 -0.2827 -0.0453
    1TCq1    O2    3   0.872   1.460  12.376  0.4674  0.1270  0.3714
    1TCq1    C2    4   0.853   1.391  12.155  0.3089 -0.6108 -0.2403
    1TCq1    C3    5   0.897   1.401  12.032 -0.2191 -0.6336 -0.4831
    1TCq1    C4    6   0.873   1.298  11.938 -0.0091  0.3995 -0.3949
    1TCq1    C5    7   0.805   1.185  11.971 -0.2810  0.3274 -0.6658
    1TCq1    C6    8   0.766   1.177  12.104 -0.2278 -0.1834 -0.1036
    1TCq1    C7    9   0.792   1.280  12.192 -0.5460  0.0346 -0.5374
    1TCq1    C8   10   0.721   1.053  12.158  0.4868 -0.1475 -0.4088
    1TCq1    O4   11   0.675   0.968  12.079  0.1244 -0.0777 -0.2335
    1TCq1    C9   12   0.916   1.311  11.801  0.8186  0.2850  0.3204
    1TCq1    O5   13   0.948   1.429  11.772 -0.6189  0.2368  0.1687
    1TCq1    O6   14   0.890   1.219  11.721 -0.0321  0.1083  0.1788
    1TCq1    H1   15   1.044   1.535  12.127  1.3470 -0.3855 -0.0204
    1TCq1    H2   16   0.943   1.491  11.994 -0.9732  0.0567  0.2297
    1TCq1    H3   17   0.785   1.105  11.901  3.0850 -1.7976  0.8489
    1TCq1    H4   18   0.745   1.270  12.289 -0.2047  0.0024 -0.3775
    2MPD2     C   19   0.707   0.693  12.522  0.2110  0.2719  0.4581
    2MPD2    C1   20   0.654   0.687  12.397 -0.1525 -0.8530 -0.0481
    2MPD2    C2   21   0.665   0.798  12.311 -0.5070  0.7471  0.0996
    2MPD2    C3   22   0.721   0.921  12.365  0.3610  0.1339 -0.5330
    2MPD2    C4   23   0.763   0.923  12.499 -0.5510 -0.6239  0.3570
    2MPD2    C5   24   0.757   0.809  12.573  0.5477  0.5049  0.1920
    2MPD2     H   25   0.632   0.777  12.210 -1.6431 -2.2103  1.0766
    2MPD2    H1   26   0.799   1.017  12.538  2.1367 -0.9785 -1.2893
    2MPD2    H2   27   0.699   0.609  12.590  2.2386  1.6870  2.4776
    2MPD2    H3   28   0.809   0.813  12.667  0.9448 -0.8815  0.0350
    2MPD2     N   29   0.748   1.036  12.293 -0.2012  0.0772  0.1192
    2MPD2    H5   30   0.788   1.110  12.350  1.1811 -1.4732  1.1767
    2MPD2    N1   31   0.579   0.584  12.347  0.0782 -0.0896  0.4422
    2MPD2    H7   32   0.540   0.588  12.253  0.5199  0.6008  0.2880
    3TCq1    O1   33   4.546   2.247  10.381  0.0104  0.0683 -0.1594
    3TCq1    C1   34   4.527   2.195  10.256 -1.2371  1.0287  0.4607
    3TCq1    O2   35   4.505   2.253  10.150  0.1296  0.7516 -0.2903
    3TCq1    C2   36   4.473   2.060  10.278  0.2568  0.3552  0.1848
    3TCq1    C3   37   4.464   1.985  10.167  0.0243  0.6688  0.7094
    3TCq1    C4   38   4.442   1.852  10.179  0.1939  0.3706 -0.2342
    3TCq1    C5   39   4.412   1.792  10.297 -1.2571  0.3325 -0.5209
    3TCq1    C6   40   4.418   1.875  10.412 -1.0042 -0.0350 -0.4805
    3TCq1    C7   41   4.449   2.008  10.407 -0.5803 -0.3631  0.1957
    3TCq1    C8   42   4.420   1.800  10.541 -0.4935  0.0201  0.6412
    3TCq1    O4   43   4.438   1.678  10.542 -0.0459  0.0236  0.8497
    3TCq1    C9   44   4.461   1.768  10.058 -0.9372  0.0463 -0.4987
    3TCq1    O5   45   4.484   1.646  10.074  0.6276  0.4455  0.2574
    3TCq1    O6   46   4.489   1.832   9.952 -0.0769 -0.2213  0.2396
    3TCq1    H1   47   4.572   2.185  10.453  1.5774  1.6486  0.6115
    3TCq1    H2   48   4.485   2.031  10.071 -1.4179 -1.6807 -0.7070
    3TCq1    H3   49   4.396   1.685  10.300  0.7154  0.0454  0.0394
    3TCq1    H4   50   4.452   2.078  10.489 -0.4905 -1.1214  0.8455
    4MPD2     C   51   4.406   1.823  11.057 -0.4406 -0.1119  0.0590
    4MPD2    C1   52   4.363   1.948  11.003  0.5172 -0.1356  0.6190
    4MPD2    C2   53   4.347   1.956  10.864 -0.1828  0.6847 -0.5043
    4MPD2    C3   54   4.375   1.851  10.786 -0.6121 -0.1182 -0.2829
    4MPD2    C4   55   4.424   1.738  10.838 -0.5322 -0.7430  0.4550
    4MPD2    C5   56   4.439   1.722  10.972  0.5020 -0.1914 -0.0298
    4MPD2     H   57   4.324   2.054  10.825  1.2943  1.7635  1.3674
    4MPD2    H1   58   4.445   1.653  10.774  2.0148  0.6854 -0.6372
    4MPD2    H2   59   4.424   1.798  11.161 -0.8242  1.2403  0.4402
    4MPD2    H3   60   4.462   1.625  11.014  1.8112  0.6315  1.1209
    4MPD2     N   61   4.375   1.879  10.648  0.1064  0.1534 -0.0188
    4MPD2    H5   62   4.350   1.975  10.627  1.5159  0.3722 -0.7018
    4MPD2    N1   63   4.338   2.064  11.078 -0.4426 -0.9413 -0.0293
    4MPD2    H7   64   4.304   2.145  11.027 -1.1041 -0.2973  1.4525
    5TCq1    O1   65   3.869   3.521  11.659 -0.4770 -0.0613 -0.1438
    5TCq1    C1   66   3.943   3.468  11.560  0.2219  0.1213 -0.0186
    5TCq1    O2   67   3.895   3.409  11.462 -0.5000  0.0871  0.3035
    5TCq1    C2   68   4.070   3.446  11.604  0.6173 -0.8242  0.5000
    5TCq1    C3   69   4.108   3.437  11.741  0.1229  0.1030  0.3482
    5TCq1    C4   70   4.230   3.387  11.779 -0.4435 -0.9463 -0.6264
    5TCq1    C5   71   4.316   3.335  11.682 -0.2003 -0.3600 -0.0509
    5TCq1    C6   72   4.270   3.328  11.552  0.2004 -0.1836  0.4482
    5TCq1    C7   73   4.151   3.379  11.516 -0.7914 -0.1859  0.7051
    5TCq1    C8   74   4.337   3.244  11.459  0.8125  0.1146  0.7766
    5TCq1    O4   75   4.456   3.226  11.489  0.0773 -0.3567  0.2174
    5TCq1    C9   76   4.261   3.402  11.916  0.6875 -0.0203  0.3991
    5TCq1    O5   77   4.175   3.459  11.995 -0.0759  0.2006 -1.5249
    5TCq1    O6   78   4.379   3.374  11.945  0.5101 -0.1503  0.0531
    5TCq1    H1   79   3.916   3.583  11.719 -0.7284  0.3724 -0.3916
    5TCq1    H2   80   4.049   3.487  11.817  0.8562  3.1280 -1.0386
    5TCq1    H3   81   4.412   3.294  11.713  0.3408  1.4525  0.6755
    5TCq1    H4   82   4.126   3.393  11.412 -1.2777 -0.9664  0.7130
    6MPD2     C   83   4.251   3.163  11.112  0.0992 -0.1414 -0.0425
    6MPD2    C1   84   4.327   3.154  11.226 -0.5863  0.2149 -0.7979
    6MPD2    C2   85   4.445   3.087  11.218 -0.4863 -0.0608  0.2970
    6MPD2    C3   86   4.484   3.017  11.104  0.4916  0.0821  0.5312
    6MPD2    C4   87   4.405   3.030  10.990 -0.2709 -0.5402 -0.5768
    6MPD2    C5   88   4.294   3.105  11.000  0.4731 -0.0220  0.4978
    6MPD2     H   89   4.509   3.068  11.304 -0.6252 -1.4577  0.0839
    6MPD2    H1   90   4.432   2.977  10.899 -1.2135 -1.8464 -0.1035
    6MPD2    H2   91   4.155   3.214  11.114  0.1289 -0.1650  1.9155
    6MPD2    H3   92   4.233   3.123  10.912 -0.3679  1.0183  1.2790
    6MPD2     N   93   4.601   2.934  11.111 -0.7817  0.3352 -0.1594
    6MPD2    H5   94   4.656   2.936  11.196 -0.2573 -0.1319 -0.4860
    6MPD2    N1   95   4.268   3.211  11.341  0.1512  0.5825 -0.5283
    6MPD2    H7   96   4.167   3.222  11.345  0.1172 -0.0503  0.2616
    7TCq1    O1   97   2.212   2.953  12.838  0.6919 -0.2318 -0.4192
    7TCq1    C1   98   2.142   2.913  12.948 -0.3642 -0.5803 -0.1579
    7TCq1    O2   99   2.052   2.830  12.963 -0.5721  0.7080 -0.8803
    7TCq1    C2  100   2.209   2.972  13.063 -0.3146 -0.6502 -0.5251
    7TCq1    C3  101   2.293   3.078  13.031  0.0505  0.4067 -0.1000
    7TCq1    C4  102   2.368   3.132  13.127  0.0469  1.0040  0.6305
    7TCq1    C5  103   2.374   3.078  13.253  0.2149  0.5202 -0.7625
    7TCq1    C6  104   2.280   2.984  13.283  0.4929  0.3387 -0.0773
    7TCq1    C7  105   2.198   2.928  13.189 -0.1484  1.1007 -0.5609
    7TCq1    C8  106   2.301   2.914  13.409  0.1119 -0.1573  0.7442
    7TCq1    O4  107   2.354   2.805  13.395  0.3050  0.6270 -0.5780
    7TCq1    C9  108   2.448   3.241  13.100 -0.2232 -0.3684 -0.6970
    7TCq1    O5  109   2.519   3.288  13.195  0.0411 -0.6583  0.5531
    7TCq1    O6  110   2.480   3.256  12.983 -0.0043  0.0738  0.2858
    7TCq1    H1  111   2.297   2.996  12.861 -0.0218  0.7071  0.4405
    7TCq1    H2  112   2.288   3.145  12.946  1.8457  0.2924 -0.3099
    7TCq1    H3  113   2.444   3.113  13.328  0.0010 -0.0330 -0.3038
    7TCq1    H4  114   2.133   2.844  13.214  1.1452 -0.1946 -1.5867
    8MPD2     C  115   2.288   2.898  13.921  0.0921  0.0022  0.5460
    8MPD2    C1  116   2.298   2.793  13.827  0.5653 -0.2247 -0.0389
    8MPD2    C2  117   2.299   2.827  13.693  0.8521  0.7915 -0.2017
    8MPD2    C3  118   2.294   2.961  13.649 -0.8271 -0.4414  0.3338
    8MPD2    C4  119   2.277   3.059  13.747 -0.1345 -0.3413  0.1394
    8MPD2    C5  120   2.283   3.026  13.878  0.3800  0.2120  0.1153
    8MPD2     H  121   2.333   2.747  13.628 -1.4002  0.2625 -0.7188
    8MPD2    H1  122   2.268   3.165  13.728  1.5271 -0.5964 -2.0222
    8MPD2    H2  123   2.291   2.888  14.028 -1.0986 -1.5697  0.4302
    8MPD2    H3  124   2.282   3.099  13.958  0.9755 -0.9971  1.2084
    8MPD2     N  125   2.285   2.999  13.513 -0.2587 -0.7787 -0.9308
    8MPD2    H5  126   2.257   3.094  13.490  0.0451 -0.4191  0.1878
    8MPD2    N1  127   2.299   2.667  13.876  0.9381 -0.5214  0.1585
    8MPD2    H7  128   2.289   2.666  13.977  1.7262  0.7661  0.2492
    9TCq1    O1  129   0.097   1.573  10.798 -0.1602 -0.6512  0.2059
    9TCq1    C1  130   0.097   1.651  10.688 -0.4596  0.6212 -0.2781
    9TCq1    O2  131   4.720   1.678  10.625  0.2369 -0.6117  0.2412
    9TCq1    C2  132   0.218   1.736  10.689  0.6340 -0.3652  0.6734
    9TCq1    C3  133   0.205   1.867  10.656  0.1310  0.2587  0.5434
    9TCq1    C4  134   0.305   1.956  10.685 -0.7077 -0.5385 -0.2211
    9TCq1    C5  135   0.416   1.904  10.746  0.0629  0.2432 -0.3780
    9TCq1    C6  136   0.424   1.773  10.771 -0.1189  0.3580  0.5164
    9TCq1    C7  137   0.329   1.680  10.745 -0.3862 -0.6357 -0.2281
    9TCq1    C8  138   0.540   1.735  10.855 -0.1778 -0.3079  0.4306
    9TCq1    O4  139   0.640   1.803  10.839 -0.2124 -0.2261  0.0720
    9TCq1    C9  140   0.299   2.094  10.650  0.1786 -0.6123 -0.7710
    9TCq1    O5  141   0.201   2.144  10.591  0.3580 -0.2087 -0.3844
    9TCq1    O6  142   0.407   2.155  10.674 -0.0569  0.3194 -0.1888
    9TCq1    H1  143   0.180   1.581  10.849 -0.4627  0.7369  0.4939
    9TCq1    H2  144   0.110   1.901  10.616  1.1946 -0.1490 -2.3382
    9TCq1    H3  145   0.501   1.968  10.766 -1.9564  2.0187  2.6744
    9TCq1    H4  146   0.337   1.573  10.765 -1.4773 -0.4521  1.2471
   10MPD2     C  147   0.750   1.615  11.025 -0.4829 -0.2285  0.4115
   10MPD2    C1  148   0.614   1.570  11.027 -0.1473  0.0011  0.6544
   10MPD2    C2  149   0.572   1.473  11.111  0.2744  0.4998 -0.3852
   10MPD2    C3  150   0.655   1.419  11.200  0.8138 -0.3675 -0.1084
   10MPD2    C4  151   0.780   1.481  11.219  0.2191 -0.1822  0.4833
   10MPD2    C5  152   0.831   1.562  11.122  0.5722  0.2433 -0.0117
   10MPD2     H  153   0.474   1.428  11.102  1.4908 -2.0836 -0.7596
   10MPD2    H1  154   0.853   1.460  11.296  0.1085  1.1841  0.9556
   10MPD2    H2  155   0.786   1.694  10.961  2.4400 -0.1075  2.2232
   10MPD2    H3  156   0.930   1.601  11.141  0.7696  0.7067 -1.9631
   10MPD2     N  157   0.629   1.323  11.297  0.4001  0.3958  0.2362
   10MPD2    H5  158   0.692   1.317  11.376  0.7588  0.2678 -0.0600
   10MPD2    N1  159   0.519   1.628  10.939  1.1376 -0.1613  0.0896
   10MPD2    H7  160   0.424   1.597  10.954  0.0261  2.8387 -0.6336
   11TCq1    O1  161   1.587   1.283  13.627 -0.3715  0.5704  0.3084
   11TCq1    C1  162   1.489   1.338  13.700 -0.3846 -0.2578 -0.0344
   11TCq1    O2  163   1.377   1.370  13.664 -0.5072 -0.7981  0.1569
   11TCq1    C2  164   1.535   1.375  13.834 -0.3759 -0.4534 -0.2485
   11TCq1    C3  165   1.616   1.292  13.901  0.0202 -0.3668  0.0648
   11TCq1    C4  166   1.652   1.329  14.031 -0.1088 -0.5100  0.9854
   11TCq1    C5  167   1.596   1.439  14.084 -0.7054 -0.0166  0.5701
   11TCq1    C6  168   1.512   1.519  14.021 -0.3400  0.3350  0.2244
   11TCq1    C7  169   1.477   1.482  13.893 -0.1203 -0.2375  0.0700
   11TCq1    C8  170   1.423   1.595  14.106 -0.5033  0.2284 -0.4790
   11TCq1    O4  171   1.480   1.649  14.200 -0.1104 -0.1301 -0.2524
   11TCq1    C9  172   1.721   1.241  14.118  0.1073 -0.4878  0.5218
   11TCq1    O5  173   1.717   1.268  14.242  0.1871 -0.1866 -0.5249
   11TCq1    O6  174   1.763   1.135  14.064  0.6953 -0.1180 -0.0636
   11TCq1    H1  175   1.678   1.301  13.659 -0.1410 -4.1475  2.2304
   11TCq1    H2  176   1.627   1.193  13.858  0.5379  0.1522 -1.0008
   11TCq1    H3  177   1.607   1.467  14.188 -1.6854 -0.5357  0.8137
   11TCq1    H4  178   1.402   1.534  13.834 -0.0905  1.5911  1.6383
   12MPD2     C  179   1.182   1.600  14.297  0.2121  0.0392 -0.1501
   12MPD2    C1  180   1.177   1.560  14.166  0.7238  0.2056  0.0554
   12MPD2    C2  181   1.065   1.502  14.110  0.1549 -0.2616  0.5841
   12MPD2    C3  182   0.956   1.473  14.186  0.6214  0.6074  0.5284
   12MPD2    C4  183   0.956   1.509  14.316  0.3474 -0.0541 -0.5178
   12MPD2    C5  184   1.064   1.572  14.372  0.4696  0.1085 -0.5833
   12MPD2     H  185   1.064   1.467  14.007  0.1985  1.2128  0.0866
   12MPD2    H1  186   0.878   1.478  14.385  0.2499  1.0180 -0.1540
   12MPD2    H2  187   1.275   1.634  14.341 -1.5935  2.8103  1.5522
   12MPD2    H3  188   1.073   1.596  14.478  0.5293  1.0215 -0.7994
   12MPD2     N  189   0.846   1.397  14.146  0.1861  0.0724  0.4711
   12MPD2    H5  190   0.781   1.367  14.218 -1.0871 -0.6898 -0.9898
   12MPD2    N1  191   1.291   1.560  14.081 -0.1912 -0.3988  0.3325
   12MPD2    H7  192   1.286   1.499  14.000 -4.1738  1.2182 -0.6279
   13TCq1    O1  193   4.546   1.278  10.960 -0.8425  0.9709 -0.2299
   13TCq1    C1  194   4.574   1.229  11.078 -1.0288  0.0764  0.0223
   13TCq1    O2  195   4.496   1.184  11.157 -0.2231  0.3829 -0.5490
   13TCq1    C2  196   4.703   1.266  11.129 -0.6396 -0.2409 -0.7600
   13TCq1    C3  197   0.051   1.360  11.072  0.1152 -0.0303  0.0171
   13TCq1    C4  198   0.147   1.424  11.149 -0.1185 -0.3391 -0.0034
   13TCq1    C5  199   0.181   1.371  11.268  0.5076  0.8018  0.2063
   13TCq1    C6  200   0.112   1.264  11.312 -0.0241 -0.6464  0.7326
   13TCq1    C7  201   0.003   1.207  11.249 -0.2883 -0.5042 -0.6724
   13TCq1    C8  202   0.146   1.223  11.445 -0.1715 -0.1228 -0.3601
   13TCq1    O4  203   0.216   1.299  11.512 -0.2854 -0.8290  0.1495
   13TCq1    C9  204   0.211   1.537  11.097  0.0032 -0.3691 -0.2296
   13TCq1    O5  205   0.180   1.646  11.152 -0.1185  0.1061 -0.4113
   13TCq1    O6  206   0.263   1.521  10.985 -0.2070  0.8932 -0.2258
   13TCq1    H1  207   4.619   1.267  10.896  1.0957 -1.5740  2.4570
   13TCq1    H2  208   0.013   1.417  10.988 -0.4922  2.0754  1.7213
   13TCq1    H3  209   0.282   1.387  11.305 -0.4848 -0.1875  3.4012
   13TCq1    H4  210   4.672   1.125  11.290  0.8701 -1.3362 -0.7223
   14MPD2     C  211   0.053   0.926  11.650  0.4233 -0.2571  0.4258
   14MPD2    C1  212   0.081   1.065  11.624 -0.0298  0.3914 -0.3211
   14MPD2    C2  213   0.083   1.159  11.729 -0.1377 -0.2635  0.4433
   14MPD2    C3  214   0.040   1.112  11.855 -0.3697  0.3011  0.7085
   14MPD2    C4  215   0.001   0.976  11.870  0.4966 -0.5489  0.0313
   14MPD2    C5  216   0.016   0.879  11.775 -0.0145 -0.3818 -0.1038
   14MPD2     H  217   0.088   1.267  11.717  0.7934 -0.2532  0.8900
   14MPD2    H1  218   4.708   0.942  11.971 -0.7463  0.6883  0.2197
   14MPD2    H2  219   0.037   0.854  11.570  1.6054  0.1556 -0.1726
   14MPD2    H3  220   0.004   0.774  11.796  2.8266 -0.7627 -0.3818
   14MPD2     N  221   0.025   1.211  11.951 -0.0501 -0.3829 -0.4373
   14MPD2    H5  222   0.065   1.300  11.922 -2.4298  1.2223  1.1997
   14MPD2    N1  223   0.093   1.098  11.485 -0.3757 -0.2704  0.2512
   14MPD2    H7  224   0.061   1.033  11.414  1.3862 -0.1785 -0.6199
   15TCq1    O1  225   0.614   0.026   2.033 -0.6039 -0.2310  0.2623
   15TCq1    C1  226   0.675   4.694   2.131  0.3305  0.3049  0.3741
   15TCq1    O2  227   0.627   4.678   2.244 -0.1552  0.2832  0.1046
   15TCq1    C2  228   0.816   4.685   2.092  0.6344  0.3184  0.0449
   15TCq1    C3  229   0.904   4.697   2.197  0.4458 -0.4574  0.4633
   15TCq1    C4  230   1.040   4.696   2.168  0.5598 -0.1753  0.5722
   15TCq1    C5  231   1.092   4.668   2.047 -0.2848 -0.4574  0.1807
   15TCq1    C6  232   0.997   4.658   1.947 -0.1048  0.0723  1.0741
   15TCq1    C7  233   0.858   4.656   1.966  0.1627 -0.0841 -0.2339
   15TCq1    C8  234   1.048   4.606   1.818  0.0078 -0.9212  0.2835
   15TCq1    O4  235   1.165   4.564   1.816 -0.2842  0.2062  0.0708
   15TCq1    C9  236   1.141   4.706   2.272  0.0063 -0.0177  0.6054
   15TCq1    O5  237   1.111   4.668   2.388  0.2620  0.0703  0.9932
   15TCq1    O6  238   1.258   4.726   2.232 -0.4259  0.0844 -0.0944
   15TCq1    H1  239   0.676   0.046   1.960  0.3920 -1.2530  0.8055
   15TCq1    H2  240   0.862   0.006   2.291  0.9106 -0.4458  0.6676
   15TCq1    H3  241   1.194   4.635   2.032 -0.3034 -0.5175  0.1834
   15TCq1    H4  242   0.790   4.624   1.888  1.8045 -1.3847 -1.1419
   16MPD2     C  243   0.850   4.585   1.515  0.6009 -0.2214  0.3255
   16MPD2    C1  244   0.972   4.590   1.581 -0.3758  0.1959  0.6779
   16MPD2    C2  245   1.090   4.549   1.531 -0.3032  0.2958 -0.0589
   16MPD2    C3  246   1.081   4.504   1.402 -0.3621 -0.0544  0.6246
   16MPD2    C4  247   0.966   4.490   1.329 -1.1634 -0.1063 -0.5022
   16MPD2    C5  248   0.847   4.530   1.390  0.0270  0.0285  0.0970
   16MPD2     H  249   1.178   4.561   1.592  0.4816 -0.6520 -1.0156
   16MPD2    H1  250   0.958   4.444   1.231 -0.9881  2.0575 -1.5205
   16MPD2    H2  251   0.760   4.627   1.557  0.0902 -0.9802  0.0009
   16MPD2    H3  252   0.755   4.524   1.333  0.6109 -0.9936 -0.7180
   16MPD2     N  253   1.200   4.438   1.360 -0.8745 -0.2925 -0.2489
   16MPD2    H5  254   1.275   4.460   1.424 -0.1561  1.5247 -1.6977
   16MPD2    N1  255   0.957   4.632   1.719 -0.3310  0.5731 -0.7422
   16MPD2    H7  256   0.876   4.688   1.744 -1.3648 -0.5352 -1.5556
   17TCq1    O1  257   0.372   4.626  11.981 -0.1034  0.4438 -0.1709
   17TCq1    C1  258   0.395   0.021  12.036  0.6872 -0.8783 -0.2088
   17TCq1    O2  259   0.389   0.045  12.153 -0.2161 -0.1492  0.1914
   17TCq1    C2  260   0.392   0.118  11.928  0.6494 -0.6763  0.3981
   17TCq1    C3  261   0.322   0.086  11.816  0.4724  0.0681 -0.2309
   17TCq1    C4  262   0.358   0.157  11.710  0.4880 -0.1162 -0.2671
   17TCq1    C5  263   0.457   0.247  11.705  0.4105  0.0956  0.0040
   17TCq1    C6  264   0.523   0.285  11.815 -0.1823 -0.0941  0.1648
   17TCq1    C7  265   0.481   0.221  11.930 -0.1624 -0.1652  0.7027
   17TCq1    C8  266   0.597   0.409  11.830 -0.4792  0.1922 -0.1891
   17TCq1    O4  267   0.638   0.437  11.939 -0.1833 -0.2839  0.3158
   17TCq1    C9  268   0.293   0.123  11.582  0.2191  0.0039 -0.1586
   17TCq1    O5  269   0.309   0.200  11.483  0.0987  0.1053  0.8708
   17TCq1    O6  270   0.209   0.024  11.576  0.7015 -0.0926  0.0534
   17TCq1    H1  271   0.387   4.626  11.884  3.8071  1.5397  0.4380
   17TCq1    H2  272   0.252   0.003  11.813 -0.1619  0.6730 -2.0748
   17TCq1    H3  273   0.464   0.300  11.610 -0.6767  0.2318 -0.0059
   17TCq1    H4  274   0.541   0.214  12.020 -1.3303  2.1973  1.6555
   18MPD2     C  275   0.692   0.689  11.795 -0.5390 -0.4719 -0.3000
   18MPD2    C1  276   0.670   0.601  11.686 -0.0126  1.0504  0.3008
   18MPD2    C2  277   0.688   0.641  11.554 -0.3743  0.0537  0.5732
   18MPD2    C3  278   0.738   0.770  11.533  0.0775  0.5441  0.4586
   18MPD2    C4  279   0.759   0.853  11.639 -0.6279  0.5003  0.9569
   18MPD2    C5  280   0.734   0.812  11.767 -0.6076  0.5385 -0.1189
   18MPD2     H  281   0.655   0.574  11.475  0.0944 -0.7898  1.0951
   18MPD2    H1  282   0.798   0.953  11.629  2.9566 -1.0795 -0.7486
   18MPD2    H2  283   0.678   0.658  11.898 -0.0330 -0.5304 -0.2473
   18MPD2    H3  284   0.756   0.877  11.851  3.5082  0.7787 -1.4193
   18MPD2     N  285   0.779   0.809  11.406 -1.0944  0.0202 -0.2272
   18MPD2    H5  286   0.824   0.899  11.388  0.8640 -0.4691  2.2255
   18MPD2    N1  287   0.618   0.475  11.708 -0.2485 -0.2963  0.3723
   18MPD2    H7  288   0.567   0.430  11.632  0.6207 -0.1522 -0.2897
   19TMC2    C1  289   2.098   0.827  14.366  0.5297 -0.1526 -0.4343
   19TMC2    C2  290   2.091   0.952  14.422 -0.1859  0.5324  0.2474
   19TMC2    C3  291   1.983   1.024  14.401  0.4385  0.2746 -0.3271
   19TMC2    C4  292   1.999   0.783  14.282 -0.4322 -0.5085 -0.3856
   19TMC2    C5  293   1.885   0.858  14.271 -0.0720 -0.1900 -0.1773
   19TMC2    C6  294   1.878   0.985  14.328 -0.1168  0.2373 -0.1577
   19TMC2     C  295   2.199   0.726  14.410 -1.0043  0.6158 -0.7342
   19TMC2     O  296   2.238   0.646  14.325 -0.4191  0.2715 -0.0592
   19TMC2     H  297   2.170   0.970  14.495 -2.8639 -0.3103  3.3585
   19TMC2    H1  298   2.009   0.685  14.235 -0.8239 -0.4485 -0.5890
   19TMC2    H2  299   1.788   1.045  14.323  0.1861  0.6459 -0.7492
   19TMC2    C7  300   1.765   0.801  14.206  0.9949 -0.1103  0.1036
   19TMC2    C8  301   1.968   1.144  14.487  0.0079  0.1309  0.3440
   19TMC2    O1  302   1.771   0.680  14.200  0.1605 -0.2707 -0.3343
   19TMC2    O2  303   2.022   1.150  14.592 -0.1546 -0.5682  0.1470
   19TMC2    O5  304   1.877   1.233  14.441  0.4218 -0.1824  0.2275
   19TMC2    H5  305   1.835   1.228  14.353  0.8026  0.5234  0.0038
   20MPD2     C  306   2.386   0.544  14.557  0.4423 -0.3094 -0.4274
   20MPD2    C1  307   2.309   0.640  14.617 -0.9224  0.0492  0.0804
   20MPD2    C2  308   2.325   0.667  14.754 -0.3111 -0.1232  0.1859
   20MPD2    C3  309   2.407   0.580  14.824  0.8491 -0.7036 -0.4619
   20MPD2    C4  310   2.473   0.479  14.761  0.9692  0.8995 -0.1879
   20MPD2    C5  311   2.464   0.456  14.631  0.0869  0.0218  0.5349
   20MPD2     H  312   2.284   0.757  14.798  0.3819 -0.1958  0.9863
   20MPD2    H1  313   2.531   0.415  14.826  0.6789 -0.3312 -1.1494
   20MPD2    H2  314   2.387   0.527  14.450  0.2792  0.9051 -0.6269
   20MPD2    H3  315   2.520   0.375  14.587 -0.2825  0.8057 -1.3934
   20MPD2     N  316   2.421   0.584  14.962  0.6283 -0.3160 -0.2569
   20MPD2    H5  317   2.489   0.519  15.000  1.9995  0.8427 -0.7333
   20MPD2    N1  318   2.230   0.734  14.542 -0.1603 -0.0024  0.0070
   20MPD2    H7  319   2.176   0.805  14.591  0.9856 -0.0364  1.2953
   21MPD2     C  320   4.051   1.780  14.457  0.5010  0.5375 -0.0155
   21MPD2    C1  321   4.135   1.705  14.539 -0.5031 -0.3773 -0.1167
   21MPD2    C2  322   4.104   1.692  14.675  0.1051  0.2873  0.7175
   21MPD2    C3  323   3.999   1.767  14.722  0.6546 -0.0976 -0.1040
   21MPD2    C4  324   3.939   1.860  14.644  0.3061  0.0207  0.6359
   21MPD2    C5  325   3.958   1.857  14.509 -0.7347 -0.1067  0.3243
   21MPD2     H  326   4.156   1.616  14.733 -0.7044 -0.7686  0.0537
   21MPD2    H1  327   3.862   1.928  14.680 -0.6802 -0.3191 -0.8133
   21MPD2    H2  328   4.059   1.773  14.349 -0.6217 -1.2398  0.0328
   21MPD2    H3  329   3.900   1.927  14.450  1.7480  1.8063  0.1193
   21MPD2     N  330   3.946   1.751  14.853  0.5813  0.6244 -0.6740
   21MPD2    H5  331   3.853   1.790  14.870  0.3090 -0.2994 -0.0329
   21MPD2    N1  332   4.247   1.625  14.494  0.3369 -0.5205 -0.3781
   21MPD2    H7  333   4.321   1.604  14.560  0.7652 -0.3863 -0.8119
   22TCq2    C1  334   4.003   1.678  14.951  0.2024  0.2662  0.0773
   22TCq2    O2  335   4.119   1.646  14.951 -0.2181  0.0472  0.6188
   22TCq2    C2  336   3.916   1.635  15.046  0.0997  0.2248  0.1874
   22TCq2    C3  337   3.967   1.542  15.132 -0.3968 -0.6562  0.6513
   22TCq2    C4  338   3.883   1.473  15.216  0.3196 -0.4028 -0.3784
   22TCq2    C5  339   3.750   1.495  15.217  0.1867 -0.2847  0.1438
   22TCq2    C6  340   3.701   1.585  15.124 -0.7691 -0.0250 -0.3715
   22TCq2    C7  341   3.781   1.644  15.029 -0.0425 -0.1515  0.5591
   22TCq2    C8  342   3.558   1.575  15.097  0.2379  0.5215 -0.2335
   22TCq2    O4  343   3.497   1.477  15.139 -0.0866  0.0197 -0.3273
   22TCq2    C9  344   3.938   1.385  15.314 -0.6310 -0.1325 -0.2189
   22TCq2    O5  345   3.867   1.367  15.414 -0.1601 -0.7027  0.0056
   22TCq2    O6  346   4.021   1.307  15.259 -0.2812  0.5447  0.1469
   22TCq2    H2  347   4.074   1.528  15.133 -0.4708 -1.3353 -0.4188
   22TCq2    H3  348   3.688   1.446  15.290  1.6413 -0.8403  1.0162
   22TCq2    H4  349   3.743   1.700  14.945  0.5755  1.7946  1.5690
   23MPD2     C  350   1.154   2.624  14.855 -0.1715  0.9251 -0.4699
   23MPD2    C1  351   1.060   2.590  14.949  0.2866  0.1808 -0.2440
   23MPD2    C2  352   0.924   2.623  14.929  0.4266  0.1150 -0.2320
   23MPD2    C3  353   0.893   2.699  14.819  0.3118  0.3376 -0.0658
   23MPD2    C4  354   0.988   2.744  14.733 -0.2455  1.1701  0.2090
   23MPD2    C5  355   1.122   2.699  14.747 -0.0405 -0.6570 -0.0988
   23MPD2     H  356   0.851   2.578  14.995  1.6110  0.0819  1.0807
   23MPD2    H1  357   0.968   2.800  14.643  1.1640 -0.1343 -0.9169
   23MPD2    H2  358   1.259   2.598  14.864 -0.4275  0.9096  2.3104
   23MPD2    H3  359   1.202   2.736  14.684  0.3249 -4.2538 -1.7569
   23MPD2     N  360   0.759   2.711  14.775  0.2141  0.2093  0.1715
   23MPD2    H5  361   0.738   2.771  14.696 -0.1687 -1.8722 -1.3071
   23MPD2    N1  362   1.084   2.532  15.076  0.5377 -0.2115 -0.1172
   23MPD2    H7  363   1.010   2.537  15.146 -1.3127 -1.7397 -1.9463
   24TCq2    C1  364   0.655   2.629  14.815  0.6681 -0.1254  0.1751
   24TCq2    O2  365   0.652   2.530  14.886 -0.5847  0.2225  0.5071
   24TCq2    C2  366   0.532   2.685  14.760 -0.1678 -0.4884  0.3583
   24TCq2    C3  367   0.531   2.817  14.726 -0.4278 -0.2222  0.1442
   24TCq2    C4  368   0.404   2.857  14.680 -0.1016  0.0304 -0.4060
   24TCq2    C5  369   0.293   2.784  14.663  0.3314  0.2981 -0.5565
   24TCq2    C6  370   0.308   2.648  14.706 -0.4912  0.9903 -0.5037
   24TCq2    C7  371   0.423   2.597  14.758 -0.0405 -0.3033 -0.4809
   24TCq2    C8  372   0.201   2.552  14.676 -0.5908  0.1724 -0.2288
   24TCq2    O4  373   0.226   2.433  14.691  0.3275  0.0910 -0.2351
   24TCq2    C9  374   0.385   2.995  14.666 -0.3778  0.0534 -0.2567
   24TCq2    O5  375   0.463   3.068  14.735 -0.5352  0.1219 -0.9795
   24TCq2    O6  376   0.269   3.041  14.645  0.0205  0.1230 -0.0090
   24TCq2    H2  377   0.601   2.894  14.756 -1.0192  0.2668  0.2734
   24TCq2    H3  378   0.208   2.828  14.611 -1.4751  1.6288  3.5839
   24TCq2    H4  379   0.425   2.492  14.785  0.6400  0.2577  1.6475
   25TMC2    C1  380   4.292   0.216  11.848 -0.3761  0.1123  0.5336
   25TMC2    C2  381   4.391   0.308  11.879  0.4523  0.3114 -0.1983
   25TMC2    C3  382   4.395   0.350  12.009  0.1587 -0.4029 -0.1547
   25TMC2    C4  383   4.181   0.187  11.926  0.0793 -0.1062  0.8618
   25TMC2    C5  384   4.186   0.232  12.054 -0.0502 -0.7644  0.0738
   25TMC2    C6  385   4.289   0.321  12.092 -0.2269  0.4999 -0.0660
   25TMC2     C  386   4.305   0.150  11.719  0.6878 -0.3693  0.5960
   25TMC2     O  387   4.385   0.204  11.641  0.3677 -0.2519  0.4976
   25TMC2     H  388   4.481   0.320  11.820  0.3578  0.0048 -0.4044
   25TMC2    H1  389   4.109   0.116  11.886 -0.1485 -0.0188  1.1223
   25TMC2    H2  390   4.305   0.350  12.195  0.4496  0.4386 -0.1503
   25TMC2    C7  391   4.077   0.214  12.148  0.1800  0.5875 -0.3992
   25TMC2    C8  392   4.480   0.466  12.047  0.5468  0.4399 -0.9623
   25TMC2    O1  393   4.069   0.289  12.245 -0.0546  0.1209 -0.1527
   25TMC2    O2  394   4.426   0.566  12.089  0.0274 -0.5412  0.8839
   25TMC2    O5  395   4.590   0.460  11.967  0.3175  0.2182 -0.0044
   25TMC2    H5  396   4.624   0.368  11.970 -1.7256 -0.5449 -0.4096
   26MPD2     C  397   4.202   4.515  11.373  0.2933 -0.0003  0.4177
   26MPD2    C1  398   4.146   4.477  11.491 -0.6615  0.2234 -0.4511
   26MPD2    C2  399   4.165   4.561  11.597  1.0363 -0.3921 -0.1279
   26MPD2    C3  400   4.231   4.682  11.583 -0.1432  0.1580 -0.3643
   26MPD2    C4  401   4.287   4.719  11.463 -0.5325  0.0096 -0.0171
   26MPD2    C5  402   4.273   4.630  11.358 -0.0673  0.2620 -0.0069
   26MPD2     H  403   4.134   4.530  11.696 -1.2108  1.9370 -0.0866
   26MPD2    H1  404   4.344   0.080  11.438 -0.6932  0.0934 -0.0928
   26MPD2    H2  405   4.191   4.455  11.283  1.4831 -0.6655  0.7033
   26MPD2    H3  406   4.328   4.646  11.266 -0.0414 -1.0340 -0.2076
   26MPD2     N  407   4.236   0.034  11.702  0.2210  0.7938 -0.2965
   26MPD2    H5  408   4.186   4.722  11.782 -0.2911 -1.0609 -1.5032
   26MPD2    N1  409   4.081   4.353  11.500  0.6978 -0.9855  0.5312
   26MPD2    H7  410   4.091   4.297  11.416 -0.8367 -0.6246  0.1104
   27TMC2    C1  411   3.147   2.463  12.178  0.1365 -0.4550 -0.4502
   27TMC2    C2  412   3.055   2.508  12.087 -0.4223 -0.9432  0.2257
   27TMC2    C3  413   2.993   2.628  12.111 -0.6137  0.0566  0.4274
   27TMC2    C4  414   3.187   2.553  12.277 -0.0573 -0.1958 -0.0498
   27TMC2    C5  415   3.103   2.660  12.311 -0.0527 -0.2116 -0.6106
   27TMC2    C6  416   3.000   2.695  12.222  0.5753  0.6749 -0.5573
   27TMC2     C  417   3.110   2.332  12.236  0.4079 -0.6336 -0.3938
   27TMC2     O  418   3.076   2.239  12.164 -0.8185 -0.1670 -0.3729
   27TMC2     H  419   3.034   2.447  12.000 -1.3876 -2.2732  1.3754
   27TMC2    H1  420   3.277   2.534  12.335 -0.8136 -0.0336  1.1607
   27TMC2    H2  421   2.931   2.773  12.249  0.2964  0.1912  0.1324
   27TMC2    C7  422   3.099   2.676  12.452  1.2050  0.3697  0.0108
   27TMC2    C8  423   2.879   2.642  12.022  0.7053 -0.7276 -0.8953
   27TMC2    O1  424   3.145   2.584  12.519  0.1519  0.2139 -0.0024
   27TMC2    O2  425   2.812   2.546  11.985  0.2476  0.2755  0.3629
   27TMC2    O5  426   2.856   2.770  12.007  0.1732 -0.6807  0.2740
   27TMC2    H5  427   2.923   2.832  12.044 -0.3142 -0.1642  0.2871
   28MPD2     C  428   3.002   2.029  12.639  0.2725  0.4699 -0.1789
   28MPD2    C1  429   2.985   2.163  12.670  0.3030  0.6016  0.4110
   28MPD2    C2  430   3.029   2.259  12.580  0.1395  0.6010  0.0418
   28MPD2    C3  431   3.079   2.228  12.458 -0.2294  0.4850 -0.4129
   28MPD2    C4  432   3.095   2.096  12.428  0.8365 -0.1098 -0.1923
   28MPD2    C5  433   3.067   1.997  12.523  0.3982  0.2100  0.0850
   28MPD2     H  434   3.012   2.363  12.606 -2.0552  0.2976 -0.1299
   28MPD2    H1  435   3.140   2.071  12.333 -2.5318  0.9831 -2.0529
   28MPD2    H2  436   2.991   1.953  12.715 -1.4854  2.1841  1.2550
   28MPD2    H3  437   3.113   1.903  12.497 -0.4381 -0.0096 -0.5958
   28MPD2     N  438   3.109   2.338  12.372  0.2535 -0.0305  0.0460
   28MPD2    H5  439   3.123   2.429  12.413  0.8942  0.3685 -1.0767
   28MPD2    N1  440   2.911   2.188  12.790 -0.5063  0.1014 -0.1453
   28MPD2    H7  441   2.870   2.105  12.833 -0.0290  0.2581  0.6092
   29MPD2     C  442   2.398   4.493  14.519  0.1463  0.7026 -0.1498
   29MPD2    C1  443   2.533   4.469  14.527  0.0955 -0.0606  0.0913
   29MPD2    C2  444   2.615   4.563  14.585 -0.3333 -0.1678 -0.1550
   29MPD2    C3  445   2.567   4.671  14.650 -0.2570  0.1739 -0.5288
   29MPD2    C4  446   2.429   4.688  14.648  0.1916  0.6115 -0.0306
   29MPD2    C5  447   2.348   4.607  14.575  1.1185 -0.3608  0.1698
   29MPD2     H  448   2.718   4.529  14.592 -0.2815  0.2942  1.2296
   29MPD2    H1  449   2.400   0.055  14.695  0.2345  1.2563 -1.2923
   29MPD2    H2  450   2.331   4.429  14.462  0.0416  0.3490  0.3620
   29MPD2    H3  451   2.243   4.629  14.567  1.2698  0.1359 -0.4313
   29MPD2     N  452   2.638   0.047  14.711  0.1754  0.3364 -0.4712
   29MPD2    H5  453   2.584   0.119  14.759 -2.4775 -1.1552 -1.2362
   29MPD2    N1  454   2.603   4.356  14.471  0.1915  0.1122  0.9100
   29MPD2    H7  455   2.698   4.360  14.504 -0.0563 -2.9415  2.0229
   30TCq2    C1  456   2.771   0.076  14.687  1.1537 -0.9623 -0.2674
   30TCq2    O2  457   2.846   0.036  14.598 -0.5268  0.1027  0.0302
   30TCq2    C2  458   2.798   0.203  14.751 -0.5745 -1.0713  0.1264
   30TCq2    C3  459   2.729   0.251  14.858  0.5734 -0.0721 -0.3931
   30TCq2    C4  460   2.778   0.361  14.920 -0.3970  0.7803  0.2748
   30TCq2    C5  461   2.874   0.439  14.870 -0.4870 -0.1561  0.4628
   30TCq2    C6  462   2.935   0.393  14.752  0.6684 -0.0009  0.3221
   30TCq2    C7  463   2.896   0.281  14.688 -0.5066  0.3603 -0.8964
   30TCq2    C8  464   3.043   0.465  14.686  0.4564  0.3566  0.4168
   30TCq2    O4  465   3.045   0.469  14.567 -0.1244 -0.3306 -0.2735
   30TCq2    C9  466   2.714   0.407  15.044  0.3072  0.9496 -0.0925
   30TCq2    O5  467   2.762   0.503  15.107  0.3895 -0.2295 -0.3088
   30TCq2    O6  468   2.598   0.365  15.072 -0.9154  0.7544  0.3557
   30TCq2    H2  469   2.668   0.182  14.915 -1.1613  0.3779 -1.7023
   30TCq2    H3  470   2.893   0.540  14.906  1.9285 -0.0199 -1.1729
   30TCq2    H4  471   2.930   0.256  14.588  1.7023  1.7756 -0.4800
   31MPD2     C  472   1.100   3.078  15.114  0.6780  0.1756 -0.3514
   31MPD2    C1  473   0.963   3.074  15.090 -0.0454 -0.0810  0.5313
   31MPD2    C2  474   0.881   2.986  15.161  0.1308  0.1507  1.2998
   31MPD2    C3  475   0.933   2.902  15.262  0.7869 -0.7345  0.0374
   31MPD2    C4  476   1.064   2.917  15.294 -0.2433 -0.3701 -0.2609
   31MPD2    C5  477   1.147   3.001  15.223  0.2426  0.1294 -0.5121
   31MPD2     H  478   0.774   3.001  15.154  0.5120  1.8379 -1.0220
   31MPD2    H1  479   1.110   2.877  15.384  2.5525  3.9743  0.2259
   31MPD2    H2  480   1.169   3.141  15.059 -0.6140  0.4215 -1.6697
   31MPD2    H3  481   1.247   3.026  15.254  1.5553 -1.7515 -3.2398
   31MPD2     N  482   0.842   2.822  15.350 -0.5643  0.0702  0.3232
   31MPD2    H5  483   0.896   2.757  15.408  2.2543  2.4438  0.3605
   31MPD2    N1  484   0.910   3.165  14.994  0.2373  0.0704  0.2120
   31MPD2    H7  485   0.980   3.225  14.952 -0.4666 -0.8791 -2.3354
   32TCq2    C1  486   0.706   2.831  15.348 -0.0743  0.1366 -0.3914
   32TCq2    O2  487   0.636   2.913  15.295  0.6847  0.1886  0.2758
   32TCq2    C2  488   0.636   2.757  15.453  0.5128  0.6815  0.1622
   32TCq2    C3  489   0.501   2.747  15.445  0.4157  0.3590 -0.0945
   32TCq2    C4  490   0.420   2.710  15.548 -0.0817 -0.8557 -0.6694
   32TCq2    C5  491   0.483   2.672  15.668  0.6813 -0.3415 -0.0230
   32TCq2    C6  492   0.616   2.695  15.685  0.4881  0.0935 -0.1598
   32TCq2    C7  493   0.692   2.730  15.578 -0.6826 -0.1474 -0.6253
   32TCq2    C8  494   0.675   2.701  15.816  0.2503  0.4487  0.2291
   32TCq2    O4  495   0.781   2.644  15.822 -0.1760  0.6008 -0.3721
   32TCq2    C9  496   0.278   2.714  15.543 -0.3718 -0.1847 -0.8069
   32TCq2    O5  497   0.231   2.782  15.445  0.2505 -0.1353  0.1090
   32TCq2    O6  498   0.212   2.696  15.645  0.7891  0.7472 -0.1715
   32TCq2    H2  499   0.461   2.765  15.346 -0.9813 -1.2964  0.1742
   32TCq2    H3  500   0.418   2.637  15.747 -1.2064 -0.1065 -1.4536
   32TCq2    H4  501   0.795   2.758  15.595 -0.3818  0.0234 -2.6915
   33MPD2     C  502   0.977   1.377  10.816 -1.0353 -0.2346  0.8440
   33MPD2    C1  503   0.868   1.303  10.848  0.2747 -0.1300  0.0108
   33MPD2    C2  504   0.754   1.325  10.773 -0.0471  0.0907 -0.1608
   33MPD2    C3  505   0.754   1.419  10.669 -0.2816  0.3088 -0.6803
   33MPD2    C4  506   0.867   1.495  10.642  0.1201  0.0837  0.6445
   33MPD2    C5  507   0.983   1.473  10.715  0.1269  0.1128 -0.4468
   33MPD2     H  508   0.669   1.258  10.777 -1.4174  1.8541  0.4594
   33MPD2    H1  509   0.881   1.569  10.563  0.3862 -1.8919 -1.1584
   33MPD2    H2  510   1.070   1.359  10.870 -0.1019  0.1081 -0.6499
   33MPD2    H3  511   1.067   1.537  10.692  1.3628 -0.1808  3.1292
   33MPD2     N  512   0.641   1.452  10.582  0.1473  0.1853  0.0854
   33MPD2    H5  513   0.648   1.530  10.518 -2.2558  2.1504  2.1770
   33MPD2    N1  514   0.894   1.200  10.944 -0.4544 -0.8835 -0.2428
   33MPD2    H7  515   0.991   1.197  10.973 -0.3050 -1.4769 -0.8214
   34TCq2    C1  516   0.510   1.408  10.595 -0.5119 -0.1149 -0.7476
   34TCq2    O2  517   0.456   1.331  10.673  1.1624  0.4983 -0.3814
   34TCq2    C2  518   0.425   1.466  10.492  0.6636  0.4931 -0.3698
   34TCq2    C3  519   0.294   1.427  10.487 -0.5577 -0.0893 -0.8489
   34TCq2    C4  520   0.214   1.503  10.409 -1.2149  0.4049  0.3345
   34TCq2    C5  521   0.254   1.603  10.325 -0.1020 -0.4000 -0.5443
   34TCq2    C6  522   0.386   1.641  10.331  0.3802  0.4235  0.0763
   34TCq2    C7  523   0.473   1.573  10.419  0.4545  0.1792 -0.5945
   34TCq2    C8  524   0.434   1.759  10.272  0.2697 -0.5454  1.6624
   34TCq2    O4  525   0.530   1.813  10.319 -0.5942 -0.3993  0.0685
   34TCq2    C9  526   0.069   1.466  10.403  0.0531  0.5215  0.2919
   34TCq2    O5  527   4.713   1.548  10.355 -0.1292  0.4992  0.1370
   34TCq2    O6  528   0.028   1.396  10.499 -0.6381  0.7696  0.1212
   34TCq2    H2  529   0.260   1.347  10.551  0.1704 -1.2488 -1.8881
   34TCq2    H3  530   0.177   1.636  10.256 -1.2339 -2.1426 -0.0966
   34TCq2    H4  531   0.577   1.600  10.409  1.0715 -2.8079 -2.1528
   35MPD2     C  532   2.642   2.979  12.071  0.4608  0.3334 -0.3257
   35MPD2    C1  533   2.564   2.876  12.101  0.5051  0.8426 -0.7190
   35MPD2    C2  534   2.495   2.806  12.001  0.0637  0.4515  0.1706
   35MPD2    C3  535   2.505   2.845  11.868 -0.0069  0.5724  0.8407
   35MPD2    C4  536   2.588   2.948  11.833 -0.8223 -0.3270 -0.3105
   35MPD2    C5  537   2.649   3.017  11.935 -0.1074  0.2525  0.2504
   35MPD2     H  538   2.440   2.716  12.024  0.4135  0.6396  1.7432
   35MPD2    H1  539   2.603   2.986  11.733  0.0227 -1.4577 -0.6152
   35MPD2    H2  540   2.708   3.029  12.140 -1.4182  0.2215  1.5475
   35MPD2    H3  541   2.716   3.100  11.915 -1.3576  1.5350  1.3655
   35MPD2     N  542   2.416   2.773  11.780  0.1285  0.0403 -0.0046
   35MPD2    H5  543   2.356   2.702  11.819  0.9547 -0.2958  0.6767
   35MPD2    N1  544   2.558   2.832  12.235  0.0238 -0.0004 -0.5275
   35MPD2    H7  545   2.478   2.773  12.255  0.6352 -0.1646  1.3923
   36TCq2    C1  546   2.418   2.785  11.646  0.2978  1.4440 -0.2884
   36TCq2    O2  547   2.480   2.868  11.581  0.5564  0.2165 -0.1847
   36TCq2    C2  548   2.333   2.679  11.581  0.2994  0.7305  0.3625
   36TCq2    C3  549   2.272   2.708  11.465 -0.2347  0.3328 -0.8251
   36TCq2    C4  550   2.175   2.626  11.415  0.0149  0.1215  0.2725
   36TCq2    C5  551   2.144   2.511  11.480  0.6419 -0.1933 -0.4503
   36TCq2    C6  552   2.205   2.477  11.595  0.5472  0.3676  1.0007
   36TCq2    C7  553   2.296   2.562  11.645  0.5854  0.0058  0.1329
   36TCq2    C8  554   2.135   2.378  11.687 -0.3169  0.3048 -0.3093
   36TCq2    O4  555   2.024   2.333  11.659 -0.4160  0.2968  0.0238
   36TCq2    C9  556   2.103   2.663  11.301 -0.4718  0.5808 -0.2883
   36TCq2    O5  557   2.129   2.775  11.249 -0.3878 -0.0423 -0.0735
   36TCq2    O6  558   2.001   2.592  11.268  0.0429  0.0542 -0.2588
   36TCq2    H2  559   2.302   2.795  11.407  0.5675  1.6705  1.5843
   36TCq2    H3  560   2.067   2.443  11.445 -0.7199  0.3339  1.5372
   36TCq2    H4  561   2.331   2.542  11.745  1.6448  0.0567 -0.2255
   37TMC2    C1  562   4.002   2.857  11.458  0.1695  0.0011 -0.0801
   37TMC2    C2  563   3.973   2.868  11.323  0.4569 -0.8680  0.1511
   37TMC2    C3  564   4.072   2.851  11.232  0.1515 -0.3424 -0.4501
   37TMC2    C4  565   4.133   2.837  11.496  0.1921 -0.0333 -0.0139
   37TMC2    C5  566   4.230   2.832  11.404  0.1481  0.3726  0.4041
   37TMC2    C6  567   4.207   2.848  11.269 -0.3127  0.4379 -0.2805
   37TMC2     C  568   3.894   2.829  11.555  0.2300  0.3534 -0.7573
   37TMC2     O  569   3.784   2.868  11.519  0.3532 -0.1012  0.3516
   37TMC2     H  570   3.870   2.867  11.289  0.8555 -0.1965 -1.0390
   37TMC2    H1  571   4.162   2.822  11.599 -1.2419 -0.4785  0.3302
   37TMC2    H2  572   4.287   2.848  11.196  2.6096 -0.0934  2.9413
   37TMC2    C7  573   4.365   2.799  11.447  0.0429  0.8222 -0.3154
   37TMC2    C8  574   4.041   2.864  11.094 -0.7915  0.4449  0.5786
   37TMC2    O1  575   4.395   2.837  11.561  0.1821 -0.3876  0.8978
   37TMC2    O2  576   3.939   2.916  11.052 -0.0599  0.1328 -0.0106
   37TMC2    O5  577   4.121   2.775  11.024 -0.1062 -0.3071 -0.6318
   37TMC2    H5  578   4.194   2.739  11.079 -0.0674  2.6102  1.1955
   38MPD2     C  579   3.709   2.746  12.022 -0.0022  0.4723 -0.4220
   38MPD2    C1  580   3.837   2.698  12.018 -0.2739 -0.0645  0.6227
   38MPD2    C2  581   3.903   2.711  11.902 -0.3697 -0.0132  0.8854
   38MPD2    C3  582   3.855   2.776  11.792 -0.5133  0.1135  1.0201
   38MPD2    C4  583   3.726   2.823  11.796  0.1481 -0.0741  0.2965
   38MPD2    C5  584   3.654   2.811  11.912 -0.6580  0.7542 -0.2130
   38MPD2     H  585   4.008   2.683  11.911  0.1483  0.9205 -2.4753
   38MPD2    H1  586   3.673   2.865  11.711  0.7013  0.4775  0.2273
   38MPD2    H2  587   3.654   2.765  12.114 -2.5621  2.3758 -2.3619
   38MPD2    H3  588   3.559   2.862  11.913 -0.9967  0.1022  0.7582
   38MPD2     N  589   3.936   2.781  11.674 -0.0447  0.3735 -0.3818
   38MPD2    H5  590   4.027   2.739  11.691 -1.3859 -1.6495  1.8448
   38MPD2    N1  591   3.897   2.632  12.125  0.1751  0.6542  0.7417
   38MPD2    H7  592   3.987   2.586  12.112 -0.6641 -0.8096  0.1209
   39MPD2     C  593   1.827   3.986   1.517 -0.1534 -0.8814 -0.1372
   39MPD2    C1  594   1.781   4.111   1.551  0.1448  0.9826  0.0052
   39MPD2    C2  595   1.645   4.128   1.574  0.1238 -0.6279  0.0614
   39MPD2    C3  596   1.567   4.017   1.568 -1.1360  0.4479 -0.7177
   39MPD2    C4  597   1.619   3.894   1.531 -0.8130 -0.1956 -0.6389
   39MPD2    C5  598   1.750   3.874   1.510  0.1028 -0.5101  0.3925
   39MPD2     H  599   1.609   4.227   1.602 -1.0598 -0.9915 -0.1770
   39MPD2    H1  600   1.557   3.805   1.534 -2.6873  1.2153  2.4526
   39MPD2    H2  601   1.935   3.982   1.513 -0.1556 -1.8097  0.6415
   39MPD2    H3  602   1.788   3.776   1.485  0.5671 -0.0541 -0.7102
   39MPD2     N  603   1.430   4.022   1.591 -0.2598 -0.3209 -0.0756
   39MPD2    H5  604   1.384   3.934   1.570 -2.0481  0.3994  0.7912
   39MPD2    N1  605   1.879   4.217   1.562 -0.1602  0.5152 -0.0112
   39MPD2    H7  606   1.974   4.186   1.545  0.1650  1.0872  0.7861
   40TCq2    C1  607   1.864   4.350   1.599  0.0608  0.6816 -0.2201
   40TCq2    O2  608   1.760   4.408   1.634 -0.0278 -0.3937  0.2273
   40TCq2    C2  609   1.985   4.428   1.619  0.4575 -0.1756  0.9027
   40TCq2    C3  610   1.970   4.537   1.706 -0.5713  0.4528  0.4636
   40TCq2    C4  611   2.091   4.578   1.764  0.0397  0.1182 -0.9412
   40TCq2    C5  612   2.215   4.533   1.723 -0.6244  0.8459  0.0356
   40TCq2    C6  613   2.225   4.436   1.629  0.3275 -0.3026  0.2332
   40TCq2    C7  614   2.105   4.375   1.585 -0.2304 -0.4623  0.4760
   40TCq2    C8  615   2.352   4.381   1.580 -0.3000 -0.0787 -0.0735
   40TCq2    O4  616   2.337   4.283   1.513  0.4693 -0.0899  0.2412
   40TCq2    C9  617   2.085   4.700   1.845 -0.4638 -0.2587  0.6535
   40TCq2    O5  618   1.977   0.034   1.857  0.3252  0.0227  0.9982
   40TCq2    O6  619   2.194   0.035   1.847  0.2901  0.0704 -0.3897
   40TCq2    H2  620   1.873   4.580   1.724 -0.5712 -0.3758  2.4989
   40TCq2    H3  621   2.309   4.576   1.755 -0.3879  2.2421 -2.4754
   40TCq2    H4  622   2.118   4.298   1.511  2.0320  1.3654 -1.0442
   41TMC2    C1  623   1.284   2.591  13.876 -0.0337 -0.4980  0.2895
   41TMC2    C2  624   1.357   2.699  13.918 -0.7770  0.3633  0.0745
   41TMC2    C3  625   1.418   2.779  13.822 -0.4571  0.2521  0.1250
   41TMC2    C4  626   1.277   2.560  13.749 -0.2701  0.6136  0.2431
   41TMC2    C5  627   1.347   2.636  13.655 -0.5377  0.1814 -0.4504
   41TMC2    C6  628   1.420   2.744  13.689 -0.0834  0.2451 -0.6556
   41TMC2     C  629   1.239   2.494  13.975 -0.3450  0.6579  0.7850
   41TMC2     O  630   1.153   2.417  13.938  0.3770 -0.3961  0.4647
   41TMC2     H  631   1.376   2.733  14.020 -1.8254  0.3696  0.2692
   41TMC2    H1  632   1.230   2.468  13.719  2.1213 -0.6964  0.5717
   41TMC2    H2  633   1.470   2.804  13.613  1.0405  0.7747  0.4862
   41TMC2    C7  634   1.322   2.623  13.513  1.0264 -0.9102  0.6402
   41TMC2    C8  635   1.509   2.886  13.872 -0.2721  0.1682  0.3293
   41TMC2    O1  636   1.229   2.548  13.474  0.4681  0.0977  0.1194
   41TMC2    O2  637   1.449   2.975  13.930 -0.0120 -0.2886  0.1915
   41TMC2    O5  638   1.606   2.820  13.931  0.1499  0.3140 -0.2870
   41TMC2    H5  639   1.631   2.745  13.873  0.2734 -0.1350  0.3501
   42MPD2     C  640   1.184   2.343  14.224 -0.1911  0.4731 -0.0906
   42MPD2    C1  641   1.272   2.443  14.217  0.3523 -0.0984 -0.0549
   42MPD2    C2  642   1.326   2.490  14.334 -0.4438  0.9692  0.4711
   42MPD2    C3  643   1.294   2.440  14.462 -0.4436 -0.2695  0.7545
   42MPD2    C4  644   1.214   2.324  14.465  0.4744  0.6022  0.4085
   42MPD2    C5  645   1.157   2.284  14.346 -0.5010 -0.2218 -0.6558
   42MPD2     H  646   1.392   2.576  14.328 -1.3846  1.5405 -1.7242
   42MPD2    H1  647   1.184   2.279  14.558 -0.0686 -0.1810 -0.1449
   42MPD2    H2  648   1.131   2.309  14.136 -0.5614 -0.2987  0.4284
   42MPD2    H3  649   1.087   2.202  14.353 -1.5777  0.7419 -0.2122
   42MPD2     N  650   1.364   2.487  14.575 -0.4713 -0.1389 -0.5182
   42MPD2    H5  651   1.338   2.438  14.660 -0.0031  1.6380  0.6542
   42MPD2    N1  652   1.296   2.518  14.096 -0.2352  0.1941 -0.6777
   42MPD2    H7  653   1.345   2.607  14.105  0.9856 -0.4777 -0.7387
   43MPD2     C  654   3.028   0.747   0.611 -0.8259  0.3516 -0.1112
   43MPD2    C1  655   3.026   0.670   0.721  0.1676 -0.2770  0.1630
   43MPD2    C2  656   2.931   0.705   0.820 -0.1959  0.3000  0.0689
   43MPD2    C3  657   2.860   0.830   0.818  0.3323  0.4780 -0.5236
   43MPD2    C4  658   2.868   0.905   0.703 -0.4968 -0.2323 -0.1134
   43MPD2    C5  659   2.953   0.862   0.605  0.1929 -0.8021  0.8302
   43MPD2     H  660   2.925   0.644   0.909 -1.6041 -1.5352 -1.2653
   43MPD2    H1  661   2.809   0.995   0.694  0.0275  0.2166  0.9810
   43MPD2    H2  662   3.091   0.723   0.526  0.1718  1.5253  0.2997
   43MPD2    H3  663   2.967   0.926   0.518  0.3667 -4.1068 -1.5506
   43MPD2     N  664   2.790   0.881   0.928  0.3706  0.5371  0.0225
   43MPD2    H5  665   2.757   0.976   0.909  0.3783 -0.0786 -3.0870
   43MPD2    N1  666   3.109   0.562   0.743 -0.3259  0.1369  0.0730
   43MPD2    H7  667   3.113   0.526   0.838  0.8798  0.6380  0.2041
   44TCq2    C1  668   2.419   1.160   1.090  0.1109  0.4683  0.2499
   44TCq2    O2  669   2.421   1.189   0.968  0.1125  0.5482 -0.4610
   44TCq2    C2  670   2.483   1.041   1.134  0.0134 -0.8265  0.1442
   44TCq2    C3  671   2.464   0.996   1.264 -0.4205 -0.5485 -0.6112
   44TCq2    C4  672   2.552   0.915   1.321 -0.3506 -0.2727 -0.1818
   44TCq2    C5  673   2.657   0.864   1.248  0.6050 -0.4128  0.1148
   44TCq2    C6  674   2.672   0.907   1.121 -0.0013  0.2359  0.6284
   44TCq2    C7  675   2.585   0.996   1.062 -0.1114  0.6490 -0.1456
   44TCq2    C8  676   2.750   0.816   1.042 -0.0263  0.2367  0.3541
   44TCq2    O4  677   2.793   0.708   1.084  0.2832 -0.0474  0.4262
   44TCq2    C9  678   2.523   0.857   1.450  0.5858 -0.2099  0.2197
   44TCq2    O5  679   2.414   0.881   1.509 -0.1325 -0.0362 -0.0642
   44TCq2    O6  680   2.599   0.767   1.492 -0.0365  0.0179 -0.0674
   44TCq2    H2  681   2.377   1.021   1.324  0.4594 -2.5599  1.4918
   44TCq2    H3  682   2.726   0.791   1.290  0.3678  0.7247  2.4968
   44TCq2    H4  683   2.590   1.023   0.957 -0.6825 -0.4919 -0.4685
   45TMC2    C1  684   3.227   2.518   9.898  0.0045  0.0040 -0.0948
   45TMC2    C2  685   3.235   2.644   9.846 -0.0716 -0.2953  0.0593
   45TMC2    C3  686   3.268   2.745   9.928 -0.3226  0.5277 -0.3504
   45TMC2    C4  687   3.251   2.502  10.030  0.2357 -0.7244  0.3740
   45TMC2    C5  688   3.275   2.608  10.115  0.2636  0.4578 -0.6698
   45TMC2    C6  689   3.283   2.733  10.064 -0.5405 -0.2089  0.1541
   45TMC2     C  690   3.181   2.409   9.819 -0.4870 -0.1015  0.5718
   45TMC2     O  691   3.176   2.303   9.877  0.5146 -0.1806  0.1395
   45TMC2     H  692   3.206   2.673   9.745  0.0753 -0.6949 -0.0992
   45TMC2    H1  693   3.261   2.402  10.071  1.2128 -0.4262  0.8860
   45TMC2    H2  694   3.277   2.821  10.128  2.1781  0.7267 -0.8939
   45TMC2    C7  695   3.339   2.585  10.242 -0.7711  0.9189  0.2969
   45TMC2    C8  696   3.247   2.879   9.885  0.1903 -0.2111  0.3230
   45TMC2    O1  697   3.305   2.478  10.290  0.4491 -0.5235  0.2739
   45TMC2    O2  698   3.164   2.903   9.798 -0.3925  0.1142 -0.6588
   45TMC2    O5  699   3.311   2.971   9.962  0.6305  0.6209  0.1430
   45TMC2    H5  700   3.398   2.934   9.987  1.0061  1.2796 -0.2062
   46MPD2     C  701   3.051   2.223   9.633  0.4027 -0.3018 -0.9048
   46MPD2    C1  702   3.031   2.359   9.636 -0.0029  1.2037  0.1522
   46MPD2    C2  703   2.918   2.406   9.567 -0.1956  0.8570 -0.0236
   46MPD2    C3  704   2.827   2.325   9.512  0.5081  0.1830 -0.1272
   46MPD2    C4  705   2.848   2.192   9.512  0.4503 -0.1363  0.1344
   46MPD2    C5  706   2.966   2.147   9.564  0.0104 -0.9547  0.4079
   46MPD2     H  707   2.913   2.514   9.558  0.6388  0.8402 -0.7136
   46MPD2    H1  708   2.775   2.119   9.480  1.0006 -0.4837 -0.3358
   46MPD2    H2  709   3.133   2.167   9.677  0.4912 -0.5104 -1.3373
   46MPD2    H3  710   3.000   2.046   9.541 -1.8368 -1.5553  0.3096
   46MPD2     N  711   2.705   2.391   9.460  0.2047  0.4597  0.1473
   46MPD2    H5  712   2.719   2.492   9.450 -0.7694  0.5918  0.2023
   46MPD2    N1  713   3.121   2.445   9.706 -0.0470  0.1281 -0.6488
   46MPD2    H7  714   3.095   2.543   9.698  0.2655 -0.0385 -3.7120
   47TMC2    C1  715   0.860   4.194  10.138 -0.2659 -0.1591 -0.3222
   47TMC2    C2  716   0.790   4.190  10.023 -0.6238 -1.0633 -0.3916
   47TMC2    C3  717   0.662   4.162  10.036  0.5974  0.3146  0.5374
   47TMC2    C4  718   0.796   4.184  10.264 -0.1123  1.0615 -0.4535
   47TMC2    C5  719   0.661   4.180  10.279 -0.3387  0.0281 -0.2456
   47TMC2    C6  720   0.593   4.158  10.161  0.1376  0.2674 -0.8574
   47TMC2     C  721   1.001   4.188  10.145 -0.7279 -0.3371  0.5138
   47TMC2     O  722   1.069   4.291  10.137  0.3564  0.2004 -0.1383
   47TMC2     H  723   0.835   4.200   9.925 -0.1768 -0.1698 -0.0957
   47TMC2    H1  724   0.866   4.183  10.347  2.0075  1.2922 -2.2364
   47TMC2    H2  725   0.487   4.176  10.171  0.2628  1.7716 -2.2732
   47TMC2    C7  726   0.598   4.124  10.401 -0.0340 -0.3534  0.1375
   47TMC2    C8  727   0.573   4.217   9.932 -0.0467 -0.0776  0.2424
   47TMC2    O1  728   0.509   4.040  10.380  0.0937 -0.0512  0.5123
   47TMC2    O2  729   0.502   4.310   9.959  0.1937  0.4940  0.4180
   47TMC2    O5  730   0.603   4.168   9.808  0.3038  0.7717  0.2188
   47TMC2    H5  731   0.678   4.106   9.822 -0.3136  0.5858  2.6062
   48MPD2     C  732   1.272   4.091  10.206 -0.4953 -0.1515 -0.2217
   48MPD2    C1  733   1.170   4.006  10.176 -0.2272 -0.2879  0.5615
   48MPD2    C2  734   1.201   3.871  10.167  0.9217 -0.0409 -0.1314
   48MPD2    C3  735   1.330   3.827  10.190  0.0400 -0.4520  0.5221
   48MPD2    C4  736   1.433   3.915  10.222  0.1918 -0.4990  0.2256
   48MPD2    C5  737   1.402   4.047  10.223  0.4710 -0.6571 -0.4825
   48MPD2     H  738   1.115   3.812  10.139  0.1515  0.2865  1.5574
   48MPD2    H1  739   1.537   3.884  10.233 -0.4254 -2.8460 -0.4369
   48MPD2    H2  740   1.252   4.191  10.244  0.3197 -0.7814  1.8894
   48MPD2    H3  741   1.483   4.103  10.269 -0.3463 -0.0170  0.1617
   48MPD2     N  742   1.348   3.686  10.182  0.1990 -0.2888  0.4910
   48MPD2    H5  743   1.271   3.633  10.143  1.2458 -1.4602  0.0213
   48MPD2    N1  744   1.040   4.053  10.156 -0.7467 -0.2732  0.0793
   48MPD2    H7  745   0.968   3.983  10.141 -1.1008 -0.0382  0.6901
   49MPD2     C  746   0.362   0.783  10.492 -0.3490 -0.3154  1.0466
   49MPD2    C1  747   0.254   0.868  10.479  0.0173 -0.0898  0.3923
   49MPD2    C2  748   0.137   0.826  10.534 -0.9206 -0.6416  1.2327
   49MPD2    C3  749   0.123   0.712  10.611 -0.7473  0.4059 -0.9371
   49MPD2    C4  750   0.231   0.626  10.613  0.0302 -0.0063 -0.0976
   49MPD2    C5  751   0.350   0.660  10.554 -0.4781  0.1356 -0.2967
   49MPD2     H  752   0.050   0.887  10.516 -1.3167 -1.7223 -0.4910
   49MPD2    H1  753   0.227   0.544  10.683 -0.8458 -0.2547 -0.4389
   49MPD2    H2  754   0.456   0.815  10.447 -1.0458  1.1151  0.5957
   49MPD2    H3  755   0.440   0.600  10.548 -0.6736  0.1462 -3.2621
   49MPD2     N  756   0.008   0.672  10.676  0.6959 -0.1269  0.6624
   49MPD2    H5  757   0.004   0.577  10.711 -1.0484 -0.5143 -0.6089
   49MPD2    N1  758   0.250   0.994  10.411 -0.3226  0.2605  0.6236
   49MPD2    H7  759   0.160   1.040  10.417 -0.0793  1.1322 -2.7689
   50TCq2    C1  760   0.348   1.035  10.324 -0.4242 -0.2836 -0.7472
   50TCq2    O2  761   0.465   0.996  10.304  0.5181 -0.3010  0.2315
   50TCq2    C2  762   0.318   1.155  10.241  0.6964 -0.9092  0.1750
   50TCq2    C3  763   0.197   1.187  10.196  0.0708  0.2996 -0.0538
   50TCq2    C4  764   0.175   1.285  10.106 -0.0231  0.4506  0.6925
   50TCq2    C5  765   0.277   1.353  10.058 -0.2340  0.6730  0.3417
   50TCq2    C6  766   0.406   1.321  10.101  0.5554  0.2288 -0.0920
   50TCq2    C7  767   0.426   1.222  10.198  0.7354  0.0414 -0.3636
   50TCq2    C8  768   0.523   1.395  10.059  0.5632  0.1588 -0.3310
   50TCq2    O4  769   0.627   1.361  10.115  0.5489 -0.5116  0.2670
   50TCq2    C9  770   0.040   1.325  10.075  0.9659 -0.7201 -0.2249
   50TCq2    O5  771   0.030   1.441  10.029  0.0022  0.2650 -0.0038
   50TCq2    O6  772   4.673   1.266  10.135 -0.1553  0.1462 -0.1215
   50TCq2    H2  773   0.108   1.143  10.239  0.1300  2.2210  1.9974
   50TCq2    H3  774   0.257   1.417   9.973  1.8424 -1.0786 -1.4842
   50TCq2    H4  775   0.525   1.199  10.235  0.9093  0.0649 -0.8111
   51MPD2     C  776   4.037   4.112   1.152 -0.3085  0.1602  0.1375
   51MPD2    C1  777   3.936   4.019   1.156  0.1779 -0.1417  0.0951
   51MPD2    C2  778   3.817   4.049   1.216  0.2543  0.2001 -0.6668
   51MPD2    C3  779   3.805   4.170   1.279  0.5051  0.8443  0.8669
   51MPD2    C4  780   3.906   4.262   1.272  0.2967  0.2102 -0.1279
   51MPD2    C5  781   4.019   4.239   1.194 -0.2719 -0.1340 -0.0558
   51MPD2     H  782   3.743   3.972   1.232 -0.5528  0.8704 -1.2240
   51MPD2    H1  783   3.890   4.364   1.305  0.4462  0.4717 -0.8528
   51MPD2    H2  784   4.122   4.098   1.085 -0.0204 -0.2624  0.5868
   51MPD2    H3  785   4.086   4.316   1.160 -1.3297 -0.7743 -3.5368
   51MPD2     N  786   3.696   4.208   1.364  0.4323  1.2950 -0.6027
   51MPD2    H5  787   3.706   4.301   1.405 -0.3426  0.2882  1.8749
   51MPD2    N1  788   3.957   3.890   1.104  0.1354  0.1351 -0.5130
   51MPD2    H7  789   3.874   3.833   1.091 -0.3894  0.5835  0.9029
   52TCq2    C1  790   3.584   4.134   1.386  0.2931 -0.2993  0.3635
   52TCq2    O2  791   3.550   4.024   1.342  0.2383 -0.4987 -0.0285
   52TCq2    C2  792   3.493   4.207   1.472  0.2624 -0.6447  0.7409
   52TCq2    C3  793   3.375   4.139   1.487  0.7048  1.0402 -0.2081
   52TCq2    C4  794   3.284   4.187   1.571  0.3579  0.1744  0.1202
   52TCq2    C5  795   3.314   4.300   1.645 -0.7368  0.3069 -0.0737
   52TCq2    C6  796   3.429   4.376   1.621 -0.7243  1.5665  0.1156
   52TCq2    C7  797   3.527   4.323   1.541 -0.4025  0.4403  0.1921
   52TCq2    C8  798   3.465   4.497   1.700 -0.5612 -0.9439  0.4644
   52TCq2    O4  799   3.578   4.532   1.723  0.2888 -0.1064  0.2855
   52TCq2    C9  800   3.167   4.128   1.607 -0.7542 -0.8072 -0.2413
   52TCq2    O5  801   3.105   4.173   1.706 -0.3299  0.1489  0.5214
   52TCq2    O6  802   3.128   4.032   1.535  0.1807  0.6199 -0.0172
   52TCq2    H2  803   3.349   4.049   1.432  1.4673  0.0491  1.0447
   52TCq2    H3  804   3.241   4.341   1.714 -0.2576  0.0110  0.6142
   52TCq2    H4  805   3.626   4.366   1.547 -0.6530  1.0638 -0.0668
   53TMC2    C1  806   0.203   2.577  11.850 -0.6045 -0.1384  0.0227
   53TMC2    C2  807   0.333   2.604  11.879  0.1918 -0.0376  0.1738
   53TMC2    C3  808   0.352   2.658  12.006  0.1150  0.6303 -0.9128
   53TMC2    C4  809   0.101   2.601  11.940  0.3928 -0.7974 -0.7321
   53TMC2    C5  810   0.125   2.664  12.060  0.5185 -0.4216 -0.9815
   53TMC2    C6  811   0.250   2.689  12.095  0.3575  0.9366 -1.4961
   53TMC2     C  812   0.181   2.541  11.705 -0.4258  0.2219 -0.4040
   53TMC2     O  813   0.271   2.480  11.644 -0.5008 -0.3686  0.1705
   53TMC2     H  814   0.412   2.602  11.805 -0.8758  0.4238 -0.9700
   53TMC2    H1  815   4.726   2.577  11.913  0.1315  0.1163 -0.5686
   53TMC2    H2  816   0.278   2.745  12.183  2.3735  0.1378 -1.6402
   53TMC2    C7  817   0.008   2.731  12.116  0.4387  0.3534  0.2915
   53TMC2    C8  818   0.486   2.684  12.053 -0.8468 -0.9772 -0.4997
   53TMC2    O1  819   4.633   2.732  12.044 -0.0279  0.5600  0.2364
   53TMC2    O2  820   0.504   2.781  12.128  0.1980 -0.2896 -0.5532
   53TMC2    O5  821   0.570   2.617  11.974 -0.0369 -0.2482 -0.9352
   53TMC2    H5  822   0.541   2.524  11.966  0.4007 -0.5263  0.7722
   54MPD2     C  823   0.035   2.470  11.444 -0.1161  0.9675  0.5982
   54MPD2    C1  824   4.722   2.569  11.537  0.1418 -0.1921  0.1364
   54MPD2    C2  825   4.611   2.640  11.516 -0.4934 -0.0696 -0.1618
   54MPD2    C3  826   4.546   2.637  11.392  0.0268 -0.1589 -1.0035
   54MPD2    C4  827   4.593   2.552  11.294  0.0244  0.1670 -0.0579
   54MPD2    C5  828   4.697   2.470  11.326 -0.0856  0.7918 -0.2501
   54MPD2     H  829   4.582   2.702  11.600  0.1766  0.0159  0.0082
   54MPD2    H1  830   4.555   2.551  11.192 -1.3510 -1.5854  0.4609
   54MPD2    H2  831   0.115   2.397  11.448  0.0806  1.1282 -0.3823
   54MPD2    H3  832   4.718   2.390  11.255  1.2300  0.6304  0.3174
   54MPD2     N  833   4.431   2.714  11.364  0.0594 -0.1225 -0.0757
   54MPD2    H5  834   4.383   2.688  11.278  0.7478 -0.2254 -0.4289
   54MPD2    N1  835   0.066   2.604  11.655 -0.7827  0.5834 -0.3778
   54MPD2    H7  836   0.033   2.687  11.704 -2.1377  0.1764 -0.6056
   55MPD2     C  837   0.615   0.657   0.750 -0.1714  0.5654 -0.0318
   55MPD2    C1  838   0.517   0.569   0.792  0.0048  0.3490 -0.0997
   55MPD2    C2  839   0.384   0.606   0.777 -0.6656 -0.0874  0.4778
   55MPD2    C3  840   0.353   0.729   0.721 -0.3914 -0.6512 -0.3843
   55MPD2    C4  841   0.453   0.806   0.665  0.0440  0.2729  0.1446
   55MPD2    C5  842   0.581   0.774   0.686 -0.9856 -0.4471 -0.1575
   55MPD2     H  843   0.305   0.554   0.830 -0.3590 -1.2804 -0.2402
   55MPD2    H1  844   0.434   0.903   0.619 -0.6248 -0.0392 -0.2382
   55MPD2    H2  845   0.721   0.638   0.755 -0.1828  0.1409 -1.4423
   55MPD2    H3  846   0.658   0.844   0.655 -0.9871  0.0603  0.9847
   55MPD2     N  847   0.214   0.763   0.716  0.2196 -0.3089 -0.1356
   55MPD2    H5  848   0.146   0.710   0.770  0.5950 -1.0681 -0.4055
   55MPD2    N1  849   0.554   0.442   0.849  0.2305 -0.1029 -0.6806
   55MPD2    H7  850   0.654   0.434   0.867 -0.0394 -1.0218  0.4882
   56TCq2    C1  851   0.475   0.336   0.877  0.2473 -0.2244  0.9357
   56TCq2    O2  852   0.354   0.324   0.877 -0.3146  0.4781 -0.6875
   56TCq2    C2  853   0.549   0.224   0.919 -0.2897 -0.3549  0.4136
   56TCq2    C3  854   0.680   0.199   0.896 -0.3450 -0.5526 -0.4248
   56TCq2    C4  855   0.741   0.084   0.941 -0.6397  0.2464 -0.3221
   56TCq2    C5  856   0.665   4.722   1.009  0.4724 -1.1577 -0.2383
   56TCq2    C6  857   0.537   0.030   1.045  0.2791 -0.5065  0.3503
   56TCq2    C7  858   0.473   0.142   0.993 -0.6063 -0.6742  0.1219
   56TCq2    C8  859   0.466   4.662   1.137  0.0224 -0.5892  0.1423
   56TCq2    O4  860   0.532   4.581   1.198 -0.3549  0.6009  0.4724
   56TCq2    C9  861   0.876   0.046   0.912 -0.4157 -0.6760  0.7431
   56TCq2    O5  862   0.954   0.139   0.882  0.4515 -0.4293  0.1558
   56TCq2    O6  863   0.906   4.651   0.930  0.0674  0.3418 -0.1569
   56TCq2    H2  864   0.747   0.265   0.841  1.1062  0.0580  2.0481
   56TCq2    H3  865   0.721   4.639   1.051  1.7961  1.1213  2.5241
   56TCq2    H4  866   0.372   0.162   1.029 -0.2943 -1.7720  1.6238
   57TMC2    C1  867   0.224   1.764  14.100  1.0400  0.3868 -0.6996
   57TMC2    C2  868   0.276   1.655  14.165 -0.1242  0.6900 -0.0082
   57TMC2    C3  869   0.380   1.588  14.100  0.5727  0.1053  0.1732
   57TMC2    C4  870   0.266   1.798  13.971 -0.0690  0.1970  0.6191
   57TMC2    C5  871   0.377   1.738  13.923 -0.7255 -0.0128  0.6494
   57TMC2    C6  872   0.436   1.629  13.986  0.3505 -0.3904  0.5780
   57TMC2     C  873   0.082   1.767  14.113  0.5756  0.4579  0.1409
   57TMC2     O  874   0.037   1.773  14.225 -0.1394  0.1707 -0.2405
   57TMC2     H  875   0.241   1.618  14.261  1.9117 -1.6419 -0.1601
   57TMC2    H1  876   0.217   1.874  13.912 -1.4980 -1.1072  0.1306
   57TMC2    H2  877   0.522   1.572  13.952 -0.2844  0.4426 -2.4998
   57TMC2    C7  878   0.415   1.764  13.789 -0.1407 -0.3233 -0.1396
   57TMC2    C8  879   0.417   1.468  14.164  1.2449  0.1650 -0.6491
   57TMC2    O1  880   0.387   1.879  13.754 -0.3725  0.5270 -0.0026
   57TMC2    O2  881   0.491   1.468  14.263 -0.0792  0.3865 -0.6659
   57TMC2    O5  882   0.301   1.397  14.150  0.3808 -0.6682 -0.3199
   57TMC2    H5  883   0.254   1.417  14.066  0.5034  1.1804  0.0621
   58MPD2     C  884   4.355   1.737  13.872 -0.3396  0.5392  0.3253
   58MPD2    C1  885   4.398   1.786  13.996  0.3095 -0.0489 -0.4589
   58MPD2    C2  886   4.530   1.785  14.035 -0.0205  0.8467 -0.3628
   58MPD2    C3  887   4.617   1.719  13.952  0.6186 -0.0056 -0.5495
   58MPD2    C4  888   4.574   1.651  13.835 -0.0378  0.1870 -0.2395
   58MPD2    C5  889   4.442   1.663  13.792 -0.1906  0.5398 -0.2916
   58MPD2     H  890   4.565   1.840  14.122 -1.2159  1.8462 -0.5066
   58MPD2    H1  891   4.636   1.581  13.779  1.3609  1.5730 -0.4166
   58MPD2    H2  892   4.253   1.742  13.835  0.2612  1.2387 -1.2794
   58MPD2    H3  893   4.406   1.619  13.700 -0.1533  2.1580 -1.0846
   58MPD2     N  894   0.026   1.732  13.988  0.0130  0.5900  0.0349
   58MPD2    H5  895   0.091   1.694  13.919 -0.4657 -0.8925  0.4011
   58MPD2    N1  896   4.318   1.858  14.087 -0.1269 -0.2399 -0.9552
   58MPD2    H7  897   4.355   1.894  14.174  1.3496 -1.1609 -1.1972
   59MPD2     C  898   2.296   1.889  13.314  0.2458 -0.6608  0.8019
   59MPD2    C1  899   2.406   1.850  13.246 -0.1513 -0.1386 -0.7881
   59MPD2    C2  900   2.525   1.852  13.323  0.5229 -0.2955 -0.2883
   59MPD2    C3  901   2.526   1.880  13.460 -0.3599  0.7587 -0.1679
   59MPD2    C4  902   2.409   1.922  13.518 -0.1026  0.4439  0.6734
   59MPD2    C5  903   2.298   1.938  13.442  0.2309 -0.1621 -0.2550
   59MPD2     H  904   2.615   1.829  13.267  0.9316  0.4406  0.0623
   59MPD2    H1  905   2.399   1.939  13.624  2.2642  0.8299  0.8483
   59MPD2    H2  906   2.202   1.892  13.261  0.6851  1.4373  0.1473
   59MPD2    H3  907   2.210   1.980  13.488  0.0393  0.5688 -1.2935
   59MPD2     N  908   2.645   1.876  13.535  0.7752  0.2001 -0.1229
   59MPD2    H5  909   2.639   1.884  13.636 -0.5737 -0.2998 -0.1567
   59MPD2    N1  910   2.401   1.822  13.112  0.1483  0.4324 -0.2135
   59MPD2    H7  911   2.312   1.811  13.063 -1.4917  1.7801  2.4836
   60TCq2    C1  912   2.508   1.834  13.028  0.1324 -0.2499  0.0412
   60TCq2    O2  913   2.620   1.878  13.049 -0.4058  0.8443 -0.0635
   60TCq2    C2  914   2.480   1.771  12.899 -0.3969  0.2120 -0.5693
   60TCq2    C3  915   2.377   1.678  12.876 -0.1883  0.9677 -0.8960
   60TCq2    C4  916   2.362   1.632  12.747 -0.0881 -0.0487 -0.1643
   60TCq2    C5  917   2.435   1.683  12.643 -0.4012  0.8369  0.3242
   60TCq2    C6  918   2.527   1.776  12.672 -0.0075  0.3366 -0.2438
   60TCq2    C7  919   2.560   1.822  12.796 -0.6160 -0.2838 -0.1410
   60TCq2    C8  920   2.588   1.851  12.562 -0.1165  0.6504  0.0542
   60TCq2    O4  921   2.627   1.788  12.467 -0.1414  0.4370  0.7917
   60TCq2    C9  922   2.251   1.538  12.724  0.0269  0.4075  0.9300
   60TCq2    O5  923   2.225   1.500  12.608  0.1358  0.4914  0.3864
   60TCq2    O6  924   2.196   1.487  12.825  0.2220  0.7762  0.0463
   60TCq2    H2  925   2.310   1.642  12.953 -0.1486 -1.1738 -1.8534
   60TCq2    H3  926   2.433   1.640  12.543 -0.9016  1.1912  0.1825
   60TCq2    H4  927   2.634   1.898  12.818 -0.0565 -0.9769  0.4056
   61MPD2     C  928   2.096   2.634  15.000  0.2442  0.3206  0.0177
   61MPD2    C1  929   2.139   2.757  15.052 -0.0931  0.1638  0.0926
   61MPD2    C2  930   2.264   2.805  15.016  0.5665 -0.0522 -0.6158
   61MPD2    C3  931   2.344   2.743  14.925 -0.1305  0.8669  0.1924
   61MPD2    C4  932   2.308   2.621  14.872 -0.1623  0.3454  0.0995
   61MPD2    C5  933   2.185   2.568  14.917  0.0075 -0.3824  0.0586
   61MPD2     H  934   2.286   2.901  15.060 -1.5392  0.4720 -0.6933
   61MPD2    H1  935   2.372   2.566  14.804 -0.6750 -0.8682  0.5931
   61MPD2    H2  936   1.995   2.599  15.021  0.3701 -0.3666 -0.5197
   61MPD2    H3  937   2.154   2.468  14.888  0.0039  0.2080 -1.9649
   61MPD2     N  938   2.467   2.803  14.881  0.0227 -0.3729 -0.5287
   61MPD2    H5  939   2.526   2.742  14.826 -1.0438 -1.9295  0.0659
   61MPD2    N1  940   2.061   2.862  15.116  0.7012 -0.1442  0.1220
   61MPD2    H7  941   2.113   2.942  15.153  0.7264 -0.1311  0.0595
   62TCq2    C1  942   1.931   2.857  15.155 -0.1155 -0.5627 -0.3709
   62TCq2    O2  943   1.855   2.760  15.154 -0.2091  0.5990 -0.3262
   62TCq2    C2  944   1.882   2.984  15.200  0.1892  0.4955  0.0687
   62TCq2    C3  945   1.776   2.981  15.282  0.4094 -0.4332 -0.2679
   62TCq2    C4  946   1.722   3.097  15.330 -0.0615 -0.2086 -0.8654
   62TCq2    C5  947   1.780   3.214  15.296  0.3463  0.0712  0.1293
   62TCq2    C6  948   1.880   3.215  15.203 -0.1254  0.0050  0.0183
   62TCq2    C7  949   1.942   3.100  15.154  0.5658  0.0465  0.2663
   62TCq2    C8  950   1.932   3.346  15.165 -0.3984  0.4437 -0.5384
   62TCq2    O4  951   1.852   3.439  15.179  0.6779  0.2177 -0.3501
   62TCq2    C9  952   1.613   3.092  15.432  0.6955  0.0288  0.7770
   62TCq2    O5  953   1.583   3.190  15.503 -0.3860 -0.7516  0.0849
   62TCq2    O6  954   1.564   2.977  15.449  0.2968  0.5202 -0.7229
   62TCq2    H2  955   1.735   2.886  15.317  1.4493 -1.0024 -0.5873
   62TCq2    H3  956   1.737   3.303  15.340  0.6639 -0.3791  1.3694
   62TCq2    H4  957   2.005   3.094  15.066  0.5143  1.4789  0.1309
   63TMC2    C1  958   1.086   2.894  11.265  0.5310  0.3668  0.0637
   63TMC2    C2  959   1.160   2.891  11.379  0.1954 -0.7361 -0.4522
   63TMC2    C3  960   1.246   2.986  11.411 -0.2836  0.3283  0.4080
   63TMC2    C4  961   1.114   2.981  11.169 -0.5039 -0.6926 -0.3258
   63TMC2    C5  962   1.222   3.061  11.193 -0.0806 -0.1288 -0.0796
   63TMC2    C6  963   1.287   3.074  11.314 -0.4344  0.0972 -0.5815
   63TMC2     C  964   1.056   2.757  11.220 -0.2703  0.6371  1.4095
   63TMC2     O  965   1.085   2.664  11.298  0.4334  0.3741 -0.1649
   63TMC2     H  966   1.132   2.821  11.457 -3.8824 -1.4774 -2.5901
   63TMC2    H1  967   1.080   2.970  11.067  0.5995  2.6858 -1.0587
   63TMC2    H2  968   1.367   3.142  11.341 -0.8552  0.4605 -0.2349
   63TMC2    C7  969   1.242   3.163  11.094  0.4292 -0.0995 -0.3009
   63TMC2    C8  970   1.331   2.959  11.520  0.4033  0.2631  0.3099
   63TMC2    O1  971   1.153   3.179  11.011 -0.0326  0.3681  0.2389
   63TMC2    O2  972   1.352   2.847  11.555  0.1405  0.0209 -0.3974
   63TMC2    O5  973   1.351   3.072  11.593  0.5984 -0.7563 -0.5958
   63TMC2    H5  974   1.302   3.145  11.550  0.1044 -1.4347 -1.1925
   64MPD2     C  975   1.054   2.460  10.806  0.1140  0.0329  0.0892
   64MPD2    C1  976   1.111   2.454  10.930  0.5908 -0.1345  0.0326
   64MPD2    C2  977   1.070   2.540  11.024 -0.4689 -0.8039 -0.5339
   64MPD2    C3  978   1.002   2.653  10.995  0.3558 -0.6559 -0.2529
   64MPD2    C4  979   0.950   2.664  10.867  0.5407 -0.1299 -0.7233
   64MPD2    C5  980   0.974   2.565  10.780 -0.1268 -0.0025 -0.1529
   64MPD2     H  981   1.111   2.518  11.122 -3.1115 -0.5264  0.6589
   64MPD2    H1  982   0.897   2.754  10.836  0.1672  0.2427  0.9921
   64MPD2    H2  983   1.080   2.392  10.726  2.1301  0.0560  0.7207
   64MPD2    H3  984   0.924   2.566  10.683 -0.1557  3.0562 -0.1078
   64MPD2     N  985   1.006   2.761  11.088  0.2899  0.2984  0.7470
   64MPD2    H5  986   0.965   2.850  11.060  0.3491  0.1963  0.3433
   64MPD2    N1  987   1.214   2.359  10.953  0.1339 -0.2672 -0.4994
   64MPD2    H7  988   1.237   2.340  11.050  1.3407  3.1201 -0.1300
   65MPD2     C  989   2.341   2.359  16.054  0.6973  0.2845 -0.1354
   65MPD2    C1  990   2.430   2.343  15.956 -0.3568  1.1153 -1.6393
   65MPD2    C2  991   2.462   2.211  15.919 -0.5688  0.7440 -0.2674
   65MPD2    C3  992   2.399   2.104  15.969 -0.0535  0.2595 -0.3175
   65MPD2    C4  993   2.308   2.124  16.065 -0.0788  0.2456  0.0071
   65MPD2    C5  994   2.286   2.251  16.107  0.2628  0.0370  0.4642
   65MPD2     H  995   2.532   2.198  15.837 -1.2605  0.5205 -0.8273
   65MPD2    H1  996   2.254   2.043  16.112  0.8003 -0.3661 -0.0403
   65MPD2    H2  997   2.297   2.453  16.086 -0.7271 -0.6302  0.6145
   65MPD2    H3  998   2.221   2.268  16.192  0.6660 -2.8857  1.3633
   65MPD2     N  999   2.418   1.971  15.913 -0.1195  0.4745 -0.5482
   65MPD2    H5 1000   2.365   1.897  15.957  0.8525 -0.1009 -0.3407
   65MPD2    N1 1001   2.492   2.444  15.884  0.8029 -0.2800  0.7642
   65MPD2    H7 1002   2.559   2.418  15.813  0.6963  0.1369  0.5098
   66TCq2    C1 1003   2.465   2.581  15.900 -0.3394  0.4151  0.0891
   66TCq2    O2 1004   2.387   2.637  15.973  0.7236 -0.0973 -0.5574
   66TCq2    C2 1005   2.518   2.657  15.791  0.1138  0.0277  0.9865
   66TCq2    C3 1006   2.572   2.597  15.675 -0.2563  0.4923  0.2152
   66TCq2    C4 1007   2.656   2.662  15.596 -0.6118  0.5076  0.4749
   66TCq2    C5 1008   2.689   2.791  15.636  0.7946  0.1709  0.0639
   66TCq2    C6 1009   2.634   2.853  15.746 -0.2197  0.1720  0.0573
   66TCq2    C7 1010   2.537   2.785  15.818 -0.2541  0.3579  0.2953
   66TCq2    C8 1011   2.633   2.997  15.736 -0.4170 -0.5045 -0.4095
   66TCq2    O4 1012   2.690   3.056  15.645 -0.0026  0.0667  0.4209
   66TCq2    C9 1013   2.710   2.604  15.487  0.4721 -0.4025  0.8998
   66TCq2    O5 1014   2.834   2.594  15.494  0.1901  0.2936 -0.3826
   66TCq2    O6 1015   2.643   2.510  15.433  0.3568  0.2399  0.0650
   66TCq2    H2 1016   2.559   2.491  15.656 -0.4602  0.0156  2.9628
   66TCq2    H3 1017   2.752   2.843  15.564  1.5885 -0.2847  0.4345
   66TCq2    H4 1018   2.499   2.819  15.913  2.7627  0.2278  1.5356
   67MPD2     C 1019   2.414   1.277  14.536  0.4419  0.6273  0.0577
   67MPD2    C1 1020   2.328   1.386  14.559  0.1801 -0.3227  0.1654
   67MPD2    C2 1021   2.237   1.424  14.459  0.3632 -0.3312  0.8266
   67MPD2    C3 1022   2.238   1.362  14.334  0.3724 -1.0948  0.7390
   67MPD2    C4 1023   2.328   1.254  14.322 -0.3787  1.1952  0.0643
   67MPD2    C5 1024   2.413   1.211  14.418  0.3789  0.1967  0.4129
   67MPD2     H 1025   2.165   1.503  14.477 -0.2054 -0.6974  0.1221
   67MPD2    H1 1026   2.325   1.193  14.232 -0.7824  1.1576  0.1015
   67MPD2    H2 1027   2.486   1.237  14.607 -1.1660 -0.5067  1.0206
   67MPD2    H3 1028   2.486   1.133  14.398  1.0650  0.5666  1.4307
   67MPD2     N 1029   2.156   1.401  14.226  0.5560  0.3433 -0.1368
   67MPD2    H5 1030   2.175   1.348  14.142  1.5306 -3.4689  2.5078
   67MPD2    N1 1031   2.329   1.463  14.678  0.6525  0.2614  0.0689
   67MPD2    H7 1032   2.256   1.532  14.693  2.0725  1.9383 -0.6335
   68TCq2    C1 1033   2.438   1.466  14.763 -1.0798 -0.4200 -0.1413
   68TCq2    O2 1034   2.550   1.418  14.740  0.0808  0.8224 -0.2778
   68TCq2    C2 1035   2.425   1.584  14.844 -0.1391 -0.3291  0.2897
   68TCq2    C3 1036   2.311   1.601  14.912  0.3215  0.1485  0.6868
   68TCq2    C4 1037   2.319   1.673  15.036  0.3959 -0.0990  0.0072
   68TCq2    C5 1038   2.438   1.730  15.078  0.6709 -0.1247 -0.2372
   68TCq2    C6 1039   2.544   1.705  15.001  0.1149 -0.2926 -0.6481
   68TCq2    C7 1040   2.540   1.644  14.885 -0.1631  0.2172 -1.3684
   68TCq2    C8 1041   2.669   1.762  15.038 -0.7757  1.0086  0.1533
   68TCq2    O4 1042   2.761   1.761  14.950  0.5421 -0.4945 -0.3005
   68TCq2    C9 1043   2.203   1.684  15.116  0.3675 -0.0574  0.4423
   68TCq2    O5 1044   2.214   1.770  15.212  0.1465  0.1694 -0.1291
   68TCq2    O6 1045   2.100   1.622  15.084  0.1667 -0.8882 -0.0481
   68TCq2    H2 1046   2.222   1.544  14.889  0.6507 -1.0674  2.5026
   68TCq2    H3 1047   2.444   1.793  15.165 -0.4500 -1.7147  0.9874
   68TCq2    H4 1048   2.624   1.625  14.819  1.9288  1.0637  1.0223
   69TMC2    C1 1049   4.594   3.529  12.584  0.1588 -0.2289 -0.0752
   69TMC2    C2 1050   4.579   3.658  12.608  0.0712 -0.6211 -0.7224
   69TMC2    C3 1051   4.649   3.743  12.521  0.2479  0.0127 -0.3192
   69TMC2    C4 1052   4.673   3.479  12.485  0.4174 -0.2769 -0.0781
   69TMC2    C5 1053   0.006   3.562  12.398  0.3492  0.0627 -0.0992
   69TMC2    C6 1054   0.004   3.698  12.421  0.2360  0.2671  0.2727
   69TMC2     C 1055   4.534   3.424  12.660  0.5933 -0.2605  0.7637
   69TMC2     O 1056   4.569   3.307  12.643  0.2859 -0.1891  0.2958
   69TMC2     H 1057   4.506   3.702  12.675  0.5139  3.1947 -2.7373
   69TMC2    H1 1058   4.677   3.374  12.458  0.2054 -0.5862  1.0809
   69TMC2    H2 1059   0.068   3.764  12.362  1.6237 -1.4854 -0.1599
   69TMC2    C7 1060   0.096   3.504  12.294 -1.2087 -0.2346 -0.4241
   69TMC2    C8 1061   4.652   3.883  12.540  0.1392 -0.5074  0.4770
   69TMC2    O1 1062   0.136   3.390  12.308  0.6249 -0.2315 -0.3320
   69TMC2    O2 1063   4.555   3.951  12.576 -0.2718 -0.7408  0.4898
   69TMC2    O5 1064   0.047   3.931  12.514  0.3187 -0.0523  1.0656
   69TMC2    H5 1065   0.113   3.859  12.524 -0.3593 -1.0355 -1.5781
   70MPD2     C 1066   4.266   3.441  12.902  0.3741  0.3472  0.3322
   70MPD2    C1 1067   4.387   3.391  12.849 -0.0123 -0.1903 -0.0551
   70MPD2    C2 1068   4.438   3.274  12.901 -0.3007 -0.8426  0.9936
   70MPD2    C3 1069   4.364   3.199  12.983  0.2467 -0.5616 -0.0374
   70MPD2    C4 1070   4.243   3.251  13.035 -0.0124 -0.7088 -0.5233
   70MPD2    C5 1071   4.195   3.373  12.998 -0.0356  0.0454 -0.0204
   70MPD2     H 1072   4.539   3.249  12.871  0.7289  1.8538  2.3304
   70MPD2    H1 1073   4.191   3.191  13.109 -0.5933  0.3666 -0.0526
   70MPD2    H2 1074   4.229   3.538  12.870 -0.2996 -0.5173 -1.4879
   70MPD2    H3 1075   4.107   3.418  13.043  1.1409  1.9105  0.4352
   70MPD2     N 1076   4.404   3.079  13.034  0.3837 -0.1174  0.2991
   70MPD2    H5 1077   4.327   3.032  13.081  1.3301 -2.0137 -0.0707
   70MPD2    N1 1078   4.450   3.474  12.752  0.0247 -0.2419 -0.3872
   70MPD2    H7 1079   4.399   3.560  12.731  1.7671  1.0246  0.5536
   71TMC2    C1 1080   1.336   2.258   1.335  0.1084 -0.1775  0.1227
   71TMC2    C2 1081   1.433   2.161   1.336 -0.4020 -0.2673  0.4563
   71TMC2    C3 1082   1.395   2.033   1.351 -0.1370 -0.2326  0.1845
   71TMC2    C4 1083   1.203   2.244   1.326 -0.2898 -0.7607 -0.8650
   71TMC2    C5 1084   1.169   2.108   1.319 -0.0424  1.2639  0.4442
   71TMC2    C6 1085   1.265   2.005   1.329  0.3763  0.0869 -0.2712
   71TMC2     C 1086   1.377   2.399   1.337 -0.3556  0.5737 -0.2081
   71TMC2     O 1087   1.296   2.479   1.287  0.5719 -0.4443 -0.2222
   71TMC2     H 1088   1.537   2.183   1.312 -1.2159  1.8207 -1.1902
   71TMC2    H1 1089   1.132   2.324   1.311  0.5068 -0.0482 -0.8817
   71TMC2    H2 1090   1.234   1.905   1.303 -0.1139 -0.2810  1.7125
   71TMC2    C7 1091   1.034   2.072   1.286  0.1386 -0.4366 -0.1099
   71TMC2    C8 1092   1.492   1.927   1.332  0.4330 -0.2692  0.2486
   71TMC2    O1 1093   0.994   1.967   1.330 -0.3278 -0.2092  0.4242
   71TMC2    O2 1094   1.455   1.827   1.271 -0.5095  0.2839 -0.0902
   71TMC2    O5 1095   1.610   1.975   1.372  0.0976  0.6635  0.2408
   71TMC2    H5 1096   1.605   2.057   1.426  1.2502  1.9062 -1.5287
   72MPD2     C 1097   1.652   2.800   1.478  0.5296  0.0104 -0.0425
   72MPD2    C1 1098   1.578   2.776   1.366  0.2648 -0.0157 -0.4451
   72MPD2    C2 1099   1.524   2.650   1.344 -0.4596  0.1054  0.5436
   72MPD2    C3 1100   1.551   2.540   1.426 -0.2308  0.3248  0.1597
   72MPD2    C4 1101   1.631   2.564   1.537  0.2093 -0.7370  0.2869
   72MPD2    C5 1102   1.674   2.692   1.563 -0.4183 -0.7632 -0.1087
   72MPD2     H 1103   1.451   2.645   1.264  0.2389 -1.1326 -0.0085
   72MPD2    H1 1104   1.643   2.490   1.616 -0.0943  0.7388  1.6950
   72MPD2    H2 1105   1.685   2.900   1.507 -1.5675  0.2961  1.3614
   72MPD2    H3 1106   1.717   2.708   1.661 -1.8272 -2.0510  0.7116
   72MPD2     N 1107   1.486   2.421   1.419 -0.5404  0.4982 -0.1151
   72MPD2    H5 1108   1.512   2.350   1.487 -1.3690 -0.5823 -0.9386
   72MPD2    N1 1109   1.537   2.882   1.288  0.0914 -0.1049  0.3598
   72MPD2    H7 1110   1.495   2.862   1.198 -0.3274 -0.3245  0.6038
   73TMC2    C1 1111   1.792   0.081  13.943 -0.2823 -0.0406 -0.0989
   73TMC2    C2 1112   1.753   0.037  13.819  0.3849  0.0159  0.1324
   73TMC2    C3 1113   1.806   4.650  13.762 -0.0716 -0.0620 -0.0542
   73TMC2    C4 1114   1.904   0.024  13.995  0.7984  0.3656  0.8904
   73TMC2    C5 1115   1.972   4.658  13.922  1.0029  0.2119  1.0134
   73TMC2    C6 1116   1.918   4.595  13.807  0.2848 -0.5446  0.2798
   73TMC2     C 1117   1.796   0.219  13.958 -0.0212 -0.5743  0.5595
   73TMC2     O 1118   1.911   0.259  13.974 -0.1878  0.1921 -0.5028
   73TMC2     H 1119   1.690   0.103  13.760 -2.1329 -0.9850  1.7078
   73TMC2    H1 1120   1.937   0.052  14.094  0.5985 -0.2444  1.1300
   73TMC2    H2 1121   1.973   4.517  13.755  0.2463  0.5502 -1.4146
   73TMC2    C7 1122   2.113   4.684  13.910 -0.3903 -0.3648 -0.6512
   73TMC2    C8 1123   1.745   4.602  13.644 -0.3781 -0.2249 -0.0771
   73TMC2    O1 1124   2.187   4.604  13.850 -0.0611  0.0874 -0.0204
   73TMC2    O2 1125   1.628   4.614  13.611  0.2566 -0.1808  0.2514
   73TMC2    O5 1126   1.835   4.549  13.565 -0.2729  0.3915  0.1879
   73TMC2    H5 1127   1.928   4.558  13.591 -0.6132  1.9496  0.8134
   74MPD2     C 1128   1.659   0.699  13.862  0.3369  0.1196  0.7161
   74MPD2    C1 1129   1.781   0.647  13.891  0.5899  0.3638  0.0251
   74MPD2    C2 1130   1.783   0.511  13.902 -0.0511 -0.0571 -0.2193
   74MPD2    C3 1131   1.669   0.428  13.902  0.5554  0.1852 -0.2275
   74MPD2    C4 1132   1.549   0.485  13.878 -0.0155 -0.4877  0.0401
   74MPD2    C5 1133   1.550   0.614  13.847  0.8600  0.5046 -0.0002
   74MPD2     H 1134   1.879   0.462  13.916  0.1604  0.6921  0.9339
   74MPD2    H1 1135   1.465   0.418  13.858  0.5567 -1.2553  0.2307
   74MPD2    H2 1136   1.641   0.804  13.839  1.5952 -0.1401 -1.4848
   74MPD2    H3 1137   1.453   0.656  13.825 -0.1401 -1.2708  1.0384
   74MPD2     N 1138   1.679   0.288  13.923 -0.2139  0.6433  0.1266
   74MPD2    H5 1139   1.589   0.242  13.916  0.0361  0.5795 -2.7680
   74MPD2    N1 1140   1.894   0.734  13.889  0.0463  0.1544 -0.4921
   74MPD2    H7 1141   1.879   0.834  13.887 -0.6094  0.0735  0.3042
   75TCq2    C1 1142   2.055   1.495  14.223  0.0893 -0.3273 -0.4784
   75TCq2    O2 1143   2.010   1.569  14.312  0.1950 -0.3355 -0.0020
   75TCq2    C2 1144   1.992   1.501  14.095  0.5894  0.4178  0.3688
   75TCq2    C3 1145   2.002   1.399  14.002 -0.2656 -0.2416  0.3417
   75TCq2    C4 1146   1.921   1.410  13.888 -0.2377  0.1023  0.1033
   75TCq2    C5 1147   1.843   1.515  13.873 -0.1690 -0.3643  0.0542
   75TCq2    C6 1148   1.859   1.628  13.953  0.3684 -0.1197  0.3495
   75TCq2    C7 1149   1.928   1.618  14.068  0.1682  0.2147  0.1024
   75TCq2    C8 1150   1.794   1.747  13.905 -0.0174  0.7617 -0.3318
   75TCq2    O4 1151   1.718   1.736  13.810  0.4780 -0.2588 -0.1595
   75TCq2    C9 1152   1.919   1.314  13.790  0.5264 -0.5817 -0.2220
   75TCq2    O5 1153   1.997   1.219  13.801 -0.0095 -0.6432  0.7170
   75TCq2    O6 1154   1.839   1.322  13.695  0.6767 -0.8769 -0.1032
   75TCq2    H2 1155   2.058   1.310  14.025  1.1297  0.3090 -0.9190
   75TCq2    H3 1156   1.788   1.525  13.780 -1.3094  0.7210  0.8425
   75TCq2    H4 1157   1.928   1.696  14.143 -0.5356 -0.0166  0.3394
   76MPD2     C 1158   1.052   2.821  12.316  0.5281 -0.1876 -0.2668
   76MPD2    C1 1159   1.047   2.801  12.174  0.1799  0.5267  0.9338
   76MPD2    C2 1160   1.165   2.747  12.112 -0.2106 -0.6756 -0.2951
   76MPD2    C3 1161   1.276   2.704  12.188  0.5543 -0.5562 -0.2026
   76MPD2    C4 1162   1.268   2.718  12.322  0.4548 -0.3048 -0.2191
   76MPD2    C5 1163   1.162   2.773  12.382  0.2066  0.0137  0.7762
   76MPD2     H 1164   1.165   2.723  12.006  1.0344  0.9672 -0.6677
   76MPD2    H1 1165   1.342   2.680  12.392  1.6969  0.3736 -1.1756
   76MPD2    H2 1166   0.974   2.869  12.372  0.7704 -0.4122  0.2602
   76MPD2    H3 1167   1.161   2.785  12.490 -1.4133 -1.7220  0.9551
   76MPD2     N 1168   1.382   2.631  12.123  0.4763 -0.6546 -0.0905
   76MPD2    H5 1169   1.373   2.623  12.022  1.2600  0.4613 -0.2446
   76MPD2    N1 1170   0.936   2.850  12.094  0.4360 -0.0052  0.4200
   76MPD2    H7 1171   0.935   2.833  11.994  2.6072  1.0334  0.2333
   77TCq2    C1 1172   1.491   2.579  12.191  0.0059  0.4804  0.6186
   77TCq2    O2 1173   1.512   2.582  12.312  0.5328  0.0412 -0.1856
   77TCq2    C2 1174   1.571   2.492  12.108 -0.0195  0.1557 -0.1776
   77TCq2    C3 1175   1.544   2.487  11.973  0.5151  0.3328  0.0969
   77TCq2    C4 1176   1.643   2.465  11.884 -0.2903 -0.0715 -0.2857
   77TCq2    C5 1177   1.772   2.453  11.931 -0.4069  0.4163  0.2217
   77TCq2    C6 1178   1.797   2.466  12.066 -0.2289 -0.0625  0.5526
   77TCq2    C7 1179   1.695   2.477  12.159  0.1227  0.4053 -0.0287
   77TCq2    C8 1180   1.933   2.457  12.111 -0.2406  0.2171 -0.7200
   77TCq2    O4 1181   2.018   2.469  12.025 -0.2475 -0.1373  0.6410
   77TCq2    C9 1182   1.609   2.473  11.743 -0.3157  0.5369 -0.4471
   77TCq2    O5 1183   1.706   2.467  11.658  0.2340 -0.1715 -0.7042
   77TCq2    O6 1184   1.487   2.499  11.708  0.5422 -0.9291  0.4421
   77TCq2    H2 1185   1.438   2.491  11.949  1.1550 -3.5347 -3.1871
   77TCq2    H3 1186   1.856   2.443  11.863 -0.0545  0.4208  0.6547
   77TCq2    H4 1187   1.711   2.475  12.266 -1.8155 -0.4898  0.2302
   78MPD1     C 1188   0.967   2.353   1.539 -0.1349  0.2310 -0.4499
   78MPD1    C1 1189   0.988   2.471   1.472 -0.3662 -0.7244  0.7003
   78MPD1    C2 1190   1.097   2.541   1.524 -0.1940 -0.0570  1.3744
   78MPD1    C3 1191   1.175   2.498   1.626  0.8306  0.1933  0.4254
   78MPD1    C4 1192   1.144   2.384   1.700 -0.0545  0.1723  0.4939
   78MPD1    C5 1193   1.038   2.312   1.651 -0.3221  0.6467 -0.0518
   78MPD1     H 1194   1.123   2.628   1.465 -0.8892  0.0677  1.2503
   78MPD1    H1 1195   1.210   2.355   1.781 -0.8866 -2.3635  0.2666
   78MPD1    H2 1196   0.892   2.286   1.500 -1.0536  0.0363  1.6514
   78MPD1    H3 1197   1.023   2.217   1.699 -1.2073 -0.1244 -1.8306
   78MPD1     N 1198   1.277   2.573   1.689 -0.0791 -0.1273  0.5105
   78MPD1    H5 1199   1.331   2.513   1.751  0.0567 -0.7613 -0.2086
   78MPD1    N1 1200   0.920   2.494   1.352 -0.4595  0.3194  0.1377
   78MPD1    H6 1201   0.908   2.593   1.333  0.2577  0.2832 -0.4863
   78MPD1    H7 1202   0.831   2.445   1.355  0.7951 -2.0502 -1.7947
   79TCq2    C1 1203   1.301   2.706   1.672  0.1764  0.2683 -0.0797
   79TCq2    O2 1204   1.251   2.783   1.588 -0.1795  0.0742  0.0181
   79TCq2    C2 1205   1.384   2.764   1.767  0.3147 -0.4305  0.5544
   79TCq2    C3 1206   1.407   2.703   1.888 -0.8105 -0.4108  0.3636
   79TCq2    C4 1207   1.496   2.763   1.971  0.5375 -0.2430 -0.0286
   79TCq2    C5 1208   1.559   2.872   1.934 -0.7342  0.2554  0.2218
   79TCq2    C6 1209   1.530   2.935   1.814  0.0993 -0.4588  0.4030
   79TCq2    C7 1210   1.443   2.883   1.733  0.0078  0.1759 -0.3530
   79TCq2    C8 1211   1.596   3.070   1.793  0.1773  0.6314 -0.0156
   79TCq2    O4 1212   1.683   3.112   1.869  0.6902 -0.5794 -0.4651
   79TCq2    C9 1213   1.512   2.712   2.104  0.2664 -0.2365  0.2703
   79TCq2    O5 1214   1.601   2.769   2.178 -0.3045  0.2640 -0.1711
   79TCq2    O6 1215   1.431   2.626   2.145  0.6980 -0.0338  0.3885
   79TCq2    H2 1216   1.360   2.610   1.918 -4.6856  0.9126 -1.5967
   79TCq2    H3 1217   1.621   2.925   2.006 -1.1893 -1.5429  1.9354
   79TCq2    H4 1218   1.442   2.918   1.630 -0.6494 -0.8896 -0.7060
   80MPD2     C 1219   0.016   2.482  12.543  0.2135 -0.2563  0.2168
   80MPD2    C1 1220   4.679   2.420  12.435  0.2914  0.2215  0.4221
   80MPD2    C2 1221   4.545   2.418  12.416  0.5001  0.7810 -0.3541
   80MPD2    C3 1222   4.465   2.473  12.515 -0.5891 -0.9323 -0.1735
   80MPD2    C4 1223   4.520   2.530  12.622  0.2353 -0.4046 -0.1192
   80MPD2    C5 1224   4.659   2.537  12.629  0.0551  0.4757  0.0298
   80MPD2     H 1225   4.507   2.377  12.323  1.6456 -0.7646 -0.1505
   80MPD2    H1 1226   4.462   2.579  12.700  0.4166 -1.1964  0.5132
   80MPD2    H2 1227   0.122   2.480  12.561  0.1462 -1.3244  0.4961
   80MPD2    H3 1228   4.700   2.592  12.713  0.9048 -0.3321  0.1403
   80MPD2     N 1229   4.323   2.470  12.505  0.0118  0.6528  0.3147
   80MPD2    H5 1230   4.275   2.508  12.586 -0.0452 -1.2188  1.1409
   80MPD2    N1 1231   0.035   2.353  12.342 -0.5788 -0.2651  0.4109
   80MPD2    H7 1232   4.718   2.294  12.272 -1.6266 -0.4724  1.2421
   81TCq2    C1 1233   0.169   2.368  12.327 -0.2197 -0.4066 -0.3430
   81TCq2    O2 1234   0.245   2.456  12.362  0.1825 -0.0289  0.1275
   81TCq2    C2 1235   0.221   2.271  12.233  0.0964  0.6756 -0.2750
   81TCq2    C3 1236   0.309   2.313  12.133  0.4337 -0.4462 -0.1818
   81TCq2    C4 1237   0.359   2.223  12.043  0.0620  0.2890  0.2241
   81TCq2    C5 1238   0.314   2.093  12.042 -0.3363  0.2458  0.4059
   81TCq2    C6 1239   0.232   2.054  12.140  0.7976  0.2614 -0.0621
   81TCq2    C7 1240   0.180   2.142  12.236 -0.0558 -0.5041  0.4828
   81TCq2    C8 1241   0.226   1.910  12.159 -0.0604  0.1678 -0.8491
   81TCq2    O4 1242   0.302   1.838  12.099 -0.1361  0.4536 -0.2737
   81TCq2    C9 1243   0.475   2.253  11.961 -0.3470 -0.7742 -0.0551
   81TCq2    O5 1244   0.530   2.163  11.897 -0.2050 -0.3486 -0.4307
   81TCq2    O6 1245   0.521   2.369  11.970 -0.0142 -0.4009 -0.7429
   81TCq2    H2 1246   0.355   2.411  12.130  1.2688 -0.7835  1.4702
   81TCq2    H3 1247   0.361   2.027  11.970 -1.3095 -0.8318  0.7601
   81TCq2    H4 1248   0.127   2.110  12.325 -1.0141 -0.8071 -0.1947
   82MPD2     C 1249   2.423   1.438  10.841 -0.2540  0.6077  0.1648
   82MPD2    C1 1250   2.501   1.550  10.804 -0.1529  0.6383 -0.0514
   82MPD2    C2 1251   2.629   1.552  10.854  0.0702  0.0112  0.0107
   82MPD2    C3 1252   2.676   1.458  10.948 -0.0612 -0.5126 -0.0353
   82MPD2    C4 1253   2.591   1.363  10.992  0.2382  0.0726 -0.7062
   82MPD2    C5 1254   2.470   1.347  10.937 -0.0256  0.3561 -0.1005
   82MPD2     H 1255   2.693   1.623  10.803  0.5184 -0.8562 -0.6360
   82MPD2    H1 1256   2.633   1.297  11.066 -0.6289  0.1591 -0.1411
   82MPD2    H2 1257   2.326   1.425  10.794  0.6113 -2.7448 -0.7163
   82MPD2    H3 1258   2.401   1.266  10.959 -0.1357  0.9202  1.6745
   82MPD2     N 1259   2.810   1.452  10.998 -0.1885 -0.2551 -0.8865
   82MPD2    H5 1260   2.831   1.379  11.065 -0.2445 -0.6754 -1.3265
   82MPD2    N1 1261   2.445   1.642  10.711  0.0100 -0.6903  0.2287
   82MPD2    H7 1262   2.348   1.619  10.693 -0.6178  1.4590  0.8690
   83TCq2    C1 1263   2.913   1.519  10.941 -0.7305  0.7451 -0.7784
   83TCq2    O2 1264   2.913   1.607  10.858  0.0104  0.4667  0.0321
   83TCq2    C2 1265   3.041   1.475  11.000  0.4014 -0.6302 -0.9774
   83TCq2    C3 1266   3.151   1.554  10.978  0.6360 -0.1135 -0.4018
   83TCq2    C4 1267   3.267   1.531  11.046  0.7822  0.1425 -0.0627
   83TCq2    C5 1268   3.282   1.413  11.128 -0.3098 -0.4033 -0.1294
   83TCq2    C6 1269   3.172   1.325  11.133  0.2567  0.3404  0.9338
   83TCq2    C7 1270   3.049   1.364  11.077 -0.1867  0.6699  0.4917
   83TCq2    C8 1271   3.175   1.232  11.249 -0.2297 -0.4314  0.1710
   83TCq2    O4 1272   3.218   1.268  11.358 -0.2698 -0.1105 -0.7186
   83TCq2    C9 1273   3.372   1.623  11.037 -0.4380 -0.6695 -0.1107
   83TCq2    O5 1274   3.476   1.579  11.093  0.0448 -0.3235  0.3390
   83TCq2    O6 1275   3.356   1.735  10.979  0.0266 -0.1426  0.0929
   83TCq2    H2 1276   3.146   1.644  10.918  3.2896  0.6409  0.5115
   83TCq2    H3 1277   3.373   1.401  11.187 -1.5384 -0.4598  1.7489
   83TCq2    H4 1278   2.964   1.305  11.107 -1.3148  1.1494 -1.7153
   84TCq2    C1 1279   4.630   0.748  10.717 -0.8537 -0.1603 -0.3394
   84TCq2    O2 1280   4.616   0.868  10.717  0.2005  0.1915  0.3447
   84TCq2    C2 1281   4.546   0.674  10.806  0.0078  0.1005 -0.3742
   84TCq2    C3 1282   4.556   0.542  10.795 -0.0595  0.5985  0.7308
   84TCq2    C4 1283   4.513   0.469  10.901 -0.0126 -0.3684 -1.2825
   84TCq2    C5 1284   4.459   0.532  11.011  0.3552  0.1247  0.0706
   84TCq2    C6 1285   4.450   0.668  11.015 -0.3321  0.9389 -0.0302
   84TCq2    C7 1286   4.493   0.744  10.912 -0.2019  0.7536  0.1542
   84TCq2    C8 1287   4.420   0.730  11.149 -0.3939 -0.5685  0.3525
   84TCq2    O4 1288   4.370   0.844  11.150 -0.5985 -0.2198 -0.6567
   84TCq2    C9 1289   4.521   0.326  10.911 -0.1791 -0.2255 -0.0514
   84TCq2    O5 1290   4.520   0.261  10.799  0.0051  0.2932 -0.1622
   84TCq2    O6 1291   4.526   0.274  11.030  0.3168 -0.6393  0.2046
   84TCq2    H2 1292   4.582   0.490  10.703 -0.3188 -1.3017  1.7328
   84TCq2    H3 1293   4.422   0.471  11.092  1.7969 -2.0965 -0.9629
   84TCq2    H4 1294   4.496   0.851  10.930 -1.4670  1.1494 -2.0282
   85MPD2     C 1295   4.430   3.579  16.646  0.2058  0.1662  1.1234
   85MPD2    C1 1296   4.511   3.495  16.583  0.0676 -0.9686  0.4981
   85MPD2    C2 1297   4.600   3.537  16.481  0.1554 -0.0779 -0.0999
   85MPD2    C3 1298   4.616   3.673  16.457 -0.8329  0.0517  0.4117
   85MPD2    C4 1299   4.529   3.763  16.521  0.2064 -1.0161 -0.1200
   85MPD2    C5 1300   4.439   3.710  16.615 -0.4310  0.1709 -0.1711
   85MPD2     H 1301   4.662   3.463  16.433  1.2140  0.3572  0.6008
   85MPD2    H1 1302   4.536   3.871  16.513  0.5518 -1.0137  0.2264
   85MPD2    H2 1303   4.363   3.550  16.727  0.2020  0.8686  1.3720
   85MPD2    H3 1304   4.383   3.775  16.682 -1.9081  2.6751 -3.8602
   85MPD2     N 1305   4.718   3.709  16.360 -0.0503  0.1334  1.1830
   85MPD2    H5 1306   0.058   3.647  16.315  0.8139  2.7968 -1.2615
   85MPD2    N1 1307   4.499   3.353  16.586 -0.0217 -0.0922 -0.0770
   85MPD2    H7 1308   4.558   3.307  16.517 -1.0713 -0.9061 -0.4412
   86TCq2    C1 1309   0.011   3.843  16.330  0.0058 -0.1565  0.3051
   86TCq2    O2 1310   4.676   3.942  16.365  0.0975  0.2208 -0.0369
   86TCq2    C2 1311   0.122   3.864  16.241  0.0204 -0.6570 -0.2452
   86TCq2    C3 1312   0.116   3.977  16.167  0.1087  0.0292  0.3937
   86TCq2    C4 1313   0.212   3.992  16.074 -0.3910  0.2451 -0.7219
   86TCq2    C5 1314   0.309   3.891  16.049 -0.0197  0.0153 -0.1562
   86TCq2    C6 1315   0.315   3.785  16.130 -0.0684  0.0939  0.0571
   86TCq2    C7 1316   0.225   3.772  16.232 -1.3745 -0.4193 -0.1099
   86TCq2    C8 1317   0.436   3.705  16.126  0.9047  0.4419  0.6119
   86TCq2    O4 1318   0.427   3.590  16.168  0.2791  0.5705  0.3061
   86TCq2    C9 1319   0.231   4.110  16.003  0.4516  0.0927  0.1900
   86TCq2    O5 1320   0.347   4.133  15.959  0.0472  0.2353 -0.2419
   86TCq2    O6 1321   0.133   4.190  15.979  0.3809 -0.2261 -0.1587
   86TCq2    H2 1322   0.050   4.061  16.185  1.1726  1.0347 -0.4296
   86TCq2    H3 1323   0.365   3.909  15.958 -0.1508  0.6167 -0.1200
   86TCq2    H4 1324   0.235   3.694  16.306 -2.1439 -0.7019 -0.3147
   87MPD2     C 1325   1.224   1.616   0.734  0.0823  0.1271  0.3527
   87MPD2    C1 1326   1.218   1.746   0.691 -0.2621 -0.3267 -0.4467
   87MPD2    C2 1327   1.101   1.791   0.646  0.3157 -0.4775  1.3026
   87MPD2    C3 1328   0.990   1.710   0.629  0.1369 -0.3458  0.5388
   87MPD2    C4 1329   0.998   1.577   0.672 -0.2640 -0.2454  0.2400
   87MPD2    C5 1330   1.111   1.536   0.733  0.1123  0.1405  0.3704
   87MPD2     H 1331   1.095   1.897   0.629  1.5110 -0.8201 -1.2609
   87MPD2    H1 1332   0.919   1.505   0.658 -0.7198  0.1294  0.9064
   87MPD2    H2 1333   1.309   1.575   0.787 -0.1129 -0.0926  0.4953
   87MPD2    H3 1334   1.112   1.433   0.766 -0.4654 -0.7903 -2.5178
   87MPD2     N 1335   0.871   1.752   0.566 -0.0982 -0.0204 -0.4487
   87MPD2    H5 1336   0.786   1.696   0.568  0.2024 -0.5611 -2.6137
   87MPD2    N1 1337   1.336   1.825   0.680  0.5715  0.5083 -0.3520
   87MPD2    H7 1338   1.417   1.795   0.734  0.3601  1.6864  0.6387
   88TCq2    C1 1339   1.336   1.960   0.627 -0.3403  0.3042 -0.1877
   88TCq2    O2 1340   1.242   2.035   0.591 -0.5307  0.5097  0.4079
   88TCq2    C2 1341   1.468   2.015   0.619  0.3670  0.2121  0.3577
   88TCq2    C3 1342   1.470   2.149   0.582 -0.4199 -0.1663  0.6417
   88TCq2    C4 1343   1.590   2.202   0.550  0.3930 -0.2348  1.2863
   88TCq2    C5 1344   1.702   2.122   0.537  0.0787 -0.3425 -0.2710
   88TCq2    C6 1345   1.693   1.986   0.571 -0.0366 -0.2613  0.4986
   88TCq2    C7 1346   1.579   1.934   0.621  0.1575  0.1550  0.7622
   88TCq2    C8 1347   1.810   1.909   0.569 -0.1596 -0.4462 -0.2533
   88TCq2    O4 1348   1.868   1.919   0.466 -0.0988 -0.2847  0.5379
   88TCq2    C9 1349   1.600   2.343   0.523  0.1124  0.0821 -1.3480
   88TCq2    O5 1350   1.489   2.399   0.521 -0.1150 -0.1540  0.2798
   88TCq2    O6 1351   1.708   2.387   0.488  0.0745 -0.6779 -0.0820
   88TCq2    H2 1352   1.380   2.208   0.593  0.0162  0.8049 -0.8792
   88TCq2    H3 1353   1.801   2.165   0.527 -0.7459  1.1001 -2.3801
   88TCq2    H4 1354   1.572   1.833   0.657 -0.4045  0.2783  0.9991
   89MPD2     C 1355   2.634   4.289   1.557 -0.1854  0.0003  0.4921
   89MPD2    C1 1356   2.589   4.415   1.579 -1.2532  0.5996 -0.1812
   89MPD2    C2 1357   2.680   4.519   1.570  0.3898  0.0967 -0.9067
   89MPD2    C3 1358   2.816   4.494   1.555 -0.1839 -0.5917 -0.1270
   89MPD2    C4 1359   2.857   4.366   1.525 -0.5431  0.1076 -0.4002
   89MPD2    C5 1360   2.765   4.266   1.525 -0.0175  0.0545 -0.6827
   89MPD2     H 1361   2.644   4.619   1.592  1.6156 -0.4683  3.5487
   89MPD2    H1 1362   2.961   4.340   1.512 -0.7362 -0.6112 -0.5353
   89MPD2    H2 1363   2.576   4.198   1.572 -3.1708  1.7770 -0.3848
   89MPD2    H3 1364   2.801   4.163   1.523 -0.7681 -0.2338  1.1487
   89MPD2     N 1365   2.895   4.610   1.539 -0.3827  0.9048  0.0208
   89MPD2    H5 1366   2.852   4.702   1.540 -1.4152  0.4326 -1.0864
   89MPD2    N1 1367   2.457   4.456   1.605 -0.0490  0.0821 -0.0190
   89MPD2    H7 1368   2.438   4.555   1.618  1.1455  0.5718 -1.8744
   90TCq2    C1 1369   3.030   4.614   1.517  0.7801 -0.3358 -0.8551
   90TCq2    O2 1370   3.105   4.516   1.528  0.4058 -0.4927  0.0006
   90TCq2    C2 1371   3.087   0.015   1.471  0.5427 -0.3244 -0.6353
   90TCq2    C3 1372   3.028   0.129   1.509  0.3637 -0.1477 -0.7305
   90TCq2    C4 1373   3.108   0.238   1.517 -0.0212 -0.0815  0.4508
   90TCq2    C5 1374   3.243   0.238   1.478 -0.4203 -0.0445 -0.4160
   90TCq2    C6 1375   3.297   0.118   1.436 -0.4826  0.9357  0.0637
   90TCq2    C7 1376   3.218   0.010   1.434  0.1322 -0.2964 -0.2152
   90TCq2    C8 1377   3.441   0.098   1.414  0.4152 -0.0494 -0.2189
   90TCq2    O4 1378   3.478   4.710   1.402 -0.4860  0.3614 -0.2774
   90TCq2    C9 1379   3.043   0.369   1.552 -1.0589 -0.7794  0.6101
   90TCq2    O5 1380   3.105   0.477   1.530  0.6140 -0.0554  0.2962
   90TCq2    O6 1381   2.946   0.365   1.629  0.6546 -0.3993  0.5097
   90TCq2    H2 1382   2.920   0.133   1.520  0.2334 -0.8245 -1.7695
   90TCq2    H3 1383   3.303   0.328   1.466  0.1829 -0.3347  0.4172
   90TCq2    H4 1384   3.276   4.645   1.430 -0.2438 -0.6339  1.8624
   91TMC2    C1 1385   0.172   4.579  16.999 -0.2198 -0.1218 -0.5786
   91TMC2    C2 1386   0.214   4.643  17.115  0.3451  0.0215  0.0163
   91TMC2    C3 1387   0.113   4.674  17.198  0.2220  0.5512 -0.9804
   91TMC2    C4 1388   0.039   4.551  16.967  0.6587 -0.7001 -0.2017
   91TMC2    C5 1389   4.677   4.586  17.055 -0.2152  0.0545  0.0064
   91TMC2    C6 1390   4.711   4.649  17.171  0.0135  0.9002 -0.4100
   91TMC2     C 1391   0.273   4.529  16.910  0.8184 -0.7498  0.1204
   91TMC2     O 1392   0.232   4.456  16.823  0.5122  0.5558  0.1227
   91TMC2     H 1393   0.318   4.663  17.137 -0.2273  0.9018  1.8750
   91TMC2    H1 1394   0.012   4.499  16.875 -1.1208 -0.0242 -0.0542
   91TMC2    H2 1395   4.636   4.706  17.226  1.1644  0.2556  1.8425
   91TMC2    C7 1396   4.546   4.521  17.049  0.4259 -0.2304  0.5766
   91TMC2    C8 1397   0.148   0.023  17.316  0.3240 -0.8733 -0.0250
   91TMC2    O1 1398   4.505   4.467  17.155 -0.3245 -0.1505  0.2693
   91TMC2    O2 1399   0.226   0.119  17.306  0.3267 -0.7874  0.1886
   91TMC2    O5 1400   0.071   4.698  17.413  0.0428 -0.2445 -0.3534
   91TMC2    H5 1401   0.046   4.606  17.390 -1.9725  0.1847  0.1025
   92MPD2     C 1402   0.518   4.437  16.775  0.1044 -0.5372  0.5271
   92MPD2    C1 1403   0.514   4.535  16.874 -0.4717 -0.4201  0.3130
   92MPD2    C2 1404   0.630   4.594  16.918 -0.1340 -0.4241  0.7198
   92MPD2    C3 1405   0.747   4.555  16.859 -0.1126  0.3529  0.2851
   92MPD2    C4 1406   0.749   4.447  16.771 -0.1386  0.2622 -0.6207
   92MPD2    C5 1407   0.636   4.388  16.731  0.0800  0.0512 -0.0673
   92MPD2     H 1408   0.625   4.669  16.996  0.8998  0.9823 -0.5577
   92MPD2    H1 1409   0.843   4.410  16.733 -0.9063 -2.6210  0.2758
   92MPD2    H2 1410   0.427   4.386  16.745 -0.0780 -0.3695  0.7900
   92MPD2    H3 1411   0.625   4.312  16.655 -1.7041  0.2247  0.0392
   92MPD2     N 1412   0.866   4.617  16.901  0.1820 -0.0711  0.3432
   92MPD2    H5 1413   0.858   4.704  16.953 -0.7941 -0.1778  0.3783
   92MPD2    N1 1414   0.398   4.585  16.935 -0.1879 -0.3579 -0.1527
   92MPD2    H7 1415   0.405   4.655  17.008  0.4648  0.0035 -0.5565
   93MPD2     C 1416   1.882   4.248  13.828 -0.3497 -0.1920  0.3043
   93MPD2    C1 1417   1.820   4.313  13.931 -0.7313 -0.4213  0.3959
   93MPD2    C2 1418   1.684   4.346  13.919  0.1665 -0.9671 -0.7602
   93MPD2    C3 1419   1.622   4.325  13.798  0.5937  1.2305  0.3434
   93MPD2    C4 1420   1.689   4.251  13.695 -0.6455 -0.6977 -0.2381
   93MPD2    C5 1421   1.816   4.207  13.716  0.4991  1.0376  0.1955
   93MPD2     H 1422   1.629   4.387  14.002 -0.2336 -0.2593 -1.3843
   93MPD2    H1 1423   1.638   4.223  13.604 -2.2925  1.0982  0.1413
   93MPD2    H2 1424   1.988   4.226  13.826 -0.4928 -0.8379  0.0732
   93MPD2    H3 1425   1.875   4.167  13.635 -0.5059 -0.3660  0.1599
   93MPD2     N 1426   1.499   4.382  13.777 -0.2680  0.6575 -0.5715
   93MPD2    H5 1427   1.464   4.374  13.682 -2.5409  1.9858  0.1594
   93MPD2    N1 1428   1.896   4.367  14.041  0.3041  0.1268 -0.4203
   93MPD2    H7 1429   1.851   4.436  14.100  0.2514  1.0580 -1.5469
   94TCq2    C1 1430   2.027   4.336  14.078  0.2522 -0.1677  0.8166
   94TCq2    O2 1431   2.115   4.269  14.026  0.2540 -0.6196  0.3653
   94TCq2    C2 1432   2.081   4.429  14.173 -0.3609 -0.1383  0.0014
   94TCq2    C3 1433   1.994   4.511  14.245  0.1654  0.0752  0.5451
   94TCq2    C4 1434   2.041   4.625  14.311 -0.3566 -0.2126  0.4447
   94TCq2    C5 1435   2.172   4.664  14.293 -0.8202  0.8819 -0.2157
   94TCq2    C6 1436   2.253   4.584  14.208 -0.2547  0.1798  0.3612
   94TCq2    C7 1437   2.212   4.466  14.153  1.0792  0.3290  0.1694
   94TCq2    C8 1438   2.400   4.615  14.195 -0.1058 -0.2085  0.4090
   94TCq2    O4 1439   2.457   4.562  14.100  0.5426 -0.9076 -0.1187
   94TCq2    C9 1440   1.945   4.704  14.381 -0.5231  0.1424 -0.0635
   94TCq2    O5 1441   1.985   0.055  14.472 -0.1443  0.2221 -0.2272
   94TCq2    O6 1442   1.826   4.692  14.339  0.1912  0.0055  0.3375
   94TCq2    H2 1443   1.893   4.474  14.262  0.1133  0.7893  1.7475
   94TCq2    H3 1444   2.200   0.035  14.333  0.1395  1.2196 -1.7442
   94TCq2    H4 1445   2.272   4.418  14.077  1.1459 -0.7666  0.9143
   95TMC2    C1 1446   1.502   1.753  16.075  0.4551 -0.6798 -0.4201
   95TMC2    C2 1447   1.481   1.889  16.081 -0.0055 -0.2283  0.0639
   95TMC2    C3 1448   1.387   1.929  16.170 -0.0090  0.6803  0.0187
   95TMC2    C4 1449   1.440   1.665  16.157  0.2334  0.3006 -0.8475
   95TMC2    C5 1450   1.337   1.715  16.234 -0.0430  0.0804 -0.6890
   95TMC2    C6 1451   1.318   1.843  16.254 -0.4674  0.1265  0.4997
   95TMC2     C 1452   1.608   1.703  15.987  0.4268 -0.1411 -0.1474
   95TMC2     O 1453   1.695   1.786  15.973  0.2915  0.5668 -0.1032
   95TMC2     H 1454   1.534   1.957  16.015  0.5155  0.6416  1.3903
   95TMC2    H1 1455   1.464   1.560  16.162 -2.2305 -0.1448  1.1895
   95TMC2    H2 1456   1.231   1.882  16.304  0.4473 -0.1971  2.3512
   95TMC2    C7 1457   1.267   1.616  16.315  0.3583 -0.6028 -0.0235
   95TMC2    C8 1458   1.319   2.055  16.153 -0.1459  0.0971 -0.3489
   95TMC2    O1 1459   1.335   1.520  16.349 -0.1859  0.5612 -0.0680
   95TMC2    O2 1460   1.256   2.111  16.241  0.3187  0.1626  0.1598
   95TMC2    O5 1461   1.303   2.066  16.013 -0.0166  0.5376 -0.3299
   95TMC2    H5 1462   1.355   2.008  15.954 -3.4668 -1.4494 -1.3819
   96MPD2     C 1463   1.898   1.340  15.758  0.4242  0.0551  0.6804
   96MPD2    C1 1464   1.932   1.474  15.785 -0.3258  0.4977  0.0043
   96MPD2    C2 1465   1.832   1.546  15.851  0.0887  0.7970 -0.4437
   96MPD2    C3 1466   1.713   1.493  15.896  0.4989 -0.8184  0.5783
   96MPD2    C4 1467   1.692   1.356  15.877 -0.0192 -0.0586 -0.5300
   96MPD2    C5 1468   1.788   1.278  15.811  0.4071 -0.4137 -0.2819
   96MPD2     H 1469   1.850   1.651  15.872 -0.0019 -0.0471  3.8453
   96MPD2    H1 1470   1.601   1.306  15.911  1.4855 -2.0759  0.5708
   96MPD2    H2 1471   1.969   1.271  15.715 -0.5493  0.1358 -1.0537
   96MPD2    H3 1472   1.774   1.170  15.810  0.9052 -0.5283  2.6128
   96MPD2     N 1473   1.605   1.573  15.955 -0.2008 -0.0376  0.3598
   96MPD2    H5 1474   1.519   1.524  15.976 -2.2382  3.5552  0.4477
   96MPD2    N1 1475   2.062   1.519  15.757  0.0775  0.2558 -0.2351
   96MPD2    H7 1476   2.123   1.453  15.710  0.2120 -0.6552  1.2158
   97MPD2     C 1477   2.889   3.563   0.289  0.3147  0.2497 -0.0094
   97MPD2    C1 1478   2.975   3.568   0.401  0.4307  0.0506 -0.3102
   97MPD2    C2 1479   3.111   3.593   0.388  0.3234  0.2529 -0.4617
   97MPD2    C3 1480   3.166   3.612   0.264  0.0245  0.3030  0.3803
   97MPD2    C4 1481   3.083   3.596   0.157  0.3018 -0.2478  1.2104
   97MPD2    C5 1482   2.946   3.575   0.165  0.1762 -0.0096  0.0024
   97MPD2     H 1483   3.162   3.625   0.479 -1.3962  1.8668 -0.0513
   97MPD2    H1 1484   3.142   3.604   0.066 -0.6326  1.9250  0.8028
   97MPD2    H2 1485   2.781   3.559   0.300  0.2833  1.6100  0.2173
   97MPD2    H3 1486   2.880   3.580   0.079  0.4712  0.4262 -0.1936
   97MPD2     N 1487   3.300   3.657   0.238  0.1038 -0.0649 -0.0982
   97MPD2    H5 1488   3.331   3.649   0.141  2.0797  0.1578  0.5235
   97MPD2    N1 1489   2.915   3.536   0.526 -0.4448  0.3546 -0.0904
   97MPD2    H7 1490   2.818   3.507   0.525 -0.6966  1.1900  0.9487
   98TCq2    C1 1491   3.403   3.690   0.326  0.1297  0.6510 -0.2906
   98TCq2    O2 1492   3.400   3.723   0.445  0.4005 -0.7046  0.0113
   98TCq2    C2 1493   3.530   3.688   0.258  0.5683  0.2670  0.4531
   98TCq2    C3 1494   3.543   3.601   0.153  0.0139  0.6634 -0.2919
   98TCq2    C4 1495   3.655   3.610   0.074  0.0560  0.0237 -0.1561
   98TCq2    C5 1496   3.747   3.707   0.100  1.3092 -0.4193 -0.3963
   98TCq2    C6 1497   3.731   3.790   0.206  0.1209 -0.4998  0.2618
   98TCq2    C7 1498   3.622   3.781   0.294 -0.2297  0.2055 -0.2933
   98TCq2    C8 1499   3.822   3.899   0.227  0.6642 -0.0569 -0.2236
   98TCq2    O4 1500   3.804   3.967   0.325  0.3339  0.0867  0.0428
   98TCq2    C9 1501   3.668   3.535  17.653 -0.0265 -0.5461  0.1811
   98TCq2    O5 1502   3.592   3.432  17.648  0.0291 -0.0742  0.2870
   98TCq2    O6 1503   3.758   3.564  17.573 -0.0473  0.3942 -0.0691
   98TCq2    H2 1504   3.479   3.514   0.146 -1.4580  1.6476  1.0156
   98TCq2    H3 1505   3.833   3.715   0.034  0.6818  1.4032 -0.9894
   98TCq2    H4 1506   3.622   3.834   0.389 -0.1737  1.6149 -1.0814
   99MPD2     C 1507   2.151   1.572   1.208  0.1636  0.0921 -0.4478
   99MPD2    C1 1508   2.139   1.485   1.312  0.5302 -0.1031 -0.3458
   99MPD2    C2 1509   2.204   1.362   1.292 -0.3923 -0.0457 -0.4260
   99MPD2    C3 1510   2.266   1.322   1.172 -0.1718  0.1241 -0.2198
   99MPD2    C4 1511   2.269   1.410   1.068 -0.2712  0.4411 -0.1739
   99MPD2    C5 1512   2.209   1.535   1.089 -0.3678 -0.5562  0.1025
   99MPD2     H 1513   2.201   1.288   1.370  0.8317  1.2894  0.8827
   99MPD2    H1 1514   2.313   1.398   0.969 -2.3540 -1.4881 -0.8435
   99MPD2    H2 1515   2.107   1.671   1.207  0.6315  0.3109  0.2951
   99MPD2    H3 1516   2.226   1.610   1.014  4.3294 -1.7000 -0.0323
   99MPD2     N 1517   2.331   1.204   1.180 -0.0788 -0.6976 -0.0155
   99MPD2    H5 1518   2.333   1.165   1.273  0.3868  1.5978  0.9383
   99MPD2    N1 1519   2.084   1.512   1.439  0.6299 -0.8887  0.5980
   99MPD2    H7 1520   2.097   1.439   1.509  0.5512 -2.0357 -0.5813
  100TCq2    C1 1521   2.030   1.630   1.478  0.4897 -0.2037 -0.3245
  100TCq2    O2 1522   1.994   1.717   1.400  0.1577 -0.0728  0.8023
  100TCq2    C2 1523   1.985   1.627   1.619 -0.4414  0.0980  0.0316
  100TCq2    C3 1524   2.072   1.612   1.726 -0.2606  0.1284 -0.0793
  100TCq2    C4 1525   2.036   1.657   1.854 -0.2084 -0.3864  0.0563
  100TCq2    C5 1526   1.920   1.732   1.868  0.5332  0.4124 -0.7523
  100TCq2    C6 1527   1.837   1.742   1.754 -0.1291 -0.1267  0.8911
  100TCq2    C7 1528   1.871   1.697   1.628 -0.5945  0.7713 -0.1567
  100TCq2    C8 1529   1.713   1.825   1.775  1.1624  1.0094 -1.1953
  100TCq2    O4 1530   1.718   1.900   1.874 -0.0340 -0.5091  0.0735
  100TCq2    C9 1531   2.112   1.614   1.968  0.3423  0.2310  0.3212
  100TCq2    O5 1532   2.214   1.549   1.951 -0.2140 -0.5152  0.3985
  100TCq2    O6 1533   2.057   1.633   2.078  0.2221 -0.0926  0.1954
  100TCq2    H2 1534   2.166   1.560   1.709  0.8394  1.4375  1.9996
  100TCq2    H3 1535   1.886   1.760   1.967  0.3339 -1.1943 -0.3524
  100TCq2    H4 1536   1.801   1.703   1.545 -1.4774 -0.8769  0.4789
  101MPD2     C 1537   3.445   2.086  13.193 -0.2768  0.3313 -0.4209
  101MPD2    C1 1538   3.407   2.169  13.289 -0.4711  0.1072 -0.5714
  101MPD2    C2 1539   3.338   2.103  13.390  0.0952 -0.1161  0.2302
  101MPD2    C3 1540   3.315   1.964  13.394 -0.0639  0.0482 -0.1400
  101MPD2    C4 1541   3.380   1.888  13.304 -0.0433 -0.1199 -0.7656
  101MPD2    C5 1542   3.439   1.952  13.197 -0.1473 -0.0335 -0.1035
  101MPD2     H 1543   3.284   2.152  13.470  0.1028  0.3332 -0.0388
  101MPD2    H1 1544   3.382   1.779  13.310  3.8318 -0.0616 -1.2491
  101MPD2    H2 1545   3.495   2.132  13.108  1.3800 -2.1962 -0.8456
  101MPD2    H3 1546   3.479   1.888  13.119  0.1264  0.1498 -0.1126
  101MPD2     N 1547   3.231   1.906  13.492 -0.0764 -0.2465 -0.4019
  101MPD2    H5 1548   3.175   1.975  13.540 -1.1079 -0.5890 -1.1242
  101MPD2    N1 1549   3.410   2.306  13.267 -0.2887  0.3468  0.3917
  101MPD2    H7 1550   3.452   2.340  13.182 -0.3238  1.7929  0.9414
  102TCq2    C1 1551   3.440   2.719  12.997  0.3642 -0.2056  0.2574
  102TCq2    O2 1552   3.557   2.679  12.970  0.1751  0.4465  0.2177
  102TCq2    C2 1553   3.392   2.688  13.130 -0.0082  0.2092  0.8647
  102TCq2    C3 1554   3.328   2.788  13.201 -0.2113 -0.3489 -0.6061
  102TCq2    C4 1555   3.305   2.768  13.333  0.0181 -0.7443 -0.6606
  102TCq2    C5 1556   3.329   2.641  13.381  0.3941  0.1258 -0.0994
  102TCq2    C6 1557   3.375   2.537  13.302 -0.1136 -0.1604  0.2842
  102TCq2    C7 1558   3.405   2.557  13.171  0.1704 -0.1672 -0.4343
  102TCq2    C8 1559   3.365   2.401  13.351 -0.6442  0.0362  0.3034
  102TCq2    O4 1560   3.323   2.389  13.466 -0.3194 -0.1762 -0.5081
  102TCq2    C9 1561   3.252   2.877  13.409 -0.2514 -0.1954 -0.6113
  102TCq2    O5 1562   3.265   2.872  13.532 -0.1975 -0.1673 -0.4895
  102TCq2    O6 1563   3.190   2.966  13.343  0.4507 -0.1611 -0.2808
  102TCq2    H2 1564   3.316   2.886  13.157  1.5755 -0.2043 -0.7589
  102TCq2    H3 1565   3.320   2.626  13.488  1.9134  0.0673  0.0289
  102TCq2    H4 1566   3.451   2.483  13.107 -1.4447 -0.1223 -1.6492
  103TMC2    C1 1567   2.083   2.390  12.880 -0.0547  0.1801 -0.1869
  103TMC2    C2 1568   2.205   2.437  12.916  0.4349 -0.9189 -0.3366
  103TMC2    C3 1569   2.196   2.527  13.023  0.7388 -0.5058 -0.0515
  103TMC2    C4 1570   1.970   2.423  12.950 -0.2373 -0.3206  0.4586
  103TMC2    C5 1571   1.979   2.501  13.065 -0.0836 -0.5627 -0.1991
  103TMC2    C6 1572   2.096   2.546  13.106 -0.5056  0.1307  0.1231
  103TMC2     C 1573   2.067   2.361  12.737  0.2567  0.0162  0.1560
  103TMC2     O 1574   1.959   2.317  12.711  0.4509  0.1642 -0.9068
  103TMC2     H 1575   2.298   2.421  12.863  0.3196  1.0318 -1.1025
  103TMC2    H1 1576   1.879   2.370  12.927 -1.4279  1.6604  0.6208
  103TMC2    H2 1577   2.108   2.625  13.179  0.3090  0.6809 -0.6157
  103TMC2    C7 1578   1.866   2.547  13.138  0.6103 -0.0032 -0.2194
  103TMC2    C8 1579   2.322   2.597  13.054 -0.0175 -1.1199 -0.0143
  103TMC2    O1 1580   1.889   2.573  13.256 -0.3469  0.2480  0.5156
  103TMC2    O2 1581   2.393   2.628  12.962 -0.0784 -0.3877  0.8014
  103TMC2    O5 1582   2.332   2.618  13.185 -0.2774  0.1905  0.0203
  103TMC2    H5 1583   2.275   2.567  13.248 -2.0899  0.1278 -1.6710
  104MPD2     C 1584   2.298   2.319  12.461 -0.5396  0.3264 -0.1501
  104MPD2    C1 1585   2.181   2.349  12.520  0.4177  0.1619  0.0783
  104MPD2    C2 1586   2.073   2.381  12.446 -0.3156 -0.4534 -0.3320
  104MPD2    C3 1587   2.080   2.390  12.310 -1.1114 -0.1857  0.0574
  104MPD2    C4 1588   2.202   2.373  12.249 -0.8700  0.1299 -0.2089
  104MPD2    C5 1589   2.312   2.330  12.325 -0.3167  0.4477  0.5259
  104MPD2     H 1590   1.979   2.406  12.494 -0.7148 -0.4621 -1.1132
  104MPD2    H1 1591   2.210   2.386  12.142 -1.2407 -2.3528 -0.5513
  104MPD2    H2 1592   2.379   2.285  12.523  1.0949  0.7527 -2.0458
  104MPD2    H3 1593   2.403   2.305  12.271 -2.6836 -0.6412 -2.9472
  104MPD2     N 1594   1.955   2.424  12.247 -0.7414 -0.7686  0.3877
  104MPD2    H5 1595   1.872   2.416  12.305  1.3774 -1.3519  3.3257
  104MPD2    N1 1596   2.182   2.351  12.662  0.2191 -0.5106  0.6051
  104MPD2    H7 1597   2.272   2.349  12.709  0.5257  0.1107  0.0452
  105MPD2     C 1598   3.242   1.664   0.234 -0.0413 -0.3471  0.1540
  105MPD2    C1 1599   3.149   1.747   0.177 -0.5949  0.1116 -0.1908
  105MPD2    C2 1600   3.014   1.719   0.187 -0.2417  0.1822 -0.0013
  105MPD2    C3 1601   2.977   1.614   0.281  0.0466 -0.0086 -0.2232
  105MPD2    C4 1602   3.068   1.543   0.353  0.0931 -0.3916 -0.0554
  105MPD2    C5 1603   3.201   1.571   0.328 -0.5603 -0.3008  0.2207
  105MPD2     H 1604   2.940   1.776   0.133 -2.1325 -0.3973  1.9717
  105MPD2    H1 1605   3.036   1.464   0.420  1.3200  0.1132  1.1361
  105MPD2    H2 1606   3.348   1.683   0.230 -0.1492  0.1595 -0.2646
  105MPD2    H3 1607   3.275   1.525   0.392 -0.8582  2.4070  2.5226
  105MPD2     N 1608   2.843   1.584   0.282 -0.3749  0.0424 -0.5374
  105MPD2    H5 1609   2.783   1.651   0.234 -0.2201  0.8969  0.4526
  105MPD2    N1 1610   3.183   1.848   0.088  0.0287 -0.5804 -0.6910
  105MPD2    H7 1611   3.110   1.908   0.052  0.6020  0.1793 -0.5929
  106TCq2    C1 1612   2.770   1.493   0.356  0.2263  0.0346  0.0176
  106TCq2    O2 1613   2.804   1.411   0.437 -0.8263 -0.1334  0.1850
  106TCq2    C2 1614   2.630   1.514   0.326  0.3984  0.9670 -0.8184
  106TCq2    C3 1615   2.578   1.555   0.209 -0.0919 -0.0122  0.4981
  106TCq2    C4 1616   2.444   1.572   0.199  0.1202 -0.1443  0.1694
  106TCq2    C5 1617   2.367   1.543   0.299 -0.5444  0.3354 -0.2456
  106TCq2    C6 1618   2.417   1.504   0.419 -0.1394  0.0303  0.0064
  106TCq2    C7 1619   2.551   1.495   0.438 -0.3542 -0.6287 -0.4677
  106TCq2    C8 1620   2.328   1.492   0.531 -0.4450  0.3668  0.0261
  106TCq2    O4 1621   2.375   1.434   0.633 -0.1761  0.0595 -0.2837
  106TCq2    C9 1622   2.381   1.603   0.070  0.0654 -0.0518  0.3876
  106TCq2    O5 1623   2.250   1.606   0.068  0.1437  0.1261  0.0156
  106TCq2    O6 1624   2.449   1.614  17.671  0.2732 -0.0149  0.3470
  106TCq2    H2 1625   2.643   1.571   0.123 -1.7888 -2.2795 -1.2008
  106TCq2    H3 1626   2.260   1.548   0.286 -0.4392  0.4626 -1.0750
  106TCq2    H4 1627   2.592   1.473   0.536 -1.5424  0.8727  0.3652
  107TMC2    C1 1628   4.282   1.263  11.918  0.2220  0.1967 -0.0549
  107TMC2    C2 1629   4.365   1.355  11.855  0.1133 -0.8394  0.4435
  107TMC2    C3 1630   4.444   1.307  11.762 -0.0856 -0.7698 -0.0432
  107TMC2    C4 1631   4.287   1.130  11.889  0.2258  0.5050  0.0386
  107TMC2    C5 1632   4.377   1.087  11.794  0.0547  0.0913  0.4763
  107TMC2    C6 1633   4.464   1.174  11.735 -0.7343 -0.2085 -0.4805
  107TMC2     C 1634   4.167   1.308  11.995 -0.7391  0.2617 -0.5873
  107TMC2     O 1635   4.107   1.225  12.059  0.0895 -0.1200 -0.3631
  107TMC2     H 1636   4.385   1.454  11.894 -0.8330 -0.2357 -0.6303
  107TMC2    H1 1637   4.211   1.060  11.922  0.4708  0.1810 -0.0936
  107TMC2    H2 1638   4.545   1.145  11.669 -1.0584  1.4641 -1.5937
  107TMC2    C7 1639   4.405   0.951  11.772  0.1000  0.1273  0.0476
  107TMC2    C8 1640   4.535   1.402  11.705  0.0801 -0.2184  0.4219
  107TMC2    O1 1641   4.372   0.875  11.863  0.5405  0.2608 -0.5328
  107TMC2    O2 1642   4.591   1.488  11.774 -0.1383  0.2979 -0.0387
  107TMC2    O5 1643   4.576   1.361  11.586  0.2387 -0.6122  0.4321
  107TMC2    H5 1644   4.532   1.287  11.540 -1.3096 -0.1924  1.2539
  108MPD2     C 1645   4.037   1.654  11.992 -0.4641  0.7597  0.1186
  108MPD2    C1 1646   4.042   1.523  12.028 -0.2675 -0.0586 -0.2040
  108MPD2    C2 1647   3.945   1.479  12.116  1.1027 -0.1854  1.3698
  108MPD2    C3 1648   3.842   1.568  12.160 -0.2247  0.0616  0.7070
  108MPD2    C4 1649   3.830   1.695  12.109  0.6122  0.0581 -0.1327
  108MPD2    C5 1650   3.940   1.742  12.043 -0.1693  0.3410 -0.0516
  108MPD2     H 1651   3.953   1.377  12.152 -3.5919 -1.1758 -0.4610
  108MPD2    H1 1652   3.748   1.764  12.128  1.1615  0.3085  1.3193
  108MPD2    H2 1653   4.110   1.690  11.921 -1.9814 -2.0180 -2.8490
  108MPD2    H3 1654   3.942   1.842  12.000  2.3881 -1.3587 -3.9229
  108MPD2     N 1655   3.737   1.528  12.235  0.4904  0.0405 -0.2751
  108MPD2    H5 1656   3.663   1.595  12.255  0.3694  0.2110 -1.3170
  108MPD2    N1 1657   4.143   1.449  11.976 -0.1665  0.4946 -0.3537
  108MPD2    H7 1658   4.207   1.496  11.913 -0.9556  0.8160 -0.9278
  109MPD2     C 1659   2.512   2.961   1.963 -0.4199  0.6840 -0.6260
  109MPD2    C1 1660   2.553   3.044   1.855  0.7790 -0.4552  0.5319
  109MPD2    C2 1661   2.688   3.072   1.833  0.2545 -0.8402  0.6333
  109MPD2    C3 1662   2.783   2.999   1.899 -0.7904 -0.2671 -0.2540
  109MPD2    C4 1663   2.744   2.931   2.014  0.2912 -0.2952  0.7537
  109MPD2    C5 1664   2.605   2.910   2.041 -0.0715 -0.0155  0.5652
  109MPD2     H 1665   2.721   3.117   1.741  2.7584 -1.0933  1.4021
  109MPD2    H1 1666   2.819   2.901   2.086 -0.0586 -2.9182  0.0495
  109MPD2    H2 1667   2.410   2.950   1.999  0.0700  1.0732  0.8642
  109MPD2    H3 1668   2.579   2.859   2.133  1.8534  0.7514  1.5340
  109MPD2     N 1669   2.915   3.008   1.855  0.1389  0.1210 -0.1738
  109MPD2    H5 1670   2.929   3.085   1.790 -3.1414  0.3521 -0.6180
  109MPD2    N1 1671   2.446   3.094   1.768 -0.0492 -0.2402 -0.0703
  109MPD2    H7 1672   2.347   3.081   1.789 -0.3948 -0.3443 -1.6947
  110TCq2    C1 1673   3.021   2.928   1.892  0.1836  0.1276  0.4189
  110TCq2    O2 1674   3.033   2.848   1.985  0.5855  0.8351  0.5976
  110TCq2    C2 1675   3.144   2.944   1.809  0.8298 -0.1595  1.0431
  110TCq2    C3 1676   3.257   2.878   1.848 -0.1980  0.3798  0.2376
  110TCq2    C4 1677   3.377   2.892   1.777  0.1547  0.7134 -0.1816
  110TCq2    C5 1678   3.384   2.974   1.665  0.3632  0.9737 -0.1377
  110TCq2    C6 1679   3.264   3.046   1.635  0.5157 -0.6305  0.1858
  110TCq2    C7 1680   3.143   3.030   1.699  0.1815  0.2401 -0.2094
  110TCq2    C8 1681   3.255   3.131   1.515 -0.4236  0.0434 -0.4912
  110TCq2    O4 1682   3.153   3.192   1.484  0.2777  0.1890 -0.0973
  110TCq2    C9 1683   3.497   2.816   1.808  0.2405  0.5336  0.0538
  110TCq2    O5 1684   3.605   2.860   1.756 -0.3285 -0.4824 -0.1245
  110TCq2    O6 1685   3.478   2.719   1.880 -0.8552 -0.5158  0.0752
  110TCq2    H2 1686   3.265   2.805   1.927 -0.9689 -0.6280 -0.6126
  110TCq2    H3 1687   3.481   2.991   1.621  1.0818 -0.8247  0.7498
  110TCq2    H4 1688   3.057   3.088   1.669 -0.5406 -0.4825  0.4660
  111TMC2    C1 1689   3.478   3.393  11.454  0.5901  0.4289 -0.4881
  111TMC2    C2 1690   3.497   3.309  11.347 -0.1512  0.1145 -0.3144
  111TMC2    C3 1691   3.543   3.184  11.365  0.1730 -0.6773  0.8406
  111TMC2    C4 1692   3.528   3.370  11.579 -0.7927 -0.0968  0.3965
  111TMC2    C5 1693   3.588   3.249  11.586  0.1010  0.2980  0.9808
  111TMC2    C6 1694   3.593   3.158  11.486  0.2033  0.2621  0.0117
  111TMC2     C 1695   3.406   3.516  11.418  0.5342 -0.4047 -0.3957
  111TMC2     O 1696   3.361   3.520  11.306 -0.1078  0.7266 -0.3731
  111TMC2     H 1697   3.475   3.344  11.247  0.5130  2.3924  0.3430
  111TMC2    H1 1698   3.508   3.430  11.667 -2.7731 -1.8030  1.0983
  111TMC2    H2 1699   3.650   3.067  11.496 -0.6384 -0.1718  0.8493
  111TMC2    C7 1700   3.681   3.224  11.699 -0.2281 -0.0719  0.8594
  111TMC2    C8 1701   3.609   3.124  11.250  0.1746 -0.0338  0.4554
  111TMC2    O1 1702   3.651   3.265  11.810 -0.4519  0.0623 -0.1990
  111TMC2    O2 1703   3.709   3.056  11.264  0.6420 -0.0237  0.1344
  111TMC2    O5 1704   3.566   3.158  11.130  0.2972  0.1045  0.6517
  111TMC2    H5 1705   3.478   3.200  11.119  1.5221  2.5047  0.2252
  112MPD2     C 1706   3.288   4.012  11.480  0.0914  0.0482 -0.6418
  112MPD2    C1 1707   3.256   3.929  11.370  0.4661  0.1661 -0.5138
  112MPD2    C2 1708   3.295   3.796  11.383 -0.4997  0.4955 -0.3668
  112MPD2    C3 1709   3.360   3.744  11.492 -0.6408  0.7415  0.2621
  112MPD2    C4 1710   3.383   3.832  11.600  0.1557 -0.2206  0.4395
  112MPD2    C5 1711   3.348   3.962  11.592  0.4588 -0.1762  0.5899
  112MPD2     H 1712   3.270   3.726  11.304  0.9805 -1.2327  0.6995
  112MPD2    H1 1713   3.431   3.791  11.689 -0.8939 -0.0134  1.1076
  112MPD2    H2 1714   3.265   4.117  11.486  2.7653  0.5827  0.2142
  112MPD2    H3 1715   3.376   4.021  11.678  0.8502  0.8990 -0.2800
  112MPD2     N 1716   3.408   3.611  11.510  0.5430  0.7610  0.2666
  112MPD2    H5 1717   3.457   3.582  11.594  0.7389  0.4550  0.0476
  112MPD2    N1 1718   3.180   3.966  11.252  0.3221  0.2515  0.2530
  112MPD2    H7 1719   3.171   3.890  11.185  1.6197 -0.9827  1.4840
  113MPD2     C 1720   1.102   1.330   1.139  0.4161 -0.0420  0.1576
  113MPD2    C1 1721   0.979   1.377   1.113  0.5049 -0.5641 -0.3561
  113MPD2    C2 1722   0.872   1.293   1.120  0.0410 -0.0952 -0.0046
  113MPD2    C3 1723   0.898   1.158   1.140 -0.0006 -0.4008  0.4647
  113MPD2    C4 1724   1.026   1.119   1.161  0.2154  0.0672 -0.5635
  113MPD2    C5 1725   1.133   1.205   1.167  0.2333  0.0968  1.3108
  113MPD2     H 1726   0.768   1.323   1.106  0.1501  0.4820  0.4222
  113MPD2    H1 1727   1.051   1.014   1.175 -1.6141 -0.6548 -2.6360
  113MPD2    H2 1728   1.192   1.390   1.128  0.1026 -0.4455 -4.7708
  113MPD2    H3 1729   1.239   1.185   1.174  0.6604  1.6108 -0.7485
  113MPD2     N 1730   0.798   1.060   1.145 -0.5440  0.0480  0.2290
  113MPD2    H5 1731   0.836   0.970   1.174 -2.0158 -0.7052 -0.1668
  113MPD2    N1 1732   0.956   1.510   1.082 -0.2446 -0.8315  0.0518
  113MPD2    H7 1733   0.860   1.543   1.077 -0.0189 -0.2402 -0.4136
  114TCq2    C1 1734   0.667   1.068   1.098 -1.2346  0.3717  0.2904
  114TCq2    O2 1735   0.613   1.172   1.060 -0.0810  0.0351  0.0597
  114TCq2    C2 1736   0.583   0.953   1.104  0.4616 -0.0860  0.2608
  114TCq2    C3 1737   0.454   0.960   1.116 -0.1566  0.7206 -0.8186
  114TCq2    C4 1738   0.380   0.847   1.121  0.5673  0.2725  0.9651
  114TCq2    C5 1739   0.440   0.723   1.118 -0.5435 -0.0209  0.1927
  114TCq2    C6 1740   0.577   0.713   1.121 -0.9537 -0.0467 -0.1298
  114TCq2    C7 1741   0.646   0.831   1.114 -1.5669 -1.1162  0.0461
  114TCq2    C8 1742   0.637   0.587   1.155  0.2250 -0.1925 -0.1810
  114TCq2    O4 1743   0.760   0.581   1.132  0.3547  0.0195  0.1101
  114TCq2    C9 1744   0.237   0.851   1.105  0.0255  0.1504  0.3825
  114TCq2    O5 1745   0.180   0.965   1.118  0.0977 -0.1137  0.2064
  114TCq2    O6 1746   0.178   0.741   1.089 -0.0259  0.2615 -0.3927
  114TCq2    H2 1747   0.406   1.058   1.110  0.2339  1.0311  1.2637
  114TCq2    H3 1748   0.373   0.638   1.114 -1.0172  0.3536  0.0764
  114TCq2    H4 1749   0.751   0.816   1.095 -1.4618 -0.0689 -0.1716
  115TMC2    C1 1750   2.261   3.522   0.222  0.2977  0.1941 -1.1230
  115TMC2    C2 1751   2.263   3.388   0.251 -0.1153 -0.3912  0.2523
  115TMC2    C3 1752   2.368   3.341   0.325 -0.1911 -0.0031  0.1516
  115TMC2    C4 1753   2.355   3.610   0.270  0.0374  0.0032 -0.7210
  115TMC2    C5 1754   2.464   3.555   0.340 -0.0792 -0.3813 -0.0430
  115TMC2    C6 1755   2.464   3.423   0.372  0.2255  0.9705  0.0935
  115TMC2     C 1756   2.161   3.573   0.128 -0.9455 -0.2273 -0.0175
  115TMC2     O 1757   2.103   3.479   0.071  0.0224  0.0722  0.6884
  115TMC2     H 1758   2.188   3.319   0.215  0.8351 -1.2702 -0.0362
  115TMC2    H1 1759   2.342   3.716   0.253  1.8074  0.1895 -0.9004
  115TMC2    H2 1760   2.554   3.394   0.426 -0.6607 -0.5649  0.7298
  115TMC2    C7 1761   2.523   3.644   0.442  0.9164 -0.0085  0.0507
  115TMC2    C8 1762   2.380   3.191   0.329 -0.4431  0.3720  0.0589
  115TMC2    O1 1763   2.556   3.587   0.544 -0.4648 -0.5386  0.1688
  115TMC2    O2 1764   2.292   3.109   0.341 -0.6570 -0.6554  0.3719
  115TMC2    O5 1765   2.499   3.163   0.288  0.0874 -0.3948  0.4178
  115TMC2    H5 1766   2.561   3.238   0.273  0.0674 -0.0903  1.8117
  116MPD2     C 1767   1.854   3.888  17.588  0.5896 -0.5586  0.6105
  116MPD2    C1 1768   1.901   3.762  17.553 -0.4943  0.1519  0.4936
  116MPD2    C2 1769   1.987   3.699  17.640  0.0532 -0.0453 -0.1528
  116MPD2    C3 1770   2.036   3.763   0.044 -0.0738  0.1425  0.3775
  116MPD2    C4 1771   2.005   3.893   0.074 -0.0691  0.3452  0.3749
  116MPD2    C5 1772   1.912   3.949  17.698 -0.0409 -0.1571  0.6549
  116MPD2     H 1773   2.039   3.610  17.606  1.5257  0.3537  1.0638
  116MPD2    H1 1774   2.038   3.955   0.156 -0.5953 -1.0733  1.6807
  116MPD2    H2 1775   1.783   3.943  17.528  2.2532 -1.6907 -2.3607
  116MPD2    H3 1776   1.870   4.039   0.036 -1.0952 -1.7256  2.8812
  116MPD2     N 1777   2.124   3.700   0.131  0.0120 -0.9901  0.6479
  116MPD2    H5 1778   2.149   3.748   0.217 -1.4260 -0.0842  0.5699
  116MPD2    N1 1779   1.856   3.699  17.433 -0.3492  0.4251 -0.6447
  116MPD2    H7 1780   1.799   3.762  17.378 -0.7040  0.4048 -0.3030
  117TMC2    C1 1781   1.008   0.317  14.158  0.2779 -0.7334  0.7877
  117TMC2    C2 1782   1.040   0.185  14.148 -0.4967 -0.3549 -0.4650
  117TMC2    C3 1783   1.173   0.159  14.156 -0.7920  0.1999  0.1777
  117TMC2    C4 1784   1.095   0.416  14.182  0.3456  0.0364  0.1101
  117TMC2    C5 1785   1.229   0.385  14.177 -0.2094  0.5575 -0.3092
  117TMC2    C6 1786   1.264   0.259  14.167 -0.3743  0.2484 -1.0796
  117TMC2     C 1787   0.865   0.348  14.162 -0.8337 -0.4607  0.4239
  117TMC2     O 1788   0.788   0.251  14.175  0.4421  0.6043 -0.1574
  117TMC2     H 1789   0.959   0.115  14.134  0.3186 -1.3987  0.0638
  117TMC2    H1 1790   1.072   0.519  14.209 -1.0472 -1.0170  2.9985
  117TMC2    H2 1791   1.365   0.231  14.137  0.6700  0.8139  1.9410
  117TMC2    C7 1792   1.333   0.488  14.187 -0.2347  0.2505 -0.4359
  117TMC2    C8 1793   1.236   0.030  14.148 -0.0331  1.2683 -0.2221
  117TMC2    O1 1794   1.444   0.454  14.220  0.2000 -0.2415 -0.2887
  117TMC2    O2 1795   1.332   0.021  14.072 -0.4418 -0.0892 -0.0362
  117TMC2    O5 1796   1.145   4.662  14.168 -0.2706 -0.3008  0.3818
  117TMC2    H5 1797   1.082   4.690  14.238 -0.6507  0.5921 -0.3143
  118MPD2     C 1798   1.289   0.821  14.032  0.8677  0.2186  0.1482
  118MPD2    C1 1799   1.356   0.723  14.100 -0.0914 -0.0621 -0.4402
  118MPD2    C2 1800   1.485   0.742  14.150  0.0610 -0.1017  0.1269
  118MPD2    C3 1801   1.539   0.870  14.134  0.0148 -0.3307 -0.3650
  118MPD2    C4 1802   1.477   0.967  14.054 -0.2261  0.6512  1.3732
  118MPD2    C5 1803   1.356   0.934  14.000 -0.6389 -0.1224  0.6921
  118MPD2     H 1804   1.532   0.672  14.218 -1.3690  2.1048  3.3531
  118MPD2    H1 1805   1.521   1.063  14.027  1.0712 -0.6308 -1.1152
  118MPD2    H2 1806   1.188   0.815  13.994  0.4836  1.0762  1.0279
  118MPD2    H3 1807   1.320   1.003  13.925 -0.0802 -0.2839  0.2769
  118MPD2     N 1808   1.670   0.896  14.178 -0.1652  0.3192 -0.7312
  118MPD2    H5 1809   1.702   0.992  14.172 -1.9272  0.9332 -0.1644
  118MPD2    N1 1810   1.285   0.599  14.126  0.2096 -0.1508 -0.7381
  118MPD2    H7 1811   1.189   0.598  14.092  0.5693 -2.9880 -1.6684
  119MPD2     C 1812   4.408   2.268  13.871 -0.1058  0.3985 -0.1407
  119MPD2    C1 1813   4.286   2.260  13.932  0.1622 -0.6206 -0.6129
  119MPD2    C2 1814   4.189   2.171  13.891 -0.0774 -0.3312  0.1825
  119MPD2    C3 1815   4.224   2.084  13.783 -0.2646  0.0234 -0.1083
  119MPD2    C4 1816   4.346   2.096  13.724 -0.1111 -0.1505 -0.5290
  119MPD2    C5 1817   4.440   2.186  13.763  0.2931 -0.4756 -0.3754
  119MPD2     H 1818   4.092   2.186  13.937 -1.0635 -1.3288 -1.5228
  119MPD2    H1 1819   4.372   2.030  13.641 -3.4260  1.0414 -2.5057
  119MPD2    H2 1820   4.486   2.332  13.910  0.0347 -0.6647  1.3320
  119MPD2    H3 1821   4.536   2.194  13.714 -0.2412  0.2894 -1.3237
  119MPD2     N 1822   4.130   1.990  13.727  0.4160 -0.0367 -0.0056
  119MPD2    H5 1823   4.167   1.923  13.660  0.4915  1.2445 -1.2470
  119MPD2    N1 1824   4.270   2.346  14.049  0.4392  0.1824 -0.5529
  119MPD2    H7 1825   4.341   2.419  14.048  0.0519  0.5891  1.3427
  120TCq2    C1 1826   3.998   1.967  13.764 -0.3240  0.3569  0.4603
  120TCq2    O2 1827   3.941   2.037  13.845  0.3764  0.2271 -0.7646
  120TCq2    C2 1828   3.924   1.868  13.691  0.4440 -0.4034 -0.4201
  120TCq2    C3 1829   3.936   1.847  13.561 -0.1814 -0.1290 -0.2500
  120TCq2    C4 1830   3.836   1.799  13.484  0.4994  0.4850  0.2667
  120TCq2    C5 1831   3.721   1.749  13.534 -0.1933  0.0632 -0.0680
  120TCq2    C6 1832   3.708   1.764  13.670 -0.2774  0.8819  0.2234
  120TCq2    C7 1833   3.809   1.813  13.754  0.1604 -0.9952 -0.8468
  120TCq2    C8 1834   3.590   1.700  13.737 -0.2687  0.7140 -0.0533
  120TCq2    O4 1835   3.500   1.683  13.657  0.1553 -0.2312 -0.4518
  120TCq2    C9 1836   3.863   1.778  13.345 -0.9188  0.0153 -0.5775
  120TCq2    O5 1837   3.787   1.704  13.282 -0.0835 -0.1774 -0.3307
  120TCq2    O6 1838   3.979   1.798  13.295  0.2947  0.0330 -0.2291
  120TCq2    H2 1839   4.022   1.888  13.509  0.0490 -1.0619 -0.5901
  120TCq2    H3 1840   3.643   1.713  13.469 -1.2036 -0.6471  1.5269
  120TCq2    H4 1841   3.781   1.818  13.859 -0.6060  0.3815 -1.1080
  121TMC2    C1 1842   0.744   3.397  14.109  0.0481  0.5249 -0.1687
  121TMC2    C2 1843   0.879   3.378  14.094  0.0040  0.0164 -0.1933
  121TMC2    C3 1844   0.940   3.262  14.130  0.0390 -0.2438 -0.2211
  121TMC2    C4 1845   0.669   3.305  14.178 -0.3948 -0.0641  0.3557
  121TMC2    C5 1846   0.728   3.183  14.208  0.0580  0.1965 -0.2990
  121TMC2    C6 1847   0.864   3.160  14.178  0.0309  0.2140  0.3818
  121TMC2     C 1848   0.710   3.538  14.118 -0.3201 -0.6155  0.8844
  121TMC2     O 1849   0.629   3.577  14.203 -0.5330 -0.8984 -0.8035
  121TMC2     H 1850   0.940   3.463  14.065  0.3948 -0.4273 -0.6722
  121TMC2    H1 1851   0.563   3.322  14.192 -0.4597  1.4529 -1.8833
  121TMC2    H2 1852   0.906   3.060  14.183 -1.5551 -0.6114 -2.5991
  121TMC2    C7 1853   0.653   3.062  14.231 -0.2272  0.3751  0.0619
  121TMC2    C8 1854   1.084   3.279  14.133 -0.5953  0.4716 -0.3345
  121TMC2    O1 1855   0.704   2.949  14.230  0.0750 -0.2808 -0.4729
  121TMC2    O2 1856   1.141   3.372  14.069 -0.5437 -0.2059  0.1014
  121TMC2    O5 1857   1.109   3.242  14.260 -1.1102  0.0342  0.5541
  121TMC2    H5 1858   1.033   3.202  14.308 -2.6917  2.1945 -0.1675
  122MPD2     C 1859   0.761   3.842  14.096 -0.2979 -0.7403 -0.2228
  122MPD2    C1 1860   0.788   3.742  13.997 -0.4667 -0.2831 -0.5769
  122MPD2    C2 1861   0.876   3.781  13.890  0.0114 -0.3886 -0.4021
  122MPD2    C3 1862   0.921   3.906  13.876  0.1316 -0.0736  0.6531
  122MPD2    C4 1863   0.882   4.007  13.965  0.5923 -0.2295  0.5821
  122MPD2    C5 1864   0.812   3.966  14.079  0.1648  0.1775  0.1526
  122MPD2     H 1865   0.908   3.693  13.835 -3.1563 -1.9012  0.1920
  122MPD2    H1 1866   0.937   4.100  13.963 -1.5780  1.0488  1.1006
  122MPD2    H2 1867   0.706   3.818  14.186  0.6187  2.9326  1.3193
  122MPD2    H3 1868   0.807   4.035  14.163  0.0294  0.2776  0.0636
  122MPD2     N 1869   1.010   3.944  13.770  0.5174 -0.1208 -0.4797
  122MPD2    H5 1870   1.013   4.045  13.754  0.4585 -0.1545 -0.7043
  122MPD2    N1 1871   0.773   3.603  14.018 -0.3282 -0.4418  0.9761
  122MPD2    H7 1872   0.825   3.550  13.949 -1.6100 -1.4315  0.7641
  123MPD2     C 1873   3.935   1.613  10.741 -0.5885  0.2840  0.2743
  123MPD2    C1 1874   3.932   1.607  10.602  0.0537 -0.6024  0.6330
  123MPD2    C2 1875   3.976   1.706  10.515  1.0040  0.7771 -0.0012
  123MPD2    C3 1876   4.033   1.822  10.574 -0.1553 -0.4778  0.1990
  123MPD2    C4 1877   4.035   1.825  10.707 -0.8685  0.1371  0.1686
  123MPD2    C5 1878   3.990   1.727  10.791 -0.4874 -0.4936  0.7554
  123MPD2     H 1879   3.975   1.703  10.407  0.1156  2.8693 -0.0631
  123MPD2    H1 1880   4.079   1.909  10.759  2.2604 -1.0509 -0.5284
  123MPD2    H2 1881   3.891   1.539  10.806 -0.1239  0.0552  0.3273
  123MPD2    H3 1882   4.011   1.747  10.896  1.7445 -0.9285  0.3682
  123MPD2     N 1883   4.079   1.930  10.496 -0.4107 -0.1166 -0.2413
  123MPD2    H5 1884   4.056   1.930  10.397 -0.6913  1.5207 -0.1856
  123MPD2    N1 1885   3.873   1.483  10.562 -0.2838  0.3107  0.1216
  123MPD2    H7 1886   3.840   1.410  10.624 -0.9413  1.4328  1.0878
  124TCq2    C1 1887   4.132   2.055  10.532  0.2832  0.4920  0.2629
  124TCq2    O2 1888   4.151   2.095  10.641  0.2931  0.3184 -0.0382
  124TCq2    C2 1889   4.141   2.153  10.422  0.3844 -0.5766 -0.0897
  124TCq2    C3 1890   4.160   2.284  10.446 -0.1929 -0.2508 -0.2812
  124TCq2    C4 1891   4.161   2.367  10.338  0.4696 -0.1057 -0.1242
  124TCq2    C5 1892   4.167   2.315  10.210 -0.5200  0.1923  0.2627
  124TCq2    C6 1893   4.160   2.184  10.189 -0.1554  0.1426 -0.0457
  124TCq2    C7 1894   4.145   2.097  10.289 -0.4581  0.0725  0.2780
  124TCq2    C8 1895   4.129   2.134  10.056 -1.0307 -0.3647 -0.2102
  124TCq2    O4 1896   4.138   2.014  10.038 -0.1166 -0.3633  0.1716
  124TCq2    C9 1897   4.163   2.514  10.353 -0.5238 -0.1271  0.5560
  124TCq2    O5 1898   4.149   2.560  10.471  0.2412  0.1560 -0.3051
  124TCq2    O6 1899   4.216   2.578  10.257  0.0849 -0.1972  0.4332
  124TCq2    H2 1900   4.142   2.309  10.550  1.9435 -1.1992  0.3265
  124TCq2    H3 1901   4.184   2.388  10.131  1.1865 -1.2142 -0.6815
  124TCq2    H4 1902   4.145   1.993  10.260 -2.9633 -0.0303  0.6645
  125TMC2    C1 1903   0.308   3.446  10.701  0.1284  0.4648  0.2215
  125TMC2    C2 1904   0.361   3.349  10.776 -0.1287  0.4923  0.0452
  125TMC2    C3 1905   0.413   3.378  10.896 -0.4584  0.1044 -0.5655
  125TMC2    C4 1906   0.300   3.577  10.745 -0.3146  0.2529 -0.1287
  125TMC2    C5 1907   0.363   3.604  10.866 -0.1064 -0.8007 -0.8336
  125TMC2    C6 1908   0.416   3.505  10.943 -0.2717  0.6052  0.0319
  125TMC2     C 1909   0.215   3.401  10.596 -0.7189  0.7509  0.0854
  125TMC2     O 1910   0.178   3.283  10.582 -0.7345  0.2644  0.3465
  125TMC2     H 1911   0.360   3.250  10.730 -1.0822  1.6769 -2.5173
  125TMC2    H1 1912   0.254   3.654  10.685  0.7939 -0.5181 -1.9902
  125TMC2    H2 1913   0.473   3.523  11.034  2.3263 -0.4382 -1.3863
  125TMC2    C7 1914   0.414   3.742  10.887 -0.4678 -0.3786 -0.4904
  125TMC2    C8 1915   0.488   3.271  10.960 -0.3664  0.5277 -0.3331
  125TMC2    O1 1916   0.401   3.799  10.995  0.2577  0.1423 -0.0683
  125TMC2    O2 1917   0.536   3.182  10.890 -0.0762  0.2220  0.0291
  125TMC2    O5 1918   0.494   3.289  11.099 -0.2022  0.3546  0.0103
  125TMC2    H5 1919   0.439   3.364  11.133  1.9077  0.8677  2.2910
  126MPD1     C 1920   4.625   3.498  10.195  0.3073  0.1475 -0.3806
  126MPD1    C1 1921   4.718   3.599  10.202  0.6817  0.0728  0.2414
  126MPD1    C2 1922   0.074   3.600  10.312 -0.1435 -1.0269 -0.6609
  126MPD1    C3 1923   0.065   3.503  10.412 -0.6174 -0.5072  0.3881
  126MPD1    C4 1924   4.696   3.407  10.411 -0.0847  0.1399  0.2874
  126MPD1    C5 1925   4.604   3.412  10.305 -0.7798  0.2267 -0.4791
  126MPD1     H 1926   0.146   3.681  10.316 -2.9950  1.3164  2.6257
  126MPD1    H1 1927   4.678   3.336  10.491 -0.3327  0.6775  0.7077
  126MPD1    H2 1928   4.552   3.486  10.115 -1.2237 -0.3725  1.0794
  126MPD1    H3 1929   4.530   3.334  10.292  1.0404 -1.9618  2.1467
  126MPD1     N 1930   0.165   3.502  10.516  0.0853  0.1886  0.2268
  126MPD1    H5 1931   0.223   3.586  10.514 -0.8156  0.7916 -0.8744
  126MPD1    N1 1932   4.720   3.703  10.102  0.4467 -0.2353  0.4214
  126MPD1    H6 1933   0.092   3.727  10.088  0.5399 -1.5832 -1.2395
  126MPD1    H7 1934   4.687   3.670  10.012  0.1843  0.7963  0.1403
  127MPD2     C 1935   0.986   2.844   9.848 -0.5516  0.3054  0.4589
  127MPD2    C1 1936   1.030   2.800   9.971 -0.5893  0.0373  0.5700
  127MPD2    C2 1937   1.095   2.891  10.053 -0.3514 -0.4375 -0.7214
  127MPD2    C3 1938   1.128   3.017  10.006  1.1541  0.5615 -0.2162
  127MPD2    C4 1939   1.086   3.056   9.881 -0.1985 -0.2434 -0.1138
  127MPD2    C5 1940   1.010   2.971   9.806 -0.1099  0.5140  0.0923
  127MPD2     H 1941   1.119   2.863  10.155  0.6566 -1.5001 -1.2569
  127MPD2    H1 1942   1.100   3.154   9.836 -0.1994  0.6156  1.7679
  127MPD2    H2 1943   0.909   2.789   9.794 -0.3496 -0.3005  0.7970
  127MPD2    H3 1944   0.968   3.009   9.714  0.5640 -0.4953 -0.6322
  127MPD2     N 1945   1.204   3.097  10.095  0.4719 -0.1499  0.2412
  127MPD2    H5 1946   1.220   3.058  10.187 -0.1062  1.6004  1.0860
  127MPD2    N1 1947   1.002   2.665  10.003  0.7414  0.0259 -0.0347
  127MPD2    H7 1948   0.917   2.628   9.961  0.4066 -0.3940  1.0174
  128TCq2    C1 1949   1.052   2.601  10.113  0.3410  0.0388  0.8309
  128TCq2    O2 1950   1.143   2.633  10.189 -0.1957  0.1596  0.5427
  128TCq2    C2 1951   0.978   2.477  10.137  0.1938 -0.8526 -0.3738
  128TCq2    C3 1952   0.970   2.434  10.266 -1.3102 -0.2872  0.1711
  128TCq2    C4 1953   0.866   2.364  10.318  0.3434 -0.6948  0.6375
  128TCq2    C5 1954   0.774   2.312  10.226  0.0105  0.4498 -0.3014
  128TCq2    C6 1955   0.794   2.336  10.091 -1.4705  0.2356 -0.4617
  128TCq2    C7 1956   0.907   2.408  10.041 -0.1140  0.7213 -0.3206
  128TCq2    C8 1957   0.697   2.278   9.995  0.4759 -0.4162 -0.1693
  128TCq2    O4 1958   0.678   2.339   9.886 -0.0491  0.2929  0.1180
  128TCq2    C9 1959   0.858   2.313  10.460 -0.1741  0.8375 -0.5847
  128TCq2    O5 1960   0.796   2.202  10.477 -0.1658 -0.4216 -0.1411
  128TCq2    O6 1961   0.951   2.336  10.540 -0.6632  0.3882 -0.0797
  128TCq2    H2 1962   1.032   2.485  10.339 -0.6270 -0.3611 -0.3608
  128TCq2    H3 1963   0.693   2.254  10.270  1.2680 -1.0206  0.1024
  128TCq2    H4 1964   0.918   2.432   9.936  0.8309 -1.7258 -0.7767
  129MPD2     C 1965   3.363   3.293   0.653 -0.2827  0.0504  0.1963
  129MPD2    C1 1966   3.448   3.219   0.728 -0.9621 -0.2922  0.4678
  129MPD2    C2 1967   3.562   3.272   0.778 -0.4598  0.2190  0.3584
  129MPD2    C3 1968   3.597   3.408   0.753  0.3138  0.3318  0.3470
  129MPD2    C4 1969   3.515   3.477   0.667  0.3657 -0.0965  0.3647
  129MPD2    C5 1970   3.398   3.423   0.633  0.1071  0.7517 -0.5789
  129MPD2     H 1971   3.634   3.214   0.833 -2.3085 -2.3231  0.0800
  129MPD2    H1 1972   3.539   3.577   0.633  0.4068  0.2777  1.5050
  129MPD2    H2 1973   3.270   3.249   0.617 -1.3257  1.3899  1.2442
  129MPD2    H3 1974   3.340   3.482   0.562 -1.1046 -0.8713 -0.9476
  129MPD2     N 1975   3.716   3.455   0.807  0.2566  0.0420 -0.5842
  129MPD2    H5 1976   3.770   3.396   0.869  3.7153  2.2025 -1.5236
  129MPD2    N1 1977   3.420   3.088   0.763  0.1664  0.0234 -0.0959
  129MPD2    H7 1978   3.491   3.042   0.820 -0.2963  1.1230  1.3833
  130TCq2    C1 1979   3.288   3.044   0.772  0.4613  0.0484  0.5914
  130TCq2    O2 1980   3.183   3.103   0.749  0.2552 -0.2234 -0.1063
  130TCq2    C2 1981   3.282   2.939   0.864 -0.4549  0.3973 -0.2440
  130TCq2    C3 1982   3.378   2.842   0.850  0.0832  0.3087 -0.3999
  130TCq2    C4 1983   3.375   2.742   0.942 -0.6028  0.7792  0.4947
  130TCq2    C5 1984   3.285   2.741   1.041  0.2269  0.2880 -0.1413
  130TCq2    C6 1985   3.192   2.841   1.047 -0.8208 -0.0281  0.1616
  130TCq2    C7 1986   3.188   2.945   0.962 -0.3178 -0.3915 -0.0081
  130TCq2    C8 1987   3.116   2.852   1.169 -1.1565  0.0582  0.4156
  130TCq2    O4 1988   3.004   2.900   1.159 -0.1834  0.0676  0.3680
  130TCq2    C9 1989   3.476   2.637   0.946  0.5517  0.6771 -0.4242
  130TCq2    O5 1990   3.508   2.589   1.058 -0.2478 -0.3180 -0.4114
  130TCq2    O6 1991   3.570   2.670   0.863  0.1895 -0.4104  0.0272
  130TCq2    H2 1992   3.442   2.839   0.763  0.8660  0.6170  0.1653
  130TCq2    H3 1993   3.282   2.659   1.111 -2.0185  1.5598  1.2389
  130TCq2    H4 1994   3.126   3.034   0.969  0.5621  0.1309  1.2072
  131MPD2     C 1995   3.219   1.569   9.870  0.1609  0.1007 -0.2894
  131MPD2    C1 1996   3.330   1.640   9.900 -0.3026 -0.8598  0.7952
  131MPD2    C2 1997   3.421   1.576   9.986  0.5071  0.0186 -0.2458
  131MPD2    C3 1998   3.410   1.447  10.027  0.1213  0.2692 -0.5558
  131MPD2    C4 1999   3.291   1.383   9.998 -0.4505 -1.2197 -0.8072
  131MPD2    C5 2000   3.200   1.444   9.917 -0.1585 -0.1339  0.1750
  131MPD2     H 2001   3.517   1.619  10.013  0.9307 -2.9095  2.9498
  131MPD2    H1 2002   3.261   1.281  10.021 -1.7501  0.1128  3.3678
  131MPD2    H2 2003   3.141   1.610   9.807 -0.3613  0.2437  0.4486
  131MPD2    H3 2004   3.113   1.386   9.889 -0.1177 -0.3912  0.5843
  131MPD2     N 2005   3.506   1.399  10.112  0.8006 -0.3329 -0.0025
  131MPD2    H5 2006   3.582   1.462  10.138  1.7086 -1.8574  1.0167
  131MPD2    N1 2007   3.344   1.777   9.865  0.1056  0.7277 -0.0038
  131MPD2    H7 2008   3.281   1.823   9.799  0.0016  1.4849  0.6198
  132TCq2    C1 2009   3.546   2.305  10.009  0.2209  0.3274 -0.6240
  132TCq2    O2 2010   3.519   2.272  10.124  0.2064 -0.1337  0.2125
  132TCq2    C2 2011   3.508   2.205   9.907 -0.0743  0.0919  0.2335
  132TCq2    C3 2012   3.486   2.238   9.776  0.5381  0.7158 -0.1793
  132TCq2    C4 2013   3.456   2.140   9.682 -0.6829 -0.0212 -0.2138
  132TCq2    C5 2014   3.437   2.008   9.731  0.1320 -0.0727  0.3486
  132TCq2    C6 2015   3.443   1.991   9.867  0.2339 -0.0486  0.6441
  132TCq2    C7 2016   3.471   2.085   9.956  0.6549  0.1837 -0.2399
  132TCq2    C8 2017   3.436   1.860   9.923 -0.2417  0.4128 -0.1176
  132TCq2    O4 2018   3.506   1.840  10.020  0.1325  0.3333 -0.5892
  132TCq2    C9 2019   3.477   2.167   9.541  0.2514  0.1160 -0.6294
  132TCq2    O5 2020   3.478   2.067   9.467 -0.2026 -0.4910 -0.1467
  132TCq2    O6 2021   3.499   2.285   9.505  0.2951  0.3134  0.2848
  132TCq2    H2 2022   3.505   2.338   9.737 -2.6446  0.5995 -2.0458
  132TCq2    H3 2023   3.428   1.922   9.665  4.0480 -1.1014  1.1561
  132TCq2    H4 2024   3.452   2.058  10.059 -2.6023 -1.2099 -1.2033
  133MPD2     C 2025   2.458   3.272   9.196 -0.3626 -0.1210  0.2873
  133MPD2    C1 2026   2.563   3.196   9.244  0.2313 -0.1838 -0.5223
  133MPD2    C2 2027   2.539   3.062   9.256 -0.1686 -0.5861 -0.8709
  133MPD2    C3 2028   2.415   3.003   9.237 -0.3546  0.0142 -0.3981
  133MPD2    C4 2029   2.313   3.083   9.195  0.4471  0.2881 -0.2821
  133MPD2    C5 2030   2.334   3.215   9.179 -0.3169  0.0125 -0.7097
  133MPD2     H 2031   2.615   2.998   9.299 -0.2039  0.1994  0.3801
  133MPD2    H1 2032   2.213   3.042   9.184  0.8071 -0.8126  0.5487
  133MPD2    H2 2033   2.463   3.374   9.160 -0.8124 -0.2266 -0.0747
  133MPD2    H3 2034   2.253   3.277   9.140 -1.5990 -1.1802  0.0622
  133MPD2     N 2035   2.386   2.865   9.262  0.1823  0.2689  0.3352
  133MPD2    H5 2036   2.290   2.831   9.259  0.7105 -1.0472 -2.0228
  133MPD2    N1 2037   2.689   3.260   9.268 -0.3578  0.2705 -0.4065
  133MPD2    H7 2038   2.700   3.359   9.249 -3.0758  0.7489  0.5833
  134TCq2    C1 2039   2.811   3.192   9.307 -0.1811 -0.3370  0.2314
  134TCq2    O2 2040   2.835   3.071   9.324 -0.1740 -0.4086  0.2017
  134TCq2    C2 2041   2.921   3.288   9.296  0.5089 -0.2623 -0.0588
  134TCq2    C3 2042   2.916   3.393   9.203 -0.1434 -0.0223 -0.1116
  134TCq2    C4 2043   3.037   3.470   9.202 -0.0319  0.1960  0.4673
  134TCq2    C5 2044   3.138   3.448   9.288 -0.0881 -0.3647  0.1276
  134TCq2    C6 2045   3.134   3.345   9.373 -0.1016 -0.3727  0.1290
  134TCq2    C7 2046   3.030   3.257   9.378 -0.2291  0.2287  0.2709
  134TCq2    C8 2047   3.250   3.337   9.461  0.0745  0.2710  0.3964
  134TCq2    O4 2048   3.310   3.438   9.484  0.7247 -0.5986 -0.2561
  134TCq2    C9 2049   3.037   3.584   9.111  0.2699 -0.1060  0.1934
  134TCq2    O5 2050   2.926   3.610   9.062 -0.5825 -0.6190  0.2859
  134TCq2    O6 2051   3.128   3.671   9.136 -0.1908  0.1444 -0.1275
  134TCq2    H2 2052   2.839   3.404   9.127 -1.0752  0.8448  0.9674
  134TCq2    H3 2053   3.219   3.517   9.267  0.7209 -1.7595 -1.4217
  134TCq2    H4 2054   3.018   3.174   9.447 -3.9253 -1.6528 -2.6416
  135MPD2     C 2055   0.381   4.721   9.694 -0.1234  0.0191 -0.2509
  135MPD2    C1 2056   0.423   4.610   9.763  0.3519  0.0317 -0.1121
  135MPD2    C2 2057   0.555   4.592   9.795  0.4017 -0.2612  0.3934
  135MPD2    C3 2058   0.649   4.676   9.743 -0.5828  0.2667  0.0022
  135MPD2    C4 2059   0.608   0.061   9.669  0.2728 -0.9855 -0.4396
  135MPD2    C5 2060   0.473   0.082   9.644 -0.5490  0.3166 -0.3970
  135MPD2     H 2061   0.587   4.507   9.853 -0.8947 -1.0400 -0.0297
  135MPD2    H1 2062   0.675   0.134   9.626 -0.4888  0.4556  0.8569
  135MPD2    H2 2063   0.278   0.021   9.674 -0.1775  0.0642  0.0807
  135MPD2    H3 2064   0.433   0.168   9.591  0.7464 -0.5735 -2.8281
  135MPD2     N 2065   0.787   4.658   9.759  0.5798  0.0949  0.4382
  135MPD2    H5 2066   0.843   0.006   9.717 -1.3145  0.4398 -1.4813
  135MPD2    N1 2067   0.331   4.521   9.819 -0.6685 -0.1525  0.1289
  135MPD2    H7 2068   0.377   4.448   9.874 -0.9324 -0.6076 -0.2500
  136TCq2    C1 2069   0.191   4.508   9.790 -0.1609  0.6249  0.3204
  136TCq2    O2 2070   0.126   4.567   9.712  0.2349 -0.1008 -0.1437
  136TCq2    C2 2071   0.122   4.392   9.851  0.5464  0.1741  0.1575
  136TCq2    C3 2072   4.723   4.364   9.806  0.0739 -0.5146 -0.4597
  136TCq2    C4 2073   4.641   4.285   9.885  0.7206 -0.1131 -0.1220
  136TCq2    C5 2074   4.682   4.248  10.008 -0.4704  0.2611 -0.0573
  136TCq2    C6 2075   0.081   4.276  10.049  0.0435 -0.0221  0.4468
  136TCq2    C7 2076   0.167   4.349   9.971  0.0299 -0.2329 -0.2714
  136TCq2    C8 2077   0.140   4.225  10.171  0.4470  0.0385  0.0072
  136TCq2    O4 2078   0.243   4.279  10.213 -0.5756  0.0404  0.4272
  136TCq2    C9 2079   4.503   4.276   9.844  0.6300 -0.1727  0.5055
  136TCq2    O5 2080   4.469   4.328   9.737 -0.1475 -0.1836 -0.0600
  136TCq2    O6 2081   4.428   4.198   9.910  0.3264 -0.1715 -0.4113
  136TCq2    H2 2082   4.674   4.404   9.718  1.3811  1.0975 -0.4525
  136TCq2    H3 2083   4.611   4.203  10.077 -1.1122 -0.3727 -1.1345
  136TCq2    H4 2084   0.264   4.375  10.013  0.6601 -2.1250 -0.5305
  137MPD2     C 2085   0.113   2.450   9.930 -0.0705  0.3696  0.1477
  137MPD2    C1 2086   0.223   2.532   9.908 -0.6426 -0.4446  0.0466
  137MPD2    C2 2087   0.279   2.590  10.022 -0.1751 -0.0939 -0.4389
  137MPD2    C3 2088   0.237   2.565  10.148  0.1742  0.1127  0.3559
  137MPD2    C4 2089   0.128   2.483  10.169 -0.6076  0.0071  0.0856
  137MPD2    C5 2090   0.071   2.427  10.061  0.5559 -0.6554 -0.7267
  137MPD2     H 2091   0.363   2.657  10.010 -0.1145 -0.6634 -3.0774
  137MPD2    H1 2092   0.062   2.469  10.254 -0.5251  1.7722  0.4391
  137MPD2    H2 2093   0.063   2.401   9.847  1.4525  0.2812 -0.7210
  137MPD2    H3 2094   4.713   2.368  10.093  0.6212  1.5551  3.5668
  137MPD2     N 2095   0.294   2.643  10.248 -0.2950 -0.1354 -0.0871
  137MPD2    H5 2096   0.367   2.704  10.215  2.1453 -2.4561  1.0644
  137MPD2    N1 2097   0.266   2.560   9.775  0.1274  0.0118  0.0962
  137MPD2    H7 2098   0.200   2.528   9.705  1.1885 -0.1873 -0.8127
  138TCq2    C1 2099   0.380   2.635   9.739  0.9192  0.0795 -0.4193
  138TCq2    O2 2100   0.474   2.675   9.809 -0.0967 -0.0149 -0.0371
  138TCq2    C2 2101   0.378   2.671   9.595  0.3716 -0.1410  0.8091
  138TCq2    C3 2102   0.499   2.702   9.532  0.1661  0.4619 -0.1263
  138TCq2    C4 2103   0.485   2.735   9.400 -0.6984 -0.3599  0.3353
  138TCq2    C5 2104   0.372   2.732   9.332  0.1646  0.0654  0.0899
  138TCq2    C6 2105   0.255   2.697   9.395  0.1364  0.0521  0.4639
  138TCq2    C7 2106   0.258   2.661   9.526 -0.1205 -0.0292  0.4690
  138TCq2    C8 2107   0.123   2.718   9.331  0.2277  0.4892 -0.2858
  138TCq2    O4 2108   0.118   2.718   9.208 -0.0541 -0.2970 -0.0758
  138TCq2    C9 2109   0.600   2.799   9.334  0.4486  0.3522  0.4608
  138TCq2    O5 2110   0.579   2.845   9.219 -0.2808 -0.3777 -0.2407
  138TCq2    O6 2111   0.713   2.807   9.392 -0.4184  0.0970 -0.3734
  138TCq2    H2 2112   0.589   2.723   9.588  0.7686  0.3169 -1.0370
  138TCq2    H3 2113   0.366   2.789   9.239 -3.8725  1.0713  0.9704
  138TCq2    H4 2114   0.168   2.627   9.575 -1.6799  2.0406 -0.9882
  139TMC2    C1 2115   0.974   1.619  13.563 -0.4592  0.2354 -0.1508
  139TMC2    C2 2116   1.008   1.700  13.466  0.1656  1.1757  0.1325
  139TMC2    C3 2117   0.965   1.831  13.476 -0.8019  0.3064  0.5971
  139TMC2    C4 2118   0.910   1.665  13.676  0.2062  0.0383 -0.3212
  139TMC2    C5 2119   0.881   1.799  13.689  0.1312  0.5018  0.2300
  139TMC2    C6 2120   0.903   1.887  13.587 -0.2519 -0.8009 -0.5865
  139TMC2     C 2121   1.028   1.483  13.557  0.5175 -0.4504  0.5957
  139TMC2     O 2122   1.118   1.474  13.476  0.0929 -0.4773  0.7341
  139TMC2     H 2123   1.068   1.674  13.379 -0.2916  0.4813  0.0302
  139TMC2    H1 2124   0.913   1.604  13.765  1.0298  2.7074  1.4650
  139TMC2    H2 2125   0.869   1.989  13.598 -2.1226 -1.3384 -1.4054
  139TMC2    C7 2126   0.796   1.852  13.796 -0.3275  0.2157 -0.1023
  139TMC2    C8 2127   0.950   1.902  13.346 -0.3719 -0.0672 -0.6017
  139TMC2    O1 2128   0.765   1.969  13.782  0.4271 -0.2208  0.3326
  139TMC2    O2 2129   0.954   1.835  13.243 -0.1324  0.4236 -1.0750
  139TMC2    O5 2130   0.865   2.005  13.363  0.2677 -0.5143  0.0146
  139TMC2    H5 2131   0.890   2.056  13.443  3.5958 -1.3879 -0.4472
  140MPD2     C 2132   0.935   1.168  13.734 -0.2734 -0.4743 -0.1517
  140MPD2    C1 2133   1.015   1.252  13.662 -0.5806  0.2195 -0.0038
  140MPD2    C2 2134   1.126   1.203  13.599  0.2540 -0.2192 -0.4749
  140MPD2    C3 2135   1.161   1.070  13.627 -0.2390 -0.4274 -1.0612
  140MPD2    C4 2136   1.085   0.988  13.696  0.1602 -0.0031 -0.6976
  140MPD2    C5 2137   0.963   1.036  13.738  0.1498  0.1938  0.0608
  140MPD2     H 2138   1.192   1.262  13.537 -0.7031  2.2330  0.8460
  140MPD2    H1 2139   1.103   0.882  13.708 -0.5229 -0.3950 -3.0845
  140MPD2    H2 2140   0.836   1.196  13.765  1.0146  1.1471  2.4551
  140MPD2    H3 2141   0.900   0.965  13.790  1.8370 -1.7764 -0.5629
  140MPD2     N 2142   1.279   1.024  13.577  0.1832 -0.2159  0.1466
  140MPD2    H5 2143   1.332   1.083  13.513 -1.9109  0.7389 -0.7267
  140MPD2    N1 2144   0.968   1.388  13.640  0.4516  0.2351  0.0388
  140MPD2    H7 2145   0.886   1.419  13.692  1.3577  0.2713  1.4484
  141TCq2    C1 2146   1.435   2.606  14.583  0.3117  0.9429 -0.2026
  141TCq2    O2 2147   1.429   2.710  14.523  0.1226  0.2435  0.0245
  141TCq2    C2 2148   1.510   2.611  14.714 -0.4134  0.1335 -0.7111
  141TCq2    C3 2149   1.572   2.491  14.751 -0.0498  0.4853  0.0346
  141TCq2    C4 2150   1.698   2.497  14.807 -0.0120  0.2594  0.2550
  141TCq2    C5 2151   1.752   2.615  14.843 -0.0415  0.7982  0.1281
  141TCq2    C6 2152   1.678   2.730  14.829 -0.6208  0.3812  0.2445
  141TCq2    C7 2153   1.560   2.733  14.757 -0.0089  0.1712  0.0461
  141TCq2    C8 2154   1.731   2.865  14.844 -0.7357  0.1830 -0.4143
  141TCq2    O4 2155   1.657   2.961  14.854  0.3259 -0.4407  0.4044
  141TCq2    C9 2156   1.756   2.378  14.854 -0.3262 -0.0303 -0.3203
  141TCq2    O5 2157   1.680   2.284  14.876 -0.1486 -0.2757 -0.0974
  141TCq2    O6 2158   1.876   2.378  14.861 -0.0873 -0.2684 -0.2360
  141TCq2    H2 2159   1.531   2.393  14.731 -0.3026  0.2436  1.6998
  141TCq2    H3 2160   1.850   2.611  14.890  0.5775  2.1583 -1.0341
  141TCq2    H4 2161   1.513   2.828  14.732 -1.0033 -0.3986 -0.2454
  142MPD2     C 2162   4.133   1.066  10.183  0.2082  0.4200  0.2965
  142MPD2    C1 2163   3.997   1.046  10.165  0.1326 -0.4412 -0.1236
  142MPD2    C2 2164   3.921   1.128  10.081 -0.7609  0.4914  0.0091
  142MPD2    C3 2165   3.984   1.229  10.006  0.2129 -0.0547 -1.0137
  142MPD2    C4 2166   4.115   1.255  10.039  0.1443  0.3196 -0.3227
  142MPD2    C5 2167   4.190   1.175  10.125  0.1497  0.5291 -0.0665
  142MPD2     H 2168   3.814   1.123  10.070 -0.7899  0.4213  0.3378
  142MPD2    H1 2169   4.165   1.344  10.001 -1.0076  0.7572 -0.8048
  142MPD2    H2 2170   4.189   0.997  10.244  1.0996 -0.1515 -1.1695
  142MPD2    H3 2171   4.297   1.190  10.129 -0.1531  2.9519 -1.0644
  142MPD2     N 2172   3.914   1.320   9.928  0.1484  0.4515  0.2693
  142MPD2    H5 2173   3.965   1.392   9.877  1.2152 -0.6178 -0.1795
  142MPD2    N1 2174   3.940   0.932  10.228  0.5455  0.7431 -0.0262
  142MPD2    H7 2175   3.999   0.866  10.279 -0.4952 -1.8688 -2.1781
  143TCq2    C1 2176   3.791   1.306   9.879 -0.6009 -1.0586  0.2508
  143TCq2    O2 2177   3.710   1.213   9.880  0.0953  0.0803  0.5225
  143TCq2    C2 2178   3.747   1.424   9.794 -0.5966 -0.0674 -0.1968
  143TCq2    C3 2179   3.624   1.407   9.737  0.1807  0.1637  0.1565
  143TCq2    C4 2180   3.566   1.520   9.682 -0.4457 -0.1507 -0.9759
  143TCq2    C5 2181   3.617   1.646   9.716  0.1679 -0.0880 -0.4666
  143TCq2    C6 2182   3.735   1.656   9.777  0.0899  0.4970 -0.1566
  143TCq2    C7 2183   3.809   1.541   9.812  0.4270 -0.1357  0.7204
  143TCq2    C8 2184   3.781   1.780   9.841 -0.1117 -0.6246  0.0831
  143TCq2    O4 2185   3.851   1.773   9.942 -0.3486 -0.2834 -0.1402
  143TCq2    C9 2186   3.451   1.509   9.604  0.8608  0.1007  0.0645
  143TCq2    O5 2187   3.398   1.613   9.561 -0.3995  0.1081 -0.9194
  143TCq2    O6 2188   3.426   1.395   9.551  0.2554 -0.4126  0.0046
  143TCq2    H2 2189   3.579   1.311   9.716  2.4648 -0.9747  0.4356
  143TCq2    H3 2190   3.568   1.738   9.687 -0.2689 -0.4334 -0.8251
  143TCq2    H4 2191   3.910   1.545   9.850  0.7139  0.3075 -0.0709
  144MPD2     C 2192   1.352   0.113   1.330  0.3521  0.3490  0.0745
  144MPD2    C1 2193   1.272   0.198   1.259  0.7361 -0.0230  0.6460
  144MPD2    C2 2194   1.173   0.254   1.326 -0.9825  0.4276  0.3176
  144MPD2    C3 2195   1.140   0.219   1.459 -0.3523  0.1999 -0.2984
  144MPD2    C4 2196   1.217   0.124   1.526  1.2157 -0.0440  0.3470
  144MPD2    C5 2197   1.329   0.073   1.461 -0.0098 -0.0595 -0.5662
  144MPD2     H 2198   1.103   0.312   1.267 -1.3933 -1.0307 -0.6242
  144MPD2    H1 2199   1.195   0.102   1.630  1.1233 -2.3869 -0.1695
  144MPD2    H2 2200   1.445   0.077   1.289 -0.4830 -0.0017 -1.4959
  144MPD2    H3 2201   1.394   0.005   1.516 -2.2888 -3.3570 -1.9843
  144MPD2     N 2202   1.050   0.289   1.541 -0.9932  0.1800  0.2728
  144MPD2    H5 2203   1.050   0.253   1.636 -0.3883 -0.2193  0.1176
  144MPD2    N1 2204   1.285   0.244   1.121 -0.0733  0.3843 -0.0310
  144MPD2    H7 2205   1.218   0.314   1.091 -1.6415 -0.8730  0.5186
  145TCq2    C1 2206   0.966   0.389   1.497  0.7873 -0.4214 -0.1091
  145TCq2    O2 2207   0.958   0.448   1.387  0.5339  0.0907 -0.1376
  145TCq2    C2 2208   0.856   0.413   1.589 -0.0821 -1.0749 -0.1835
  145TCq2    C3 2209   0.819   0.318   1.682 -0.2016 -0.1448  0.0354
  145TCq2    C4 2210   0.688   0.340   1.727  0.2294 -0.0223 -0.2094
  145TCq2    C5 2211   0.606   0.440   1.692 -0.0342 -0.3745  0.3321
  145TCq2    C6 2212   0.655   0.530   1.605  0.3049 -0.9559  0.0233
  145TCq2    C7 2213   0.776   0.518   1.556 -0.7331  0.1110 -0.2996
  145TCq2    C8 2214   0.574   0.639   1.556 -0.9660  0.6451  0.1968
  145TCq2    O4 2215   0.455   0.616   1.563  0.1229  0.2811 -0.2008
  145TCq2    C9 2216   0.634   0.234   1.815  0.0606 -0.5525  0.3227
  145TCq2    O5 2217   0.517   0.251   1.857  0.2566 -0.2989 -0.2611
  145TCq2    O6 2218   0.698   0.129   1.824 -0.7318 -0.2625 -0.0151
  145TCq2    H2 2219   0.884   0.244   1.727  1.8360  1.3833 -0.4087
  145TCq2    H3 2220   0.502   0.445   1.721 -1.0601  1.0270 -3.5967
  145TCq2    H4 2221   0.797   0.574   1.466 -1.0165  0.9706  0.1792
  146TMC2    C1 2222   2.985   3.982  13.008  0.0505 -0.0439 -0.8327
  146TMC2    C2 2223   2.861   4.038  12.977  0.3282 -0.1615 -0.1346
  146TMC2    C3 2224   2.786   4.008  12.871  0.6859  0.6328  0.1362
  146TMC2    C4 2225   3.043   3.897  12.915 -0.3124  0.8325 -0.1827
  146TMC2    C5 2226   2.970   3.862  12.801  0.4475  0.3885  0.5967
  146TMC2    C6 2227   2.845   3.920  12.777 -0.6977 -0.3345  0.5622
  146TMC2     C 2228   3.051   4.031  13.124  0.2756  0.0921 -0.8817
  146TMC2     O 2229   3.008   4.133  13.178 -0.0268  0.0721  0.0387
  146TMC2     H 2230   2.826   4.113  13.048  2.9403  2.0948 -1.2033
  146TMC2    H1 2231   3.149   3.878  12.926 -0.6132  0.3809  1.7980
  146TMC2    H2 2232   2.794   3.881  12.690  0.4981  0.2657 -0.4132
  146TMC2    C7 2233   3.029   3.781  12.696  0.5544 -0.1521 -0.3262
  146TMC2    C8 2234   2.649   4.047  12.863  0.1522 -0.3026  0.4051
  146TMC2    O1 2235   2.980   3.803  12.586  0.0309  0.4491  0.5711
  146TMC2    O2 2236   2.570   4.019  12.773  0.1321  0.3064 -0.0175
  146TMC2    O5 2237   2.605   4.072  12.983 -0.3396  0.4826 -0.1215
  146TMC2    H5 2238   2.668   4.077  13.058  0.1259  0.5661 -0.5223
  147MPD2     C 2239   3.378   3.445  12.525  0.4166  0.0147  0.7206
  147MPD2    C1 2240   3.365   3.426  12.661 -0.5608  0.6109 -0.6437
  147MPD2    C2 2241   3.282   3.509  12.735  0.2551  0.9535  0.0804
  147MPD2    C3 2242   3.194   3.597  12.676 -0.2170 -0.9560  0.8576
  147MPD2    C4 2243   3.203   3.612  12.542 -0.1081  0.0236 -0.3831
  147MPD2    C5 2244   3.296   3.538  12.464 -0.3952 -0.7302 -0.1831
  147MPD2     H 2245   3.294   3.506  12.843 -1.4213  0.8915  0.2541
  147MPD2    H1 2246   3.137   3.685  12.496 -1.1762 -0.9412 -0.3582
  147MPD2    H2 2247   3.452   3.394  12.464 -0.4604 -0.8285  0.3568
  147MPD2    H3 2248   3.291   3.546  12.356  0.7709  2.2413 -0.0198
  147MPD2     N 2249   3.120   3.686  12.751  1.0582  0.5558  0.6783
  147MPD2    H5 2250   3.131   3.684  12.851  0.3568 -1.1237  0.7182
  147MPD2    N1 2251   3.461   3.345  12.722 -0.1594  0.4421 -0.0602
  147MPD2    H7 2252   3.543   3.317  12.671  0.9323  0.8200  1.4822
  148MPD2     C 2253   3.149   2.358  10.915 -0.0787 -0.4921  0.5647
  148MPD2    C1 2254   3.230   2.247  10.878 -0.9688 -0.3484 -0.1790
  148MPD2    C2 2255   3.181   2.146  10.802  0.1681 -0.2505 -0.2883
  148MPD2    C3 2256   3.043   2.141  10.767 -0.7279 -0.6318  0.1194
  148MPD2    C4 2257   2.969   2.248  10.804 -0.4000  0.3520 -1.1789
  148MPD2    C5 2258   3.018   2.355  10.882 -0.3105  0.0228 -0.4165
  148MPD2     H 2259   3.241   2.062  10.770  0.3214  0.3176 -1.4989
  148MPD2    H1 2260   2.864   2.250  10.778 -0.3197  2.3455 -1.3545
  148MPD2    H2 2261   3.186   2.445  10.970 -2.3336  0.3271  0.7982
  148MPD2    H3 2262   2.947   2.434  10.902 -0.9673 -0.2398 -1.7303
  148MPD2     N 2263   2.990   2.043  10.692 -0.1012  0.3386  0.3762
  148MPD2    H5 2264   2.890   2.056  10.681  0.0610  0.0932 -1.4745
  148MPD2    N1 2265   3.373   2.258  10.887 -0.4674  0.2667 -0.1478
  148MPD2    H7 2266   3.428   2.177  10.860 -0.3913 -0.2500  1.5918
  149TCq2    C1 2267   3.444   2.362  10.946  0.2682 -0.4726  0.5624
  149TCq2    O2 2268   3.414   2.463  11.004  0.4552 -0.2645  0.3555
  149TCq2    C2 2269   3.587   2.353  10.916 -0.8025  0.5132  0.2510
  149TCq2    C3 2270   3.656   2.470  10.922 -0.5135 -0.1206  0.3112
  149TCq2    C4 2271   3.789   2.464  10.880 -0.3503 -0.2636  0.9844
  149TCq2    C5 2272   3.830   2.355  10.805 -0.1476 -0.0526  0.0483
  149TCq2    C6 2273   3.758   2.238  10.811  0.4198 -0.2804  0.1642
  149TCq2    C7 2274   3.629   2.239  10.859 -0.1932 -0.3659  0.2412
  149TCq2    C8 2275   3.777   2.144  10.705  0.1367 -0.6513  0.0149
  149TCq2    O4 2276   3.724   2.034  10.713 -0.2603 -0.5654  0.3939
  149TCq2    C9 2277   3.857   2.584  10.858 -0.3973  0.5894  0.0393
  149TCq2    O5 2278   3.807   2.696  10.886  0.2671 -0.1076 -0.0488
  149TCq2    O6 2279   3.953   2.578  10.778 -0.1445  0.0288  0.4231
  149TCq2    H2 2280   3.613   2.566  10.945 -2.5021 -1.2516  1.3081
  149TCq2    H3 2281   3.925   2.357  10.752 -0.2147 -0.5829 -0.0889
  149TCq2    H4 2282   3.583   2.141  10.851 -1.0551  0.0306  0.3344
  150MPD2     C 2283   0.362   1.139  12.108  0.0772 -0.1197 -0.7757
  150MPD2    C1 2284   0.415   1.221  12.016  0.4903 -0.0754 -0.3876
  150MPD2    C2 2285   0.464   1.341  12.057 -0.2627 -0.2801  0.3469
  150MPD2    C3 2286   0.471   1.382  12.192 -0.7805 -0.5581 -0.2714
  150MPD2    C4 2287   0.426   1.287  12.280  0.0937  0.1965  0.2023
  150MPD2    C5 2288   0.363   1.176  12.240 -0.3392  0.2676 -0.5051
  150MPD2     H 2289   0.514   1.402  11.983 -0.3091 -0.5224  0.1154
  150MPD2    H1 2290   0.414   1.306  12.386 -0.2000  0.3780  0.1358
  150MPD2    H2 2291   0.314   1.044  12.090 -2.0490  0.6345  0.8934
  150MPD2    H3 2292   0.325   1.114  12.321 -1.5315  1.8404  0.1370
  150MPD2     N 2293   0.523   1.511  12.223 -0.2849  0.1004  0.6580
  150MPD2    H5 2294   0.541   1.577  12.149  0.9993 -1.1402 -0.1415
  150MPD2    N1 2295   0.417   1.167  11.886 -0.4720  0.5218  0.3348
  150MPD2    H7 2296   0.376   1.075  11.876 -0.2781  0.5340 -0.5759
  151TCq2    C1 2297   0.552   1.542  12.360 -0.2191 -0.4625  0.0236
  151TCq2    O2 2298   0.546   1.475  12.461  0.1502  0.2765 -0.2727
  151TCq2    C2 2299   0.621   1.668  12.367 -0.6988  0.3856  0.0310
  151TCq2    C3 2300   0.622   1.760  12.258  0.7330  0.2931  0.1062
  151TCq2    C4 2301   0.692   1.874  12.276 -0.2854  0.1726  0.2328
  151TCq2    C5 2302   0.757   1.905  12.392 -0.0310  0.5365  0.1709
  151TCq2    C6 2303   0.752   1.818  12.491 -0.1156 -0.2684  0.0102
  151TCq2    C7 2304   0.692   1.699  12.481  0.3098 -0.2943 -0.5747
  151TCq2    C8 2305   0.852   1.830  12.594 -0.4188 -0.3244 -0.0555
  151TCq2    O4 2306   0.906   1.728  12.630 -0.1560  0.1435 -0.1068
  151TCq2    C9 2307   0.699   1.960  12.161 -0.4765  0.5525 -0.4751
  151TCq2    O5 2308   0.766   2.066  12.160  0.1929 -0.2164 -0.4630
  151TCq2    O6 2309   0.667   1.909  12.046  0.0485 -0.4030  0.1384
  151TCq2    H2 2310   0.567   1.745  12.165 -0.8258 -1.7121  1.3456
  151TCq2    H3 2311   0.825   1.989  12.395  0.1093  0.4203  0.3045
  151TCq2    H4 2312   0.705   1.633  12.566  0.4429 -0.0155 -0.3749
  152MPD2     C 2313   0.289   1.420  13.218 -0.1573 -0.4286 -0.3658
  152MPD2    C1 2314   0.299   1.518  13.118  0.1942  0.3567 -0.6152
  152MPD2    C2 2315   0.182   1.557  13.060 -0.3762  0.3380 -0.0194
  152MPD2    C3 2316   0.067   1.488  13.102  0.2466 -0.3550 -0.4140
  152MPD2    C4 2317   0.060   1.397  13.202  0.4710 -0.2940  0.7494
  152MPD2    C5 2318   0.176   1.357  13.256  0.5627 -0.2153 -0.1252
  152MPD2     H 2319   0.179   1.620  12.973 -1.0735 -0.1175 -0.3296
  152MPD2    H1 2320   4.699   1.340  13.231  2.0381 -2.6079  0.9278
  152MPD2    H2 2321   0.384   1.380  13.253  0.0290  0.6767  0.3971
  152MPD2    H3 2322   0.172   1.279  13.332  0.4925 -0.6562 -0.5767
  152MPD2     N 2323   4.682   1.523  13.017  0.3390 -0.0170  0.3822
  152MPD2    H5 2324   4.707   1.589  12.944  0.4269 -0.6619 -0.1745
  152MPD2    N1 2325   0.425   1.570  13.087 -0.1360 -0.0553  0.1058
  152MPD2    H7 2326   0.505   1.541  13.142 -0.5684 -1.3977  0.0082
  153TCq2    C1 2327   0.461   1.652  12.982 -0.4646  0.8277  0.5214
  153TCq2    O2 2328   0.388   1.729  12.921 -0.6124 -0.9022 -0.5363
  153TCq2    C2 2329   0.601   1.690  12.979  0.4071  0.1354 -0.3363
  153TCq2    C3 2330   0.688   1.601  13.022  0.0641 -0.4277 -0.2168
  153TCq2    C4 2331   0.820   1.643  13.013 -0.1439  0.2020 -0.2347
  153TCq2    C5 2332   0.854   1.763  12.956  0.3656  0.0816  0.3436
  153TCq2    C6 2333   0.760   1.844  12.909  0.2517 -0.0390  0.1305
  153TCq2    C7 2334   0.626   1.808  12.918 -0.6923 -0.2557  0.1717
  153TCq2    C8 2335   0.786   1.984  12.934 -0.3625 -0.7267  0.2595
  153TCq2    O4 2336   0.739   2.058  12.848 -0.2770 -0.0785 -0.7061
  153TCq2    C9 2337   0.916   1.542  13.058 -0.0532 -0.0466 -0.1364
  153TCq2    O5 2338   0.877   1.438  13.111 -0.3761  0.8925  0.6682
  153TCq2    O6 2339   1.041   1.558  13.033  0.5444 -0.1755 -0.1523
  153TCq2    H2 2340   0.666   1.512  13.081  1.5143 -0.2847  0.5522
  153TCq2    H3 2341   0.958   1.786  12.976  0.8903 -1.2799 -0.7820
  153TCq2    H4 2342   0.552   1.883  12.892 -0.1806 -0.6072 -2.3596
  154MPD2     C 2343   0.848   1.194   0.571  0.5536  0.2801 -0.8161
  154MPD2    C1 2344   0.833   1.101   0.671 -0.5646  0.4657  0.3689
  154MPD2    C2 2345   0.704   1.084   0.727  0.3001 -0.3572 -0.5812
  154MPD2    C3 2346   0.597   1.158   0.673 -0.1857  0.1965  0.0751
  154MPD2    C4 2347   0.614   1.231   0.558 -0.1344  0.3921 -0.7280
  154MPD2    C5 2348   0.741   1.249   0.511  0.6173  0.0675 -0.8497
  154MPD2     H 2349   0.684   1.024   0.815  1.3763  0.4447  0.2066
  154MPD2    H1 2350   0.540   1.286   0.500 -0.7602 -1.6255 -1.8340
  154MPD2    H2 2351   0.944   1.219   0.526 -0.0819 -0.9256 -2.8499
  154MPD2    H3 2352   0.756   1.315   0.427 -0.2362  1.8955  0.4213
  154MPD2     N 2353   0.473   1.141   0.732 -0.5470  0.2869 -0.0940
  154MPD2    H5 2354   0.470   1.089   0.820  4.8301 -2.2923 -1.4243
  154MPD2    N1 2355   0.946   1.051   0.736 -0.1493 -0.6850  0.2065
  154MPD2    H7 2356   1.034   1.088   0.701 -1.4772  0.3888 -2.0097
  155TCq2    C1 2357   0.943   0.949   0.830 -0.0442 -0.2854 -0.0269
  155TCq2    O2 2358   0.851   0.876   0.862 -0.3200  0.1452  0.0138
  155TCq2    C2 2359   1.074   0.926   0.894  1.0050 -0.0705 -0.1064
  155TCq2    C3 2360   1.101   0.807   0.959 -0.1583 -0.3175 -0.6863
  155TCq2    C4 2361   1.222   0.798   1.026  0.1290  0.5246 -0.6981
  155TCq2    C5 2362   1.315   0.903   1.019 -0.3573  0.1448 -0.3838
  155TCq2    C6 2363   1.284   1.014   0.951  0.0611  0.2742  0.1467
  155TCq2    C7 2364   1.165   1.027   0.884  0.3059  0.1313  1.1475
  155TCq2    C8 2365   1.389   1.108   0.931 -0.2645  0.1666  0.4501
  155TCq2    O4 2366   1.388   1.182   0.833  0.6355  0.0177  0.4483
  155TCq2    C9 2367   1.254   0.684   1.105 -0.1676 -0.4869  0.2398
  155TCq2    O5 2368   1.342   0.705   1.194 -0.5646  0.0805  0.0796
  155TCq2    O6 2369   1.168   0.591   1.102  0.4696  0.0896 -0.5092
  155TCq2    H2 2370   1.032   0.724   0.966 -1.1413  0.5685  0.0095
  155TCq2    H3 2371   1.408   0.883   1.071 -0.7378 -0.1454  0.1910
  155TCq2    H4 2372   1.155   1.125   0.841  1.3608  0.0036  0.6082
  156MPD2     C 2373   0.201   3.470  12.810 -0.6647 -0.1508 -0.2720
  156MPD2    C1 2374   0.242   3.583  12.737  0.5513  0.2972  0.2617
  156MPD2    C2 2375   0.193   3.708  12.771 -0.3536  0.0505  0.0345
  156MPD2    C3 2376   0.120   3.729  12.880 -0.0908 -0.1666  0.4403
  156MPD2    C4 2377   0.087   3.618  12.961 -0.6769 -0.1967 -0.3933
  156MPD2    C5 2378   0.123   3.491  12.923 -0.4571  0.7784 -0.2343
  156MPD2     H 2379   0.211   3.791  12.703 -1.4042  0.0024 -0.3057
  156MPD2    H1 2380   0.023   3.623  13.048 -1.6652 -1.4324 -1.0457
  156MPD2    H2 2381   0.246   3.375  12.786  0.5581  0.1025  1.0680
  156MPD2    H3 2382   0.109   3.408  12.991  1.4800 -0.9488 -1.9332
  156MPD2     N 2383   0.085   3.863  12.907 -0.2060  0.5270 -0.2791
  156MPD2    H5 2384   0.142   3.940  12.873  0.7308  0.0725  0.2570
  156MPD2    N1 2385   0.319   3.561  12.616  0.3058 -0.0113 -0.4659
  156MPD2    H7 2386   0.351   3.467  12.596 -1.0797 -0.5287 -0.2887
  157TCq2    C1 2387   0.351   3.654  12.521 -0.3211 -1.2225  0.1183
  157TCq2    O2 2388   0.290   3.761  12.501 -0.3035  0.0285  0.3327
  157TCq2    C2 2389   0.435   3.616  12.408  0.2172  0.7188  1.0103
  157TCq2    C3 2390   0.527   3.514  12.421  0.0314  0.0178 -0.0864
  157TCq2    C4 2391   0.636   3.507  12.338 -0.2236  0.4454 -0.2332
  157TCq2    C5 2392   0.653   3.595  12.233 -0.5181 -0.1445 -0.4138
  157TCq2    C6 2393   0.557   3.693  12.219 -0.4268  0.0495 -0.4788
  157TCq2    C7 2394   0.447   3.704  12.300 -0.3300  0.7637 -0.2199
  157TCq2    C8 2395   0.579   3.810  12.132 -0.0294 -0.0752 -0.1679
  157TCq2    O4 2396   0.692   3.860  12.126  0.0743 -0.4797 -0.4526
  157TCq2    C9 2397   0.735   3.399  12.361  0.2891  0.4907  0.6187
  157TCq2    O5 2398   0.850   3.423  12.321  0.0443  0.3622  0.4092
  157TCq2    O6 2399   0.692   3.293  12.419  0.2706  0.5178  0.4597
  157TCq2    H2 2400   0.529   3.450  12.508 -3.0236  0.4228  0.2746
  157TCq2    H3 2401   0.736   3.586  12.165 -0.7762 -1.9050 -0.4991
  157TCq2    H4 2402   0.377   3.786  12.289 -0.4665  0.3641 -2.3039
  158TMC2    C1 2403   0.942   3.029  13.778 -0.0531 -0.4693 -0.9553
  158TMC2    C2 2404   0.980   3.154  13.735  0.1811  0.1470 -0.1038
  158TMC2    C3 2405   0.884   3.251  13.741 -0.2279 -0.6659 -0.4682
  158TMC2    C4 2406   0.809   3.008  13.814  0.1672  0.3909  0.2331
  158TMC2    C5 2407   0.721   3.111  13.817  0.6445  0.4887  0.2550
  158TMC2    C6 2408   0.758   3.235  13.781 -0.0550  0.0860  0.3534
  158TMC2     C 2409   1.042   2.972  13.856  0.3080  0.9157  0.0296
  158TMC2     O 2410   1.159   2.997  13.833  0.0765  0.0348  0.2257
  158TMC2     H 2411   1.082   3.168  13.703  0.2164  0.5429  0.1738
  158TMC2    H1 2412   0.782   2.904  13.829 -0.0593  0.5920  1.2657
  158TMC2    H2 2413   0.682   3.312  13.792  1.3263  1.6157 -0.7870
  158TMC2    C7 2414   0.581   3.089  13.850  0.2391  0.5096  0.4547
  158TMC2    C8 2415   0.954   3.380  13.739  0.7790  1.6805 -0.2871
  158TMC2    O1 2416   0.524   3.191  13.891  0.0693  0.5564 -0.2782
  158TMC2    O2 2417   1.058   3.371  13.803  0.2679  0.3525 -0.1956
  158TMC2    O5 2418   0.857   3.463  13.769 -0.1565  0.3426  0.3866
  158TMC2    H5 2419   0.789   3.464  13.698  2.6837  0.6375 -2.3260
  159MPD2     C 2420   1.178   2.772  14.321 -0.4686  0.3060  0.2297
  159MPD2    C1 2421   1.053   2.724  14.274 -0.2862  0.1068  0.1879
  159MPD2    C2 2422   0.995   2.770  14.157 -0.3013 -0.2875 -0.6011
  159MPD2    C3 2423   1.062   2.862  14.085  1.1844  0.0134  0.4287
  159MPD2    C4 2424   1.190   2.904  14.131  0.0372 -0.0103  0.7709
  159MPD2    C5 2425   1.247   2.865  14.244 -0.2021  0.6112  0.4613
  159MPD2     H 2426   0.900   2.739  14.115 -1.0643  0.5714  0.4468
  159MPD2    H1 2427   1.247   2.975  14.072 -1.0931 -0.2614 -0.6084
  159MPD2    H2 2428   1.229   2.729  14.406  2.1389 -1.2416 -2.1056
  159MPD2    H3 2429   1.350   2.895  14.261  0.6693 -1.7179 -0.7715
  159MPD2     N 2430   0.994   2.909  13.969  0.5874  0.3084  0.1485
  159MPD2    H5 2431   0.893   2.901  13.972  0.6188 -0.1555  0.0073
  159MPD2    N1 2432   0.982   2.627  14.355  0.2456 -0.3540  0.2417
  159MPD2    H7 2433   1.033   2.594  14.437  1.2873 -0.5947 -0.5049
  160TMC2    C1 2434   4.370   1.121   1.807 -0.1024  0.2302  0.1549
  160TMC2    C2 2435   4.446   1.080   1.699  0.6242  0.0213  0.1264
  160TMC2    C3 2436   4.503   1.178   1.611 -0.4665  0.0685 -0.6803
  160TMC2    C4 2437   4.359   1.254   1.830 -1.2268  0.8564  0.3007
  160TMC2    C5 2438   4.418   1.340   1.749 -0.4049  0.2068 -1.1898
  160TMC2    C6 2439   4.484   1.307   1.636  0.3997  0.0757  0.1019
  160TMC2     C 2440   4.272   1.025   1.844 -1.2054  0.2098 -0.2155
  160TMC2     O 2441   4.287   0.905   1.837 -0.5260 -0.7454  0.3895
  160TMC2     H 2442   4.460   0.976   1.675 -1.1530  0.2673 -2.0722
  160TMC2    H1 2443   4.311   1.285   1.922  1.6403  0.6457  1.8642
  160TMC2    H2 2444   4.520   1.375   1.560  0.5975 -0.5507 -0.3579
  160TMC2    C7 2445   4.410   1.485   1.787 -0.4548  0.3579 -0.6068
  160TMC2    C8 2446   4.573   1.146   1.488 -0.9945 -0.2107  0.5362
  160TMC2    O1 2447   4.334   1.512   1.880 -0.0188 -0.4902  1.0377
  160TMC2    O2 2448   4.584   1.232   1.402 -0.0749  0.1086  0.1082
  160TMC2    O5 2449   4.674   1.055   1.516 -0.1005 -0.0292 -0.1413
  160TMC2    H5 2450   4.666   1.009   1.603 -2.6513  0.4732 -0.1063
  161MPD2     C 2451   3.996   0.930   1.914  0.0454  0.1295 -0.2672
  161MPD2    C1 2452   4.026   1.048   1.848  0.6534 -0.2941 -0.4645
  161MPD2    C2 2453   3.918   1.136   1.825  0.0132 -0.2015  0.1438
  161MPD2    C3 2454   3.792   1.107   1.881 -0.2638 -0.6276  0.5368
  161MPD2    C4 2455   3.766   0.993   1.950  0.4004  0.5385 -0.0166
  161MPD2    C5 2456   3.871   0.906   1.963  0.3747  0.5079 -0.1404
  161MPD2     H 2457   3.945   1.226   1.771  0.7563 -0.8279 -0.5235
  161MPD2    H1 2458   3.672   0.959   1.991  0.0388 -0.9339 -2.0907
  161MPD2    H2 2459   4.072   0.853   1.922  0.9474  1.2919  2.5366
  161MPD2    H3 2460   3.859   0.818   2.026 -0.7037 -0.2736 -1.4497
  161MPD2     N 2461   3.683   1.194   1.878  0.1280  0.4516  0.5955
  161MPD2    H5 2462   3.593   1.162   1.911  0.0499 -2.3750 -2.3373
  161MPD2    N1 2463   4.156   1.099   1.827  0.3786 -0.0324  0.6160
  161MPD2    H7 2464   4.172   1.188   1.781 -1.7209  0.0018 -0.0524
  162TMC2    C1 2465   2.089   3.037   0.729  0.7520  0.2093 -0.2986
  162TMC2    C2 2466   2.095   3.133   0.631 -0.2952 -0.0805 -0.0117
  162TMC2    C3 2467   2.058   3.262   0.666  0.4533 -0.0812 -0.2533
  162TMC2    C4 2468   2.036   3.059   0.855 -0.1718 -0.5671 -0.0510
  162TMC2    C5 2469   2.017   3.192   0.888  0.1705 -0.4178 -0.1834
  162TMC2    C6 2470   2.029   3.290   0.794  0.6037  0.2213  0.4497
  162TMC2     C 2471   2.147   2.907   0.707  0.2178  0.4027 -0.6815
  162TMC2     O 2472   2.217   2.898   0.605  0.2797  0.0688 -0.2769
  162TMC2     H 2473   2.141   3.101   0.538  0.2610 -0.7424  0.4837
  162TMC2    H1 2474   2.029   2.984   0.933  2.2002 -1.0321 -0.2889
  162TMC2    H2 2475   2.010   3.394   0.819  0.5611  0.5810 -1.0774
  162TMC2    C7 2476   1.990   3.215   1.030 -0.1146  0.1089  0.0232
  162TMC2    C8 2477   2.078   3.375   0.573 -0.2245  0.4502 -0.6712
  162TMC2    O1 2478   1.902   3.299   1.062 -0.1832  0.2324 -1.0326
  162TMC2    O2 2479   2.101   3.486   0.612 -0.1929 -0.4013 -0.1139
  162TMC2    O5 2480   2.047   3.333   0.446  0.2128  0.0216 -0.0894
  162TMC2    H5 2481   2.012   3.242   0.440  1.3472 -0.4250  0.0319
  163MPD2     C 2482   2.282   2.433   0.816  1.3195 -0.5495  0.0006
  163MPD2    C1 2483   2.356   2.538   0.766  0.8467  0.4603 -0.3071
  163MPD2    C2 2484   2.298   2.666   0.743 -0.3375 -0.4273 -0.1900
  163MPD2    C3 2485   2.169   2.680   0.797  0.0091 -0.1485 -0.1266
  163MPD2    C4 2486   2.101   2.571   0.857 -0.5192 -0.9495  0.1499
  163MPD2    C5 2487   2.158   2.449   0.861 -0.8861  0.5200 -0.6195
  163MPD2     H 2488   2.351   2.752   0.704 -0.9563  0.5485  1.1027
  163MPD2    H1 2489   2.002   2.585   0.899 -0.7568 -1.7369 -0.1510
  163MPD2    H2 2490   2.329   2.336   0.825  1.2595 -0.3082  2.9430
  163MPD2    H3 2491   2.105   2.376   0.921 -0.3286  1.9013  1.5745
  163MPD2     N 2492   2.111   2.804   0.788  0.4947 -0.0311  0.7635
  163MPD2    H5 2493   2.027   2.827   0.841  1.6079  0.2064  2.4185
  163MPD2    N1 2494   2.476   2.497   0.711 -0.7685 -0.2880 -0.3909
  163MPD2    H7 2495   2.500   2.399   0.719  1.9024  0.6316  2.8059
  164TCq2    C1 2496   4.342   2.073  11.215 -0.4183  0.4287 -0.6541
  164TCq2    O2 2497   4.363   1.981  11.296 -0.2878 -0.3954  0.4378
  164TCq2    C2 2498   4.330   2.208  11.257 -0.5857 -0.0612 -0.5292
  164TCq2    C3 2499   4.358   2.307  11.161 -0.0929 -0.4355 -0.3924
  164TCq2    C4 2500   4.305   2.426  11.181  0.6971 -0.6236  0.0795
  164TCq2    C5 2501   4.228   2.469  11.289 -0.7310 -0.3248  0.0523
  164TCq2    C6 2502   4.196   2.363  11.375 -0.3272 -0.4933  0.2196
  164TCq2    C7 2503   4.259   2.237  11.370  0.6408  0.4090  0.1026
  164TCq2    C8 2504   4.085   2.385  11.473 -0.2760  0.2147 -0.0241
  164TCq2    O4 2505   4.090   2.338  11.590 -0.3494 -0.2552  0.1202
  164TCq2    C9 2506   4.336   2.529  11.085  0.0734 -0.2990 -0.3427
  164TCq2    O5 2507   4.335   2.484  10.969 -0.1271  0.2322  0.3045
  164TCq2    O6 2508   4.316   2.644  11.126 -0.0905 -0.2558 -0.3070
  164TCq2    H2 2509   4.427   2.289  11.080  0.2654  2.2765 -0.6641
  164TCq2    H3 2510   4.181   2.567  11.287  0.7145  0.3680 -0.4115
  164TCq2    H4 2511   4.225   2.160  11.438 -2.0226  1.1698 -0.3629
  165MPD2     C 2512   3.236   0.035   1.809  0.0745 -0.3696  0.6131
  165MPD2    C1 2513   3.353   4.705   1.770 -0.4736  0.3043  0.5636
  165MPD2    C2 2514   3.467   0.058   1.803 -0.0986 -0.5331  0.0932
  165MPD2    C3 2515   3.464   0.190   1.844  0.2859 -0.7468 -0.2023
  165MPD2    C4 2516   3.346   0.250   1.854  0.5269 -0.3309  0.3741
  165MPD2    C5 2517   3.229   0.170   1.846  0.1345 -0.4647  0.4783
  165MPD2     H 2518   3.565   0.011   1.810  0.1417 -0.0670 -0.1410
  165MPD2    H1 2519   3.341   0.354   1.886  2.4613  0.5350 -2.1435
  165MPD2    H2 2520   3.147   4.699   1.812 -1.1626  1.4105  0.4492
  165MPD2    H3 2521   3.127   0.204   1.857  0.5016  1.5473 -2.4451
  165MPD2     N 2522   3.576   0.274   1.860 -0.0109 -0.5015  0.0769
  165MPD2    H5 2523   3.554   0.363   1.904  1.7043  0.0004 -0.0848
  165MPD2    N1 2524   3.350   4.574   1.709 -0.3233  0.3472  0.3264
  165MPD2    H7 2525   3.263   4.530   1.681  0.3194 -0.0064 -1.1425
  166TCq2    C1 2526   3.707   0.251   1.823  0.4407  0.2165  0.6897
  166TCq2    O2 2527   3.762   0.148   1.787  0.2881  0.0921  0.0475
  166TCq2    C2 2528   3.789   0.368   1.843  0.6565  0.9558  0.3464
  166TCq2    C3 2529   3.785   0.442   1.963 -0.1449  0.0245 -0.0356
  166TCq2    C4 2530   3.894   0.506   2.015 -0.5605 -0.1249 -0.1006
  166TCq2    C5 2531   4.010   0.498   1.941 -0.0263 -0.8253 -0.3508
  166TCq2    C6 2532   4.021   0.420   1.827  0.2275  0.6540  0.1293
  166TCq2    C7 2533   3.908   0.364   1.770  0.3199  0.4267 -0.1813
  166TCq2    C8 2534   4.150   0.339   1.810 -0.5758  0.4289 -0.3808
  166TCq2    O4 2535   4.252   0.368   1.872 -0.4721 -0.2150 -0.9456
  166TCq2    C9 2536   3.906   0.556   2.151  0.7701  0.0416 -0.0611
  166TCq2    O5 2537   3.800   0.551   2.217  0.0417 -0.0095  0.8648
  166TCq2    O6 2538   4.012   0.593   2.198 -0.3282  0.0998  0.2692
  166TCq2    H2 2539   3.709   0.434   2.040 -0.7662 -1.9053 -0.8564
  166TCq2    H3 2540   4.102   0.527   1.992 -0.3088 -2.2271  0.9438
  166TCq2    H4 2541   3.909   0.320   1.671  0.1134  2.7017 -1.2004
  167TMC2    C1 2542   2.978   2.617  13.189 -0.1806 -0.1274  0.3611
  167TMC2    C2 2543   2.965   2.657  13.315  0.3056 -0.0951  0.2208
  167TMC2    C3 2544   2.961   2.558  13.410  0.0032 -0.3506  1.3366
  167TMC2    C4 2545   3.005   2.491  13.150  0.3207  0.1683 -0.4074
  167TMC2    C5 2546   3.013   2.398  13.248 -0.4129 -0.9312 -0.0845
  167TMC2    C6 2547   2.991   2.426  13.381  0.9082 -0.0789  0.3304
  167TMC2     C 2548   2.953   2.716  13.094  0.0246  0.5783  0.5612
  167TMC2     O 2549   2.909   2.820  13.146 -0.7149  0.0744  0.0720
  167TMC2     H 2550   2.958   2.762  13.341  3.9952 -0.0494  1.0091
  167TMC2    H1 2551   3.001   2.459  13.047  0.8206  0.1407 -0.4147
  167TMC2    H2 2552   2.994   2.351  13.458  0.8071 -0.0531  0.3591
  167TMC2    C7 2553   3.021   2.248  13.229 -0.2343  0.0047 -0.3630
  167TMC2    C8 2554   3.002   2.598  13.542  0.3918  0.0946 -0.0789
  167TMC2    O1 2555   2.978   2.171  13.320  0.1226  0.1025 -0.1470
  167TMC2    O2 2556   3.084   2.541  13.616 -0.2725 -0.4945 -1.3045
  167TMC2    O5 2557   2.941   2.712  13.567 -0.2930  0.0399 -0.1623
  167TMC2    H5 2558   2.880   2.739  13.495  1.0312 -2.3366 -2.2001
  168MPD2     C 2559   2.888   2.902  12.859  0.7932  0.9384 -0.5626
  168MPD2    C1 2560   2.956   2.783  12.853  0.1192  0.8551  0.2515
  168MPD2    C2 2561   2.998   2.740  12.732 -0.2929 -0.2385  0.3782
  168MPD2    C3 2562   2.974   2.810  12.619 -0.2536  0.4792  0.4610
  168MPD2    C4 2563   2.905   2.929  12.626 -0.3910 -0.8844  0.3863
  168MPD2    C5 2564   2.864   2.977  12.747  0.5500 -0.1305  1.5372
  168MPD2     H 2565   3.042   2.641  12.732 -1.9984 -1.0020  1.5068
  168MPD2    H1 2566   2.907   2.992  12.537  1.0768 -1.6636 -0.1310
  168MPD2    H2 2567   2.844   2.941  12.950 -1.1557 -0.3162 -0.9702
  168MPD2    H3 2568   2.796   3.061  12.756  0.1761  0.0988 -3.2813
  168MPD2     N 2569   3.007   2.772  12.489  0.3826 -0.8174  0.2408
  168MPD2    H5 2570   2.964   2.831  12.418 -0.5970 -0.2877  1.2755
  168MPD2    N1 2571   2.979   2.688  12.957  0.0312 -0.1710 -0.1932
  168MPD2    H7 2572   3.022   2.600  12.931 -0.4938 -0.4161 -0.2508
  169MPD1     C 2573   0.903   1.073  10.526  0.1015  0.7623  0.1738
  169MPD1    C1 2574   0.814   1.028  10.433  0.2075  1.0557 -0.0727
  169MPD1    C2 2575   0.838   1.060  10.299 -0.6834  0.3575  0.5183
  169MPD1    C3 2576   0.945   1.131  10.256  0.5550 -0.4676 -0.3167
  169MPD1    C4 2577   1.041   1.168  10.348 -0.3451 -0.1477 -0.1006
  169MPD1    C5 2578   1.012   1.145  10.485 -0.6797 -0.3620 -0.2440
  169MPD1     H 2579   0.766   1.025  10.226 -1.3154  1.7225  0.4876
  169MPD1    H1 2580   1.128   1.226  10.320 -2.7040  3.4772  0.0331
  169MPD1    H2 2581   0.886   1.064  10.632  1.4011 -1.0865  0.2325
  169MPD1    H3 2582   1.082   1.179  10.561 -0.3009  1.0538 -1.2389
  169MPD1     N 2583   0.941   1.182  10.124 -0.2010 -0.2433  0.1220
  169MPD1    H5 2584   0.866   1.141  10.068 -0.3591 -2.0938  1.6869
  169MPD1    N1 2585   0.709   0.943  10.473  0.5341  0.0602 -0.7661
  169MPD1    H6 2586   0.679   0.936  10.570  0.0145  1.9706 -0.7990
  169MPD1    H7 2587   0.622   0.969  10.426 -0.5435  1.4769  2.0263
  170MPD1     C 2588   4.516   4.314  13.232  0.1446  0.5426 -0.8273
  170MPD1    C1 2589   4.486   4.446  13.228 -0.3077 -0.2811 -0.0617
  170MPD1    C2 2590   4.458   4.514  13.349  0.4220 -0.2530 -0.6955
  170MPD1    C3 2591   4.431   4.437  13.458 -0.2902  0.0930 -0.0595
  170MPD1    C4 2592   4.432   4.305  13.450 -0.3380  0.1935 -0.1139
  170MPD1    C5 2593   4.484   4.241  13.345 -0.2761  0.3017 -0.3728
  170MPD1     H 2594   4.452   4.622  13.357 -0.8141 -0.2925 -1.0323
  170MPD1    H1 2595   4.403   4.241  13.532 -0.7935  0.9015  0.2845
  170MPD1    H2 2596   4.562   4.260  13.150  0.3863  2.0510 -1.6825
  170MPD1    H3 2597   4.492   4.133  13.345 -0.4310  0.2852  2.3471
  170MPD1     N 2598   4.403   4.507  13.576  0.1018  0.0691 -0.5184
  170MPD1    H5 2599   4.383   4.605  13.564 -0.1086  0.1189  0.2137
  170MPD1    N1 2600   4.513   4.519  13.113 -0.3775  0.2698 -0.0414
  170MPD1    H6 2601   4.476   4.472  13.030  3.1708 -1.2294 -0.7642
  170MPD1    H7 2602   4.461   4.606  13.116 -1.4203 -0.3491 -0.0922
  171MPD1     C 2603   3.213   1.230  15.641  0.0821  0.1349  0.0867
  171MPD1    C1 2604   3.136   1.129  15.589 -0.3386  0.4623 -0.3831
  171MPD1    C2 2605   3.160   0.997  15.630  0.1817  0.0131 -0.2118
  171MPD1    C3 2606   3.272   0.966  15.705 -0.2072  0.6236  0.2713
  171MPD1    C4 2607   3.352   1.070  15.742 -0.1916 -0.6182  0.0841
  171MPD1    C5 2608   3.320   1.198  15.712  0.7761  0.1323  0.0520
  171MPD1     H 2609   3.085   0.925  15.601 -1.4935  1.0276  1.6512
  171MPD1    H1 2610   3.446   1.061  15.795 -1.8181 -2.1433  2.6827
  171MPD1    H2 2611   3.199   1.336  15.621  0.8695  0.8442  3.2550
  171MPD1    H3 2612   3.392   1.271  15.748 -0.7645  3.0406 -2.8602
  171MPD1     N 2613   3.298   0.839  15.750  0.0781  0.2793 -0.6483
  171MPD1    H5 2614   3.381   0.825  15.806 -0.7464 -0.3821  0.4059
  171MPD1    N1 2615   3.010   1.175  15.533 -0.4405 -0.2014  0.1614
  171MPD1    H6 2616   2.977   1.114  15.458 -0.2391 -1.8586  1.4400
  171MPD1    H7 2617   3.023   1.261  15.480  0.9308 -0.1814  0.5366
  172MPD1     C 2618   1.645   0.323   1.288  0.1411 -0.2617  0.3639
  172MPD1    C1 2619   1.568   0.437   1.269 -0.1714  0.1834  0.2830
  172MPD1    C2 2620   1.634   0.555   1.229  0.6881  0.6614 -0.4666
  172MPD1    C3 2621   1.766   0.565   1.207  0.1373  0.2127 -0.2344
  172MPD1    C4 2622   1.838   0.449   1.216  0.0001  0.2527 -0.5542
  172MPD1    C5 2623   1.778   0.332   1.259 -0.4760 -0.1518  0.2200
  172MPD1     H 2624   1.574   0.645   1.218 -0.1480  0.4420  2.2687
  172MPD1    H1 2625   1.941   0.438   1.185  0.2047  2.0939 -0.5366
  172MPD1    H2 2626   1.597   0.230   1.315 -0.4273  0.2659  1.1931
  172MPD1    H3 2627   1.829   0.236   1.258 -2.3920 -1.1701 -4.4473
  172MPD1     N 2628   1.839   0.673   1.170  0.1513 -0.5855  0.5752
  172MPD1    H5 2629   1.938   0.661   1.149 -0.3274 -1.7982 -1.0141
  172MPD1    N1 2630   1.437   0.458   1.319  0.2605 -0.5772  0.3062
  172MPD1    H6 2631   1.374   0.383   1.292 -0.5954 -0.0102  0.7093
  172MPD1    H7 2632   1.406   0.541   1.268 -2.2321 -0.4808  1.9886
  173MPD1     C 2633   3.953   0.572  14.269 -0.5298 -0.0885  0.7085
  173MPD1    C1 2634   3.845   0.543  14.190  0.2207 -0.6950  0.5445
  173MPD1    C2 2635   3.727   0.492  14.252  0.3552 -0.0035 -0.5585
  173MPD1    C3 2636   3.727   0.448  14.383 -0.1775  0.0861  0.5054
  173MPD1    C4 2637   3.842   0.469  14.455 -0.2580 -0.0928  0.7007
  173MPD1    C5 2638   3.954   0.517  14.398  0.6331 -0.4840  0.1097
  173MPD1     H 2639   3.638   0.466  14.197  0.5928  1.7145 -1.7415
  173MPD1    H1 2640   3.841   0.441  14.560 -2.0784 -1.4190  0.3297
  173MPD1    H2 2641   4.041   0.619  14.228 -1.3806  2.2307  1.5299
  173MPD1    H3 2642   4.038   0.528  14.464 -0.1200  0.0135  0.9828
  173MPD1     N 2643   3.610   0.390  14.431 -0.3921 -0.7136  0.2245
  173MPD1    H5 2644   3.540   0.380  14.357 -0.4198 -2.3492  0.4634
  173MPD1    N1 2645   3.845   0.591  14.057 -0.2803 -0.4479  0.1217
  173MPD1    H6 2646   3.765   0.547  14.011 -2.3465  3.6969 -0.2922
  173MPD1    H7 2647   3.932   0.548  14.026 -0.2085 -1.3928  1.6767
  174MPD1     C 2648   3.285   4.483  13.988  0.9564  1.0628  0.6114
  174MPD1    C1 2649   3.212   4.478  14.106  0.1374 -0.4496 -0.7275
  174MPD1    C2 2650   3.230   4.570  14.203 -0.0768 -0.0381 -0.2681
  174MPD1    C3 2651   3.321   4.671  14.190  0.5392 -0.3648 -0.2613
  174MPD1    C4 2652   3.388   4.682  14.070 -0.1972  0.3263  0.4211
  174MPD1    C5 2653   3.376   4.589  13.971  0.2378 -0.3022  0.4663
  174MPD1     H 2654   3.167   4.557  14.291 -0.0011 -4.7518 -0.9232
  174MPD1    H1 2655   3.467   0.029  14.057 -0.6817  0.4190 -1.8539
  174MPD1    H2 2656   3.269   4.404  13.915 -1.3700  1.8390  0.2614
  174MPD1    H3 2657   3.439   4.597  13.883 -3.5700 -0.2015 -2.2621
  174MPD1     N 2658   3.337   0.039  14.290  0.5743  0.3637 -0.5243
  174MPD1    H5 2659   3.416   0.102  14.277  0.6708  1.0010  3.0099
  174MPD1    N1 2660   3.107   4.384  14.110 -0.0730  0.2085 -0.0951
  174MPD1    H6 2661   3.109   4.329  14.196 -0.5693  1.5966  0.8257
  174MPD1    H7 2662   3.127   4.323  14.032 -0.5667 -1.2640  0.9394
  175MPD1     C 2663   1.813   0.438  17.082  0.2719 -0.6359 -0.8972
  175MPD1    C1 2664   1.785   0.569  17.131  0.3352 -0.2538 -0.4675
  175MPD1    C2 2665   1.756   0.671  17.036  0.5971  0.2053  0.3619
  175MPD1    C3 2666   1.755   0.655  16.904  0.1398  0.2806 -0.5871
  175MPD1    C4 2667   1.768   0.526  16.856 -0.3743  1.1208  0.0239
  175MPD1    C5 2668   1.793   0.420  16.944  0.0476  0.0357 -0.5558
  175MPD1     H 2669   1.750   0.771  17.079 -1.6245 -0.3223  1.2597
  175MPD1    H1 2670   1.758   0.514  16.748  0.3192 -0.6269  0.1542
  175MPD1    H2 2671   1.827   0.359  17.156 -0.3552  0.5817  0.5320
  175MPD1    H3 2672   1.797   0.316  16.915  0.4449  0.4454 -1.9557
  175MPD1     N 2673   1.748   0.759  16.814 -0.8597 -0.3969 -0.0955
  175MPD1    H5 2674   1.747   0.736  16.715 -0.3717 -1.4051  0.1303
  175MPD1    N1 2675   1.833   0.605  17.260 -0.9433 -0.4386  0.2501
  175MPD1    H6 2676   1.795   0.692  17.296 -0.4053 -0.6359  1.2761
  175MPD1    H7 2677   1.836   0.527  17.326  1.2055 -0.0411  0.6356
  176MPD1     C 2678   3.482   2.161  16.623 -0.2049  0.3540 -0.1569
  176MPD1    C1 2679   3.361   2.220  16.590 -0.2617  0.7146  0.1127
  176MPD1    C2 2680   3.297   2.307  16.682 -0.3891  0.0819 -0.9293
  176MPD1    C3 2681   3.375   2.358  16.785  0.2348  0.1878  0.6113
  176MPD1    C4 2682   3.501   2.305  16.807  0.1642  0.9285  0.8835
  176MPD1    C5 2683   3.549   2.199  16.735 -0.4392 -0.6586  0.5539
  176MPD1     H 2684   3.199   2.346  16.659 -1.4799 -0.3174  3.0018
  176MPD1    H1 2685   3.577   2.331  16.880 -0.6402 -0.4803  2.2171
  176MPD1    H2 2686   3.522   2.081  16.562 -1.7537  0.0520 -0.7747
  176MPD1    H3 2687   3.634   2.144  16.774  1.2635  0.0430 -2.1158
  176MPD1     N 2688   3.332   2.463  16.868 -0.2629 -0.3141  0.3858
  176MPD1    H5 2689   3.234   2.486  16.860  0.0233  1.1804  1.1047
  176MPD1    N1 2690   3.292   2.156  16.484  0.0232  0.2536 -0.1658
  176MPD1    H6 2691   3.250   2.228  16.425 -0.6598 -0.3358 -0.4081
  176MPD1    H7 2692   3.356   2.102  16.427  0.0137 -1.3014  1.3180
  177MPD1     C 2693   1.722   2.793  10.695 -0.5507 -0.1449  0.4189
  177MPD1    C1 2694   1.602   2.763  10.637 -0.1961 -0.4556 -0.0114
  177MPD1    C2 2695   1.570   2.845  10.533  0.1531  0.4857 -0.3647
  177MPD1    C3 2696   1.630   2.968  10.511 -0.2413  0.4204  0.2667
  177MPD1    C4 2697   1.742   2.995  10.586  0.2002  0.3547 -0.4264
  177MPD1    C5 2698   1.787   2.907  10.677  0.1563 -0.8722 -0.1764
  177MPD1     H 2699   1.483   2.815  10.476  0.8336 -0.2535 -1.0223
  177MPD1    H1 2700   1.794   3.088  10.562  0.4076  0.3707  0.0730
  177MPD1    H2 2701   1.756   2.718  10.765 -1.0584 -0.7449  0.0266
  177MPD1    H3 2702   1.881   2.925  10.728  0.5605  0.2819 -1.3115
  177MPD1     N 2703   1.565   3.058  10.425  0.5615  0.5219 -0.8095
  177MPD1    H5 2704   1.499   3.024  10.355  2.0598  0.2575 -2.1027
  177MPD1    N1 2705   1.538   2.645  10.665  0.4697 -0.1029  0.3529
  177MPD1    H6 2706   1.439   2.657  10.645  0.4821  0.5858  0.7365
  177MPD1    H7 2707   1.550   2.632  10.766  0.0455  1.0519  0.5413
  178MPD1     C 2708   3.824   3.173   0.578 -0.2536 -0.1047  0.5378
  178MPD1    C1 2709   3.784   3.171   0.452  0.1375 -0.0498 -0.3078
  178MPD1    C2 2710   3.886   3.195   0.360  0.4031 -0.1297  0.0047
  178MPD1    C3 2711   4.016   3.208   0.393  0.4896  0.3234 -0.1078
  178MPD1    C4 2712   4.056   3.210   0.522 -0.0025 -0.5069 -0.2566
  178MPD1    C5 2713   3.958   3.194   0.614 -0.7856  0.2993 -0.0769
  178MPD1     H 2714   3.868   3.181   0.254  2.4013  3.2104 -0.7724
  178MPD1    H1 2715   4.162   3.220   0.543 -0.3559  1.0249  0.8108
  178MPD1    H2 2716   3.756   3.144   0.657 -3.4756  1.9671 -1.5244
  178MPD1    H3 2717   3.992   3.198   0.717 -0.6570 -1.5573 -0.0642
  178MPD1     N 2718   4.097   3.227   0.280  0.3403 -0.2577 -0.0283
  178MPD1    H5 2719   4.048   3.215   0.192  0.4737 -0.7293 -0.0416
  178MPD1    N1 2720   3.653   3.131   0.418 -0.4007  0.4517  0.7387
  178MPD1    H6 2721   3.580   3.137   0.488 -1.7441 -2.2681 -0.4274
  178MPD1    H7 2722   3.619   3.165   0.328 -0.0288 -0.7608  0.1223
  179MPD1     C 2723   4.002   2.107  16.243 -0.0190 -1.0333 -0.1373
  179MPD1    C1 2724   3.910   2.103  16.142 -0.4298 -0.2543  0.0290
  179MPD1    C2 2725   3.905   1.994  16.058  0.4867  0.5921 -0.0404
  179MPD1    C3 2726   4.006   1.894  16.068  0.0677  0.3809 -0.2606
  179MPD1    C4 2727   4.091   1.898  16.173  0.6897  0.1850 -0.3991
  179MPD1    C5 2728   4.097   2.007  16.257  0.4167 -0.3406 -0.3939
  179MPD1     H 2729   3.829   1.986  15.982  0.4810  0.5853 -0.0340
  179MPD1    H1 2730   4.159   1.814  16.183 -0.0138 -0.5514 -1.8141
  179MPD1    H2 2731   4.006   2.189  16.313 -4.0368 -0.9537  0.0418
  179MPD1    H3 2732   4.162   1.992  16.342 -0.0041  2.1499  0.3785
  179MPD1     N 2733   4.012   1.776  15.985 -1.0953  0.4184 -0.1267
  179MPD1    H5 2734   4.084   1.709  16.011 -0.9399  0.2206 -1.0653
  179MPD1    N1 2735   3.809   2.203  16.140 -0.1987 -0.0518 -0.4592
  179MPD1    H6 2736   3.757   2.203  16.052  0.5655  1.8132 -0.9021
  179MPD1    H7 2737   3.826   2.301  16.159 -2.6936 -0.0547  1.8036
  180MPD1     C 2738   4.540   3.884  14.866 -0.9754  0.3071 -0.2380
  180MPD1    C1 2739   4.468   3.970  14.781 -0.2298  0.2181 -0.3597
  180MPD1    C2 2740   4.342   3.928  14.748  0.0372 -0.3376 -0.4154
  180MPD1    C3 2741   4.282   3.815  14.803  0.1555  0.7750  0.5042
  180MPD1    C4 2742   4.357   3.737  14.894  0.5953 -0.0608  0.4041
  180MPD1    C5 2743   4.489   3.773  14.917  0.4699 -0.9150  0.4131
  180MPD1     H 2744   4.297   3.974  14.661 -0.9332  0.2633  0.4101
  180MPD1    H1 2745   4.313   3.652  14.945  1.4524 -0.4346  0.5143
  180MPD1    H2 2746   4.645   3.907  14.879 -1.0767 -0.3217  1.6016
  180MPD1    H3 2747   4.554   3.708  14.975 -1.2575 -0.5025  2.8264
  180MPD1     N 2748   4.152   3.783  14.766 -0.4030  0.2487  0.1448
  180MPD1    H5 2749   4.121   3.830  14.682 -0.1641  1.3382  0.6668
  180MPD1    N1 2750   4.536   4.063  14.701 -0.5607  0.3469  0.3804
  180MPD1    H6 2751   4.480   4.144  14.673 -0.7621 -0.7580 -2.3968
  180MPD1    H7 2752   4.617   4.096  14.754 -2.2289  2.7745  1.4301
  181MPD1     C 2753   4.677   0.134  10.043 -0.1689 -0.2466  0.0772
  181MPD1    C1 2754   4.699   0.269  10.030 -0.3305  0.3824 -0.4022
  181MPD1    C2 2755   0.094   0.314   9.996 -0.7950 -0.0118 -0.1413
  181MPD1    C3 2756   0.204   0.230   9.990  0.9316  0.2086  0.1953
  181MPD1    C4 2757   0.180   0.098  10.018 -0.0906 -0.3269  0.3948
  181MPD1    C5 2758   0.053   0.051  10.045  0.0643 -0.3867  0.5098
  181MPD1     H 2759   0.106   0.421   9.985 -0.3338 -0.0756 -0.2757
  181MPD1    H1 2760   0.262   0.027  10.013  1.5128  1.3827  2.4329
  181MPD1    H2 2761   4.574   0.101  10.051  0.4492 -1.9837  1.0327
  181MPD1    H3 2762   0.038   4.670  10.049 -1.4423 -0.2852 -2.2331
  181MPD1     N 2763   0.331   0.272   9.949  0.4583  0.2432  0.2311
  181MPD1    H5 2764   0.399   0.200   9.971  0.3098  0.7465  2.3191
  181MPD1    N1 2765   4.589   0.353  10.002 -0.6442 -0.4792 -0.2766
  181MPD1    H6 2766   4.614   0.452  10.005 -0.3908 -0.4689 -2.5278
  181MPD1    H7 2767   4.514   0.333  10.068 -0.3465 -0.8973 -0.0727
  182MPD1     C 2768   1.185   3.278   1.309 -0.2011  0.0542 -0.2336
  182MPD1    C1 2769   1.145   3.402   1.344  0.2503 -0.0661  0.2868
  182MPD1    C2 2770   1.030   3.453   1.277  0.2483  0.1478 -0.3575
  182MPD1    C3 2771   0.960   3.388   1.178  0.7695  0.4436  0.3135
  182MPD1    C4 2772   1.007   3.257   1.149 -0.2709 -0.5247  0.4183
  182MPD1    C5 2773   1.118   3.207   1.211 -0.4597  0.1558 -0.4720
  182MPD1     H 2774   1.003   3.552   1.311  1.8285  0.2840  0.5008
  182MPD1    H1 2775   0.953   3.184   1.089  0.0744 -0.4296 -0.0094
  182MPD1    H2 2776   1.263   3.223   1.361  0.5508  2.3530  1.0864
  182MPD1    H3 2777   1.156   3.108   1.187  1.4531  0.7450  0.1531
  182MPD1     N 2778   0.866   3.454   1.089  0.4684  0.1568  0.3009
  182MPD1    H5 2779   0.832   3.410   1.004  1.8304  1.1903 -0.7804
  182MPD1    N1 2780   1.214   3.488   1.439  0.3307  0.4881  0.2220
  182MPD1    H6 2781   1.307   3.456   1.467  0.0418 -3.7629 -3.6720
  182MPD1    H7 2782   1.206   3.582   1.399  1.7138 -0.4189 -2.2020
  183MPD1     C 2783   2.916   4.725  10.021  0.1029 -0.6399 -0.0035
  183MPD1    C1 2784   2.836   4.672  10.128  0.5872 -0.4620 -0.5841
  183MPD1    C2 2785   2.745   0.029  10.191  1.2946 -1.1322  0.3054
  183MPD1    C3 2786   2.696   0.144  10.127  0.3642  0.4564 -0.0442
  183MPD1    C4 2787   2.764   0.195  10.015 -0.5700 -0.2501  0.1615
  183MPD1    C5 2788   2.872   0.122   9.967  0.3466 -0.4523 -0.2625
  183MPD1     H 2789   2.696   4.724  10.282 -0.2083  1.0928  0.2559
  183MPD1    H1 2790   2.743   0.291   9.969 -0.3841  0.4628  1.5547
  183MPD1    H2 2791   2.997   4.669   9.975 -0.2700 -0.6333 -0.6753
  183MPD1    H3 2792   2.925   0.159   9.879  0.6823  0.3042  0.2511
  183MPD1     N 2793   2.581   0.208  10.188  0.1883 -0.1391  0.7730
  183MPD1    H5 2794   2.550   0.164  10.275 -2.8697 -2.0542 -1.2833
  183MPD1    N1 2795   2.892   4.575  10.211  0.2504 -0.0254 -0.1189
  183MPD1    H6 2796   2.821   4.529  10.267 -1.6685  0.3923 -2.1814
  183MPD1    H7 2797   2.931   4.497  10.158  0.8145  0.5584 -0.5671
  184MPD1     C 2798   0.616   2.526  10.590 -0.2807  0.0753  0.0238
  184MPD1    C1 2799   0.580   2.490  10.460  0.0988 -0.2259 -0.1049
  184MPD1    C2 2800   0.606   2.586  10.363  0.1139 -0.0990 -0.2514
  184MPD1    C3 2801   0.674   2.708  10.393 -0.3713 -0.2272 -0.0993
  184MPD1    C4 2802   0.709   2.740  10.521 -0.0168  0.0934 -0.1882
  184MPD1    C5 2803   0.672   2.649  10.622 -0.0628  0.2185  1.0295
  184MPD1     H 2804   0.586   2.558  10.260  1.7793 -0.4685 -0.4678
  184MPD1    H1 2805   0.761   2.831  10.548  0.4868  0.4913 -2.5641
  184MPD1    H2 2806   0.595   2.460  10.673 -0.9277 -0.8304 -0.8601
  184MPD1    H3 2807   0.698   2.680  10.723 -0.5653  1.6862  0.7011
  184MPD1     N 2808   0.698   2.800  10.295 -0.1145  0.4066 -0.6078
  184MPD1    H5 2809   0.770   2.869  10.314  0.1979 -0.7041  2.1528
  184MPD1    N1 2810   0.505   2.376  10.435 -0.4814  0.1371  0.3406
  184MPD1    H6 2811   0.413   2.379  10.479  0.7814  0.9128  2.9318
  184MPD1    H7 2812   0.494   2.350  10.338 -0.4277 -1.0887  0.6580
  185MPD1     C 2813   0.285   3.128   9.408  0.7454 -0.5536  0.0506
  185MPD1    C1 2814   0.421   3.125   9.391  0.0240 -0.5348  0.4236
  185MPD1    C2 2815   0.495   3.106   9.511  0.3650  0.3990 -0.6826
  185MPD1    C3 2816   0.432   3.083   9.632  0.3327 -0.3512  0.6489
  185MPD1    C4 2817   0.298   3.073   9.638 -0.0607  0.2673  0.2232
  185MPD1    C5 2818   0.222   3.087   9.524  0.0684 -0.2008  1.1963
  185MPD1     H 2819   0.603   3.103   9.504  0.3288 -0.9015 -0.7760
  185MPD1    H1 2820   0.248   3.056   9.732  0.7447 -1.8128  0.2779
  185MPD1    H2 2821   0.221   3.149   9.323 -1.2818 -0.8115  1.5069
  185MPD1    H3 2822   0.114   3.095   9.516  0.1560  1.9031  1.9316
  185MPD1     N 2823   0.502   3.068   9.760  0.5209  0.2099 -0.2945
  185MPD1    H5 2824   0.447   3.050   9.843  3.7632  0.8512  2.0318
  185MPD1    N1 2825   0.481   3.176   9.275  0.1057  0.5549 -0.5246
  185MPD1    H6 2826   0.549   3.107   9.242 -0.3885 -0.2333  0.0958
  185MPD1    H7 2827   0.414   3.181   9.199 -0.0217  1.0081 -0.3804
  186MPD1     C 2828   3.365   2.798  16.376  0.1650  0.1251  0.0287
  186MPD1    C1 2829   3.487   2.830  16.318 -0.2560 -0.2712 -0.0079
  186MPD1    C2 2830   3.598   2.752  16.356 -0.7444  0.5930 -0.5155
  186MPD1    C3 2831   3.597   2.659  16.451 -0.0183 -0.1785  0.8233
  186MPD1    C4 2832   3.473   2.629  16.511 -0.5264  0.0414  0.3765
  186MPD1    C5 2833   3.361   2.695  16.470 -0.4899  0.0104 -0.0884
  186MPD1     H 2834   3.692   2.774  16.306  0.6842  1.1583  2.4046
  186MPD1    H1 2835   3.452   2.544  16.575  2.4556  1.9174  3.8895
  186MPD1    H2 2836   3.272   2.847  16.349 -0.5328 -0.7089  0.9207
  186MPD1    H3 2837   3.266   2.657  16.506 -0.8861 -0.2232 -1.4025
  186MPD1     N 2838   3.706   2.575  16.493  0.3094  0.3950 -0.4596
  186MPD1    H5 2839   3.682   2.519  16.575  2.1001 -1.2746 -1.0704
  186MPD1    N1 2840   3.498   2.905  16.200 -0.3265 -0.2049  0.0634
  186MPD1    H6 2841   3.590   2.942  16.176  0.0466 -1.0994  0.0833
  186MPD1    H7 2842   3.440   2.986  16.221  2.1257  1.9704 -1.5037
  187MPD1     C 2843   3.270   4.329   0.831 -0.2388 -0.1744 -0.2718
  187MPD1    C1 2844   3.174   4.311   0.733  0.1262 -0.6297  0.7537
  187MPD1    C2 2845   3.214   4.291   0.605  0.2578  0.4986  0.0537
  187MPD1    C3 2846   3.352   4.266   0.583  0.4899 -0.1443  0.3000
  187MPD1    C4 2847   3.445   4.289   0.683  0.5413  0.6101 -0.3430
  187MPD1    C5 2848   3.405   4.313   0.808  0.5863  0.1959 -0.4473
  187MPD1     H 2849   3.145   4.296   0.522 -1.6157  1.8482  1.6958
  187MPD1    H1 2850   3.549   4.272   0.656  0.2896 -1.3873 -0.0055
  187MPD1    H2 2851   3.238   4.368   0.927  0.6693  0.1265 -0.0909
  187MPD1    H3 2852   3.476   4.335   0.887 -0.4079 -1.8651  1.0149
  187MPD1     N 2853   3.411   4.234   0.456  0.1300 -0.0615  0.1252
  187MPD1    H5 2854   3.512   4.236   0.446  0.4256  1.5453  3.4674
  187MPD1    N1 2855   3.043   4.355   0.765 -0.7692 -0.0884 -0.0630
  187MPD1    H6 2856   2.964   4.329   0.706 -2.0845  1.2705  1.1179
  187MPD1    H7 2857   3.008   4.323   0.855 -1.1384  2.1815  0.6013
  188MPD1     C 2858   2.431   4.154   9.922  0.7889 -0.1276  0.0457
  188MPD1    C1 2859   2.510   4.115  10.034  0.4500 -0.3954 -1.0513
  188MPD1    C2 2860   2.552   3.985  10.033 -0.0542  0.2889 -0.6164
  188MPD1    C3 2861   2.522   3.893   9.936  0.0283 -0.9211 -0.8962
  188MPD1    C4 2862   2.438   3.934   9.831  0.0512 -0.0619  0.1896
  188MPD1    C5 2863   2.414   4.071   9.815  0.1782 -0.8093 -0.4315
  188MPD1     H 2864   2.620   3.955  10.111 -0.5817 -1.4669 -0.8466
  188MPD1    H1 2865   2.414   3.883   9.738 -1.8830 -0.1679  0.7546
  188MPD1    H2 2866   2.409   4.259   9.911  0.5724  0.0897  2.6112
  188MPD1    H3 2867   2.365   4.116   9.730 -0.3741  0.6327  0.6378
  188MPD1     N 2868   2.577   3.766   9.931  0.2804 -0.2383 -0.0572
  188MPD1    H5 2869   2.542   3.711   9.854 -2.1932  0.1206  0.8107
  188MPD1    N1 2870   2.556   4.205  10.133  0.7512 -0.5657 -0.2084
  188MPD1    H6 2871   2.611   4.184  10.216 -0.7773 -0.3478  0.8814
  188MPD1    H7 2872   2.487   4.271  10.171  1.0080 -0.5296  0.2023
  189MPD1     C 2873   4.539   4.228   1.161  0.5708  0.5289 -0.5708
  189MPD1    C1 2874   4.438   4.153   1.103  0.4376  0.2005 -0.3147
  189MPD1    C2 2875   4.363   4.213   0.992 -0.3038  0.1793  0.7053
  189MPD1    C3 2876   4.381   4.344   0.956  0.0374  0.7225 -0.9575
  189MPD1    C4 2877   4.461   4.425   1.038  0.2998  0.5737 -0.1608
  189MPD1    C5 2878   4.539   4.364   1.137 -0.2343 -0.8074 -0.1122
  189MPD1     H 2879   4.301   4.150   0.930 -1.1721  0.4144  1.3444
  189MPD1    H1 2880   4.482   4.528   1.010 -2.3660  0.9896 -0.6552
  189MPD1    H2 2881   4.614   4.183   1.225 -1.2072 -0.2912  0.9581
  189MPD1    H3 2882   4.613   4.430   1.181 -1.5210  0.2715  0.3935
  189MPD1     N 2883   4.311   4.396   0.844  0.0946 -0.6614  0.0166
  189MPD1    H5 2884   4.238   4.338   0.804 -1.0501 -0.8860  2.4109
  189MPD1    N1 2885   4.437   4.009   1.122  0.7523  0.7799 -0.3680
  189MPD1    H6 2886   4.346   3.972   1.097  1.4720 -0.8085 -0.6160
  189MPD1    H7 2887   4.466   3.974   1.213  1.1359  1.1759 -0.3370
  190MPD1     C 2888   3.861   4.117  15.541 -0.8207  0.3578 -0.4465
  190MPD1    C1 2889   3.992   4.075  15.531  0.2453  0.5377  0.7687
  190MPD1    C2 2890   4.037   3.956  15.590  0.4980  0.7788  0.6382
  190MPD1    C3 2891   3.942   3.865  15.641  0.1629  0.6359  0.0722
  190MPD1    C4 2892   3.814   3.889  15.621  0.3498 -0.2909  0.4815
  190MPD1    C5 2893   3.773   4.021  15.582  0.2153 -0.4623 -0.2067
  190MPD1     H 2894   4.142   3.931  15.600  0.5864  0.8192 -0.1643
  190MPD1    H1 2895   3.735   3.823  15.655  1.0476 -0.5172  1.6284
  190MPD1    H2 2896   3.831   4.217  15.511 -0.8579 -0.3465 -2.8101
  190MPD1    H3 2897   3.668   4.044  15.591 -0.0271 -0.6069 -2.7567
  190MPD1     N 2898   3.990   3.750  15.716 -0.3239 -0.0115 -0.3761
  190MPD1    H5 2899   4.091   3.746  15.731 -0.3705 -0.7963 -0.2954
  190MPD1    N1 2900   4.086   4.163  15.485  0.5365  0.9732  0.2035
  190MPD1    H6 2901   4.073   4.205  15.393  0.0205 -0.1777 -0.2491
  190MPD1    H7 2902   4.180   4.124  15.480  1.4907  3.4214 -0.7372
  191MPD1     C 2903   2.878   4.342  13.396 -0.2412 -0.3097  0.3250
  191MPD1    C1 2904   2.939   4.438  13.314 -0.0472 -0.6816  0.2370
  191MPD1    C2 2905   2.913   4.572  13.340  0.8554 -0.7301  0.8455
  191MPD1    C3 2906   2.812   4.612  13.418 -0.1347  0.1258 -0.5826
  191MPD1    C4 2907   2.730   4.516  13.487  0.1214 -0.3661  0.5074
  191MPD1    C5 2908   2.765   4.378  13.479  0.1107  0.3135  0.1366
  191MPD1     H 2909   2.981   4.646  13.299  2.1389 -2.0815  0.5283
  191MPD1    H1 2910   2.643   4.552  13.540  0.3006 -0.5516  0.9227
  191MPD1    H2 2911   2.895   4.235  13.403  0.5666 -0.2644 -0.8748
  191MPD1    H3 2912   2.716   4.300  13.537  2.2134  0.1988  1.7721
  191MPD1     N 2913   2.786   0.024  13.425 -0.2444 -0.0653 -0.3417
  191MPD1    H5 2914   2.838   0.077  13.356  0.0972 -1.1048 -0.8852
  191MPD1    N1 2915   3.056   4.401  13.241  0.4636 -0.6212 -0.4483
  191MPD1    H6 2916   3.041   4.313  13.192 -0.3754  0.0538 -1.3854
  191MPD1    H7 2917   3.075   4.471  13.171  1.7429 -0.4521  0.0625
  192MPD1     C 2918   1.917   0.423  13.626 -0.4313  0.1621 -0.5168
  192MPD1    C1 2919   1.991   0.531  13.596  0.4408 -0.6269  0.8384
  192MPD1    C2 2920   2.123   0.520  13.560 -0.3196  0.4610 -0.1506
  192MPD1    C3 2921   2.186   0.398  13.582  0.2108 -0.2147 -0.3792
  192MPD1    C4 2922   2.112   0.294  13.632 -0.2867 -0.2123  0.2793
  192MPD1    C5 2923   1.977   0.300  13.647  1.0438 -0.9107 -0.4199
  192MPD1     H 2924   2.169   0.602  13.507 -0.6795  1.3491  0.9164
  192MPD1    H1 2925   2.157   0.196  13.636 -1.3171 -0.6205  2.1631
  192MPD1    H2 2926   1.809   0.423  13.631 -0.4139 -3.5300  0.1179
  192MPD1    H3 2927   1.925   0.211  13.681  2.8936 -0.9237  2.4026
  192MPD1     N 2928   2.324   0.383  13.563  0.1874 -0.3243  0.1414
  192MPD1    H5 2929   2.361   0.289  13.563  0.1415 -0.3432 -0.0340
  192MPD1    N1 2930   1.923   0.650  13.577 -0.1157  0.3754 -0.1928
  192MPD1    H6 2931   1.988   0.728  13.589 -0.1744  0.5075 -0.7272
  192MPD1    H7 2932   1.834   0.653  13.625  1.0476  0.2843  1.9850
  193MPD1     C 2933   3.655   4.703  17.686  0.2766 -0.2451 -0.8498
  193MPD1    C1 2934   3.623   0.100   0.031  0.8158  0.5867  0.9020
  193MPD1    C2 2935   3.610   0.194  17.642 -0.1590  0.8359  0.1284
  193MPD1    C3 2936   3.650   0.171  17.508 -0.2879  0.1094 -0.6743
  193MPD1    C4 2937   3.691   0.050  17.463  0.3277 -0.2647  0.0649
  193MPD1    C5 2938   3.694   4.676  17.554  0.0185 -0.1147 -0.1942
  193MPD1     H 2939   3.588   0.293  17.681 -0.1291  1.4800 -1.4912
  193MPD1    H1 2940   3.710   0.022  17.360 -0.7251 -1.1730  0.1206
  193MPD1    H2 2941   3.651   4.627   0.057  1.0132 -0.6500 -1.2090
  193MPD1    H3 2942   3.717   4.576  17.519 -0.5171  0.0918 -1.1489
  193MPD1     N 2943   3.654   0.277  17.409  0.2681  0.0553  0.3730
  193MPD1    H5 2944   3.708   0.246  17.329 -3.5760 -3.8809 -0.6961
  193MPD1    N1 2945   3.573   0.116   0.165  0.1480 -0.2324  0.3912
  193MPD1    H6 2946   3.563   0.214   0.192  0.6430 -0.7264  2.3804
  193MPD1    H7 2947   3.617   0.056   0.235  1.0184 -0.0871 -0.0316
  194MPD1     C 2948   0.608   3.451  16.863 -0.0711  0.3849 -0.6936
  194MPD1    C1 2949   0.711   3.380  16.796  0.6672  0.2095 -0.0888
  194MPD1    C2 2950   0.820   3.326  16.863  1.0888 -0.3623 -0.4997
  194MPD1    C3 2951   0.826   3.337  17.004 -0.0569 -0.2897  0.5774
  194MPD1    C4 2952   0.731   3.407  17.071 -0.4607  0.3159 -0.2154
  194MPD1    C5 2953   0.633   3.464  16.996  0.3047  0.3104 -0.8211
  194MPD1     H 2954   0.897   3.273  16.809 -0.0124 -2.9202  0.4301
  194MPD1    H1 2955   0.722   3.413  17.179 -0.3328 -0.8939 -0.1363
  194MPD1    H2 2956   0.522   3.498  16.818 -0.5911 -0.4331 -0.5558
  194MPD1    H3 2957   0.558   3.517  17.053  0.9027  1.7207 -1.3308
  194MPD1     N 2958   0.932   3.280  17.078 -0.5174 -0.7782  0.4334
  194MPD1    H5 2959   0.919   3.283  17.179  0.4046  0.3040  0.5112
  194MPD1    N1 2960   0.696   3.366  16.661  0.1517  0.4370 -0.1256
  194MPD1    H6 2961   0.786   3.355  16.615  0.8923  0.7815  1.2416
  194MPD1    H7 2962   0.642   3.442  16.620  0.6300  0.8630  0.0338
  195MPD1     C 2963   2.478   3.852  17.670 -0.4245  0.6068 -0.2172
  195MPD1    C1 2964   2.570   3.759   0.017 -0.1884 -0.4682 -0.8267
  195MPD1    C2 2965   2.527   3.627   0.006  0.2491 -0.3948 -0.0748
  195MPD1    C3 2966   2.434   3.580  17.617 -0.2390 -0.8563 -0.6658
  195MPD1    C4 2967   2.358   3.671  17.555 -0.0981  0.1938 -0.2130
  195MPD1    C5 2968   2.380   3.809  17.582  0.5241 -0.2112 -0.2018
  195MPD1     H 2969   2.574   3.552   0.069  0.9338  1.2720  1.4120
  195MPD1    H1 2970   2.280   3.640  17.486  0.8962 -0.7541 -0.9093
  195MPD1    H2 2971   2.488   3.956  17.700  0.6563  0.3286  0.3806
  195MPD1    H3 2972   2.320   3.884  17.532 -2.5345 -3.5501 -1.4882
  195MPD1     N 2973   2.404   3.445  17.581  0.1038  0.1228 -0.6777
  195MPD1    H5 2974   2.332   3.444  17.510  0.5858  0.8681 -1.1709
  195MPD1    N1 2975   2.652   3.801   0.124  0.2110 -0.6561 -0.3578
  195MPD1    H6 2976   2.733   3.742   0.143 -0.5805 -2.4509 -2.4176
  195MPD1    H7 2977   2.698   3.889   0.104  0.7776 -0.7088  0.7125
  196MPD1     C 2978   1.755   3.218   0.341 -0.5798 -0.4743  0.5653
  196MPD1    C1 2979   1.801   3.120   0.426 -1.0452 -0.8520 -0.4862
  196MPD1    C2 2980   1.765   3.114   0.561  0.3002 -0.0720 -0.0345
  196MPD1    C3 2981   1.667   3.207   0.608  0.4538 -0.0342 -0.2424
  196MPD1    C4 2982   1.623   3.305   0.517  1.0483  0.4836  0.8735
  196MPD1    C5 2983   1.670   3.312   0.392 -0.4040 -0.4093  0.1901
  196MPD1     H 2984   1.818   3.034   0.612  0.3200 -0.1903 -0.2434
  196MPD1    H1 2985   1.560   3.384   0.555 -0.6268  0.1914 -1.3190
  196MPD1    H2 2986   1.809   3.252   0.254  0.9340  1.1723  2.1344
  196MPD1    H3 2987   1.651   3.395   0.326 -0.1401 -1.7461 -1.5776
  196MPD1     N 2988   1.632   3.208   0.747 -0.4476  0.1904 -0.2112
  196MPD1    H5 2989   1.577   3.288   0.777 -2.7343 -1.3288 -0.2771
  196MPD1    N1 2990   1.919   3.050   0.380 -0.0707 -0.2866  0.3445
  196MPD1    H6 2991   1.921   3.033   0.280 -1.2117  0.8956  0.1216
  196MPD1    H7 2992   1.920   2.956   0.420 -1.6369 -0.9681 -1.2217
  197MPD1     C 2993   1.331   1.731   0.316  0.5459  0.0713 -0.4312
  197MPD1    C1 2994   1.271   1.756   0.203  0.1063  0.5212  0.1418
  197MPD1    C2 2995   1.354   1.773   0.093  0.2211  0.2965  0.0741
  197MPD1    C3 2996   1.493   1.753   0.092  0.2044  0.7776 -0.2076
  197MPD1    C4 2997   1.550   1.726   0.218 -0.7237  0.0971  0.4447
  197MPD1    C5 2998   1.467   1.706   0.324  0.5637 -0.3746 -0.0385
  197MPD1     H 2999   1.309   1.811   0.002  0.4440 -0.7998 -0.5003
  197MPD1    H1 3000   1.657   1.716   0.234 -0.5824 -0.3627 -0.8078
  197MPD1    H2 3001   1.275   1.718   0.408  1.2049  1.2086  0.1330
  197MPD1    H3 3002   1.506   1.649   0.407 -2.0145  0.7827  1.9576
  197MPD1     N 3003   1.572   1.780  17.681  0.6115 -0.1445  0.9358
  197MPD1    H5 3004   1.667   1.746  17.683 -0.1946 -2.4183  0.3853
  197MPD1    N1 3005   1.125   1.790   0.197 -0.2673 -0.0222 -0.2763
  197MPD1    H6 3006   1.068   1.765   0.277 -0.6951 -0.0579 -0.5944
  197MPD1    H7 3007   1.069   1.757   0.119  0.1252 -0.2709 -0.4544
  198MPD1     C 3008   4.294   3.718  15.969  0.2731  0.0564 -0.1189
  198MPD1    C1 3009   4.284   3.818  15.870  0.4229 -0.5270  0.5607
  198MPD1    C2 3010   4.216   3.935  15.907  0.3239  0.4790 -0.1590
  198MPD1    C3 3011   4.170   3.965  16.040  0.2303  0.3230  0.6917
  198MPD1    C4 3012   4.180   3.864  16.136 -0.3035 -0.6996  0.1411
  198MPD1    C5 3013   4.238   3.746  16.097  0.1032 -0.0903 -0.1414
  198MPD1     H 3014   4.184   4.002  15.828  1.5532 -0.6913 -1.6488
  198MPD1    H1 3015   4.144   3.879  16.238 -0.6633 -0.2467 -0.0506
  198MPD1    H2 3016   4.338   3.621  15.948 -1.4873 -0.6520 -0.5322
  198MPD1    H3 3017   4.229   3.668  16.172  0.2985 -0.2292 -0.2615
  198MPD1     N 3018   4.139   4.100  16.068 -0.5290 -0.1837  1.3792
  198MPD1    H5 3019   4.151   4.170  15.995 -2.3161  0.1240  1.3803
  198MPD1    N1 3020   4.315   3.796  15.738 -0.4996 -1.1116 -0.3393
  198MPD1    H6 3021   4.393   3.731  15.730  0.3131  0.0646 -1.8912
  198MPD1    H7 3022   4.341   3.876  15.681 -1.9713 -0.0552  0.4678
  199MPD1     C 3023   4.247   0.662  10.565 -0.3325  0.1342 -0.4061
  199MPD1    C1 3024   4.283   0.787  10.511  0.1945 -0.0919 -0.2103
  199MPD1    C2 3025   4.396   0.790  10.425 -1.0750  0.3126  0.0665
  199MPD1    C3 3026   4.474   0.678  10.408  0.1670  0.0200 -0.3029
  199MPD1    C4 3027   4.440   0.560  10.468  0.1020 -0.0800 -0.2008
  199MPD1    C5 3028   4.330   0.552  10.544 -0.3503  0.4983  0.3092
  199MPD1     H 3029   4.417   0.881  10.369 -1.3614 -0.0523 -0.6271
  199MPD1    H1 3030   4.505   0.475  10.451  1.2461  0.4523  1.4311
  199MPD1    H2 3031   4.161   0.651  10.629 -1.4420 -0.2598 -1.9609
  199MPD1    H3 3032   4.321   0.456  10.594 -1.0272  0.6882  0.5480
  199MPD1     N 3033   4.597   0.674  10.340 -0.1507  0.3838 -0.3175
  199MPD1    H5 3034   4.632   0.579  10.334 -0.5020  0.3112 -1.1679
  199MPD1    N1 3035   4.181   0.886  10.521 -0.6368  0.6697 -0.3027
  199MPD1    H6 3036   4.222   0.979  10.513 -1.0258  0.6952 -1.9797
  199MPD1    H7 3037   4.126   0.874  10.606  1.1220 -1.4077  0.5447
  200MPD1     C 3038   4.535   0.651  14.993 -0.1496 -0.2067 -0.4823
  200MPD1    C1 3039   4.615   0.751  15.046  0.3847  0.0435 -0.9821
  200MPD1    C2 3040   0.005   0.777  14.975 -0.6100  0.1419 -0.0344
  200MPD1    C3 3041   0.037   0.706  14.862 -0.1322  0.1841 -0.4644
  200MPD1    C4 3042   4.688   0.595  14.832 -0.2324  0.2514 -0.1468
  200MPD1    C5 3043   4.569   0.568  14.900 -0.0469 -0.0224 -0.4309
  200MPD1     H 3044   0.057   0.866  15.008 -0.3926 -1.2385  3.2781
  200MPD1    H1 3045   4.709   0.546  14.738 -1.6930 -1.4298  0.4123
  200MPD1    H2 3046   4.432   0.647  15.029 -0.7251 -0.9938 -2.2457
  200MPD1    H3 3047   4.506   0.486  14.868 -1.1313  0.2314  1.0257
  200MPD1     N 3048   0.154   0.750  14.787  0.2446  0.9416 -0.1817
  200MPD1    H5 3049   0.199   0.837  14.814 -1.5568  1.0172  2.5478
  200MPD1    N1 3050   4.559   0.844  15.129  0.6476  0.1025 -0.5690
  200MPD1    H6 3051   4.493   0.807  15.197  1.1010 -0.6921 -0.5629
  200MPD1    H7 3052   4.631   0.898  15.177 -0.0996  1.7869 -1.3480
  201MPD1     C 3053   1.964   4.210  13.332  0.0115  0.7290 -0.1785
  201MPD1    C1 3054   1.987   4.073  13.362 -0.0174  0.3101  0.1600
  201MPD1    C2 3055   2.070   4.038  13.471  0.4410  0.1699  0.0744
  201MPD1    C3 3056   2.126   4.136  13.542 -0.1899 -0.1242  0.1624
  201MPD1    C4 3057   2.109   4.267  13.509 -0.2020 -0.0768  0.1684
  201MPD1    C5 3058   2.027   4.302  13.406 -0.6049  0.3003  0.0168
  201MPD1     H 3059   2.077   3.935  13.504 -0.0590  0.4830  1.1621
  201MPD1    H1 3060   2.149   4.346  13.572  0.1384 -1.1553  1.3105
  201MPD1    H2 3061   1.917   4.241  13.240 -0.1051  1.6373  0.1897
  201MPD1    H3 3062   2.021   4.409  13.386 -4.3627 -0.1933 -1.4741
  201MPD1     N 3063   2.200   4.099  13.665 -0.0618 -0.2531 -0.5784
  201MPD1    H5 3064   2.205   3.999  13.683  1.0450  0.0842  1.0201
  201MPD1    N1 3065   1.911   3.969  13.311  0.2175 -0.3688 -0.0849
  201MPD1    H6 3066   1.907   3.971  13.210 -0.2674 -0.8657 -0.0729
  201MPD1    H7 3067   1.968   3.887  13.329  0.1027 -0.6931 -1.2058
  202MPD1     C 3068   2.050   3.646   9.713  0.3684  0.4963 -0.0243
  202MPD1    C1 3069   2.098   3.773   9.711 -0.5649  0.1553  0.3771
  202MPD1    C2 3070   2.125   3.825   9.833  0.1329 -0.6955 -0.3118
  202MPD1    C3 3071   2.151   3.745   9.947 -0.1178 -0.5527  0.2418
  202MPD1    C4 3072   2.150   3.612   9.927 -0.3321 -0.3824 -0.3777
  202MPD1    C5 3073   2.091   3.563   9.813  0.2505  0.0977  0.0697
  202MPD1     H 3074   2.151   3.930   9.838  0.1316 -0.5740 -2.5671
  202MPD1    H1 3075   2.184   3.545  10.005  0.3952  1.8478  1.2154
  202MPD1    H2 3076   2.011   3.613   9.618 -0.7233  1.5401  0.0587
  202MPD1    H3 3077   2.072   3.457   9.806  2.0039 -0.2715  0.9245
  202MPD1     N 3078   2.200   3.783  10.069 -0.0675 -0.1768 -0.5061
  202MPD1    H5 3079   2.257   3.727  10.132  0.2375 -1.1809 -1.6739
  202MPD1    N1 3080   2.047   3.861   9.615 -1.0358  0.1359 -0.1615
  202MPD1    H6 3081   2.057   3.822   9.521 -1.0493  1.4073 -0.6855
  202MPD1    H7 3082   2.118   3.933   9.608 -0.7187 -0.1578  0.0094
  203MPD1     C 3083   1.216   0.841  12.906 -0.4620  0.1319  0.0130
  203MPD1    C1 3084   1.141   0.778  12.814 -0.3398  0.6835  0.3327
  203MPD1    C2 3085   1.086   0.656  12.837  1.0268 -0.3373  0.0314
  203MPD1    C3 3086   1.124   0.586  12.946 -0.7609  0.2471  0.3661
  203MPD1    C4 3087   1.204   0.653  13.037 -0.3024 -0.2495  0.2944
  203MPD1    C5 3088   1.236   0.785  13.020 -0.2549 -0.1150 -0.3903
  203MPD1     H 3089   1.024   0.609  12.762  0.3500 -1.7710  1.4847
  203MPD1    H1 3090   1.222   0.613  13.136 -0.6473  0.6365  0.7053
  203MPD1    H2 3091   1.238   0.946  12.889 -2.8718  0.5416 -0.6586
  203MPD1    H3 3092   1.278   0.840  13.103 -2.9679  2.0090 -0.4247
  203MPD1     N 3093   1.086   0.445  12.946  0.4369 -0.4531  0.0803
  203MPD1    H5 3094   1.038   0.407  12.865 -1.5988 -0.8526  1.4648
  203MPD1    N1 3095   1.118   0.841  12.689  0.0567 -0.0461  0.2518
  203MPD1    H6 3096   1.160   0.933  12.678 -0.8681  0.4045  0.4841
  203MPD1    H7 3097   1.149   0.785  12.610 -0.7088  1.1157 -0.8721
  204MPD1     C 3098   4.483   1.282   0.361  0.2827  0.3023 -0.5599
  204MPD1    C1 3099   4.520   1.151   0.347  0.1343  0.2558 -0.0905
  204MPD1    C2 3100   4.657   1.132   0.317 -0.1089 -0.5007 -0.2441
  204MPD1    C3 3101   0.018   1.234   0.310  0.8716 -0.1560  0.4451
  204MPD1    C4 3102   4.701   1.368   0.313 -0.5379  0.3081 -0.1216
  204MPD1    C5 3103   4.570   1.387   0.350 -0.0023  0.0063  0.2028
  204MPD1     H 3104   4.696   1.031   0.312 -0.6346 -0.6993 -0.2403
  204MPD1    H1 3105   0.035   1.458   0.318 -2.4111  1.5649 -0.0307
  204MPD1    H2 3106   4.381   1.297   0.395  0.8429  0.9255  0.8627
  204MPD1    H3 3107   4.536   1.489   0.363  1.2369  0.5800 -1.0373
  204MPD1     N 3108   0.151   1.195   0.287 -0.2950  0.0716 -0.8079
  204MPD1    H5 3109   0.181   1.098   0.292 -3.0875 -0.6189  2.1897
  204MPD1    N1 3110   4.417   1.057   0.374 -0.5492  0.3467  0.0929
  204MPD1    H6 3111   4.372   1.067   0.465 -2.9501  0.3193 -1.0880
  204MPD1    H7 3112   4.443   0.958   0.376 -2.6353 -0.2043  0.4030
  205MPD1     C 3113   0.435   4.143   0.817 -0.1809 -0.2145 -0.0504
  205MPD1    C1 3114   0.411   4.267   0.873 -0.1164 -0.0499 -0.0968
  205MPD1    C2 3115   0.458   4.377   0.801 -0.4965  0.1354  0.3704
  205MPD1    C3 3116   0.508   4.368   0.671 -0.2698 -0.1114 -0.7122
  205MPD1    C4 3117   0.521   4.245   0.617  0.0641 -0.3071 -0.0373
  205MPD1    C5 3118   0.485   4.137   0.689  0.7286  0.2084 -1.2539
  205MPD1     H 3119   0.478   4.472   0.850 -1.8442 -0.0055  1.1692
  205MPD1    H1 3120   0.571   4.237   0.521 -0.4287  1.0071 -0.4062
  205MPD1    H2 3121   0.425   4.054   0.877  0.3193  1.1017  1.9676
  205MPD1    H3 3122   0.505   4.040   0.645  1.0476 -1.3400  2.2442
  205MPD1     N 3123   0.552   4.476   0.599 -0.2589  0.3646  0.0350
  205MPD1    H5 3124   0.603   4.461   0.512 -3.7502 -2.6885 -1.5081
  205MPD1    N1 3125   0.371   4.281   1.004  0.2791  0.1127  0.7157
  205MPD1    H6 3126   0.296   4.349   1.008 -0.7699 -1.1208  2.2576
  205MPD1    H7 3127   0.328   4.200   1.049 -1.4987 -0.0157 -1.2218
  206MPD1     C 3128   1.528   3.082  16.974 -0.2112  0.4633 -0.6656
  206MPD1    C1 3129   1.599   2.970  16.941 -0.2314  0.0171 -0.5429
  206MPD1    C2 3130   1.548   2.891  16.841  0.1785 -0.0639 -0.1718
  206MPD1    C3 3131   1.430   2.929  16.774 -1.0251 -0.4817  0.0339
  206MPD1    C4 3132   1.357   3.043  16.811  0.1690 -0.9332  0.1378
  206MPD1    C5 3133   1.414   3.118  16.910  0.5554  0.0303  0.2559
  206MPD1     H 3134   1.608   2.807  16.807 -2.1065 -2.2354  1.1678
  206MPD1    H1 3135   1.255   3.055  16.773  0.0959  2.6418  1.4998
  206MPD1    H2 3136   1.564   3.144  17.055  1.8118 -1.4047 -0.1341
  206MPD1    H3 3137   1.361   3.208  16.939  2.1543  1.2370 -0.5773
  206MPD1     N 3138   1.381   2.861  16.661  0.2817  0.0332 -0.5220
  206MPD1    H5 3139   1.292   2.891  16.623  0.3390 -0.0887 -0.7561
  206MPD1    N1 3140   1.695   2.928  17.034  0.5565  0.9494 -0.7965
  206MPD1    H6 3141   1.753   2.999  17.078  0.4568 -0.4342  1.5310
  206MPD1    H7 3142   1.760   2.862  16.990  0.4491  0.2200  0.1496
  207MPD1     C 3143   3.071   0.429  10.049 -0.6720  0.4572  0.0525
  207MPD1    C1 3144   3.139   0.340  10.128  0.0768  0.0150  0.2114
  207MPD1    C2 3145   3.269   0.373  10.171 -0.4195 -0.5631  0.2301
  207MPD1    C3 3146   3.334   0.488  10.126 -0.4072  0.4072  0.4680
  207MPD1    C4 3147   3.265   0.580  10.051  0.1437 -0.2116  0.4685
  207MPD1    C5 3148   3.138   0.544  10.006  0.1194 -0.0947 -0.0595
  207MPD1     H 3149   3.312   0.311  10.249  0.0788 -0.6458 -0.1113
  207MPD1    H1 3150   3.313   0.673  10.023  0.0089 -0.2916 -0.0271
  207MPD1    H2 3151   2.967   0.415  10.023 -0.1462 -1.6415 -0.9052
  207MPD1    H3 3152   3.086   0.616   9.943 -2.2079 -1.8165 -0.0871
  207MPD1     N 3153   3.463   0.534  10.157 -0.3354  0.4212  0.1266
  207MPD1    H5 3154   3.495   0.614  10.103 -0.6073  0.1569 -0.4294
  207MPD1    N1 3155   3.062   0.240  10.196 -0.4677  0.2791 -0.9711
  207MPD1    H6 3156   3.130   0.165  10.206 -0.1975  0.4540 -1.4838
  207MPD1    H7 3157   2.989   0.195  10.141 -3.0204  1.1269  1.7217
  208MPD1     C 3158   1.436   3.474  17.076  0.1707  0.4520  0.0935
  208MPD1    C1 3159   1.452   3.607  17.079 -0.0905 -0.2675  0.3110
  208MPD1    C2 3160   1.377   3.678  17.179 -0.6195 -0.5732  0.5987
  208MPD1    C3 3161   1.283   3.615  17.255 -0.6284  0.4540 -0.6911
  208MPD1    C4 3162   1.277   3.479  17.248  0.3874  0.1947  0.2168
  208MPD1    C5 3163   1.353   3.411  17.161 -0.5086  0.4283  0.4854
  208MPD1     H 3164   1.394   3.785  17.178 -0.5021 -0.6211 -1.7032
  208MPD1    H1 3165   1.225   3.416  17.319 -2.0193  0.0186 -1.6706
  208MPD1    H2 3166   1.493   3.417  17.004  0.2834 -0.4360  0.9016
  208MPD1    H3 3167   1.352   3.303  17.152 -0.3643  0.4325  0.4120
  208MPD1     N 3168   1.203   3.691  17.350  0.0641  0.6408  0.0836
  208MPD1    H5 3169   1.222   3.790  17.356 -0.7010  0.7896  0.1093
  208MPD1    N1 3170   1.551   3.666  16.996 -0.8850 -0.2094  0.2006
  208MPD1    H6 3171   1.524   3.760  16.968 -0.1827  0.0700  0.4643
  208MPD1    H7 3172   1.542   3.609  16.912  1.4209 -0.9131  0.4193
  209MPD1     C 3173   3.596   4.238  11.443  0.3565  0.0038 -0.0732
  209MPD1    C1 3174   3.587   4.329  11.545  0.2046 -0.6305 -0.1461
  209MPD1    C2 3175   3.657   4.442  11.520  0.6369 -0.5114 -0.5088
  209MPD1    C3 3176   3.725   4.462  11.401  0.2872 -0.8666  0.0518
  209MPD1    C4 3177   3.735   4.365  11.306  0.1274  1.0621  0.1183
  209MPD1    C5 3178   3.663   4.251  11.328 -0.0476  0.4294  0.5901
  209MPD1     H 3179   3.656   4.530  11.584  1.4769  0.7587 -2.2217
  209MPD1    H1 3180   3.784   4.379  11.211 -0.4248 -0.7503 -0.4347
  209MPD1    H2 3181   3.526   4.155  11.441 -0.3226  0.5713  0.2811
  209MPD1    H3 3182   3.663   4.167  11.258 -0.9931  0.3454  0.6907
  209MPD1     N 3183   3.781   4.590  11.376 -0.0058 -1.5198 -0.2302
  209MPD1    H5 3184   3.770   4.659  11.449  1.1317 -0.2332 -1.2635
  209MPD1    N1 3185   3.509   4.322  11.656  0.2687 -0.4510  0.0113
  209MPD1    H6 3186   3.415   4.325  11.616  0.9682 -2.2210 -1.7349
  209MPD1    H7 3187   3.520   4.396  11.725  2.0898 -1.2900  0.6279
  210MPD1     C 3188   4.068   0.578  11.939 -0.0966  0.3690  0.7581
  210MPD1    C1 3189   3.959   0.506  11.918 -0.0550 -0.5989  0.2840
  210MPD1    C2 3190   3.949   0.428  11.810  0.4596 -0.2214 -0.3790
  210MPD1    C3 3191   4.040   0.429  11.709  0.6628  0.3268 -0.4662
  210MPD1    C4 3192   4.152   0.513  11.731  0.1075 -0.2166 -0.4546
  210MPD1    C5 3193   4.166   0.585  11.844  0.6071  0.1088 -0.5748
  210MPD1     H 3194   3.861   0.365  11.805  0.9938 -1.0685  0.7568
  210MPD1    H1 3195   4.228   0.527  11.655 -1.7084  2.4305 -1.7934
  210MPD1    H2 3196   4.073   0.639  12.028 -2.1822  2.4254 -0.5278
  210MPD1    H3 3197   4.248   0.654  11.857  0.5755  0.2816 -1.2762
  210MPD1     N 3198   4.036   0.355  11.592 -0.1543  0.1863 -0.0349
  210MPD1    H5 3199   4.113   0.366  11.527 -0.9422 -0.3651 -1.0563
  210MPD1    N1 3200   3.874   0.480  12.031  0.3631 -0.3493  0.3580
  210MPD1    H6 3201   3.860   0.564  12.087  0.1140  0.0943 -0.3699
  210MPD1    H7 3202   3.904   0.404  12.092  2.2043 -0.7122 -0.9948
  211MPD1     C 3203   1.082   0.331   0.026  1.0486  0.1082  0.4488
  211MPD1    C1 3204   1.052   0.419  17.629  0.7422  0.4369 -0.5429
  211MPD1    C2 3205   1.052   0.373  17.503 -0.3424 -0.3595 -0.8314
  211MPD1    C3 3206   1.083   0.242  17.466  0.5447 -0.1925 -0.3904
  211MPD1    C4 3207   1.097   0.149  17.568  0.1489 -0.0568 -0.3751
  211MPD1    C5 3208   1.093   0.197  17.699  0.2015  0.0179  0.4158
  211MPD1     H 3209   1.023   0.431  17.417  1.7323  0.9892 -0.6262
  211MPD1    H1 3210   1.101   0.041  17.560  0.3527 -0.0832  0.0834
  211MPD1    H2 3211   1.089   0.365   0.129  0.3908 -0.7681  0.7845
  211MPD1    H3 3212   1.102   0.136   0.082 -3.0188  0.7287  1.2302
  211MPD1     N 3213   1.069   0.206  17.331  0.4144  0.3669 -0.2204
  211MPD1    H5 3214   1.038   0.278  17.267  0.0098 -0.5856 -1.0766
  211MPD1    N1 3215   1.022   0.552  17.659  0.0059  0.7920  0.3321
  211MPD1    H6 3216   1.044   0.611  17.579 -1.4523 -0.0971 -0.7173
  211MPD1    H7 3217   1.057   0.573   0.046  0.6857 -0.5764  0.3869
  212MPD1     C 3218   0.366   3.240  17.091 -0.0470  0.2850 -0.6517
  212MPD1    C1 3219   0.431   3.127  17.040  0.2949 -0.3205  0.2316
  212MPD1    C2 3220   0.387   3.004  17.086  0.0835  0.0719  0.3705
  212MPD1    C3 3221   0.296   3.004  17.196 -0.5414  0.1802 -0.1956
  212MPD1    C4 3222   0.250   3.121  17.252 -0.0215  0.4029  0.1680
  212MPD1    C5 3223   0.275   3.237  17.193  0.2704 -0.0953 -0.1709
  212MPD1     H 3224   0.438   2.914  17.053  0.5024  0.3084  0.3663
  212MPD1    H1 3225   0.188   3.132  17.340  0.3857 -1.9006  0.7410
  212MPD1    H2 3226   0.391   3.340  17.057 -0.0213  0.4709 -0.0697
  212MPD1    H3 3227   0.229   3.326  17.236  0.3561  0.7036 -1.7354
  212MPD1     N 3228   0.246   2.882  17.243  0.3284 -0.2977 -0.4904
  212MPD1    H5 3229   0.198   2.881  17.333  0.9617  1.4399 -0.1337
  212MPD1    N1 3230   0.520   3.119  16.931  0.3267  0.5865 -0.1174
  212MPD1    H6 3231   0.554   3.023  16.922 -0.4758  0.4315 -1.4294
  212MPD1    H7 3232   0.597   3.184  16.942  1.3690 -0.5085 -0.9135
  213MPD1     C 3233   3.073   3.937  15.633 -0.7618 -0.0601  0.0182
  213MPD1    C1 3234   3.169   4.018  15.576 -0.3784 -0.2352  0.4189
  213MPD1    C2 3235   3.190   3.990  15.442  0.5618 -0.3927  0.2816
  213MPD1    C3 3236   3.160   3.865  15.385 -0.0315  0.2466 -0.6306
  213MPD1    C4 3237   3.083   3.777  15.447 -0.0848  0.0546 -0.6045
  213MPD1    C5 3238   3.026   3.822  15.567  0.5503  0.0060  0.6244
  213MPD1     H 3239   3.258   4.053  15.385 -0.5720 -0.0745 -0.7269
  213MPD1    H1 3240   3.055   3.680  15.408  0.0929 -0.5236  0.6877
  213MPD1    H2 3241   3.009   3.968  15.715 -0.2111 -0.2874  0.5347
  213MPD1    H3 3242   2.948   3.761  15.612 -0.1683  0.3809 -0.1210
  213MPD1     N 3243   3.203   3.842  15.255 -0.1027  0.4965  0.6623
  213MPD1    H5 3244   3.256   3.918  15.213  2.1637 -0.2965  2.1122
  213MPD1    N1 3245   3.185   4.152  15.623 -0.6844  0.0421 -0.0297
  213MPD1    H6 3246   3.279   4.174  15.593 -0.2330 -2.5113 -0.4860
  213MPD1    H7 3247   3.185   4.167  15.724  0.4871  1.4713 -0.2481
  214MPD1     C 3248   3.210   3.165  14.414  0.0599  0.4521  0.3802
  214MPD1    C1 3249   3.194   3.288  14.357 -0.3742  0.7577  0.1449
  214MPD1    C2 3250   3.225   3.402  14.438  0.1660 -0.3161 -0.5336
  214MPD1    C3 3251   3.261   3.386  14.570 -0.1295  1.2173 -0.1568
  214MPD1    C4 3252   3.288   3.258  14.615 -0.3126  0.9783 -0.5773
  214MPD1    C5 3253   3.261   3.153  14.537  0.0094  0.0734 -0.1709
  214MPD1     H 3254   3.203   3.506  14.416 -1.8281 -0.6761 -0.2788
  214MPD1    H1 3255   3.318   3.231  14.716 -1.3109  1.9994 -0.0027
  214MPD1    H2 3256   3.173   3.075  14.365  2.2550  0.5326 -1.4192
  214MPD1    H3 3257   3.269   3.053  14.579  1.4971 -0.1240 -0.9273
  214MPD1     N 3258   3.268   3.504  14.653 -0.0201  0.0725  0.1586
  214MPD1    H5 3259   3.241   3.590  14.605  0.0819 -0.3281 -0.6019
  214MPD1    N1 3260   3.111   3.310  14.245 -0.2624  0.1186  0.1334
  214MPD1    H6 3261   3.145   3.391  14.193 -1.3977 -0.8899 -2.1651
  214MPD1    H7 3262   3.093   3.232  14.182  0.5977  0.7956 -0.9709
  215MPD1     C 3263   3.614   0.485  11.053 -0.0226 -0.4088  0.8673
  215MPD1    C1 3264   3.607   0.444  11.179  0.3582 -0.0168 -0.4936
  215MPD1    C2 3265   3.579   0.309  11.206  0.1627  0.0523  0.1374
  215MPD1    C3 3266   3.564   0.222  11.098  0.3266  0.3639 -0.5055
  215MPD1    C4 3267   3.582   0.272  10.969 -0.3228 -1.6636 -0.5599
  215MPD1    C5 3268   3.595   0.403  10.948  0.4695  0.2875 -0.5652
  215MPD1     H 3269   3.570   0.281  11.311  0.1265 -0.2588  0.0492
  215MPD1    H1 3270   3.568   0.204  10.886 -1.9614 -1.7521 -0.2097
  215MPD1    H2 3271   3.641   0.586  11.024  2.7734 -0.5622  2.9373
  215MPD1    H3 3272   3.617   0.427  10.845 -2.5604  1.2340 -0.9901
  215MPD1     N 3273   3.539   0.088  11.129 -0.2004 -0.1716 -0.1940
  215MPD1    H5 3274   3.522   0.082  11.228  0.0825 -0.4545 -0.1646
  215MPD1    N1 3275   3.616   0.537  11.287 -0.2665 -0.6979 -0.0842
  215MPD1    H6 3276   3.651   0.488  11.369 -0.2317 -0.5004  0.0199
  215MPD1    H7 3277   3.672   0.620  11.268  2.9420 -2.1993  2.7948
  216MPD1     C 3278   0.629   2.247  16.490  0.0776 -0.7247  0.2820
  216MPD1    C1 3279   0.652   2.110  16.508  0.0367 -0.5175  0.1954
  216MPD1    C2 3280   0.631   2.053  16.630 -0.6992  0.7157  0.7900
  216MPD1    C3 3281   0.572   2.123  16.732 -0.2995  0.7071  0.2225
  216MPD1    C4 3282   0.530   2.256  16.713  0.8102  0.2351 -0.4655
  216MPD1    C5 3283   0.562   2.314  16.592  0.2458 -1.1781 -0.2234
  216MPD1     H 3284   0.663   1.950  16.641 -2.9346 -0.1367 -0.6383
  216MPD1    H1 3285   0.460   2.307  16.778 -0.3576 -0.2881 -1.2871
  216MPD1    H2 3286   0.661   2.305  16.405 -3.0256  0.4231 -0.1115
  216MPD1    H3 3287   0.536   2.418  16.576 -0.9529 -1.2925  1.0061
  216MPD1     N 3288   0.561   2.057  16.855 -0.6821 -0.1159 -0.7298
  216MPD1    H5 3289   0.586   1.959  16.861 -3.8994 -0.8165  1.0635
  216MPD1    N1 3290   0.726   2.033  16.414 -0.1867 -0.3301 -0.2516
  216MPD1    H6 3291   0.722   2.077  16.323 -0.1033 -0.6459 -0.4091
  216MPD1    H7 3292   0.691   1.937  16.407  0.5028 -0.6353  0.4996
  217MPD1     C 3293   1.293   0.586   9.798 -0.5528  0.2724  0.0588
  217MPD1    C1 3294   1.391   0.500   9.847 -0.0940 -0.2812  0.0980
  217MPD1    C2 3295   1.362   0.364   9.833 -0.0402  0.7248  0.1274
  217MPD1    C3 3296   1.237   0.321   9.798 -0.5061 -0.4074 -1.1651
  217MPD1    C4 3297   1.149   0.401   9.738  0.0249  0.5277  0.5546
  217MPD1    C5 3298   1.178   0.529   9.741  0.3317 -0.3250 -0.8251
  217MPD1     H 3299   1.443   0.301   9.868 -0.4364 -0.9652 -2.0160
  217MPD1    H1 3300   1.052   0.376   9.695 -0.5744  0.3818  2.0061
  217MPD1    H2 3301   1.304   0.694   9.796  0.4403  0.2004  1.2010
  217MPD1    H3 3302   1.112   0.603   9.698 -1.2011 -1.3017 -0.1417
  217MPD1     N 3303   1.204   0.180   9.797  0.2130  0.8606  0.3006
  217MPD1    H5 3304   1.107   0.155   9.777  1.0994 -0.3802 -2.4990
  217MPD1    N1 3305   1.520   0.537   9.882  0.0754 -0.8830  0.0207
  217MPD1    H6 3306   1.526   0.618   9.944  1.5181 -1.1546  0.2393
  217MPD1    H7 3307   1.570   0.463   9.931 -0.1530 -0.6746  0.5726
  218MPD1     C 3308   2.281   0.307  13.211 -0.2703 -0.4940 -0.5736
  218MPD1    C1 3309   2.339   0.408  13.131 -0.4169 -0.1151 -0.4163
  218MPD1    C2 3310   2.458   0.388  13.063 -0.1942  0.2254 -0.3218
  218MPD1    C3 3311   2.525   0.263  13.064  0.0008 -0.2400 -0.2628
  218MPD1    C4 3312   2.461   0.158  13.134  0.1640 -0.2897 -0.9414
  218MPD1    C5 3313   2.344   0.181  13.206 -0.0047  0.0461 -0.1457
  218MPD1     H 3314   2.512   0.461  13.003  0.3591 -0.4134 -0.5964
  218MPD1    H1 3315   2.502   0.059  13.124 -0.0283 -0.5382  0.7932
  218MPD1    H2 3316   2.188   0.313  13.265 -0.6676  0.3488 -1.3577
  218MPD1    H3 3317   2.304   0.096  13.261  1.1333 -0.9354 -0.8352
  218MPD1     N 3318   2.655   0.243  13.009  0.4321 -0.5263 -0.4692
  218MPD1    H5 3319   2.689   0.308  12.939  1.2617  0.1650  0.5720
  218MPD1    N1 3320   2.270   0.524  13.100 -0.1896  0.0935  0.0268
  218MPD1    H6 3321   2.203   0.542  13.174 -0.1072 -0.8381  0.3279
  218MPD1    H7 3322   2.335   0.602  13.094 -1.9261  1.5664  0.5052
  219MPD1     C 3323   3.023   0.699  12.363 -0.2024 -0.6419 -0.1117
  219MPD1    C1 3324   3.113   0.670  12.465  0.0586 -0.4968 -0.0791
  219MPD1    C2 3325   3.087   0.568  12.555  0.3559 -0.5110  0.2185
  219MPD1    C3 3326   2.964   0.495  12.547  0.3453 -0.8761  0.0602
  219MPD1    C4 3327   2.882   0.514  12.439  0.1047 -0.2137  0.1718
  219MPD1    C5 3328   2.913   0.620  12.357  0.6499 -0.7933  0.2587
  219MPD1     H 3329   3.166   0.549  12.627 -1.0262 -1.9606  1.3603
  219MPD1    H1 3330   2.788   0.462  12.426  0.7277 -0.9500 -1.3490
  219MPD1    H2 3331   3.023   0.784  12.296  0.2833  0.8369  1.7717
  219MPD1    H3 3332   2.841   0.659  12.285 -0.7942  0.3299  2.3156
  219MPD1     N 3333   2.936   0.387  12.636  0.5045 -0.8027 -0.7571
  219MPD1    H5 3334   2.842   0.349  12.630 -0.5500  1.6341  0.3616
  219MPD1    N1 3335   3.228   0.747  12.477  0.6682  0.1084 -0.1637
  219MPD1    H6 3336   3.253   0.795  12.392  0.8586  1.1502  0.4771
  219MPD1    H7 3337   3.305   0.695  12.520  0.4372  1.0894  1.4560
  220MPD1     C 3338   2.930   3.650   9.509  0.5351  0.4286 -0.1495
  220MPD1    C1 3339   2.850   3.761   9.540  0.2836 -0.9742  0.6775
  220MPD1    C2 3340   2.874   3.828   9.661  0.2839  0.0775 -0.3159
  220MPD1    C3 3341   2.954   3.774   9.754 -0.0415 -0.4584  0.3756
  220MPD1    C4 3342   3.019   3.654   9.733  0.3816  0.1994 -0.0757
  220MPD1    C5 3343   3.005   3.592   9.608  0.0000  0.0846  0.3512
  220MPD1     H 3344   2.821   3.919   9.684  0.3105  0.4798 -1.8898
  220MPD1    H1 3345   3.081   3.601   9.804  2.2929  0.3951 -1.6007
  220MPD1    H2 3346   2.927   3.597   9.415  0.4508  1.6509 -0.8417
  220MPD1    H3 3347   3.056   3.499   9.587 -1.6592 -0.9446  0.8212
  220MPD1     N 3348   2.974   3.841   9.881 -0.2043 -0.4360  0.7132
  220MPD1    H5 3349   2.925   3.929   9.888  1.8316  0.8040 -0.5846
  220MPD1    N1 3350   2.781   3.816   9.433 -0.0186  0.1573 -0.4067
  220MPD1    H6 3351   2.741   3.756   9.361 -1.2502  2.8554 -1.9532
  220MPD1    H7 3352   2.713   3.884   9.464 -1.5911 -1.6532  0.1165
  221MPD1     C 3353   0.094   4.001  16.851  0.0752 -0.9593  0.3970
  221MPD1    C1 3354   0.139   4.111  16.929 -0.1405  0.0261  0.3701
  221MPD1    C2 3355   0.275   4.120  16.944  0.0028 -0.2619 -0.6246
  221MPD1    C3 3356   0.359   4.023  16.905  0.3812  0.1108  0.0642
  221MPD1    C4 3357   0.316   3.919  16.828 -0.0334  0.0476 -0.2647
  221MPD1    C5 3358   0.185   3.910  16.796  0.7443 -0.1738  0.6433
  221MPD1     H 3359   0.310   4.216  16.980 -1.2677 -0.9113  2.2810
  221MPD1    H1 3360   0.390   3.852  16.786  0.8132 -0.1263  1.4840
  221MPD1    H2 3361   4.715   3.991  16.827 -0.2431  1.3263  0.8375
  221MPD1    H3 3362   0.149   3.832  16.731 -1.8797  1.1415  0.5043
  221MPD1     N 3363   0.502   4.039  16.906  0.9225  0.0123  0.1921
  221MPD1    H5 3364   0.553   3.984  16.838 -2.5388 -1.3747 -1.3066
  221MPD1    N1 3365   0.048   4.213  16.965 -0.2673 -0.4583 -0.2462
  221MPD1    H6 3366   0.064   4.233  17.064  0.7776 -0.5464 -0.3908
  221MPD1    H7 3367   4.676   4.196  16.949  0.0800 -1.0480 -1.7725
  222MPD1     C 3368   0.807   2.727  16.768  0.5883 -0.1037  0.4086
  222MPD1    C1 3369   0.865   2.842  16.820  0.2686  0.6652  0.4920
  222MPD1    C2 3370   0.827   2.874  16.945  0.0224 -0.0003  0.1961
  222MPD1    C3 3371   0.730   2.803  17.016  0.4446  0.6072  0.0568
  222MPD1    C4 3372   0.668   2.699  16.953  0.1378 -0.4503 -0.7352
  222MPD1    C5 3373   0.709   2.657  16.831 -0.1833  0.1630  0.6728
  222MPD1     H 3374   0.874   2.963  16.986 -0.6020  0.9178 -1.0948
  222MPD1    H1 3375   0.597   2.636  17.006 -0.1735  1.0865  0.6622
  222MPD1    H2 3376   0.840   2.690  16.672  0.0536  1.7014 -0.4809
  222MPD1    H3 3377   0.684   2.567  16.776  0.9566 -0.3890  1.0450
  222MPD1     N 3378   0.688   2.834  17.147 -0.3142  0.2893  0.3118
  222MPD1    H5 3379   0.612   2.781  17.187  0.2418 -0.0731  0.9023
  222MPD1    N1 3380   0.976   2.914  16.757  0.0916  0.0539  0.1793
  222MPD1    H6 3381   0.962   2.912  16.656  2.3497 -2.1945 -0.0933
  222MPD1    H7 3382   0.969   3.012  16.782 -0.1648  0.5037 -1.7101
  223MPD1     C 3383   0.039   2.580   0.167  0.0762  0.1113  0.3854
  223MPD1    C1 3384   0.055   2.711   0.190  0.2992  0.0296 -0.8777
  223MPD1    C2 3385   0.153   2.779   0.122  0.3318 -0.1531  0.2450
  223MPD1    C3 3386   0.218   2.722   0.015 -0.6189 -0.0115  0.2036
  223MPD1    C4 3387   0.199   2.588  17.688  0.3937 -0.2463 -0.2716
  223MPD1    C5 3388   0.102   2.521   0.055 -0.0621  0.1047  0.4174
  223MPD1     H 3389   0.165   2.882   0.154 -0.6848 -0.3022  1.1029
  223MPD1    H1 3390   0.237   2.540  17.598 -0.3535  1.7602 -1.6490
  223MPD1    H2 3391   4.699   2.516   0.224 -0.7845  0.3204 -0.3766
  223MPD1    H3 3392   0.086   2.415   0.039  0.3948  0.2458 -0.9918
  223MPD1     N 3393   0.312   2.802  17.647 -0.0627  0.0125 -0.1759
  223MPD1    H5 3394   0.316   2.897  17.682 -0.1402  0.5207 -1.5611
  223MPD1    N1 3395   0.006   2.765   0.310 -0.7324  0.0153 -0.0669
  223MPD1    H6 3396   4.723   2.866   0.306  0.0604  0.1452  1.5733
  223MPD1    H7 3397   4.642   2.737   0.346 -0.9340  0.4793 -0.2117
  224MPD1     C 3398   2.121   0.356   9.811  0.2858  0.4995 -0.5498
  224MPD1    C1 3399   1.999   0.408   9.803 -0.1645  0.3851  0.1191
  224MPD1    C2 3400   1.908   0.367   9.899 -0.9142  0.6585  0.3766
  224MPD1    C3 3401   1.935   0.277   9.995  0.3992 -0.1295  0.2748
  224MPD1    C4 3402   2.067   0.240  10.007 -0.3869  0.8421 -0.6681
  224MPD1    C5 3403   2.164   0.280   9.921  0.6759 -0.1725 -0.6988
  224MPD1     H 3404   1.808   0.408   9.886 -0.9108  0.5036 -0.1441
  224MPD1    H1 3405   2.094   0.165  10.080 -0.9403  0.6750 -0.6380
  224MPD1    H2 3406   2.207   0.381   9.750 -0.1329  1.2955 -0.8126
  224MPD1    H3 3407   2.266   0.244   9.927 -0.1779 -2.3070  1.1806
  224MPD1     N 3408   1.837   0.213  10.066  0.1790  0.3937 -0.0864
  224MPD1    H5 3409   1.871   0.138  10.126  0.7856 -0.2180 -1.1900
  224MPD1    N1 3410   1.959   0.482   9.686  0.0272 -0.0255  0.4018
  224MPD1    H6 3411   2.038   0.530   9.643  0.7616 -2.4152 -0.9120
  224MPD1    H7 3412   1.879   0.539   9.710  0.0770 -0.1348  0.8437
  225MPD1     C 3413   3.061   1.554  12.724  0.4771  0.1909  0.6272
  225MPD1    C1 3414   3.061   1.446  12.639 -0.3348 -0.2103  0.2477
  225MPD1    C2 3415   2.967   1.446  12.543  0.4734  0.4633  0.0871
  225MPD1    C3 3416   2.880   1.557  12.521  0.0512  0.5087  0.0486
  225MPD1    C4 3417   2.902   1.664  12.606 -0.2281  0.1287  0.3503
  225MPD1    C5 3418   2.987   1.664  12.705 -0.3683 -0.2919  0.1007
  225MPD1     H 3419   2.961   1.348  12.498 -1.4716 -0.1153  1.6371
  225MPD1    H1 3420   2.848   1.750  12.570  0.7695  0.6826  0.1822
  225MPD1    H2 3421   3.127   1.571  12.809  2.0262 -0.9117 -0.3503
  225MPD1    H3 3422   3.013   1.750  12.766 -1.7562  0.0400  0.2328
  225MPD1     N 3423   2.761   1.548  12.450  0.2156 -0.3738  0.5654
  225MPD1    H5 3424   2.693   1.624  12.456 -0.3293 -0.8284  0.1817
  225MPD1    N1 3425   3.128   1.329  12.661 -0.5269  0.1151 -0.3761
  225MPD1    H6 3426   3.142   1.275  12.576  1.2263 -0.8126  0.5130
  225MPD1    H7 3427   3.220   1.355  12.696 -0.4750 -0.1238 -0.3361
  226MPD1     C 3428   2.394   1.378   9.938  0.1447 -0.1645 -0.0613
  226MPD1    C1 3429   2.389   1.252   9.895 -0.3117 -0.3168  0.7657
  226MPD1    C2 3430   2.263   1.204   9.875  0.2633 -0.3835 -0.6802
  226MPD1    C3 3431   2.147   1.278   9.885  0.5754 -0.7576 -0.0580
  226MPD1    C4 3432   2.158   1.412   9.931  0.0678 -0.5904 -0.3408
  226MPD1    C5 3433   2.283   1.457   9.956  0.4975  0.3702  0.3133
  226MPD1     H 3434   2.254   1.101   9.841  0.6767 -0.7438  0.3124
  226MPD1    H1 3435   2.064   1.464   9.946 -0.6709 -1.1334 -3.0317
  226MPD1    H2 3436   2.485   1.425   9.973 -0.5766  1.7717 -0.7644
  226MPD1    H3 3437   2.289   1.555  10.001 -0.3163  0.9820 -0.8965
  226MPD1     N 3438   2.031   1.221   9.852  0.3346 -0.0036 -0.0685
  226MPD1    H5 3439   2.033   1.119   9.847  2.5346  0.0085  0.3217
  226MPD1    N1 3440   2.500   1.172   9.904  0.4519  0.0383  0.4447
  226MPD1    H6 3441   2.583   1.228   9.892  1.0729 -0.2880  3.0741
  226MPD1    H7 3442   2.497   1.103   9.829 -1.3416  0.6635 -0.0755
  227MPD1     C 3443   1.120   1.288   9.246  0.4619 -0.0648  0.0703
  227MPD1    C1 3444   1.129   1.152   9.274  0.0042  0.6600 -0.1246
  227MPD1    C2 3445   1.242   1.106   9.343  0.1654  0.1588 -0.3440
  227MPD1    C3 3446   1.333   1.195   9.401  0.0823  0.1545 -0.7491
  227MPD1    C4 3447   1.319   1.327   9.361  0.0118 -0.1762  0.2328
  227MPD1    C5 3448   1.211   1.372   9.292 -0.1985 -0.5613  0.6425
  227MPD1     H 3449   1.250   0.999   9.356  0.3976  0.0910 -0.9993
  227MPD1    H1 3450   1.394   1.401   9.386 -0.8955  1.3455 -1.5716
  227MPD1    H2 3451   1.039   1.332   9.188  1.9180  2.0544 -0.3673
  227MPD1    H3 3452   1.200   1.478   9.272  2.2617 -0.6054 -0.9103
  227MPD1     N 3453   1.442   1.149   9.476 -0.1283  0.5116 -0.3142
  227MPD1    H5 3454   1.456   1.048   9.479 -1.6336  0.3239  0.8974
  227MPD1    N1 3455   1.034   1.062   9.220  0.0955  0.0082  0.7022
  227MPD1    H6 3456   0.940   1.098   9.207  0.6130  1.0200 -0.2887
  227MPD1    H7 3457   1.037   0.973   9.269 -0.6419  1.1690  2.8582
  228MPD1     C 3458   4.276   3.231  12.465 -0.2811  0.3403  0.5350
  228MPD1    C1 3459   4.162   3.274  12.415  1.1580  0.0206  0.0042
  228MPD1    C2 3460   4.041   3.268  12.488  0.1452 -0.0607  0.0973
  228MPD1    C3 3461   4.045   3.213  12.614 -0.7426 -0.5562 -0.2570
  228MPD1    C4 3462   4.167   3.170  12.674 -0.2409 -0.2965 -0.0302
  228MPD1    C5 3463   4.277   3.185  12.595  0.3573 -0.2401 -0.3072
  228MPD1     H 3464   3.942   3.284  12.446 -0.5408  0.9261  2.1010
  228MPD1    H1 3465   4.177   3.131  12.775 -2.3835 -0.8517 -0.0270
  228MPD1    H2 3466   4.373   3.238  12.417 -0.0338  1.3476  1.1843
  228MPD1    H3 3467   4.373   3.155  12.634 -0.0854 -1.5933 -0.2599
  228MPD1     N 3468   3.917   3.173  12.680  0.0167  0.4371  0.6211
  228MPD1    H5 3469   3.829   3.196  12.634  0.5873 -0.1864 -0.7778
  228MPD1    N1 3470   4.152   3.287  12.275  0.9766  0.4144 -0.2154
  228MPD1    H6 3471   4.078   3.349  12.243 -0.7816 -0.1711  2.6880
  228MPD1    H7 3472   4.238   3.329  12.242  0.8742  0.3812 -0.5248
  229MPD1     C 3473   3.336   1.892  15.492 -0.5726  0.3180  0.4721
  229MPD1    C1 3474   3.388   2.000  15.559  0.5643 -0.2046 -0.0907
  229MPD1    C2 3475   3.528   2.017  15.574  0.0230  0.5997 -0.4323
  229MPD1    C3 3476   3.618   1.928  15.524  0.1331  0.1540 -0.6319
  229MPD1    C4 3477   3.563   1.825  15.453  0.6528  0.6853 -0.2776
  229MPD1    C5 3478   3.425   1.807  15.429 -0.1392  0.2580  0.3377
  229MPD1     H 3479   3.566   2.103  15.628 -1.2663  0.4147  0.7778
  229MPD1    H1 3480   3.621   1.748  15.403  1.6068  2.1822 -1.4755
  229MPD1    H2 3481   3.229   1.882  15.486 -0.6770  1.1553  0.8669
  229MPD1    H3 3482   3.389   1.715  15.383  2.6247 -0.2084 -0.9058
  229MPD1     N 3483   3.758   1.926  15.530  0.4005 -0.2059 -0.0455
  229MPD1    H5 3484   3.804   1.842  15.498 -0.3570 -0.6827  0.1217
  229MPD1    N1 3485   3.307   2.093  15.635 -0.7998  0.2793 -0.2239
  229MPD1    H6 3486   3.358   2.180  15.629 -1.1796  0.5742  0.9093
  229MPD1    H7 3487   3.212   2.100  15.597 -2.0121 -2.0810  2.3330
  230MPD1     C 3488   4.281   2.441  16.193  0.0740  0.0930  0.0958
  230MPD1    C1 3489   4.230   2.491  16.073  0.2228 -0.6812 -0.3807
  230MPD1    C2 3490   4.189   2.403  15.978  0.3073 -1.2122  0.2947
  230MPD1    C3 3491   4.214   2.270  15.986 -0.3859 -0.2921  0.0684
  230MPD1    C4 3492   4.275   2.222  16.098  0.4684 -0.1830 -0.3529
  230MPD1    C5 3493   4.300   2.306  16.202  0.1228 -0.6086  0.5430
  230MPD1     H 3494   4.155   2.438  15.881  1.7207 -3.4630 -0.9923
  230MPD1    H1 3495   4.298   2.117  16.111  3.0504  0.1845 -1.8711
  230MPD1    H2 3496   4.312   2.512  16.269  0.0525 -1.2969  1.3901
  230MPD1    H3 3497   4.347   2.274  16.294 -0.9885  1.1725  1.7406
  230MPD1     N 3498   4.181   2.190  15.879 -0.1048  0.2764  0.1998
  230MPD1    H5 3499   4.110   2.220  15.813 -0.8397 -0.9280  0.4392
  230MPD1    N1 3500   4.207   2.628  16.057 -0.1731  0.3391 -0.3093
  230MPD1    H6 3501   4.216   2.651  15.958 -1.0751  0.0099 -0.4639
  230MPD1    H7 3502   4.275   2.682  16.110  0.7528 -1.0356 -0.0725
  231MPD1     C 3503   2.291   3.839  15.550  0.6322  0.3736  0.6694
  231MPD1    C1 3504   2.318   3.797  15.424  0.3523  0.0585  0.0043
  231MPD1    C2 3505   2.428   3.837  15.361 -0.1724 -0.2567  0.2673
  231MPD1    C3 3506   2.523   3.912  15.426 -0.4341  0.0606  0.2585
  231MPD1    C4 3507   2.501   3.951  15.556 -0.1224 -0.0135  0.0189
  231MPD1    C5 3508   2.387   3.916  15.613 -0.9201  0.4946 -0.0516
  231MPD1     H 3509   2.447   3.804  15.259  0.3120  0.9748 -0.0447
  231MPD1    H1 3510   2.568   3.999  15.625 -0.3387  2.5426 -1.5424
  231MPD1    H2 3511   2.202   3.810  15.603  1.2691  0.1197  1.6102
  231MPD1    H3 3512   2.369   3.963  15.709 -0.4413 -0.0931  0.3246
  231MPD1     N 3513   2.648   3.946  15.371  0.5255 -0.1932 -0.3137
  231MPD1    H5 3514   2.661   3.919  15.274 -0.1776 -0.2050 -0.4099
  231MPD1    N1 3515   2.225   3.707  15.365  0.3117  0.4379 -0.1048
  231MPD1    H6 3516   2.134   3.701  15.409  1.1652 -0.7478  1.4882
  231MPD1    H7 3517   2.222   3.684  15.265  2.5969  0.0425 -0.0703
  232MPD1     C 3518   4.061   2.158   1.973  0.3878  0.7965  0.1430
  232MPD1    C1 3519   4.060   2.207   1.846  0.3645  0.2874 -0.7160
  232MPD1    C2 3520   4.020   2.123   1.738 -0.2698 -0.9588  0.0419
  232MPD1    C3 3521   3.963   2.002   1.763  0.0416 -0.5150  0.2540
  232MPD1    C4 3522   3.976   1.947   1.886 -0.5758  0.2103 -0.1828
  232MPD1    C5 3523   4.019   2.028   1.990  0.4808  0.0799  0.1372
  232MPD1     H 3524   4.023   2.160   1.636 -0.8316 -0.3582  0.2486
  232MPD1    H1 3525   3.940   1.847   1.910 -0.4984  0.2169 -0.0400
  232MPD1    H2 3526   4.096   2.203   2.065 -1.3499  0.0894  1.1453
  232MPD1    H3 3527   4.018   1.989   2.091 -0.1981 -0.6571 -0.1472
  232MPD1     N 3528   3.916   1.926   1.650  0.0367 -0.3471 -0.4160
  232MPD1    H5 3529   3.913   1.980   1.564  0.7741 -0.2008 -0.3556
  232MPD1    N1 3530   4.139   2.320   1.824  0.0546 -0.3832  0.3599
  232MPD1    H6 3531   4.120   2.366   1.735  1.4806 -1.5115 -0.5348
  232MPD1    H7 3532   4.148   2.386   1.901  1.0835  0.6467 -0.6589
  233MPD1     C 3533   3.692   3.659   1.323  0.0862 -0.2687 -0.2094
  233MPD1    C1 3534   3.780   3.736   1.395  0.9174  0.4068 -0.1589
  233MPD1    C2 3535   3.908   3.690   1.404  0.4918 -0.1479 -0.6704
  233MPD1    C3 3536   3.945   3.578   1.331 -0.3914  0.5981  0.2309
  233MPD1    C4 3537   3.862   3.506   1.259  0.5911  0.7193 -0.4132
  233MPD1    C5 3538   3.728   3.546   1.262  0.1319 -0.4057  0.3416
  233MPD1     H 3539   3.985   3.734   1.467  0.8840 -1.2196 -0.4009
  233MPD1    H1 3540   3.889   3.414   1.209 -2.6555 -0.3786 -0.1470
  233MPD1    H2 3541   3.586   3.679   1.322  0.0712 -0.2469  2.0071
  233MPD1    H3 3542   3.659   3.500   1.192  0.0085 -1.8719  1.4084
  233MPD1     N 3543   4.083   3.528   1.317 -0.6344 -0.1034 -0.5638
  233MPD1    H5 3544   4.093   3.448   1.255 -0.8372 -0.5414 -0.0245
  233MPD1    N1 3545   3.744   3.847   1.469 -0.0398 -0.1421 -0.1644
  233MPD1    H6 3546   3.668   3.894   1.420  0.7060  1.2122 -0.0297
  233MPD1    H7 3547   3.819   3.913   1.488 -0.4266  0.9552 -2.4810
  234MPD1     C 3548   1.754   2.961  10.149 -0.2917  0.2464  0.2880
  234MPD1    C1 3549   1.665   3.022  10.067 -0.0905  0.3549  0.2065
  234MPD1    C2 3550   1.688   3.150  10.030  1.2486  0.5047  0.5766
  234MPD1    C3 3551   1.796   3.222  10.074  0.3980  0.1602  0.9897
  234MPD1    C4 3552   1.895   3.155  10.146 -0.4335 -0.1392 -0.2579
  234MPD1    C5 3553   1.875   3.028  10.182  0.9521 -0.4533  0.3695
  234MPD1     H 3554   1.611   3.205   9.977  2.3789  2.2641  0.7496
  234MPD1    H1 3555   1.989   3.194  10.183  1.1766 -3.2510 -1.0821
  234MPD1    H2 3556   1.753   2.857  10.179 -0.4285  0.1933  0.0964
  234MPD1    H3 3557   1.942   2.970  10.244  0.4899  0.0205  1.3124
  234MPD1     N 3558   1.807   3.363  10.045 -0.3690 -0.0082  0.7092
  234MPD1    H5 3559   1.738   3.404   9.983  0.1695 -1.2049 -0.6682
  234MPD1    N1 3560   1.543   2.967  10.053 -0.6174  0.2702 -1.2548
  234MPD1    H6 3561   1.500   2.984   9.962 -4.5138  1.3732  0.7819
  234MPD1    H7 3562   1.545   2.867  10.069 -0.3525  0.3653 -0.7197
  235MPD1     C 3563   3.389   0.621  10.729 -0.7459  0.7132 -1.1185
  235MPD1    C1 3564   3.376   0.629  10.591 -0.2721  0.3296 -0.4130
  235MPD1    C2 3565   3.428   0.735  10.521  0.0081  0.0057 -0.6601
  235MPD1    C3 3566   3.515   0.825  10.592 -0.1429  0.3402 -0.1375
  235MPD1    C4 3567   3.537   0.811  10.724 -0.2972  0.3205 -0.0934
  235MPD1    C5 3568   3.474   0.708  10.788 -0.1788 -0.3777 -0.8201
  235MPD1     H 3569   3.414   0.747  10.414 -0.9677  0.5947 -0.4690
  235MPD1    H1 3570   3.586   0.885  10.787 -0.3660 -0.2835  0.6740
  235MPD1    H2 3571   3.350   0.537  10.786 -1.4386  0.2032 -2.3443
  235MPD1    H3 3572   3.488   0.707  10.896 -1.8106 -0.2701 -0.6024
  235MPD1     N 3573   3.548   0.947  10.526  0.7901 -0.6647 -0.4390
  235MPD1    H5 3574   3.521   0.951  10.429  1.4257  1.3558 -0.5325
  235MPD1    N1 3575   3.285   0.535  10.528  0.2646 -0.7593 -0.1900
  235MPD1    H6 3576   3.299   0.527  10.427  1.7539 -1.1277  0.0481
  235MPD1    H7 3577   3.287   0.442  10.570 -2.2374 -1.4130 -1.4862
  236MPD1     C 3578   2.374   2.326  10.172 -0.1783 -0.1738  0.1789
  236MPD1    C1 3579   2.352   2.187  10.149  0.2973  0.1506 -0.5820
  236MPD1    C2 3580   2.443   2.096  10.211 -0.1163 -0.0926  0.5340
  236MPD1    C3 3581   2.545   2.141  10.302 -0.4664  0.2686 -0.3195
  236MPD1    C4 3582   2.553   2.276  10.321  0.9952 -0.2924 -0.1267
  236MPD1    C5 3583   2.460   2.363  10.269 -0.1337 -0.5492 -0.2957
  236MPD1     H 3584   2.432   1.992  10.185 -0.8694  0.5541 -1.6659
  236MPD1    H1 3585   2.628   2.301  10.396  1.5626 -2.6434  0.0983
  236MPD1    H2 3586   2.318   2.412  10.135  1.1720  0.4253 -0.4903
  236MPD1    H3 3587   2.458   2.467  10.302 -1.3203 -0.6247 -0.1235
  236MPD1     N 3588   2.634   2.058  10.371 -0.6449  0.3252 -0.0003
  236MPD1    H5 3589   2.695   2.095  10.444 -1.3508  1.0882  0.1979
  236MPD1    N1 3590   2.250   2.152  10.058 -0.4355  0.8377  0.1808
  236MPD1    H6 3591   2.168   2.201  10.091  0.4704  0.9396  2.2835
  236MPD1    H7 3592   2.219   2.057  10.078 -1.1598  1.1454  0.5050
  237MPD1     C 3593   3.174   0.510  16.407 -0.0671  0.2440 -0.5286
  237MPD1    C1 3594   3.191   0.380  16.446 -0.8342  0.1231 -0.3783
  237MPD1    C2 3595   3.148   0.281  16.365 -0.1273 -0.3252  0.2141
  237MPD1    C3 3596   3.081   0.307  16.249  0.8992 -0.4221  0.6216
  237MPD1    C4 3597   3.066   0.439  16.215 -0.4995 -0.0485  0.2435
  237MPD1    C5 3598   3.113   0.537  16.292 -1.1745 -0.1474 -0.0337
  237MPD1     H 3599   3.162   0.184  16.410 -1.5595  0.6225  2.7187
  237MPD1    H1 3600   3.017   0.468  16.123  3.2239  1.3332 -1.2806
  237MPD1    H2 3601   3.195   0.589  16.479 -1.7954 -0.1625  0.4292
  237MPD1    H3 3602   3.096   0.639  16.260  0.5433  0.1131 -0.1520
  237MPD1     N 3603   3.011   0.207  16.173  0.3611 -0.4590 -0.4336
  237MPD1    H5 3604   2.982   0.237  16.080  0.3106 -0.3788 -0.3924
  237MPD1    N1 3605   3.271   0.355  16.554  0.8537 -0.0057  0.5027
  237MPD1    H6 3606   3.258   0.265  16.599  1.2507  0.2068  1.0405
  237MPD1    H7 3607   3.268   0.432  16.621  1.9085  2.7012 -2.5635
  238MPD1     C 3608   4.606   3.867  15.463 -0.5831  0.4993  0.7509
  238MPD1    C1 3609   4.526   3.757  15.492 -0.0815 -0.2550  0.2676
  238MPD1    C2 3610   4.409   3.744  15.433  0.1973 -0.2505  0.7921
  238MPD1    C3 3611   4.367   3.832  15.337  0.5671 -0.2575  0.3791
  238MPD1    C4 3612   4.450   3.940  15.302 -0.5215  0.0944 -0.0465
  238MPD1    C5 3613   4.570   3.952  15.368  0.0872  0.1031  0.1126
  238MPD1     H 3614   4.348   3.664  15.475  0.4259 -0.8131  0.0592
  238MPD1    H1 3615   4.429   4.008  15.220 -1.5527  0.5277  0.5673
  238MPD1    H2 3616   4.702   3.874  15.512  1.1899  1.8876 -2.9408
  238MPD1    H3 3617   4.627   4.042  15.350  0.6488 -0.4302 -0.7608
  238MPD1     N 3618   4.238   3.827  15.274  0.2038  0.0143 -0.2073
  238MPD1    H5 3619   4.211   3.896  15.205  0.1058 -0.6978 -0.8880
  238MPD1    N1 3620   4.552   3.673  15.602 -0.4661 -0.0737 -0.2834
  238MPD1    H6 3621   4.496   3.589  15.597  1.9341 -1.6121 -1.2316
  238MPD1    H7 3622   4.646   3.641  15.623 -0.4114  0.3555  0.1490
  239MPD1     C 3623   0.335   4.430  14.967  0.2772  0.0348 -0.9924
  239MPD1    C1 3624   0.197   4.444  14.993  0.1387 -0.1038  0.3857
  239MPD1    C2 3625   0.120   4.520  14.908  0.8217 -0.2101  0.2472
  239MPD1    C3 3626   0.174   4.571  14.791  0.4348 -0.0759  0.3732
  239MPD1    C4 3627   0.307   4.553  14.767  0.5937  0.1066  0.7752
  239MPD1    C5 3628   0.390   4.483  14.855  0.1889 -0.0303 -0.3357
  239MPD1     H 3629   0.016   4.538  14.936  0.0546 -1.1092 -2.0281
  239MPD1    H1 3630   0.366   4.588  14.683  0.8590 -1.0538  0.4753
  239MPD1    H2 3631   0.396   4.405  15.053  0.6506 -0.5194 -1.4243
  239MPD1    H3 3632   0.498   4.488  14.845  0.2117  0.3006  0.0699
  239MPD1     N 3633   0.103   4.649  14.701 -0.3243 -0.2256 -0.3455
  239MPD1    H5 3634   0.157   4.668  14.617 -3.0671  1.3462 -1.7578
  239MPD1    N1 3635   0.133   4.401  15.113  0.1787 -0.8683  0.0072
  239MPD1    H6 3636   0.162   4.310  15.147 -0.7960 -0.9779  0.5361
  239MPD1    H7 3637   0.032   4.392  15.101  0.1677 -0.9591  0.1720
  240MPD1     C 3638   3.807   0.189  13.840  0.0164  0.4392 -0.3209
  240MPD1    C1 3639   3.737   0.070  13.813  0.6100 -0.3510 -0.8662
  240MPD1    C2 3640   3.723   4.701  13.909  0.7728  0.4675 -0.2736
  240MPD1    C3 3641   3.744   0.008  14.044 -0.3724 -0.1717 -0.1716
  240MPD1    C4 3642   3.811   0.126  14.071  0.6010  0.5562  0.3239
  240MPD1    C5 3643   3.855   0.210  13.970  0.0354 -0.2716  0.0664
  240MPD1     H 3644   3.683   4.605  13.879 -0.4211  1.7795 -2.8887
  240MPD1    H1 3645   3.844   0.158  14.170  1.3039  1.6317 -0.2549
  240MPD1    H2 3646   3.837   0.256  13.760  1.0585  0.0768 -0.2302
  240MPD1    H3 3647   3.888   0.312  13.988 -0.1994 -0.7606  3.3352
  240MPD1     N 3648   3.710   4.634  14.144  0.6140  0.9438  0.0037
  240MPD1    H5 3649   3.666   4.548  14.113  0.8705  0.3628  1.2776
  240MPD1    N1 3650   3.728   0.039  13.677  0.0208 -0.9011 -0.3337
  240MPD1    H6 3651   3.650   4.704  13.654  0.6461 -1.0856 -1.9044
  240MPD1    H7 3652   3.724   0.123  13.620  1.1510  0.0768  1.0309
  241MPD1     C 3653   3.851   4.605  15.130 -0.2757 -0.4575  0.0592
  241MPD1    C1 3654   3.781   4.490  15.113  0.1407 -0.0084  0.2313
  241MPD1    C2 3655   3.760   4.446  14.983  0.0702 -0.0977  0.5441
  241MPD1    C3 3656   3.835   4.497  14.874 -0.1021  0.3607  0.0052
  241MPD1    C4 3657   3.930   4.589  14.907  1.0378 -0.2499 -0.1992
  241MPD1    C5 3658   3.934   4.646  15.029 -0.0270  0.8168 -0.8672
  241MPD1     H 3659   3.685   4.371  14.959 -0.1121 -0.1423  1.2418
  241MPD1    H1 3660   3.988   4.622  14.821  0.1275 -1.1241 -1.1564
  241MPD1    H2 3661   3.851   4.650  15.229  0.9495  2.0233 -1.0634
  241MPD1    H3 3662   4.003   0.003  15.043  0.5276 -0.2825  2.9525
  241MPD1     N 3663   3.813   4.477  14.735 -0.2638  0.2513 -0.1915
  241MPD1    H5 3664   3.869   4.536  14.674  2.5204 -1.2945  0.8661
  241MPD1    N1 3665   3.700   4.452  15.228  0.3079  0.6309  0.6751
  241MPD1    H6 3666   3.678   4.352  15.225  0.4218  0.6662 -1.1379
  241MPD1    H7 3667   3.752   4.480  15.311  2.1389 -0.9390  0.0516
  242MPD1     C 3668   3.368   3.275  16.121 -0.4299  0.2991 -0.6022
  242MPD1    C1 3669   3.262   3.192  16.082 -0.0720  0.4088 -0.0374
  242MPD1    C2 3670   3.289   3.111  15.971 -0.0634  0.5124  0.7007
  242MPD1    C3 3671   3.403   3.135  15.899 -0.5404  0.2394 -0.9143
  242MPD1    C4 3672   3.494   3.224  15.941 -0.1170 -0.2595  0.5780
  242MPD1    C5 3673   3.480   3.289  16.052 -0.1471 -0.5224 -0.3292
  242MPD1     H 3674   3.208   3.047  15.935  0.9152  1.3814 -3.0476
  242MPD1    H1 3675   3.584   3.246  15.884  0.0581 -3.6927 -0.4556
  242MPD1    H2 3676   3.352   3.322  16.217 -0.4186 -2.4280  0.7169
  242MPD1    H3 3677   3.558   3.357  16.085  0.1330 -0.9032 -0.2163
  242MPD1     N 3678   3.436   3.054  15.785  0.0843  0.3780  0.0781
  242MPD1    H5 3679   3.529   3.069  15.749  0.7999  1.1530  2.2095
  242MPD1    N1 3680   3.147   3.177  16.159 -0.3882 -0.1629  0.0395
  242MPD1    H6 3681   3.074   3.136  16.100 -1.8328  0.8038  1.1510
  242MPD1    H7 3682   3.120   3.273  16.180 -3.4546 -0.4292 -2.5748
  243MPD1     C 3683   0.507   1.792   0.088  0.4504 -0.1538  0.1191
  243MPD1    C1 3684   0.433   1.676   0.093 -0.0578  0.0120 -0.2945
  243MPD1    C2 3685   0.445   1.594  17.689  0.4242 -0.1222  0.4938
  243MPD1    C3 3686   0.518   1.620  17.576  0.3671 -0.4812  0.3542
  243MPD1    C4 3687   0.589   1.740  17.570  0.7445  0.5108  0.3082
  243MPD1    C5 3688   0.579   1.826  17.679 -0.2777 -1.1892  0.1632
  243MPD1     H 3689   0.376   1.510  17.693  0.7283 -0.4380 -0.7275
  243MPD1    H1 3690   0.632   1.772  17.476  2.4210 -0.9924  0.5595
  243MPD1    H2 3691   0.506   1.874   0.160  1.0000 -0.6837  0.7299
  243MPD1    H3 3692   0.633   1.919  17.685  1.4790 -2.1417 -0.9056
  243MPD1     N 3693   0.511   1.526  17.469 -0.6496  0.0343  0.5240
  243MPD1    H5 3694   0.446   1.449  17.482 -0.4049 -0.4635 -1.1634
  243MPD1    N1 3695   0.360   1.639   0.204 -0.0519 -0.4383  0.1136
  243MPD1    H6 3696   0.321   1.712   0.263 -0.1922 -0.2857 -0.1678
  243MPD1    H7 3697   0.308   1.552   0.211  0.2526 -0.6122  0.2436
  244MPD1     C 3698   0.275   0.745   0.038  0.0962  0.0501 -1.0859
  244MPD1    C1 3699   0.227   0.875   0.041  0.0272 -1.2978  0.2638
  244MPD1    C2 3700   0.300   0.970  17.677 -0.5132  0.4105  0.2041
  244MPD1    C3 3701   0.380   0.930  17.567  0.6343  0.5950  0.1515
  244MPD1    C4 3702   0.414   0.795  17.551  0.0990 -0.2491  0.6016
  244MPD1    C5 3703   0.371   0.705  17.649  0.4143  0.6441  0.4561
  244MPD1     H 3704   0.284   1.076  17.694  0.2657  0.3735  1.1444
  244MPD1    H1 3705   0.475   0.756  17.471 -1.1294  1.1101 -1.0010
  244MPD1    H2 3706   0.241   0.664   0.101 -0.8205  1.7672  0.6176
  244MPD1    H3 3707   0.413   0.606  17.664  1.0723  0.8362 -0.1435
  244MPD1     N 3708   0.431   1.039  17.491 -0.3494 -0.5686  0.2847
  244MPD1    H5 3709   0.402   1.130  17.524 -2.3325 -0.1084 -2.7874
  244MPD1    N1 3710   0.138   0.923   0.136 -0.7338  0.0944 -0.6384
  244MPD1    H6 3711   0.088   1.002   0.094 -0.9400 -0.9230 -2.3186
  244MPD1    H7 3712   0.064   0.856   0.158  0.6104 -1.0646  0.2980
  245MPD1     C 3713   2.096   1.608  13.656  0.7566 -0.4879 -0.4121
  245MPD1    C1 3714   2.193   1.612  13.753  1.0188  0.5350  0.0899
  245MPD1    C2 3715   2.229   1.734  13.808  0.0332  0.4055 -0.8474
  245MPD1    C3 3716   2.161   1.848  13.775 -0.5936 -0.2279 -0.7627
  245MPD1    C4 3717   2.067   1.846  13.673  0.0759  0.2562 -0.2341
  245MPD1    C5 3718   2.036   1.727  13.616 -0.2780 -0.4678  0.4464
  245MPD1     H 3719   2.300   1.748  13.889 -0.1610 -2.5769 -0.1597
  245MPD1    H1 3720   2.008   1.933  13.644  0.3349  0.6347  0.3667
  245MPD1    H2 3721   2.057   1.517  13.611 -0.4697 -0.2794  0.2171
  245MPD1    H3 3722   1.952   1.734  13.548 -0.6418  2.8710  1.2367
  245MPD1     N 3723   2.205   1.968  13.836 -0.3719 -0.0164 -0.4745
  245MPD1    H5 3724   2.237   1.957  13.932 -2.3786 -1.0200  0.0786
  245MPD1    N1 3725   2.264   1.501  13.796  0.0232  0.0710  0.8492
  245MPD1    H6 3726   2.299   1.496  13.892  1.3896 -0.7708  0.3127
  245MPD1    H7 3727   2.228   1.408  13.774 -1.5906  0.9949 -0.3526
  246MPD1     C 3728   3.580   3.073   9.747 -0.1311  0.0780 -0.4888
  246MPD1    C1 3729   3.530   2.989   9.645 -0.5624 -0.1990  0.2953
  246MPD1    C2 3730   3.438   3.043   9.551  0.0951  0.5845  0.1693
  246MPD1    C3 3731   3.389   3.169   9.570  0.3216  0.0718  0.0459
  246MPD1    C4 3732   3.438   3.252   9.669 -0.3418 -0.0118  0.1674
  246MPD1    C5 3733   3.530   3.203   9.751 -0.4782  0.0882  0.1482
  246MPD1     H 3734   3.418   2.989   9.459 -1.1895 -1.3088  1.5538
  246MPD1    H1 3735   3.416   3.357   9.684 -2.0143  0.2524 -3.9135
  246MPD1    H2 3736   3.653   3.051   9.824 -0.6712 -1.0001 -0.2953
  246MPD1    H3 3737   3.564   3.257   9.839  0.6334  2.6866 -1.8517
  246MPD1     N 3738   3.288   3.205   9.480 -0.3270 -0.1802  0.1313
  246MPD1    H5 3739   3.259   3.135   9.412  0.7211  0.1034 -0.6057
  246MPD1    N1 3740   3.584   2.860   9.626  0.3120 -0.1018  0.1838
  246MPD1    H6 3741   3.524   2.793   9.579  0.1390  3.1453 -4.1828
  246MPD1    H7 3742   3.630   2.816   9.705  2.1131  0.8814 -0.3202
  247MPD1     C 3743   0.815   1.382  16.454  0.0759 -0.3310 -0.2051
  247MPD1    C1 3744   0.942   1.334  16.441 -0.4121 -0.4566  0.7428
  247MPD1    C2 3745   1.047   1.419  16.418 -0.0414 -0.0650 -0.1390
  247MPD1    C3 3746   1.031   1.558  16.396 -0.4716  0.8562  0.2885
  247MPD1    C4 3747   0.899   1.603  16.409  0.6421 -0.1922 -0.5791
  247MPD1    C5 3748   0.801   1.518  16.448 -0.5365 -0.4263 -0.3605
  247MPD1     H 3749   1.152   1.393  16.426 -0.5014 -2.2858 -1.4631
  247MPD1    H1 3750   0.874   1.708  16.400  2.5609  0.5602  2.5514
  247MPD1    H2 3751   0.729   1.317  16.468 -1.1474  1.7400  1.8309
  247MPD1    H3 3752   0.704   1.566  16.458 -1.0790 -1.2969 -1.3595
  247MPD1     N 3753   1.136   1.646  16.351 -0.6302 -0.1167  0.8928
  247MPD1    H5 3754   1.094   1.730  16.313  3.7751  0.9870 -1.5946
  247MPD1    N1 3755   0.962   1.196  16.460 -0.1865 -0.7202  0.5623
  247MPD1    H6 3756   1.055   1.170  16.428  0.3080 -2.0485  3.0742
  247MPD1    H7 3757   0.893   1.147  16.404 -0.6399 -1.7793  2.0547
  248MPD1     C 3758   1.811   1.365   1.104  0.0563  0.5495  0.1898
  248MPD1    C1 3759   1.770   1.271   1.197  0.7173  0.0368 -0.4358
  248MPD1    C2 3760   1.655   1.196   1.171 -0.2567  0.7888  0.7689
  248MPD1    C3 3761   1.589   1.203   1.053  0.1292  0.4005 -0.1074
  248MPD1    C4 3762   1.621   1.307   0.963 -0.0414  0.0169  0.1434
  248MPD1    C5 3763   1.730   1.382   0.989  1.0391  0.1188  0.0077
  248MPD1     H 3764   1.619   1.122   1.242 -1.2317 -1.2570 -1.8406
  248MPD1    H1 3765   1.564   1.346   0.879  0.6030 -0.5603 -0.5656
  248MPD1    H2 3766   1.890   1.436   1.126  1.1082 -1.2716  2.3153
  248MPD1    H3 3767   1.766   1.458   0.920 -0.6285  1.2084  0.3372
  248MPD1     N 3768   1.473   1.120   1.046  0.3771 -0.1063 -0.2729
  248MPD1    H5 3769   1.448   1.052   1.117  0.7197 -1.3675 -1.3650
  248MPD1    N1 3770   1.833   1.274   1.322  0.1728 -0.4877 -0.8681
  248MPD1    H6 3771   1.929   1.307   1.326 -0.4146  0.7868  2.8084
  248MPD1    H7 3772   1.821   1.184   1.367 -0.6487 -0.3024 -0.7116
  249MPD1     C 3773   0.788   1.800   9.868  0.2935  0.4880  0.4883
  249MPD1    C1 3774   0.657   1.799   9.815 -0.0806 -0.0698 -0.0069
  249MPD1    C2 3775   0.562   1.703   9.854 -0.5057  0.0956 -0.4845
  249MPD1    C3 3776   0.596   1.605   9.950 -0.4963 -0.0053 -0.4364
  249MPD1    C4 3777   0.715   1.616  10.017 -1.1082  0.0523 -0.3012
  249MPD1    C5 3778   0.804   1.711   9.974 -0.3401 -0.3029 -0.3712
  249MPD1     H 3779   0.468   1.706   9.800 -1.7503  0.6384  1.7263
  249MPD1    H1 3780   0.737   1.546  10.096  2.7516  0.9289 -0.6277
  249MPD1    H2 3781   0.861   1.877   9.849 -0.0433  0.8144  0.5035
  249MPD1    H3 3782   0.898   1.710  10.028 -1.1625 -1.7237  1.0346
  249MPD1     N 3783   0.502   1.503   9.980  0.3254 -0.4000 -0.2138
  249MPD1    H5 3784   0.411   1.510   9.936 -0.1400  0.8019  0.9450
  249MPD1    N1 3785   0.618   1.893   9.719  0.0175  0.0232  0.2855
  249MPD1    H6 3786   0.687   1.964   9.697  0.2010 -0.9657 -2.3409
  249MPD1    H7 3787   0.522   1.925   9.728 -0.2512 -0.4754 -0.7011
  250MPD2     C 3788   0.801   0.510  13.221 -0.8971  0.4220 -0.9123
  250MPD2    C1 3789   0.745   0.595  13.310  0.1422 -0.0109 -0.2976
  250MPD2    C2 3790   0.634   0.563  13.380  0.0060  0.4781  0.4317
  250MPD2    C3 3791   0.580   0.441  13.342  0.2366  0.5372  0.2402
  250MPD2    C4 3792   0.640   0.355  13.255  0.5317  0.3094 -0.2068
  250MPD2    C5 3793   0.754   0.385  13.197  0.8541 -0.0817 -0.2335
  250MPD2     H 3794   0.579   0.633  13.442 -0.7036 -2.1390  2.7402
  250MPD2    H1 3795   0.598   0.261  13.220 -0.4908  0.9878 -0.7968
  250MPD2    H2 3796   0.882   0.556  13.166  2.0521 -3.0803  0.4562
  250MPD2    H3 3797   0.807   0.312  13.137 -1.1098 -1.8882  0.2279
  250MPD2     N 3798   0.456   0.401  13.395 -0.0320 -0.0680  0.6829
  250MPD2    H5 3799   0.413   0.322  13.348 -0.3685 -0.0071  0.8890
  250MPD2    N1 3800   0.797   0.726  13.317  0.1102 -1.1634  0.2715
  250MPD2    H7 3801   0.863   0.748  13.244  0.4996  2.5989  1.7418
  251TMC3    C1 3802   0.800   0.954  13.358 -0.1775  0.7168  0.0650
  251TMC3    C2 3803   0.723   1.065  13.393 -0.5469  0.2568 -0.0275
  251TMC3    C3 3804   0.769   1.193  13.361 -0.1708 -0.8139 -0.2387
  251TMC3    C4 3805   0.935   0.980  13.321 -0.4976 -0.1008 -0.4798
  251TMC3    C5 3806   0.973   1.109  13.283  0.0655 -0.3800  0.0299
  251TMC3    C6 3807   0.893   1.220  13.305  0.0076  0.4344 -0.8267
  251TMC3     C 3808   0.746   0.828  13.394 -0.2400  0.0587 -0.0511
  251TMC3     O 3809   0.685   0.828  13.497 -0.0111  0.0695 -0.8231
  251TMC3     H 3810   0.622   1.044  13.427  0.1461 -2.0305  0.5991
  251TMC3    H1 3811   1.005   0.899  13.305  0.0174  0.3388 -0.4737
  251TMC3    H2 3812   0.933   1.320  13.296  0.1934  0.5688  1.4458
  251TMC3    C7 3813   1.113   1.121  13.242 -0.0001  0.8736  0.1139
  251TMC3    C8 3814   0.703   1.298  13.432  0.5978 -0.0502  0.5582
  251TMC3    O1 3815   1.176   1.017  13.234  0.1311  0.9252 -0.0495
  251TMC3    O2 3816   0.641   1.258  13.531 -0.4101 -0.0677  0.1389
  252TMC3    C1 3817   0.969   1.326   9.938 -0.1427 -0.3106  0.2731
  252TMC3    C2 3818   1.053   1.405   9.871  0.6289  0.5989 -0.4200
  252TMC3    C3 3819   1.039   1.421   9.731 -0.1107  0.0369 -0.4196
  252TMC3    C4 3820   0.853   1.277   9.880  0.2365  0.3245  0.4195
  252TMC3    C5 3821   0.840   1.301   9.741  0.2253 -0.2073 -0.1615
  252TMC3    C6 3822   0.929   1.371   9.660  0.3408  0.3089  0.9541
  252TMC3     C 3823   1.014   1.283  10.072 -0.5301  0.0237 -0.2846
  252TMC3     O 3824   1.111   1.342  10.121 -0.8832 -0.0801  0.5561
  252TMC3     H 3825   1.142   1.437   9.923 -0.6392  1.3422  1.2739
  252TMC3    H1 3826   0.772   1.244   9.944 -0.4376  0.6459 -0.2650
  252TMC3    H2 3827   0.910   1.383   9.554  2.3226 -0.1130  0.5475
  252TMC3    C7 3828   0.702   1.296   9.684  0.1056 -0.0979 -0.1014
  252TMC3    C8 3829   1.071   1.552   9.685  0.2099  0.4508  0.0683
  252TMC3    O1 3830   0.673   1.381   9.599  0.3434 -0.0102  0.4491
  252TMC3    O2 3831   1.045   1.580   9.570  0.3856  0.1325 -0.0470
  253MPD2     C 3832   1.641   0.249  15.870  0.7022 -0.3909  0.5168
  253MPD2    C1 3833   1.524   0.313  15.898  0.1252 -0.1117 -0.5098
  253MPD2    C2 3834   1.507   0.374  16.015  0.2517  0.4037  0.3538
  253MPD2    C3 3835   1.596   0.359  16.117 -0.5401 -0.0117 -0.0043
  253MPD2    C4 3836   1.701   0.279  16.097  0.0553  0.7892  0.2094
  253MPD2    C5 3837   1.727   0.233  15.973  0.7825 -0.0122  0.1835
  253MPD2     H 3838   1.424   0.442  16.031  1.6729  1.7012  2.2458
  253MPD2    H1 3839   1.774   0.259  16.174  0.1082  1.0663  0.2329
  253MPD2    H2 3840   1.663   0.202  15.775  1.0584 -0.5737  0.6901
  253MPD2    H3 3841   1.824   0.185  15.964  0.2472 -0.9720 -0.3769
  253MPD2     N 3842   1.575   0.414  16.248  1.0075 -0.0231 -0.2239
  253MPD2    H5 3843   1.629   0.379  16.326 -1.6524  0.6464  1.9307
  253MPD2    N1 3844   1.406   0.317  15.815  0.4276  0.7376 -0.6196
  253MPD2    H7 3845   1.328   0.380  15.833  2.2759  2.0596  2.7660
  254TMC3    C1 3846   1.448   0.504  16.423  0.4284  0.8233 -0.1087
  254TMC3    C2 3847   1.399   0.621  16.463  0.1871  0.0437 -0.0001
  254TMC3    C3 3848   1.390   0.638  16.597  0.6259 -0.2081  0.0001
  254TMC3    C4 3849   1.499   0.406  16.512 -0.0436 -0.0916 -0.2668
  254TMC3    C5 3850   1.468   0.424  16.643  0.2270 -0.0088 -0.1307
  254TMC3    C6 3851   1.424   0.545  16.684  0.2361  0.0498  0.4576
  254TMC3     C 3852   1.470   0.495  16.285  0.1576  0.2744 -0.2937
  254TMC3     O 3853   1.388   0.560  16.221 -0.0329  0.0136 -0.3702
  254TMC3     H 3854   1.366   0.699  16.394  0.9274  0.9815  0.7005
  254TMC3    H1 3855   1.533   0.312  16.470  0.3786  0.5872 -1.4322
  254TMC3    H2 3856   1.409   0.564  16.789 -3.0691  0.4336 -0.0634
  254TMC3    C7 3857   1.492   0.312  16.727  0.3757  0.1860 -0.8804
  254TMC3    C8 3858   1.375   0.767  16.649 -0.0316 -0.4615 -0.1582
  254TMC3    O1 3859   1.514   0.208  16.667  0.2480  0.0826  0.4581
  254TMC3    O2 3860   1.330   0.779  16.766  0.3593 -0.1424 -0.0311
  255MPD2     C 3861   0.075   3.234  11.062 -0.1710  0.1411  0.3625
  255MPD2    C1 3862   0.029   3.228  10.932 -0.4021  0.1282  0.1863
  255MPD2    C2 3863   0.076   3.135  10.842 -0.7508  0.2698 -0.6012
  255MPD2    C3 3864   0.175   3.044  10.884  0.0081  0.1295  0.1433
  255MPD2    C4 3865   0.229   3.060  11.009  0.1922  0.3151  0.4610
  255MPD2    C5 3866   0.185   3.153  11.098 -0.1430 -0.8601 -0.2302
  255MPD2     H 3867   0.037   3.112  10.744  1.1810  2.7725 -1.9573
  255MPD2    H1 3868   0.300   2.984  11.041 -0.4053  0.2258  1.5563
  255MPD2    H2 3869   0.043   3.303  11.139 -1.0650 -0.9779  0.9933
  255MPD2    H3 3870   0.224   3.156  11.199  1.6435  2.2963 -1.0299
  255MPD2     N 3871   0.217   2.959  10.779  0.5800 -0.0970  0.6737
  255MPD2    H5 3872   0.167   2.988  10.696  0.9246 -0.0670  0.4749
  255MPD2    N1 3873   4.655   3.323  10.898 -0.6988  0.3720 -0.5123
  255MPD2    H7 3874   4.629   3.396  10.963  2.2942 -1.3989  2.6786
  256TMC3    C1 3875   4.495   3.435  10.769 -0.0271  0.4824  0.4508
  256TMC3    C2 3876   4.559   3.549  10.781  0.0411  0.2048 -0.6115
  256TMC3    C3 3877   4.551   3.642  10.684 -0.2204 -0.3245 -0.2663
  256TMC3    C4 3878   4.412   3.412  10.660 -0.1722  0.1504 -0.3742
  256TMC3    C5 3879   4.399   3.510  10.567 -0.4781 -0.0711 -0.4954
  256TMC3    C6 3880   4.472   3.624  10.571 -0.8030 -0.4218 -0.4913
  256TMC3     C 3881   4.581   3.320  10.784  0.2320 -0.5156 -0.2953
  256TMC3     O 3882   4.553   3.220  10.715 -0.1712  0.3004  0.1459
  256TMC3     H 3883   4.625   3.556  10.866  2.0268 -1.5585 -2.0021
  256TMC3    H1 3884   4.364   3.318  10.637  0.2269  0.3992 -2.2119
  256TMC3    H2 3885   4.473   3.701  10.495  1.6277 -0.0112 -0.0519
  256TMC3    C7 3886   4.322   3.477  10.450  0.4210  0.4677  0.5712
  256TMC3    C8 3887   4.650   3.748  10.686  0.3148 -0.6911 -0.3018
  256TMC3    O1 3888   4.256   3.375  10.445 -0.0291  0.3715  0.4121
  256TMC3    O2 3889   0.008   3.745  10.771 -0.1558  0.1616  0.1376
  257MPD2     C 3890   4.092   0.519  13.516  0.4127  0.0171  0.4843
  257MPD2    C1 3891   4.000   0.419  13.500  0.0712 -0.5869  1.2613
  257MPD2    C2 3892   4.021   0.303  13.569 -0.1131  0.6457  0.4654
  257MPD2    C3 3893   4.129   0.299  13.654 -0.3966 -0.8449 -0.6778
  257MPD2    C4 3894   4.210   0.403  13.673 -0.7773  0.0797 -0.2911
  257MPD2    C5 3895   4.194   0.515  13.605  0.1989  0.0776 -0.2796
  257MPD2     H 3896   3.959   0.215  13.558 -0.6868  1.2724 -1.4323
  257MPD2    H1 3897   4.294   0.401  13.742 -0.1460  3.5057 -0.9420
  257MPD2    H2 3898   4.095   0.602  13.446  2.2521  0.9016  1.5963
  257MPD2    H3 3899   4.270   0.591  13.615 -1.4346  1.8483 -1.3926
  257MPD2     N 3900   4.157   0.175  13.722  0.9551  0.4330  0.0176
  257MPD2    H5 3901   4.114   0.092  13.681  0.1082  0.4909  0.8036
  257MPD2    N1 3902   3.900   0.441  13.399  0.1333  0.1719  1.0819
  257MPD2    H7 3903   3.897   0.529  13.348  1.2611 -1.0472 -1.0897
  258TMC3    C1 3904   4.255   0.021  13.879  0.3615  1.0860 -0.2273
  258TMC3    C2 3905   4.281   4.659  13.776  0.3123 -0.2902  0.2481
  258TMC3    C3 3906   4.338   4.538  13.806  0.6602 -1.2745 -0.7243
  258TMC3    C4 3907   4.305   4.721  14.005  1.1327 -0.8865  0.7888
  258TMC3    C5 3908   4.344   4.596  14.033  0.5321 -0.0717 -0.1412
  258TMC3    C6 3909   4.359   4.500  13.934 -0.3474 -0.8022 -0.2121
  258TMC3     C 3910   4.231   0.161  13.843 -0.3058  0.4468  0.5771
  258TMC3     O 3911   4.263   0.245  13.928  0.5623 -0.1378  0.3038
  258TMC3     H 3912   4.237   4.686  13.680 -2.3710  1.2508  1.9196
  258TMC3    H1 3913   4.304   0.071  14.082  3.7142  0.2526 -0.3194
  258TMC3    H2 3914   4.379   4.401  13.973 -0.6500 -1.1748 -1.0166
  258TMC3    C7 3915   4.348   4.558  14.177 -0.3781  0.2499  0.3967
  258TMC3    C8 3916   4.385   4.447  13.701 -0.1102  0.2548 -0.5581
  258TMC3    O1 3917   4.270   4.615  14.249  0.1056  0.4899 -0.0921
  258TMC3    O2 3918   4.421   4.337  13.735 -0.4848  0.2318  0.5913
  259MPD2     C 3919   2.296   1.891   0.551  0.1219 -0.3979 -0.0118
  259MPD2    C1 3920   2.342   1.841   0.678  0.5168  0.1239 -0.8237
  259MPD2    C2 3921   2.469   1.796   0.697 -0.6037 -0.1596 -0.1077
  259MPD2    C3 3922   2.557   1.803   0.592 -0.6490 -0.0314 -0.0362
  259MPD2    C4 3923   2.518   1.849   0.473 -0.1304 -0.0190 -0.7266
  259MPD2    C5 3924   2.389   1.891   0.449 -0.7640 -0.0164  0.2678
  259MPD2     H 3925   2.503   1.761   0.794  1.3243 -1.4364 -1.2420
  259MPD2    H1 3926   2.583   1.841   0.388 -0.0090  2.2088 -0.8567
  259MPD2    H2 3927   2.200   1.938   0.535  0.3911  0.3689  0.5780
  259MPD2    H3 3928   2.365   1.929   0.351 -1.1089 -0.4390  0.1877
  259MPD2     N 3929   2.688   1.767   0.617  0.5451 -0.2086  0.0866
  259MPD2    H5 3930   2.722   1.746   0.710 -0.3476  0.9412  0.6745
  259MPD2    N1 3931   2.259   1.876   0.783 -0.2367 -0.2327  0.4302
  259MPD2    H7 3932   2.171   1.922   0.768 -0.0584  0.3421  1.1308
  260TMC3    C1 3933   2.914   1.734   0.601 -0.2189  0.2297  0.5171
  260TMC3    C2 3934   3.027   1.809   0.588 -0.0963  0.5190  0.5933
  260TMC3    C3 3935   3.137   1.758   0.634 -0.9040  0.0092 -0.2709
  260TMC3    C4 3936   2.901   1.624   0.681 -0.1719  0.0606  0.9633
  260TMC3    C5 3937   3.025   1.566   0.704 -0.3077 -0.2494  0.4655
  260TMC3    C6 3938   3.143   1.634   0.690 -0.0228  0.2844  0.1013
  260TMC3     C 3939   2.797   1.790   0.539 -0.2986 -1.2427 -0.0000
  260TMC3     O 3940   2.810   1.851   0.436  0.2274  0.9004  0.2354
  260TMC3     H 3941   3.003   1.910   0.557 -1.0836 -0.3113 -1.3756
  260TMC3    H1 3942   2.804   1.574   0.680  0.4350 -1.1263  1.1175
  260TMC3    H2 3943   3.236   1.585   0.717 -1.2194 -1.6504  0.7387
  260TMC3    C7 3944   3.029   1.424   0.748 -0.1456 -0.2285 -0.3906
  260TMC3    C8 3945   3.241   1.854   0.657  0.2051  0.4419  0.2309
  260TMC3    O1 3946   2.919   1.371   0.777 -0.0587 -0.0331 -0.2988
  260TMC3    O2 3947   3.236   1.956   0.592  0.2240 -0.2858 -0.9462
  261MPD2     C 3948   4.679   0.599  12.915 -0.1300 -0.5065  0.1593
  261MPD2    C1 3949   0.025   0.486  12.934  1.0687  0.8447 -0.6778
  261MPD2    C2 3950   0.077   0.424  12.821 -0.3858 -0.0272 -0.0256
  261MPD2    C3 3951   0.065   0.475  12.696  0.1017  0.6035 -0.0742
  261MPD2    C4 3952   4.709   0.589  12.680  0.3965  0.1923 -0.1668
  261MPD2    C5 3953   4.656   0.650  12.793  0.5693  0.1116  0.2715
  261MPD2     H 3954   0.135   0.333  12.834  0.2745  0.5748  1.2872
  261MPD2    H1 3955   4.679   0.636  12.588 -0.2814  0.5292  0.2323
  261MPD2    H2 3956   4.642   0.658  12.998 -1.2035  1.6914 -1.8988
  261MPD2    H3 3957   4.594   0.738  12.780  0.3747 -0.1217 -0.3849
  261MPD2     N 3958   0.133   0.428  12.587  0.0226 -0.7966  0.0619
  261MPD2    H5 3959   0.187   0.348  12.619  1.6969  1.0282  1.7681
  261MPD2    N1 3960   0.053   0.422  13.055 -0.0499 -0.0498 -0.2258
  261MPD2    H7 3961   0.099   0.331  13.060 -0.4610 -0.0674  3.8559
  262TMC3    C1 3962   0.210   0.386  12.371  0.2692  0.2536 -0.0155
  262TMC3    C2 3963   0.197   0.425  12.241 -0.4223 -0.3102  0.6319
  262TMC3    C3 3964   0.311   0.434  12.162  0.9083 -0.7634  0.3129
  262TMC3    C4 3965   0.338   0.373  12.425  0.2854  0.2544 -0.5323
  262TMC3    C5 3966   0.452   0.398  12.348  0.7905  0.2045  0.0989
  262TMC3    C6 3967   0.439   0.430  12.218 -0.3915  0.2148  0.7727
  262TMC3     C 3968   0.112   0.457  12.454 -0.0523 -0.1181 -0.5805
  262TMC3     O 3969   0.028   0.525  12.403  0.4309 -0.0093 -0.9381
  262TMC3     H 3970   0.105   0.457  12.195  0.1491  0.8155  0.2668
  262TMC3    H1 3971   0.361   0.350  12.528  2.1028 -0.2143 -1.0277
  262TMC3    H2 3972   0.518   0.454  12.147 -0.9303  3.4810  1.2612
  262TMC3    C7 3973   0.553   0.469  12.418  0.6110 -0.2001 -0.4171
  262TMC3    C8 3974   0.295   0.532  12.057 -0.2575  0.4260  0.8110
  262TMC3    O1 3975   0.567   0.442  12.536  0.3169  0.2522 -0.3012
  262TMC3    O2 3976   0.366   0.631  12.062 -0.5652  0.1365  0.1641
  263MPD2     C 3977   0.986   4.453  11.486  1.0081 -0.5493  1.0722
  263MPD2    C1 3978   1.052   4.552  11.556 -0.8471 -0.1392 -0.2400
  263MPD2    C2 3979   1.133   4.643  11.486 -0.2284  0.3713  0.1268
  263MPD2    C3 3980   1.152   4.629  11.347 -0.7339  0.8195  0.3207
  263MPD2    C4 3981   1.077   4.532  11.278  0.2389 -0.1326  0.4770
  263MPD2    C5 3982   0.989   4.444  11.348  0.2190 -0.3477 -0.2445
  263MPD2     H 3983   1.167   0.004  11.541  1.3719 -0.0860 -0.1258
  263MPD2    H1 3984   1.089   4.514  11.171  1.5489  2.0996  0.2323
  263MPD2    H2 3985   0.919   4.389  11.542 -1.1105 -0.9139 -1.8575
  263MPD2    H3 3986   0.923   4.380  11.291 -0.4252  0.0539  0.0408
  263MPD2     N 3987   1.228   0.002  11.274  0.0477  0.4839 -0.6313
  263MPD2    H5 3988   1.265   0.077  11.331  1.2577 -1.4514  1.1516
  263MPD2    N1 3989   1.047   4.548  11.700 -0.7027 -0.0914 -0.0406
  263MPD2    H7 3990   0.987   4.472  11.731  0.3738 -0.5573  0.9070
  264TMC3    C1 3991   1.382   0.070  11.107 -0.4732  0.3545 -0.1246
  264TMC3    C2 3992   1.355   0.202  11.133  1.0567 -0.1984  0.6138
  264TMC3    C3 3993   1.450   0.296  11.104  0.0963 -0.8249 -0.2479
  264TMC3    C4 3994   1.493   0.028  11.040  0.3792  0.2344  0.3941
  264TMC3    C5 3995   1.587   0.129  11.010 -0.4189 -0.3399 -0.8044
  264TMC3    C6 3996   1.565   0.265  11.040  1.2251 -0.4276  0.4621
  264TMC3     C 3997   1.287   4.698  11.152  0.1204 -0.6266 -0.0658
  264TMC3     O 3998   1.275   4.600  11.078  0.2932  0.3606  0.4270
  264TMC3     H 3999   1.256   0.228  11.171  0.3550 -0.4596 -1.0594
  264TMC3    H1 4000   1.510   4.648  11.022 -0.8529  0.0919  0.1138
  264TMC3    H2 4001   1.647   0.336  11.042 -1.0672  2.1918  1.3182
  264TMC3    C7 4002   1.723   0.086  10.977 -0.1872 -0.3013  0.6185
  264TMC3    C8 4003   1.408   0.430  11.132 -0.3269 -0.3447 -0.0114
  264TMC3    O1 4004   1.759   4.698  11.002 -0.4241  0.1138  0.3273
  264TMC3    O2 4005   1.478   0.515  11.082  0.2674 -0.1590  0.4311
  265MPD2     C 4006   3.370   0.008  15.609  0.5066  0.1714 -0.1785
  265MPD2    C1 4007   3.390   0.130  15.562  0.4068  0.1956  0.0463
  265MPD2    C2 4008   3.436   0.144  15.431 -0.0061 -0.0986 -0.7965
  265MPD2    C3 4009   3.471   0.039  15.350  0.6367 -0.8862  0.3542
  265MPD2    C4 4010   3.444   4.636  15.399  0.0746  0.1881 -0.3308
  265MPD2    C5 4011   3.387   4.627  15.521  0.1546 -0.1554 -0.0218
  265MPD2     H 4012   3.466   0.245  15.403  0.3607  0.0860  0.2530
  265MPD2    H1 4013   3.465   4.546  15.343  0.5713  0.5133 -0.6725
  265MPD2    H2 4014   3.316   4.722  15.702  3.3272 -1.4284  1.2269
  265MPD2    H3 4015   3.356   4.529  15.556 -0.5262 -1.3680 -4.0899
  265MPD2     N 4016   3.521   0.046  15.220 -0.4664  0.5299  0.4594
  265MPD2    H5 4017   3.533   4.688  15.165  1.3999 -0.1637  1.8980
  265MPD2    N1 4018   3.363   0.247  15.633  0.0975  0.3505  0.3755
  265MPD2    H7 4019   3.345   0.333  15.582 -1.8628  0.4156  1.1798
  266TMC3    C1 4020   3.311   0.379  15.825 -0.1177  0.5455  0.1136
  266TMC3    C2 4021   3.358   0.399  15.950  0.6534  0.5133 -0.5900
  266TMC3    C3 4022   3.360   0.524  16.005  0.5122  0.4653  0.2113
  266TMC3    C4 4023   3.266   0.485  15.754  0.7779 -0.3431 -0.4571
  266TMC3    C5 4024   3.275   0.614  15.810  0.5631 -0.4764  0.0492
  266TMC3    C6 4025   3.332   0.632  15.931  0.4035 -0.1150 -0.6546
  266TMC3     C 4026   3.345   0.253  15.771 -0.2238 -0.1104 -0.7919
  266TMC3     O 4027   3.375   0.158  15.848  0.1992  0.4022 -0.1325
  266TMC3     H 4028   3.395   0.314  16.006 -1.7155  0.4750  0.9076
  266TMC3    H1 4029   3.242   0.479  15.648 -1.5368 -0.3314  0.0480
  266TMC3    H2 4030   3.330   0.730  15.978 -0.6886 -0.5386  0.1755
  266TMC3    C7 4031   3.222   0.725  15.732 -0.0869  0.3698  0.0180
  266TMC3    C8 4032   3.441   0.529  16.127  0.5730  0.0289 -0.2805
  266TMC3    O1 4033   3.132   0.697  15.651  0.0337  0.2850 -0.4594
  266TMC3    O2 4034   3.502   0.428  16.163  0.4535  0.2571  0.2346
  267MPD2     C 4035   0.214   2.056   0.163  0.3682 -0.0232  0.4557
  267MPD2    C1 4036   0.292   2.154   0.095  0.0525  0.0370  0.0547
  267MPD2    C2 4037   0.349   2.115  17.676  0.6036  0.5217 -0.7722
  267MPD2    C3 4038   0.311   1.994  17.620  0.1327  0.2498  0.5753
  267MPD2    C4 4039   0.224   1.909  17.683 -0.8325  0.6776 -0.2853
  267MPD2    C5 4040   0.180   1.940   0.102  0.7725 -0.2198 -0.1788
  267MPD2     H 4041   0.422   2.182  17.633  0.8313  1.1472  0.5743
  267MPD2    H1 4042   0.194   1.812  17.647 -2.1762  1.0291 -0.1138
  267MPD2    H2 4043   0.172   2.078   0.261 -0.8606 -2.2209  0.4104
  267MPD2    H3 4044   0.113   1.890   0.172  2.5373  0.9368  2.3220
  267MPD2     N 4045   0.361   1.948  17.495 -0.0594  0.2323  0.2392
  267MPD2    H5 4046   0.312   1.867  17.460  0.0901  0.6615 -0.9559
  267MPD2    N1 4047   0.321   2.267   0.174 -0.1772  0.3140  0.2628
  267MPD2    H7 4048   0.276   2.287   0.263  0.6653  2.1043  0.2995
  268TMC3    C1 4049   0.417   2.467   0.237  0.2185  0.6652  0.2484
  268TMC3    C2 4050   0.488   2.580   0.190  0.8456  0.3575  0.5960
  268TMC3    C3 4051   0.460   2.697   0.260  0.5137  0.2998  0.5007
  268TMC3    C4 4052   0.329   2.469   0.341 -0.4035 -0.1101 -0.3083
  268TMC3    C5 4053   0.306   2.587   0.405  0.5672 -0.7853  0.1946
  268TMC3    C6 4054   0.366   2.701   0.364 -0.0459 -0.4440  0.5809
  268TMC3     C 4055   0.408   2.367   0.136 -0.1243 -0.5570 -0.1922
  268TMC3     O 4056   0.471   2.377   0.034 -0.3064 -0.0177  0.0231
  268TMC3     H 4057   0.553   2.559   0.106  1.2315  0.8909  0.7650
  268TMC3    H1 4058   0.306   2.373   0.386 -1.6337  0.8299  1.0705
  268TMC3    H2 4059   0.363   2.786   0.431 -2.0996 -1.0912  1.3107
  268TMC3    C7 4060   0.268   2.574   0.544  0.4412 -0.3192 -0.4643
  268TMC3    C8 4061   0.524   2.819   0.225  0.4235 -0.2210 -0.0141
  268TMC3    O1 4062   0.306   2.478   0.610  0.3040 -0.2310 -0.3088
  268TMC3    O2 4063   0.488   2.910   0.290 -0.1276  0.1770 -0.3316
  269MPD2     C 4064   1.374   0.937  16.112  0.6569  0.6246  0.2497
  269MPD2    C1 4065   1.238   0.948  16.144  0.4688  0.5779  0.6246
  269MPD2    C2 4066   1.179   1.077  16.140 -0.6980 -0.4321 -0.1345
  269MPD2    C3 4067   1.257   1.186  16.100 -0.4598  0.3746 -0.2700
  269MPD2    C4 4068   1.397   1.172  16.079  0.1082 -0.2392 -0.3718
  269MPD2    C5 4069   1.452   1.045  16.087 -0.1032  0.8112 -1.1078
  269MPD2     H 4070   1.073   1.100  16.142 -0.8604 -1.0440 -1.5083
  269MPD2    H1 4071   1.464   1.255  16.061 -0.9311  0.6978  0.1050
  269MPD2    H2 4072   1.420   0.841  16.132 -1.4534 -0.5958 -0.7540
  269MPD2    H3 4073   1.558   1.041  16.065  0.4468  0.9800  1.5168
  269MPD2     N 4074   1.184   1.306  16.071 -0.2614  0.6360  0.1045
  269MPD2    H5 4075   1.082   1.308  16.065 -0.1762  0.7178 -1.3531
  269MPD2    N1 4076   1.157   0.831  16.165 -0.3356 -0.1405  0.2232
  269MPD2    H7 4077   1.200   0.739  16.168  1.9136  0.9310  0.5053
  270TMC3    C1 4078   0.964   0.689  16.156 -0.0206  0.9220 -0.5453
  270TMC3    C2 4079   0.829   0.685  16.134 -0.2674 -0.5216 -0.3001
  270TMC3    C3 4080   0.777   0.577  16.067 -0.5548 -0.1391  0.5061
  270TMC3    C4 4081   1.043   0.584  16.135 -0.1630  0.2757  0.7144
  270TMC3    C5 4082   0.989   0.469  16.081  0.3687  1.5492 -0.5350
  270TMC3    C6 4083   0.858   0.469  16.035  0.1453  0.9308 -0.2676
  270TMC3     C 4084   1.019   0.827  16.166 -0.3082  0.4583  0.0053
  270TMC3     O 4085   0.945   0.919  16.184 -0.3444 -0.1753  0.3106
  270TMC3     H 4086   0.765   0.764  16.172  1.0870  0.0480  0.8081
  270TMC3    H1 4087   1.150   0.582  16.155 -0.1957 -0.9878  0.7665
  270TMC3    H2 4088   0.805   0.376  16.019  1.1014  0.0759  1.4876
  270TMC3    C7 4089   1.073   0.343  16.070 -0.7157  0.7240  0.3325
  270TMC3    C8 4090   0.649   0.583  16.007  0.1071 -0.7810 -0.1902
  270TMC3    O1 4091   1.190   0.354  16.106  0.0017 -0.1280  0.2431
  270TMC3    O2 4092   0.576   0.669  16.049  0.1691 -0.6854 -0.1746
  271MPD2     C 4093   0.192   0.387  14.171 -0.5839  0.0276 -0.1947
  271MPD2    C1 4094   0.123   0.437  14.283 -0.2451  0.0939 -0.0293
  271MPD2    C2 4095   0.007   0.519  14.277 -0.1597  0.2574  0.0647
  271MPD2    C3 4096   4.691   0.556  14.151 -0.2345  0.4336 -0.3807
  271MPD2    C4 4097   0.036   0.507  14.045 -0.5115  0.3726  0.2611
  271MPD2    C5 4098   0.154   0.434  14.056  1.1206 -0.1460 -0.3402
  271MPD2     H 4099   4.675   0.549  14.363  0.0771  0.3389  0.1948
  271MPD2    H1 4100   0.018   0.539  13.943 -1.6273  0.7087  0.5663
  271MPD2    H2 4101   0.279   0.323  14.178 -0.6128 -0.2023 -1.9750
  271MPD2    H3 4102   0.205   0.401  13.966  1.1005  1.6804 -1.0323
  271MPD2     N 4103   4.568   0.631  14.134  0.4257 -0.6036  0.7798
  271MPD2    H5 4104   4.513   0.664  14.213  1.1276  0.7162  0.7077
  271MPD2    N1 4105   0.160   0.409  14.419  0.3030  0.5692  0.5381
  271MPD2    H7 4106   0.133   0.473  14.492 -2.5325 -0.4612  0.3793
  272TMC3    C1 4107   0.279   0.296  14.591  0.0894 -0.0275 -0.4755
  272TMC3    C2 4108   0.396   0.232  14.617  0.2229  0.1262 -0.6569
  272TMC3    C3 4109   0.433   0.181  14.733  0.6942 -0.4573  0.4729
  272TMC3    C4 4110   0.178   0.286  14.687 -0.5766  0.6872 -0.0584
  272TMC3    C5 4111   0.217   0.233  14.809  0.2345 -0.6078  0.3887
  272TMC3    C6 4112   0.338   0.173  14.835 -0.3196  0.8389  0.1594
  272TMC3     C 4113   0.247   0.308  14.452  0.5286 -0.2045  0.0189
  272TMC3     O 4114   0.297   0.220  14.378  0.3625 -0.0560 -0.1665
  272TMC3     H 4115   0.461   0.218  14.531  0.4881 -0.2689 -0.3942
  272TMC3    H1 4116   0.079   0.326  14.667 -0.7424  1.4006  2.1880
  272TMC3    H2 4117   0.361   0.125  14.930 -0.4896 -1.3289 -0.8887
  272TMC3    C7 4118   0.150   0.285  14.927  0.3477 -0.3441 -0.3007
  272TMC3    C8 4119   0.550   0.098  14.731 -0.4491 -0.4925 -0.0167
  272TMC3    O1 4120   0.030   0.263  14.944  0.1927  0.2552 -0.1319
  272TMC3    O2 4121   0.611   0.086  14.624  0.3456 -0.0633 -0.6819
  273MPD2     C 4122   1.990   3.229  12.223  0.0041  0.2567  0.8455
  273MPD2    C1 4123   2.011   3.359  12.172  0.0879 -0.2807 -0.1188
  273MPD2    C2 4124   1.945   3.393  12.058 -0.5259  0.1101  0.5622
  273MPD2    C3 4125   1.847   3.309  12.006 -0.0465  0.1626  0.3968
  273MPD2    C4 4126   1.820   3.184  12.060 -0.2431 -0.5804  0.2882
  273MPD2    C5 4127   1.895   3.149  12.168  0.1765 -0.2505  0.0034
  273MPD2     H 4128   1.974   3.477  11.997  0.1823 -0.4496  0.1331
  273MPD2    H1 4129   1.739   3.117  12.031  0.3283 -0.5637 -1.3624
  273MPD2    H2 4130   2.024   3.191  12.318  0.5378 -0.7135  0.2685
  273MPD2    H3 4131   1.881   3.055  12.219  1.5150  0.3455  1.4815
  273MPD2     N 4132   1.762   3.367  11.908 -0.1823 -0.4397  0.2241
  273MPD2    H5 4133   1.763   3.468  11.910  0.0845 -0.3659 -3.2344
  273MPD2    N1 4134   2.103   3.445  12.236 -0.0864 -0.5889 -0.4723
  273MPD2    H7 4135   2.118   3.428  12.335 -1.3741 -1.0218 -0.3449
  274TMC3    C1 4136   1.560   3.398  11.804  0.2726  0.1668  0.7985
  274TMC3    C2 4137   1.477   3.359  11.706 -0.5142  0.6541 -0.5281
  274TMC3    C3 4138   1.382   3.448  11.653  0.1560  0.0520  0.1291
  274TMC3    C4 4139   1.550   3.526  11.858 -0.4051 -0.0056 -0.3598
  274TMC3    C5 4140   1.461   3.613  11.803  0.1857 -0.3793 -0.3750
  274TMC3    C6 4141   1.381   3.576  11.699  0.2499  0.3676  0.7123
  274TMC3     C 4142   1.654   3.301  11.857  1.0079  1.2264 -0.8622
  274TMC3     O 4143   1.650   3.186  11.815 -0.1232 -0.1597 -0.5508
  274TMC3     H 4144   1.478   3.257  11.668  0.7945  1.4905 -2.7279
  274TMC3    H1 4145   1.601   3.551  11.951  0.2989 -0.0759 -0.7310
  274TMC3    H2 4146   1.319   3.651  11.653 -0.6212  0.4781  2.0733
  274TMC3    C7 4147   1.454   3.753  11.845 -0.4655  0.0100 -0.4142
  274TMC3    C8 4148   1.285   3.414  11.550 -0.5901 -0.5938 -0.2960
  274TMC3    O1 4149   1.351   3.816  11.821  0.7529  0.4457  0.1856
  274TMC3    O2 4150   1.306   3.308  11.489 -0.3792  0.2626 -0.5211
  275MPD2     C 4151   1.830   0.657  14.631 -0.6431 -0.1792  0.0627
  275MPD2    C1 4152   1.769   0.767  14.694 -1.2769 -0.0498 -0.6117
  275MPD2    C2 4153   1.655   0.828  14.640 -0.3471 -0.6260 -0.2538
  275MPD2    C3 4154   1.588   0.750  14.545 -0.2408  0.6327  0.4299
  275MPD2    C4 4155   1.652   0.648  14.484 -0.0091 -0.3786 -0.1338
  275MPD2    C5 4156   1.764   0.604  14.528 -0.2370 -0.6025  0.4013
  275MPD2     H 4157   1.603   0.911  14.686 -1.0352 -0.7783 -0.7476
  275MPD2    H1 4158   1.598   0.600  14.403 -1.3204 -0.1604  0.6084
  275MPD2    H2 4159   1.913   0.609  14.681  0.2227 -0.1710 -1.3683
  275MPD2    H3 4160   1.811   0.525  14.472 -0.0460  0.0550 -0.3701
  275MPD2     N 4161   1.452   0.774  14.511 -0.4627  0.6575 -0.5937
  275MPD2    H5 4162   1.418   0.710  14.441  1.0568 -0.4590 -0.3162
  275MPD2    N1 4163   1.804   0.822  14.818 -0.2120 -0.5499 -0.1039
  275MPD2    H7 4164   1.748   0.895  14.862  0.6866 -0.3085  0.6427
  276TMC3    C1 4165   1.922   0.848  15.018  0.2262  0.1584 -0.2178
  276TMC3    C2 4166   1.803   0.851  15.080  0.5142 -0.2142  0.1188
  276TMC3    C3 4167   1.799   0.913  15.201  0.5356 -0.3594 -0.6620
  276TMC3    C4 4168   2.030   0.925  15.053  0.0601  0.6217  0.5331
  276TMC3    C5 4169   2.017   0.979  15.177 -0.2414 -0.1989  0.1831
  276TMC3    C6 4170   1.906   0.978  15.252  0.3136  0.6767  0.1659
  276TMC3     C 4171   1.922   0.791  14.886  0.0928 -0.2625  0.0884
  276TMC3     O 4172   2.028   0.748  14.840 -0.1410  0.0097 -0.1605
  276TMC3     H 4173   1.713   0.799  15.049  0.7836  0.1069 -1.1785
  276TMC3    H1 4174   2.117   0.928  14.987  1.2171 -1.6151  1.9530
  276TMC3    H2 4175   1.897   1.015  15.353 -0.3740  0.5851  0.1353
  276TMC3    C7 4176   2.115   1.079  15.224  0.0203  0.4132 -0.1219
  276TMC3    C8 4177   1.669   0.937  15.260 -0.2766  0.8911  0.2525
  276TMC3    O1 4178   2.105   1.129  15.337  0.0522 -0.0376 -0.0086
  276TMC3    O2 4179   1.660   1.031  15.335  0.8076 -0.0390 -0.0246
  277MPD2     C 4180   3.543   0.618  13.499 -0.1112  0.7303  0.8825
  277MPD2    C1 4181   3.412   0.591  13.462  0.5032 -0.0672  0.4648
  277MPD2    C2 4182   3.344   0.473  13.492  0.9032 -0.5100 -0.3559
  277MPD2    C3 4183   3.406   0.396  13.586  0.4248 -0.6430 -0.0148
  277MPD2    C4 4184   3.533   0.419  13.627  1.1247 -0.0194 -0.8871
  277MPD2    C5 4185   3.606   0.531  13.583 -0.1466  0.0581  0.1567
  277MPD2     H 4186   3.244   0.459  13.453 -0.1671 -0.3940  2.3210
  277MPD2    H1 4187   3.585   0.352  13.695 -0.1696  1.8215  1.9287
  277MPD2    H2 4188   3.598   0.702  13.460 -0.1741 -0.6246 -2.1201
  277MPD2    H3 4189   3.701   0.542  13.634 -0.1395 -0.5294  0.2702
  277MPD2     N 4190   3.317   0.299  13.645  0.5918  0.1878 -0.5737
  277MPD2    H5 4191   3.225   0.290  13.603  1.3117 -0.7907 -1.9233
  277MPD2    N1 4192   3.350   0.686  13.375 -0.2609 -0.0593  0.2301
  277MPD2    H7 4193   3.414   0.760  13.350 -0.7992  0.4794  0.4506
  278TMC3    C1 4194   3.217   0.166  13.796  0.7329 -0.0267  0.8566
  278TMC3    C2 4195   3.187   0.055  13.722  0.4337 -0.0197 -0.0142
  278TMC3    C3 4196   3.100   4.693  13.785 -0.8590 -0.6584 -0.2249
  278TMC3    C4 4197   3.164   0.191  13.918 -0.2328 -0.0450 -0.1664
  278TMC3    C5 4198   3.079   0.095  13.974  0.1591 -0.7806  0.7154
  278TMC3    C6 4199   3.035   4.711  13.906 -1.0971 -0.0570 -0.4813
  278TMC3     C 4200   3.336   0.238  13.762 -0.6567  0.7088 -0.1503
  278TMC3     O 4201   3.436   0.249  13.836  0.0209  0.2141  0.6800
  278TMC3     H 4202   3.242   0.029  13.632 -2.1438 -1.8343 -1.0955
  278TMC3    H1 4203   3.194   0.280  13.972  3.8455 -2.7651  2.1210
  278TMC3    H2 4204   3.002   4.626  13.965  0.6124 -0.0870  0.4610
  278TMC3    C7 4205   3.010   0.133  14.089  0.6477 -0.2113 -1.0590
  278TMC3    C8 4206   3.099   4.560  13.724  0.4468  0.0906  1.1162
  278TMC3    O1 4207   3.047   0.238  14.142 -0.2090 -0.0334 -0.7094
  278TMC3    O2 4208   3.182   4.534  13.642 -0.0679 -0.0844 -0.0295
  279MPD2     C 4209   2.481   0.721   0.871  0.3920 -0.1034 -0.0864
  279MPD2    C1 4210   2.396   0.814   0.820  0.6118 -0.2323 -0.0815
  279MPD2    C2 4211   2.398   0.838   0.683 -0.0495  0.0922  0.0729
  279MPD2    C3 4212   2.486   0.769   0.598 -0.5505 -0.8093 -0.4285
  279MPD2    C4 4213   2.591   0.694   0.653  0.9004 -0.8123  0.2600
  279MPD2    C5 4214   2.580   0.667   0.790  0.5949 -0.4099 -0.5889
  279MPD2     H 4215   2.326   0.911   0.649  0.2684 -0.1801 -1.2006
  279MPD2    H1 4216   2.670   0.642   0.600 -0.5263 -1.0004 -1.6903
  279MPD2    H2 4217   2.492   0.713   0.979 -0.7383 -1.6439 -0.0843
  279MPD2    H3 4218   2.665   0.621   0.838 -1.3007 -1.6789  1.4962
  279MPD2     N 4219   2.470   0.777   0.463 -0.0231 -0.3633 -0.2674
  279MPD2    H5 4220   2.548   0.753   0.402  0.1204  1.9100 -0.9959
  279MPD2    N1 4221   2.306   0.887   0.889  0.5188 -0.6902  0.4222
  279MPD2    H7 4222   2.256   0.968   0.854  2.5567  0.3390 -0.1012
  280TMC3    C1 4223   2.124   0.917   1.034 -0.0072  0.8646  0.2043
  280TMC3    C2 4224   2.028   0.846   1.099  0.1553  0.2484  0.3481
  280TMC3    C3 4225   1.898   0.871   1.065 -0.1057  1.2141  0.2894
  280TMC3    C4 4226   2.099   1.020   0.947  0.9175 -0.1117 -0.4985
  280TMC3    C5 4227   1.967   1.046   0.921  0.6555  0.5218 -0.3736
  280TMC3    C6 4228   1.868   0.977   0.984 -0.6180 -0.4081 -0.1809
  280TMC3     C 4229   2.248   0.843   1.004  0.0255 -0.4922 -0.5612
  280TMC3     O 4230   2.265   0.736   1.067 -0.0681  0.8515 -0.4130
  280TMC3     H 4231   2.053   0.763   1.165 -3.3434 -1.5574 -0.5440
  280TMC3    H1 4232   2.181   1.085   0.918  1.0630 -0.2980 -0.5001
  280TMC3    H2 4233   1.767   1.013   0.965 -0.5840 -0.1068  0.2275
  280TMC3    C7 4234   1.936   1.158   0.832  0.0354  0.1149 -0.1402
  280TMC3    C8 4235   1.790   0.795   1.130  0.3999  1.2949 -0.5826
  280TMC3    O1 4236   2.029   1.239   0.832  0.5155 -0.4744  0.0924
  280TMC3    O2 4237   1.677   0.837   1.144 -0.0748 -0.3775 -0.0183
  281TMC3    C1 4238   1.466   0.888  13.525  0.0206 -0.2391  0.2410
  281TMC3    C2 4239   1.514   0.995  13.453 -0.6484  0.2223 -0.2234
  281TMC3    C3 4240   1.581   0.971  13.337 -0.2940 -0.2392  0.2794
  281TMC3    C4 4241   1.474   0.766  13.483  0.1181 -0.3160  0.0823
  281TMC3    C5 4242   1.532   0.739  13.364 -0.6002  0.0580  0.6186
  281TMC3    C6 4243   1.596   0.842  13.293 -0.0030  0.2468 -0.6639
  281TMC3     C 4244   1.343   0.905  13.602  0.4365  0.1835 -0.3971
  281TMC3     O 4245   1.325   0.816  13.686 -0.0446  0.3898  0.7205
  281TMC3     H 4246   1.515   1.095  13.496  2.3030  0.5719 -1.0658
  281TMC3    H1 4247   1.442   0.679  13.539  0.3711 -0.6271 -0.2570
  281TMC3    H2 4248   1.663   0.818  13.211  2.9468 -0.7614  2.0480
  281TMC3    C7 4249   1.596   0.612  13.344 -0.0890 -0.1199 -0.1130
  281TMC3    C8 4250   1.689   1.065  13.296  0.4479  0.3350 -0.7022
  281TMC3    O1 4251   1.707   0.615  13.293  0.2402  0.3467  0.5945
  281TMC3    O2 4252   1.804   1.018  13.291  0.4904 -0.4557 -0.3576
  282MPD2     C 4253   3.005   1.978  15.353 -0.4854 -0.2412 -0.3701
  282MPD2    C1 4254   2.894   1.939  15.427 -1.0886  0.1074  0.0136
  282MPD2    C2 4255   2.783   1.890  15.361 -0.2549 -0.2910  0.6791
  282MPD2    C3 4256   2.788   1.863  15.224  0.5879 -0.0104 -0.9864
  282MPD2    C4 4257   2.896   1.908  15.152  0.4410 -0.3422  1.0137
  282MPD2    C5 4258   3.006   1.961  15.215 -0.6066  0.0837  0.3119
  282MPD2     H 4259   2.692   1.857  15.410 -1.9011 -1.0376 -2.8946
  282MPD2    H1 4260   2.899   1.912  15.043 -0.7949 -0.2834  0.9902
  282MPD2    H2 4261   3.085   2.032  15.403 -0.6453 -1.4968  1.2524
  282MPD2    H3 4262   3.091   1.999  15.159  0.3443 -3.0123 -0.3498
  282MPD2     N 4263   2.667   1.811  15.168 -0.2095  0.3642 -1.0584
  282MPD2    H5 4264   2.588   1.798  15.230 -0.2695 -2.7747 -1.7864
  282MPD2    N1 4265   2.880   1.966  15.565  0.1227  0.1714  0.0140
  282MPD2    H7 4266   2.794   1.930  15.607 -0.4507  1.4796 -0.0558
  283TMC3    C1 4267   2.904   2.066  15.780  0.2166  0.7655  0.1515
  283TMC3    C2 4268   2.936   2.183  15.848  0.3965  0.3030 -0.0514
  283TMC3    C3 4269   2.880   2.198  15.973 -0.3404  0.6648  0.1790
  283TMC3    C4 4270   2.839   1.961  15.841 -0.2254 -0.1739 -0.1486
  283TMC3    C5 4271   2.810   1.974  15.971 -0.5064  0.0270 -0.0998
  283TMC3    C6 4272   2.834   2.094  16.047  0.2819 -0.1965 -0.3159
  283TMC3     C 4273   2.957   2.050  15.645  0.3973  0.0630 -0.3672
  283TMC3     O 4274   3.031   2.136  15.604 -0.5759 -0.5706  0.7425
  283TMC3     H 4275   2.983   2.267  15.798  0.6364  0.2629  0.1074
  283TMC3    H1 4276   2.808   1.873  15.786  1.1820 -1.4965  1.1853
  283TMC3    H2 4277   2.794   2.086  16.147  0.5352 -0.2626 -0.2202
  283TMC3    C7 4278   2.732   1.866  16.030 -0.9610  0.3356  0.5749
  283TMC3    C8 4279   2.900   2.322  16.046 -0.4394 -0.8796  0.0368
  283TMC3    O1 4280   2.663   1.902  16.123  0.2179 -0.1721 -0.4350
  283TMC3    O2 4281   2.881   2.315  16.171 -0.0174  0.2652  0.3362
  284MPD2     C 4282   1.440   1.516  12.416 -0.1802 -0.4742 -0.0721
  284MPD2    C1 4283   1.447   1.469  12.286 -0.0098  0.0745  0.4442
  284MPD2    C2 4284   1.359   1.369  12.236 -0.3249  0.0153 -0.0257
  284MPD2    C3 4285   1.254   1.328  12.316 -0.4811  0.2479  0.4998
  284MPD2    C4 4286   1.244   1.386  12.438 -0.0482 -0.4772  0.5879
  284MPD2    C5 4287   1.335   1.476  12.489 -0.6838  0.3782  0.1564
  284MPD2     H 4288   1.366   1.335  12.133 -2.3650 -1.7356  0.3998
  284MPD2    H1 4289   1.165   1.354  12.505 -0.4066 -1.3550 -0.2680
  284MPD2    H2 4290   1.517   1.576  12.463  1.0330 -2.7519  0.8465
  284MPD2    H3 4291   1.325   1.511  12.590 -4.7183  1.1087 -0.4833
  284MPD2     N 4292   1.166   1.226  12.273  0.7403 -0.0112  0.6357
  284MPD2    H5 4293   1.109   1.190  12.348 -0.7634 -0.8417 -0.8907
  284MPD2    N1 4294   1.539   1.523  12.196 -0.5160 -0.0651  0.1197
  284MPD2    H7 4295   1.546   1.469  12.110 -0.4823  1.4061 -0.8132
  285TMC3    C1 4296   1.690   1.676  12.100  0.6190 -0.6995 -0.4616
  285TMC3    C2 4297   1.699   1.588  11.994 -0.7760  0.8108  0.3031
  285TMC3    C3 4298   1.731   1.644  11.870  0.2381  0.2698  0.6487
  285TMC3    C4 4299   1.721   1.807  12.078 -0.2098  0.0764 -0.3973
  285TMC3    C5 4300   1.768   1.853  11.960  0.5773  0.0960  0.2303
  285TMC3    C6 4301   1.767   1.777  11.848  0.2936  0.2897 -0.0686
  285TMC3     C 4302   1.625   1.625  12.221 -0.3232  0.9431  0.0625
  285TMC3     O 4303   1.628   1.705  12.315 -0.6658  0.2448 -0.2084
  285TMC3     H 4304   1.677   1.482  11.996  0.0308  0.6022 -2.3607
  285TMC3    H1 4305   1.723   1.875  12.162 -3.2555 -0.3958  0.0485
  285TMC3    H2 4306   1.783   1.819  11.749  2.2876 -3.3631 -1.2803
  285TMC3    C7 4307   1.840   1.972  11.939  0.0849 -0.4804  0.1142
  285TMC3    C8 4308   1.737   1.558  11.756  0.8015  0.2077 -0.4003
  285TMC3    O1 4309   1.808   2.037  11.842  0.1013  0.5175  0.1740
  285TMC3    O2 4310   1.643   1.480  11.757  0.0205 -0.5134 -0.8139
  286MPD2     C 4311   0.588   4.382   2.005 -0.2804  0.2601 -0.3119
  286MPD2    C1 4312   0.588   4.416   1.871 -0.0490  0.5191  0.4289
  286MPD2    C2 4313   0.690   4.373   1.781  0.1759 -0.2751  0.1361
  286MPD2    C3 4314   0.797   4.308   1.834 -0.6461  0.2694  0.1158
  286MPD2    C4 4315   0.801   4.280   1.965 -0.0666 -0.1415 -0.0984
  286MPD2    C5 4316   0.696   4.315   2.052 -0.1347 -0.6297 -0.6627
  286MPD2     H 4317   0.674   4.382   1.675 -1.0904  0.9915  0.4292
  286MPD2    H1 4318   0.891   4.234   2.006  0.6625 -1.2536 -2.9582
  286MPD2    H2 4319   0.507   4.411   2.071  0.0793  0.5844 -0.0120
  286MPD2    H3 4320   0.711   4.289   2.156 -0.4318 -2.8902 -1.1926
  286MPD2     N 4321   0.905   4.264   1.753  0.1861 -0.5292  0.1011
  286MPD2    H5 4322   0.990   4.239   1.803  0.2497 -0.6125 -0.0478
  286MPD2    N1 4323   0.480   4.493   1.816 -0.4851 -0.0121 -0.2755
  286MPD2    H7 4324   0.473   4.520   1.718 -1.1054 -1.8916 -0.7375
  287TMC3    C1 4325   0.999   4.176   1.551  0.2062  0.0325 -0.6062
  287TMC3    C2 4326   0.977   4.086   1.452 -0.7731  0.4378  0.4444
  287TMC3    C3 4327   1.087   4.022   1.393 -0.2211  1.3006 -0.3804
  287TMC3    C4 4328   1.123   4.188   1.616 -0.1082 -0.7868  0.6216
  287TMC3    C5 4329   1.221   4.109   1.561 -0.1649 -0.5830  0.3421
  287TMC3    C6 4330   1.204   4.023   1.455  0.3388  0.8837 -0.3383
  287TMC3     C 4331   0.887   4.228   1.616  0.1071  0.6794  0.1655
  287TMC3     O 4332   0.790   4.228   1.541 -0.9300  0.4707 -0.2046
  287TMC3     H 4333   0.877   4.075   1.412 -1.7166  2.3808  2.3089
  287TMC3    H1 4334   1.143   4.244   1.706 -0.4394  1.1435 -0.5014
  287TMC3    H2 4335   1.276   3.944   1.437  0.3528  0.3590  2.0277
  287TMC3    C7 4336   1.357   4.133   1.609  0.6904 -0.0236 -0.0155
  287TMC3    C8 4337   1.072   3.939   1.273 -0.0321 -0.1976  0.1454
  287TMC3    O1 4338   1.388   4.241   1.659 -0.1203 -0.4112  0.7883
  287TMC3    O2 4339   1.168   3.865   1.246 -0.3153  0.5073 -0.0358
  288TMC3    C1 4340   3.299   0.158  14.502  0.4234  0.0480  0.1915
  288TMC3    C2 4341   3.221   0.164  14.614  0.0803 -0.4217 -0.7649
  288TMC3    C3 4342   3.280   0.231  14.715  1.4540 -0.2215  0.6842
  288TMC3    C4 4343   3.422   0.219  14.477 -0.4610  0.1480 -0.5873
  288TMC3    C5 4344   3.460   0.295  14.582 -0.7230 -1.2756  0.1990
  288TMC3    C6 4345   3.395   0.298  14.702 -0.5423 -0.3005 -0.0348
  288TMC3     C 4346   3.260   0.053  14.408  0.6485 -0.1076 -0.5482
  288TMC3     O 4347   3.162   4.715  14.441 -0.2325 -0.0523 -0.3375
  288TMC3     H 4348   3.124   0.116  14.621 -0.4477  0.5412 -1.4965
  288TMC3    H1 4349   3.480   0.205  14.387  2.3889 -1.6153  1.5068
  288TMC3    H2 4350   3.444   0.344  14.786  2.1779 -0.1800 -1.6828
  288TMC3    C7 4351   3.578   0.371  14.564  0.2162 -0.0812 -0.1671
  288TMC3    C8 4352   3.236   0.203  14.855 -0.0368  0.9046 -0.4265
  288TMC3    O1 4353   3.643   0.410  14.664 -0.2196 -0.6181  0.2245
  288TMC3    O2 4354   3.305   0.262  14.934 -0.1734 -0.4649 -0.3478
  289MPD2     C 4355   3.361   4.137  13.976  0.7737 -0.6340 -0.2186
  289MPD2    C1 4356   3.351   4.158  14.111 -0.1102 -0.9539  0.0121
  289MPD2    C2 4357   3.244   4.101  14.180 -0.4730 -0.1671  0.3275
  289MPD2    C3 4358   3.145   4.030  14.113  0.0878  0.3555 -0.6099
  289MPD2    C4 4359   3.162   4.001  13.983  0.4856  0.0075 -0.3625
  289MPD2    C5 4360   3.277   4.044  13.915  0.8357 -0.4785  0.3875
  289MPD2     H 4361   3.231   4.110  14.288  1.1958 -0.4251  0.5474
  289MPD2    H1 4362   3.086   3.943  13.932  2.8823 -3.2314 -0.2802
  289MPD2    H2 4363   3.440   4.187  13.922  0.1355 -0.7396 -1.2601
  289MPD2    H3 4364   3.273   4.035  13.807  1.7038 -0.0466  0.3173
  289MPD2     N 4365   3.033   3.999  14.185  0.4451 -0.7501  0.0303
  289MPD2    H5 4366   2.967   3.934  14.144  0.7579 -0.7682 -0.4577
  289MPD2    N1 4367   3.449   4.237  14.178  0.5638  0.3325  0.5253
  289MPD2    H7 4368   3.513   4.287  14.117  0.3893  1.2208  1.0588
  290TMC3    C1 4369   2.838   4.046  14.332  0.3133 -0.4708  0.5476
  290TMC3    C2 4370   2.756   4.153  14.361 -0.4157 -0.2757 -0.1584
  290TMC3    C3 4371   2.624   4.131  14.389  0.0236 -0.2461  0.1885
  290TMC3    C4 4372   2.786   3.918  14.329 -0.2893 -0.3281 -0.8285
  290TMC3    C5 4373   2.647   3.902  14.342  0.2287  0.0117  0.5079
  290TMC3    C6 4374   2.572   4.005  14.375 -0.1418  0.2422 -0.3034
  290TMC3     C 4375   2.972   4.085  14.276  0.2394 -0.4963  0.8738
  290TMC3     O 4376   3.005   4.205  14.308  0.2945  0.5990 -0.1308
  290TMC3     H 4377   2.790   4.255  14.346 -4.1858  0.6621 -2.3089
  290TMC3    H1 4378   2.851   3.837  14.297  0.4983 -0.2446  0.5410
  290TMC3    H2 4379   2.466   3.986  14.392  0.6603 -2.7956  1.1970
  290TMC3    C7 4380   2.583   3.774  14.298  0.9569 -0.0891 -0.6113
  290TMC3    C8 4381   2.539   4.245  14.409 -0.5976  0.7789 -0.2124
  290TMC3    O1 4382   2.464   3.775  14.282 -0.4070  0.0593 -0.5578
  290TMC3    O2 4383   2.418   4.226  14.404 -0.3913  0.1632  0.1908
  291MPD2     C 4384   1.593   3.239  17.673 -0.2148  0.1244 -0.5776
  291MPD2    C1 4385   1.638   3.112  17.695 -0.2052 -0.5201  0.0466
  291MPD2    C2 4386   1.773   3.091  17.706  0.1243 -0.2806  0.1354
  291MPD2    C3 4387   1.860   3.201  17.694 -0.2396  0.4460  0.6513
  291MPD2    C4 4388   1.811   3.327  17.670  0.4100  0.0776  0.3743
  291MPD2    C5 4389   1.678   3.343  17.659 -0.0250 -0.2581 -0.0004
  291MPD2     H 4390   1.808   2.994   0.033 -0.5530  0.0308  1.7877
  291MPD2    H1 4391   1.880   3.411  17.674  2.4191 -1.5122 -1.0184
  291MPD2    H2 4392   1.487   3.259  17.682 -0.0097 -0.6550  3.5349
  291MPD2    H3 4393   1.645   3.446  17.658  0.6287 -0.0463  0.5451
  291MPD2     N 4394   1.999   3.197  17.704 -0.1169  0.6208  1.4984
  291MPD2    H5 4395   2.054   3.280  17.686  1.3078 -0.8398 -0.9618
  291MPD2    N1 4396   1.555   3.000   0.009 -0.1136 -0.3929  0.0034
  291MPD2    H7 4397   1.601   2.910   0.016  1.6182  0.4442 -0.5767
  292TMC3    C1 4398   1.371   2.868  17.674  0.0637  0.6166 -0.2686
  292TMC3    C2 4399   1.239   2.858   0.007 -0.0151  0.2167  0.2141
  292TMC3    C3 4400   1.184   2.734   0.032 -1.1771 -0.2301  0.4018
  292TMC3    C4 4401   1.454   2.761  17.689 -0.0721  0.5960 -0.3470
  292TMC3    C5 4402   1.401   2.637   0.022  0.6380 -0.1743 -0.2003
  292TMC3    C6 4403   1.263   2.617   0.026 -0.0740 -0.0782 -0.4116
  292TMC3     C 4404   1.422   2.998  17.679  0.2457  0.4847  0.2490
  292TMC3     O 4405   1.357   3.088  17.625 -0.2418  0.0745  0.3155
  292TMC3     H 4406   1.177   2.946   0.015 -0.3873 -0.0992  0.8696
  292TMC3    H1 4407   1.559   2.753  17.666 -0.3181  0.3773 -1.3736
  292TMC3    H2 4408   1.224   2.517   0.041  1.2774 -0.7633 -1.4512
  292TMC3    C7 4409   1.484   2.521   0.002 -0.0193  0.2564  0.5789
  292TMC3    C8 4410   1.068   2.739   0.121  1.4254 -0.1744  0.3146
  292TMC3    O1 4411   1.595   2.546  17.653  0.6086 -0.0633  0.3513
  292TMC3    O2 4412   1.059   2.844   0.186 -0.1769 -0.2449  0.1550
  293MPD2     C 4413   4.176   0.459  12.806  0.0823  0.0138  0.0240
  293MPD2    C1 4414   4.136   0.379  12.909  0.5576 -0.6397 -0.1451
  293MPD2    C2 4415   4.191   0.403  13.040 -0.1260 -0.3248  0.0174
  293MPD2    C3 4416   4.284   0.506  13.054 -0.0473 -0.7395  1.1132
  293MPD2    C4 4417   4.328   0.579  12.944 -0.1577 -0.6484 -0.1811
  293MPD2    C5 4418   4.279   0.544  12.822 -0.1994 -0.1908 -0.0374
  293MPD2     H 4419   4.159   0.352  13.131  0.2974 -1.9127 -0.7215
  293MPD2    H1 4420   4.403   0.657  12.942 -0.7897  0.0286  2.9143
  293MPD2    H2 4421   4.135   0.457  12.705 -4.1765  0.4296  1.7458
  293MPD2    H3 4422   4.325   0.603  12.744 -1.0133 -0.3419 -0.6401
  293MPD2     N 4423   4.333   0.525  13.182 -0.3871  0.5495 -0.2182
  293MPD2    H5 4424   4.326   0.447  13.246  3.0838  0.7144  0.3382
  293MPD2    N1 4425   4.036   0.280  12.890  0.2561  0.0083 -0.3162
  293MPD2    H7 4426   4.021   0.266  12.791 -2.9787  1.2909 -0.0003
  294TMC3    C1 4427   3.895   0.092  12.918  0.3615 -0.2172 -0.1794
  294TMC3    C2 4428   3.862   4.714  12.997 -0.5258 -0.5805  0.5151
  294TMC3    C3 4429   3.753   4.630  12.967 -0.6478  0.6965 -0.3878
  294TMC3    C4 4430   3.819   0.118  12.812 -0.3083  0.2878  0.1358
  294TMC3    C5 4431   3.706   0.042  12.788 -0.0385  0.4369  0.6354
  294TMC3    C6 4432   3.666   4.662  12.861  0.3609 -0.8438 -0.7756
  294TMC3     C 4433   3.985   0.187  12.977 -0.8686  0.5308 -0.2928
  294TMC3     O 4434   3.998   0.192  13.099 -0.5618  0.0471  0.2014
  294TMC3     H 4435   3.914   4.701  13.091 -1.4000  0.8552  1.1782
  294TMC3    H1 4436   3.823   0.207  12.751  0.0356 -0.6418 -1.1979
  294TMC3    H2 4437   3.572   4.611  12.846 -0.6764  0.0806  2.5832
  294TMC3    C7 4438   3.679   0.020  12.652  0.7884 -0.8031  0.2746
  294TMC3    C8 4439   3.773   4.486  12.994 -0.3623  0.1199 -0.7725
  294TMC3    O1 4440   3.571   4.687  12.629  0.4746 -0.0882  0.3076
  294TMC3    O2 4441   3.808   4.456  13.105  0.1547  0.1575 -0.4679
  295MPD2     C 4442   4.674   3.226   0.785  0.1272  0.0954 -0.3627
  295MPD2    C1 4443   4.676   3.370   0.771 -0.1892  0.1825 -0.3083
  295MPD2    C2 4444   4.558   3.432   0.798 -0.0154 -0.0513  0.2751
  295MPD2    C3 4445   4.443   3.366   0.854 -0.3940 -0.3675  0.0234
  295MPD2    C4 4446   4.447   3.224   0.877  0.3800 -0.3362 -0.0540
  295MPD2    C5 4447   4.563   3.164   0.839  0.0079 -0.3377  0.0911
  295MPD2     H 4448   4.552   3.533   0.758 -1.9329  0.1618  1.0742
  295MPD2    H1 4449   4.365   3.167   0.919  1.0462  0.3137  2.1625
  295MPD2    H2 4450   0.035   3.162   0.771 -1.0931 -1.8754  0.9688
  295MPD2    H3 4451   4.562   3.056   0.845 -0.3906 -0.3071  0.6692
  295MPD2     N 4452   4.328   3.449   0.871 -0.3762 -0.2708  0.1874
  295MPD2    H5 4453   4.352   3.547   0.867  1.2779 -0.7292 -1.4569
  295MPD2    N1 4454   0.058   3.449   0.713  0.8075  0.0711 -0.8156
  295MPD2    H7 4455   0.044   3.547   0.689  0.6615  0.2840  0.1602
  296TMC3    C1 4456   4.106   3.509   0.907  0.0341 -0.6305 -0.0813
  296TMC3    C2 4457   4.146   3.631   0.961 -0.0437 -0.4796  0.0179
  296TMC3    C3 4458   4.054   3.729   0.961 -0.2163 -0.4095  0.3546
  296TMC3    C4 4459   3.984   3.489   0.846  0.6289  0.3871 -0.3788
  296TMC3    C5 4460   3.898   3.595   0.843 -0.0649 -0.5783  0.2828
  296TMC3    C6 4461   3.934   3.719   0.891  0.2282  0.5527  0.0885
  296TMC3     C 4462   4.202   3.405   0.894  0.2859  0.3737 -0.0452
  296TMC3     O 4463   4.161   3.287   0.902 -0.0408 -0.5199  0.3321
  296TMC3     H 4464   4.247   3.645   0.998 -0.4822  1.8671  0.3177
  296TMC3    H1 4465   3.966   3.390   0.805 -0.2016  0.8418 -1.1002
  296TMC3    H2 4466   3.864   3.801   0.888 -0.2151  0.1763  0.0120
  296TMC3    C7 4467   3.771   3.582   0.781 -0.4961  0.0330  0.0728
  296TMC3    C8 4468   4.077   3.840   1.054  0.0014 -0.3334 -0.4961
  296TMC3    O1 4469   3.739   3.679   0.710 -0.1130  0.0174 -0.1892
  296TMC3    O2 4470   4.192   3.871   1.083 -0.2485 -0.1118  0.2405
  297MPD2     C 4471   2.238   1.020  16.300 -0.6005  0.1166 -0.0207
  297MPD2    C1 4472   2.209   1.117  16.386 -0.4066 -0.3479 -0.7743
  297MPD2    C2 4473   2.297   1.225  16.397 -1.0137 -0.5065 -0.0246
  297MPD2    C3 4474   2.417   1.232  16.333  0.4600 -0.2828  0.1684
  297MPD2    C4 4475   2.447   1.117  16.259 -0.4854  0.7140  0.6328
  297MPD2    C5 4476   2.358   1.013  16.240  0.7495  0.3615  0.1576
  297MPD2     H 4477   2.276   1.311  16.460 -0.9041 -1.5011  1.3900
  297MPD2    H1 4478   2.540   1.098  16.205 -1.7371 -0.8193 -0.9850
  297MPD2    H2 4479   2.165   0.941  16.281  0.9678 -1.2317 -0.4419
  297MPD2    H3 4480   2.388   0.927  16.181  3.3053  2.1521 -1.1422
  297MPD2     N 4481   2.515   1.334  16.357  0.0507 -0.3955 -0.2888
  297MPD2    H5 4482   2.599   1.328  16.301 -0.4804  0.6268 -1.1972
  297MPD2    N1 4483   2.085   1.121  16.459  0.9003 -0.4989 -0.0163
  297MPD2    H7 4484   2.064   1.201  16.518  1.6554 -0.3735  0.0835
  298TMC3    C1 4485   1.881   1.041  16.542 -0.0373  0.6832  0.1489
  298TMC3    C2 4486   1.840   0.944  16.630  0.0630  1.0424 -0.3655
  298TMC3    C3 4487   1.746   0.975  16.724 -0.6091 -0.1391  0.5792
  298TMC3    C4 4488   1.832   1.173  16.547  0.5588  0.4647  0.1748
  298TMC3    C5 4489   1.723   1.191  16.628  0.4307  0.5763  0.6156
  298TMC3    C6 4490   1.694   1.100  16.727 -0.1660 -0.1776  0.7951
  298TMC3     C 4491   1.992   1.017  16.460 -0.3620 -0.4944  1.4213
  298TMC3     O 4492   1.996   0.906  16.405 -0.1926 -0.8341 -0.3542
  298TMC3     H 4493   1.887   0.846  16.631 -0.7476  0.6602  0.4163
  298TMC3    H1 4494   1.867   1.250  16.480  0.6331  1.3828  1.2742
  298TMC3    H2 4495   1.621   1.125  16.803  0.8649 -0.7549  1.9732
  298TMC3    C7 4496   1.675   1.321  16.661 -0.5989  0.1936 -0.2775
  298TMC3    C8 4497   1.748   0.897  16.844  0.0640  0.4659 -0.5513
  298TMC3    O1 4498   1.667   1.341  16.781 -0.0397 -0.3257 -0.2401
  298TMC3    O2 4499   1.747   0.961  16.949 -0.6627  0.6030  0.4494
  299MPD2     C 4500   2.911   0.825  10.123 -0.0107 -0.7086 -0.4086
  299MPD2    C1 4501   2.861   0.824  10.246  0.5310  0.0288  0.6012
  299MPD2    C2 4502   2.735   0.880  10.271 -0.0317  0.1440 -0.2412
  299MPD2    C3 4503   2.671   0.957  10.172  0.5731 -0.5116  0.6221
  299MPD2    C4 4504   2.718   0.940  10.047 -0.9168  0.2615  0.0927
  299MPD2    C5 4505   2.836   0.883  10.022  0.1165  0.2821  0.0761
  299MPD2     H 4506   2.692   0.877  10.371 -0.2876 -0.6775 -0.3766
  299MPD2    H1 4507   2.681   1.002   9.966  2.2951  1.4103 -0.4792
  299MPD2    H2 4508   3.005   0.775  10.101 -0.0911 -0.0976 -2.1200
  299MPD2    H3 4509   2.873   0.881   9.920  0.1145  1.2800  0.0583
  299MPD2     N 4510   2.554   1.037  10.186  0.1051 -0.2205 -0.3801
  299MPD2    H5 4511   2.518   1.077  10.099  0.5932  1.5777  0.2397
  299MPD2    N1 4512   2.937   0.753  10.346 -0.0267  0.3178  0.0048
  299MPD2    H7 4513   3.034   0.730  10.328  0.5039  1.9775  0.7365
  300TMC3    C1 4514   2.400   1.180  10.279  0.4105 -0.0040  0.9305
  300TMC3    C2 4515   2.407   1.269  10.383  0.0738 -0.0490  0.3849
  300TMC3    C3 4516   2.290   1.324  10.428  0.2207 -0.3907 -0.2834
  300TMC3    C4 4517   2.286   1.154  10.210  0.1617  0.6613 -0.0522
  300TMC3    C5 4518   2.173   1.219  10.254  0.5042 -0.2174 -0.3447
  300TMC3    C6 4519   2.178   1.312  10.357 -0.3059  0.1777  1.1318
  300TMC3     C 4520   2.494   1.068  10.303  0.2052  0.1476 -0.0556
  300TMC3     O 4521   2.533   1.049  10.420 -0.0641  0.4664 -0.1262
  300TMC3     H 4522   2.507   1.284  10.422  0.4439  1.2082 -1.0362
  300TMC3    H1 4523   2.276   1.074  10.138 -1.5746  0.3414  0.5467
  300TMC3    H2 4524   2.089   1.371  10.372  1.1192  2.4495  0.7113
  300TMC3    C7 4525   2.054   1.135  10.264  0.4817  0.1561  0.2823
  300TMC3    C8 4526   2.248   1.273  10.552 -0.3787 -0.0171 -0.2428
  300TMC3    O1 4527   2.031   1.047  10.181  0.3100  0.1739  0.2211
  300TMC3    O2 4528   2.131   1.293  10.586 -0.0554  0.5259  0.0965
  301MPD2     C 4529   3.555   2.199   1.689 -0.6283 -0.0138 -0.4951
  301MPD2    C1 4530   3.432   2.136   1.647  0.1490  0.7599  0.5745
  301MPD2    C2 4531   3.420   2.001   1.685 -0.3164 -0.4449  0.5334
  301MPD2    C3 4532   3.507   1.926   1.757  0.8266  0.8010  0.3956
  301MPD2    C4 4533   3.620   1.990   1.802 -0.6759  0.1100  0.2345
  301MPD2    C5 4534   3.643   2.123   1.764  0.4281 -0.6382 -0.5043
  301MPD2     H 4535   3.338   1.938   1.652 -0.2745 -1.5781  2.5846
  301MPD2    H1 4536   3.696   1.946   1.865 -1.1697  0.1616  0.8650
  301MPD2    H2 4537   3.582   2.303   1.679 -0.7070  0.1025  0.5026
  301MPD2    H3 4538   3.730   2.165   1.812 -0.3432 -0.2132  0.5224
  301MPD2     N 4539   3.502   1.783   1.776 -0.0385 -0.2190  0.6082
  301MPD2    H5 4540   3.590   1.747   1.811  1.6144 -0.1042 -3.4598
  301MPD2    N1 4541   3.327   2.195   1.575  0.0874  0.0872  0.2873
  301MPD2    H7 4542   3.242   2.142   1.563 -0.6918  1.9057 -2.2676
  302TMC3    C1 4543   3.417   1.564   1.760 -0.7896 -0.1314  0.3871
  302TMC3    C2 4544   3.534   1.514   1.818  0.0240 -0.7801  0.3528
  302TMC3    C3 4545   3.551   1.377   1.819  0.2289 -0.7977 -0.9848
  302TMC3    C4 4546   3.326   1.477   1.711  0.4564  0.3278  0.5633
  302TMC3    C5 4547   3.342   1.340   1.719  0.1175  0.7065  0.2531
  302TMC3    C6 4548   3.456   1.285   1.773  0.8821  0.5062 -0.0179
  302TMC3     C 4549   3.389   1.705   1.759  0.2216  0.3664  0.3603
  302TMC3     O 4550   3.276   1.737   1.730  0.0503  0.0504  0.0154
  302TMC3     H 4551   3.612   1.570   1.867  0.7779  0.4626 -2.2535
  302TMC3    H1 4552   3.232   1.512   1.669 -0.4709  0.6543  2.9274
  302TMC3    H2 4553   3.467   1.177   1.772 -1.2934  0.2982 -0.2019
  302TMC3    C7 4554   3.238   1.241   1.693  0.4597 -0.7878 -0.1861
  302TMC3    C8 4555   3.691   1.324   1.826  0.4875  0.0710 -0.2196
  302TMC3    O1 4556   3.250   1.130   1.746 -0.2562  0.3726  0.0439
  302TMC3    O2 4557   3.793   1.387   1.797 -0.0126  0.1280 -0.0675
  303MPD2     C 4558   4.532   4.038  11.033 -0.4477  0.3037  0.3333
  303MPD2    C1 4559   4.468   3.982  10.923 -0.1528  0.9133 -0.3081
  303MPD2    C2 4560   4.507   4.024  10.799  0.1510 -0.6530 -0.2923
  303MPD2    C3 4561   4.604   4.126  10.785 -0.5745  0.2775  0.4381
  303MPD2    C4 4562   4.663   4.178  10.897  0.4361  0.1205  0.3425
  303MPD2    C5 4563   4.631   4.135  11.022  0.1400 -0.1968  0.3542
  303MPD2     H 4564   4.474   3.981  10.706  1.0339 -0.4649 -0.6953
  303MPD2    H1 4565   0.012   4.256  10.889 -0.8688  1.3841  0.3524
  303MPD2    H2 4566   4.518   4.003  11.134 -2.5121  0.6768  0.1819
  303MPD2    H3 4567   4.670   4.160  11.120 -0.3978 -1.0308  0.7827
  303MPD2     N 4568   4.629   4.190  10.665  0.3189 -0.6968 -0.1313
  303MPD2    H5 4569   4.685   4.273  10.678  1.2842 -1.1378 -1.5876
  303MPD2    N1 4570   4.360   3.898  10.939  0.5184 -0.1655  0.0487
  303MPD2    H7 4571   4.339   3.864  11.033 -2.6544 -0.2896 -0.6910
  304TMC3    C1 4572   4.167   3.774  10.903  0.3905  0.5073  0.4556
  304TMC3    C2 4573   4.094   3.849  10.994  0.0550  0.3603  0.4716
  304TMC3    C3 4574   3.958   3.859  10.983  0.0047  0.0003  0.0810
  304TMC3    C4 4575   4.096   3.700  10.808  0.2849  0.4902 -0.2816
  304TMC3    C5 4576   3.958   3.706  10.799 -0.1733 -0.1907  0.5756
  304TMC3    C6 4577   3.891   3.783  10.893 -0.1515  0.3415  0.1712
  304TMC3     C 4578   4.275   3.851  10.843 -0.5086  0.4889  0.1083
  304TMC3     O 4579   4.270   3.869  10.721  0.3756 -0.3254  0.2097
  304TMC3     H 4580   4.147   3.917  11.059 -0.1426  0.3935  0.5972
  304TMC3    H1 4581   4.151   3.634  10.743  1.9549  1.8414 -0.2267
  304TMC3    H2 4582   3.783   3.789  10.895 -0.1280  1.4567 -2.4517
  304TMC3    C7 4583   3.901   3.742  10.671 -0.4479 -0.3096 -0.6786
  304TMC3    C8 4584   3.924   3.999  10.980 -0.2526 -0.1627 -0.1738
  304TMC3    O1 4585   3.833   3.840  10.684 -0.4224 -0.3436 -0.1555
  304TMC3    O2 4586   3.985   4.084  11.044  0.0354  0.0050 -0.3754
  305MPD2     C 4587   2.996   2.426  14.092 -0.0044 -0.2001  0.1499
  305MPD2    C1 4588   3.014   2.304  14.157  0.3683 -0.2585 -0.3191
  305MPD2    C2 4589   2.991   2.188  14.086  0.1963  0.8312  0.2867
  305MPD2    C3 4590   2.976   2.191  13.946  0.1868  0.0737  0.6440
  305MPD2    C4 4591   2.975   2.319  13.885  0.1206 -0.3516  0.4775
  305MPD2    C5 4592   2.972   2.432  13.962 -0.0131  0.2251  0.5303
  305MPD2     H 4593   3.002   2.094  14.139 -1.2041  1.2435  1.2908
  305MPD2    H1 4594   2.980   2.323  13.777 -4.5928  0.9108  0.2948
  305MPD2    H2 4595   2.995   2.522  14.144  1.8514 -1.3424  2.3052
  305MPD2    H3 4596   2.958   2.531  13.921 -0.4432 -0.0200  0.0925
  305MPD2     N 4597   2.972   2.076  13.862  0.1083 -0.1676  0.2768
  305MPD2    H5 4598   2.950   2.107  13.768  1.6567  0.6954  0.2063
  305MPD2    N1 4599   3.050   2.308  14.299 -0.4259  0.1052 -0.3959
  305MPD2    H7 4600   3.083   2.401  14.323 -1.5257  0.3977  0.0062
  306TMC3    C1 4601   3.102   2.237  14.518 -0.5534  0.1155  0.2849
  306TMC3    C2 4602   3.148   2.134  14.593 -0.2169 -0.2474  0.4555
  306TMC3    C3 4603   3.215   2.174  14.706 -0.2367  0.7916  0.3042
  306TMC3    C4 4604   3.105   2.369  14.552  0.3383 -0.0031  0.5524
  306TMC3    C5 4605   3.170   2.404  14.674 -0.5229  0.6201 -0.1074
  306TMC3    C6 4606   3.234   2.305  14.743  0.0439  0.3844 -0.4262
  306TMC3     C 4607   3.057   2.202  14.383 -0.7883 -0.5388  0.3601
  306TMC3     O 4608   3.029   2.083  14.362 -0.3332  0.5301 -0.1582
  306TMC3     H 4609   3.138   2.033  14.553  2.1593 -0.9586  1.6530
  306TMC3    H1 4610   3.044   2.439  14.497 -1.3461  0.5530  3.1575
  306TMC3    H2 4611   3.279   2.318  14.841 -0.6725 -0.1602 -0.0188
  306TMC3    C7 4612   3.093   2.495  14.758 -0.6570  0.4905  0.5436
  306TMC3    C8 4613   3.290   2.073  14.776  0.4071 -0.1052 -0.3335
  306TMC3    O1 4614   2.978   2.517  14.724 -0.1841 -0.2390  0.0403
  306TMC3    O2 4615   3.406   2.091  14.794  0.1988  0.1949  0.4872
  307MPD2     C 4616   0.268   4.489   1.279 -0.7330  0.3164 -0.3689
  307MPD2    C1 4617   0.237   4.608   1.230  0.6744  1.2300  0.1879
  307MPD2    C2 4618   0.111   4.659   1.239 -0.2041  0.4177  0.2903
  307MPD2    C3 4619   0.019   4.602   1.321  0.2347  0.3305  0.0274
  307MPD2    C4 4620   0.050   4.478   1.379  0.2396  0.0998 -0.1634
  307MPD2    C5 4621   0.171   4.417   1.349  0.1156 -0.6276  0.4792
  307MPD2     H 4622   0.085   0.019   1.178 -0.1621  0.1208 -0.1506
  307MPD2    H1 4623   4.704   4.427   1.442 -0.3154  0.2804 -0.6533
  307MPD2    H2 4624   0.368   4.448   1.276  0.4103  3.2185 -1.6917
  307MPD2    H3 4625   0.191   4.324   1.402  0.2928 -0.8805 -0.0379
  307MPD2     N 4626   4.621   4.672   1.338 -0.7648 -0.4753  0.4370
  307MPD2    H5 4627   4.607   0.034   1.289  1.1276 -0.1021  0.5566
  307MPD2    N1 4628   0.327   4.685   1.149 -0.0493  0.1145  0.2961
  307MPD2    H7 4629   0.282   0.032   1.095 -0.3636  0.4690  1.0328
  308TMC3    C1 4630   4.208   0.018   1.223 -0.3447 -0.3134 -0.1933
  308TMC3    C2 4631   4.217   0.150   1.247  1.1146 -0.8248 -0.1449
  308TMC3    C3 4632   4.325   0.192   1.317  0.4029  0.9415 -0.4519
  308TMC3    C4 4633   4.298   4.652   1.272 -0.2467  0.5606  0.1832
  308TMC3    C5 4634   4.400   4.699   1.353  0.2652  0.6166 -0.4021
  308TMC3    C6 4635   4.417   0.105   1.374 -0.1973  1.4340  0.0327
  308TMC3     C 4636   4.149   4.709   1.094  0.1335 -0.6400 -0.0530
  308TMC3     O 4637   4.117   4.591   1.071 -0.2064  0.0593 -0.0163
  308TMC3     H 4638   4.137   0.213   1.210 -0.3976 -3.6356 -1.6377
  308TMC3    H1 4639   4.274   4.547   1.254  0.2760  0.8056 -1.9032
  308TMC3    H2 4640   4.493   0.145   1.441  0.4925  0.8209 -0.3910
  308TMC3    C7 4641   4.507   4.609   1.383 -0.0421  0.1046  0.4264
  308TMC3    C8 4642   4.366   0.327   1.283  0.4773  0.5876  1.0238
  308TMC3    O1 4643   4.484   4.493   1.407 -0.3423 -0.3215  0.3371
  308TMC3    O2 4644   4.314   0.359   1.177  0.0451 -0.2723  0.0050
  309MPD2     C 4645   0.010   0.788  17.346  0.2165 -0.4516 -1.4557
  309MPD2    C1 4646   4.720   0.846  17.216 -0.2822  1.0752 -0.2279
  309MPD2    C2 4647   4.593   0.872  17.172  0.1628  0.2562 -0.0341
  309MPD2    C3 4648   4.478   0.839  17.237 -0.3636  0.5349 -0.3668
  309MPD2    C4 4649   4.495   0.766  17.353 -0.5444  1.0087  0.4360
  309MPD2    C5 4650   4.619   0.757  17.410 -0.5272 -0.4613  0.0578
  309MPD2     H 4651   4.582   0.948  17.096 -1.5125  0.3184  0.2820
  309MPD2    H1 4652   4.411   0.732  17.411  0.5144  0.2462  1.5219
  309MPD2    H2 4653   0.104   0.767  17.396 -1.2040 -0.0932  1.3352
  309MPD2    H3 4654   4.622   0.712  17.508  0.5392 -0.4812  0.0221
  309MPD2     N 4655   4.349   0.883  17.205  0.1769 -0.9291 -0.4063
  309MPD2    H5 4656   4.278   0.869  17.277  1.6509  0.5958  1.3419
  309MPD2    N1 4657   0.104   0.864  17.130 -0.1335 -0.1659 -0.1470
  309MPD2    H7 4658   0.083   0.919  17.048  1.0887 -1.2474 -1.1917
  310TMC3    C1 4659   0.329   0.858  17.054 -0.4371 -0.1289  0.7465
  310TMC3    C2 4660   0.280   0.916  16.941  0.3229  0.5119 -0.4803
  310TMC3    C3 4661   0.359   0.913  16.829  0.2740 -0.4467 -0.1606
  310TMC3    C4 4662   0.446   0.784  17.054 -0.1140  0.3911 -0.1190
  310TMC3    C5 4663   0.518   0.786  16.941 -0.7840 -0.0456  0.2451
  310TMC3    C6 4664   0.480   0.853  16.826 -0.1538  0.0759 -0.1163
  310TMC3     C 4665   0.230   0.815  17.149  0.9944  0.6887 -0.7311
  310TMC3     O 4666   0.274   0.742  17.233 -0.1897 -0.1919  0.0138
  310TMC3     H 4667   0.186   0.970  16.936  0.0218 -0.3071 -3.1931
  310TMC3    H1 4668   0.481   0.737  17.145 -1.1667 -1.2179 -0.5502
  310TMC3    H2 4669   0.542   0.848  16.737  1.3646  1.2172  0.8621
  310TMC3    C7 4670   0.645   0.721  16.949 -0.0409  0.6101  0.2100
  310TMC3    C8 4671   0.297   0.977  16.709 -0.4690  0.9118  0.2445
  310TMC3    O1 4672   0.673   0.654  17.047  0.5580  0.2581 -0.0455
  310TMC3    O2 4673   0.185   1.030  16.720  0.3613 -0.7200  0.1539
  311MPD2     C 4674   2.163   2.021  12.911  0.1664 -0.2542  0.3150
  311MPD2    C1 4675   2.202   2.103  13.015 -0.3750 -0.0393 -0.0287
  311MPD2    C2 4676   2.112   2.149  13.103 -0.2900 -0.1274  0.6124
  311MPD2    C3 4677   1.983   2.128  13.085 -0.0539  0.2941  0.0532
  311MPD2    C4 4678   1.942   2.048  12.978  0.4680  0.4414  0.1999
  311MPD2    C5 4679   2.034   1.985  12.899  0.2936 -0.1167 -0.3798
  311MPD2     H 4680   2.145   2.220  13.178  1.7219  2.3212 -2.5813
  311MPD2    H1 4681   1.836   2.040  12.956  0.2634  3.1878  0.2096
  311MPD2    H2 4682   2.233   1.982  12.838 -0.4933  1.5061 -1.2727
  311MPD2    H3 4683   2.004   1.929  12.811  0.2759  1.9216 -1.6776
  311MPD2     N 4684   1.896   2.196  13.174 -0.0336  0.0162  0.0897
  311MPD2    H5 4685   1.931   2.211  13.268  1.2472  2.8256 -0.8361
  311MPD2    N1 4686   2.336   2.151  13.031 -0.2929  0.1071 -0.5610
  311MPD2    H7 4687   2.363   2.195  13.118  3.4571 -2.0570 -0.6192
  312TMC3    C1 4688   1.660   2.250  13.248 -0.4277 -0.2958 -0.3642
  312TMC3    C2 4689   1.526   2.251  13.215 -0.5949  0.2065 -0.3189
  312TMC3    C3 4690   1.429   2.290  13.312  0.2466 -0.2565 -0.0631
  312TMC3    C4 4691   1.698   2.282  13.377  0.0304 -0.3108  0.4768
  312TMC3    C5 4692   1.594   2.311  13.465  0.0621  0.4871  0.8196
  312TMC3    C6 4693   1.461   2.306  13.443 -0.2017  0.1848 -0.2948
  312TMC3     C 4694   1.763   2.226  13.142 -0.0818  0.1988 -0.2221
  312TMC3     O 4695   1.711   2.224  13.035 -0.9259 -0.2111 -0.3530
  312TMC3     H 4696   1.486   2.238  13.115  1.9645  2.4010 -1.6180
  312TMC3    H1 4697   1.803   2.274  13.403  0.2719 -0.4830 -0.5223
  312TMC3    H2 4698   1.389   2.321  13.523  0.4528 -0.7671  0.4780
  312TMC3    C7 4699   1.643   2.307  13.600 -0.7138  0.3921 -0.5786
  312TMC3    C8 4700   1.299   2.230  13.300  0.4703 -0.9212  0.1186
  312TMC3    O1 4701   1.613   2.400  13.673  0.1572 -0.8372 -0.0963
  312TMC3    O2 4702   1.284   2.110  13.320  0.2266 -0.1785 -0.3129
  313MPD2     C 4703   1.897   1.599  10.467 -0.6862 -0.4866 -0.2033
  313MPD2    C1 4704   1.800   1.538  10.542  0.3429 -0.2487 -0.3721
  313MPD2    C2 4705   1.726   1.447  10.482 -0.2449 -0.3302  0.0641
  313MPD2    C3 4706   1.741   1.427  10.346 -0.0896  0.1628 -0.5885
  313MPD2    C4 4707   1.831   1.482  10.262  0.5311 -0.3086 -1.2935
  313MPD2    C5 4708   1.912   1.578  10.328  1.2245 -0.6077 -0.0416
  313MPD2     H 4709   1.647   1.393  10.534  0.2635 -0.7502  0.4027
  313MPD2    H1 4710   1.845   1.462  10.157  1.9253 -2.4010 -0.7232
  313MPD2    H2 4711   1.963   1.673  10.511 -1.0671  0.4467 -1.1883
  313MPD2    H3 4712   1.985   1.630  10.266  0.6175  2.0046  1.4172
  313MPD2     N 4713   1.647   1.329  10.304 -0.0864 -0.2969 -0.0324
  313MPD2    H5 4714   1.594   1.281  10.376  2.0722 -0.7394  1.2717
  313MPD2    N1 4715   1.781   1.551  10.680 -0.5142 -0.1140 -0.3293
  313MPD2    H7 4716   1.721   1.479  10.719  1.7475 -2.1441 -0.6296
  314TMC3    C1 4717   1.825   1.622  10.905  0.7008 -0.4037 -0.4388
  314TMC3    C2 4718   1.925   1.671  10.986 -0.1656 -0.1939 -0.4241
  314TMC3    C3 4719   1.890   1.709  11.114  0.6391  0.0776 -0.2804
  314TMC3    C4 4720   1.693   1.620  10.937  0.2434  0.2654 -0.3086
  314TMC3    C5 4721   1.665   1.661  11.059 -0.0542  0.3309  0.1269
  314TMC3    C6 4722   1.757   1.706  11.148  0.3259 -0.4031 -0.2714
  314TMC3     C 4723   1.852   1.639  10.760 -0.3349 -0.7148  0.4885
  314TMC3     O 4724   1.948   1.714  10.740 -0.4463 -0.5128  0.4011
  314TMC3     H 4725   2.030   1.670  10.960 -0.1822  0.0443 -0.5000
  314TMC3    H1 4726   1.618   1.614  10.858  1.1183  0.3883 -1.1539
  314TMC3    H2 4727   1.713   1.746  11.239  1.7291 -2.0967  1.1597
  314TMC3    C7 4728   1.534   1.728  11.050  0.3928  0.3165  0.9386
  314TMC3    C8 4729   1.988   1.786  11.186 -0.2181  0.2157  0.3228
  314TMC3    O1 4730   1.451   1.680  11.130 -0.2769 -0.2947  0.5576
  314TMC3    O2 4731   2.096   1.797  11.130 -0.7146 -0.4747  0.7573
  315MPD2     C 4732   0.943   0.641   0.571  0.1456 -0.6070 -0.7848
  315MPD2    C1 4733   1.070   0.693   0.592 -0.2666  0.5296 -0.5144
  315MPD2    C2 4734   1.108   0.814   0.538  0.1602  0.0848 -0.1424
  315MPD2    C3 4735   1.030   0.880   0.448 -0.8516  0.6088  0.5898
  315MPD2    C4 4736   0.899   0.826   0.425 -0.0014  0.0848  0.0446
  315MPD2    C5 4737   0.863   0.705   0.476  0.6957 -0.1166 -0.0041
  315MPD2     H 4738   1.211   0.846   0.550  0.1416 -0.1101  0.4835
  315MPD2    H1 4739   0.838   0.878   0.352 -0.1292 -0.7633 -0.4634
  315MPD2    H2 4740   0.915   0.541   0.601 -0.3226 -0.2316  0.0241
  315MPD2    H3 4741   0.771   0.660   0.439  0.6859 -0.2928  0.2338
  315MPD2     N 4742   1.091   0.997   0.386 -0.5107  1.4595  0.3647
  315MPD2    H5 4743   1.183   1.021   0.421  1.1515 -1.8029 -1.6651
  315MPD2    N1 4744   1.168   0.623   0.660  0.3401 -0.2671  0.2073
  315MPD2    H7 4745   1.261   0.660   0.645  0.3538 -0.2874  0.2425
  316TMC3    C1 4746   1.138   1.179   0.236 -0.8405 -0.5702 -0.1082
  316TMC3    C2 4747   1.255   1.202   0.296 -0.2980  0.0188 -0.1607
  316TMC3    C3 4748   1.333   1.299   0.243  0.1373 -0.2830 -0.1080
  316TMC3    C4 4749   1.086   1.266   0.149 -0.0820  0.3002  0.2851
  316TMC3    C5 4750   1.168   1.360   0.091  0.5108  0.0049  0.1492
  316TMC3    C6 4751   1.290   1.378   0.144  0.7605 -0.4112 -0.5291
  316TMC3     C 4752   1.037   1.083   0.290 -0.7187 -0.4080 -0.2161
  316TMC3     O 4753   0.931   1.079   0.232  0.3131 -0.6654  0.7839
  316TMC3     H 4754   1.292   1.136   0.374  0.8366 -0.1236 -0.8144
  316TMC3    H1 4755   0.995   1.256   0.090 -0.4044  0.0667  0.8220
  316TMC3    H2 4756   1.349   1.465   0.116  1.1997 -0.6226 -0.2729
  316TMC3    C7 4757   1.094   1.471   0.032 -0.3539 -0.0519  0.4190
  316TMC3    C8 4758   1.469   1.329   0.289  0.2807  0.2686 -0.4288
  316TMC3    O1 4759   0.973   1.485   0.056  0.9508  0.0732 -0.2525
  316TMC3    O2 4760   1.536   1.395   0.212  0.9147 -0.4997 -0.7970
  317MPD2     C 4761   3.217   4.091  13.364  0.1154 -0.0007  0.0403
  317MPD2    C1 4762   3.223   3.973  13.302  0.3271 -0.1588  1.0009
  317MPD2    C2 4763   3.302   3.869  13.354 -0.9956 -0.0268 -0.6033
  317MPD2    C3 4764   3.369   3.888  13.478 -1.0371 -0.2200 -0.9750
  317MPD2    C4 4765   3.356   4.012  13.535  0.1271  0.5743 -0.4305
  317MPD2    C5 4766   3.284   4.112  13.479 -0.4848  0.0391  0.6505
  317MPD2     H 4767   3.304   3.776  13.299  3.8113 -0.5905  0.5483
  317MPD2    H1 4768   3.411   4.024  13.628  1.3565 -1.4315 -0.9081
  317MPD2    H2 4769   3.164   4.175  13.320  2.0316 -0.1279 -2.5249
  317MPD2    H3 4770   3.280   4.207  13.531 -0.5567 -1.3900  3.2836
  317MPD2     N 4771   3.449   3.784  13.531 -0.0326 -0.0702 -0.0413
  317MPD2    H5 4772   3.449   3.707  13.464 -1.8567 -1.6466  1.7824
  317MPD2    N1 4773   3.145   3.946  13.180 -0.4998  0.5697 -0.3410
  317MPD2    H7 4774   3.166   3.862  13.128 -1.4215 -0.8836  1.6246
  318TMC3    C1 4775   3.590   3.661  13.675  0.3958  0.6101  0.2205
  318TMC3    C2 4776   3.543   3.559  13.760 -0.1973  0.8252  0.1568
  318TMC3    C3 4777   3.613   3.441  13.757  1.3150  0.3134  0.5623
  318TMC3    C4 4778   3.682   3.642  13.579  0.5339 -0.0700 -0.2155
  318TMC3    C5 4779   3.767   3.533  13.592 -0.0955  0.0363  0.8327
  318TMC3    C6 4780   3.733   3.433  13.680  0.1794 -1.1121 -0.4722
  318TMC3     C 4781   3.506   3.777  13.659  0.2102  0.8603 -0.3204
  318TMC3     O 4782   3.483   3.852  13.750 -0.3526  0.3098  0.1315
  318TMC3     H 4783   3.485   3.587  13.848  0.1597 -0.4484  0.8003
  318TMC3    H1 4784   3.710   3.717  13.506 -0.5257 -2.1559 -2.7308
  318TMC3    H2 4785   3.785   3.338  13.674  0.2611 -1.0557 -0.6581
  318TMC3    C7 4786   3.882   3.531  13.504 -0.6462  0.3549 -0.5443
  318TMC3    C8 4787   3.581   3.348  13.856  0.2420 -0.4677  0.2587
  318TMC3    O1 4788   3.896   3.628  13.430 -0.1885  0.1068  0.0554
  318TMC3    O2 4789   3.671   3.274  13.894  0.1695 -0.0753  0.2888
  319MPD2     C 4790   4.724   0.259  16.735 -0.0029  0.5460  0.5031
  319MPD2    C1 4791   4.608   0.264  16.809  0.3464 -0.8080  0.3904
  319MPD2    C2 4792   4.486   0.285  16.740  0.0818  0.4221 -0.5192
  319MPD2    C3 4793   4.482   0.280  16.599 -0.0754  0.7293  0.2228
  319MPD2    C4 4794   4.595   0.273  16.528 -0.0173 -0.2832  0.4671
  319MPD2    C5 4795   4.711   0.265  16.598 -0.0750 -0.4335 -0.5831
  319MPD2     H 4796   4.401   0.311  16.801 -0.7456 -3.3326 -0.0637
  319MPD2    H1 4797   4.594   0.286  16.420  0.7603  0.7351  0.5702
  319MPD2    H2 4798   0.099   0.263  16.774  0.8633 -0.9991 -1.5359
  319MPD2    H3 4799   0.076   0.272  16.541  0.1946  0.8872 -0.0098
  319MPD2     N 4800   4.361   0.274  16.531 -0.3740 -0.2291 -0.0231
  319MPD2    H5 4801   4.362   0.278  16.430  0.9460 -1.1203 -0.0417
  319MPD2    N1 4802   4.608   0.293  16.947 -0.6891  0.0764 -0.2656
  319MPD2    H7 4803   4.520   0.323  16.987 -0.1952 -0.2609  1.0773
  320TMC3    C1 4804   4.130   0.235  16.487 -0.6389 -0.6928  0.7318
  320TMC3    C2 4805   4.129   0.307  16.372  0.5855 -0.0458 -0.0435
  320TMC3    C3 4806   4.047   0.269  16.275  0.1301 -0.5412  0.1524
  320TMC3    C4 4807   4.054   0.125  16.506 -0.3288 -0.1667 -0.1628
  320TMC3    C5 4808   3.963   0.095  16.407 -0.0321  0.2698  0.6270
  320TMC3    C6 4809   3.953   0.167  16.293  0.0833 -0.5242 -0.0162
  320TMC3     C 4810   4.236   0.249  16.586 -0.0120 -0.3541  0.3737
  320TMC3     O 4811   4.223   0.191  16.690 -0.2846 -0.4212 -0.1702
  320TMC3     H 4812   4.200   0.389  16.361  1.2831 -0.7745 -1.0030
  320TMC3    H1 4813   4.073   0.059  16.590  0.4164  1.8811  1.2561
  320TMC3    H2 4814   3.889   0.146  16.209 -1.8011  1.7851  0.8247
  320TMC3    C7 4815   3.881   4.708  16.420 -0.6274  0.4316  0.4276
  320TMC3    C8 4816   4.010   0.388  16.187 -0.0064 -0.0642  0.5800
  320TMC3    O1 4817   3.867   4.647  16.317  0.2039 -0.0367 -0.2843
  320TMC3    O2 4818   4.044   0.498  16.226 -0.2120  0.5350 -0.1617
  321TMC3    C1 4819   4.683   0.337  17.170  0.1543 -0.3517  0.2396
  321TMC3    C2 4820   4.578   0.269  17.231  0.0588  0.2536 -0.0420
  321TMC3    C3 4821   4.553   0.309  17.361  0.0403  0.3189 -1.0475
  321TMC3    C4 4822   0.052   0.400  17.242 -0.0584  0.7302 -0.3047
  321TMC3    C5 4823   0.018   0.453  17.363 -0.3600 -0.0209  0.2345
  321TMC3    C6 4824   4.620   0.419  17.413  0.7072  0.5850 -0.4947
  321TMC3     C 4825   4.720   0.289  17.034  0.2386  0.1497  0.1985
  321TMC3     O 4826   0.110   0.277  17.008 -0.1691 -0.0415  0.3688
  321TMC3     H 4827   4.523   0.194  17.177  1.4571 -1.6699  1.1762
  321TMC3    H1 4828   0.153   0.416  17.207  0.5756 -1.0716  0.7466
  321TMC3    H2 4829   4.587   0.463  17.507 -2.4850  1.0840 -1.8598
  321TMC3    C7 4830   0.137   0.440  17.457 -0.1384  0.3064  0.2197
  321TMC3    C8 4831   4.517   0.221  17.471  0.1146  0.3296  0.5590
  321TMC3    O1 4832   0.246   0.475  17.413 -0.1475  0.2761 -0.1079
  321TMC3    O2 4833   4.533   0.259  17.587 -0.0454  0.0821 -0.0016
  322MPD2     C 4834   2.868   1.605  13.960 -0.0978  0.3095  0.1839
  322MPD2    C1 4835   2.923   1.535  14.060 -0.1602  0.3088 -0.2491
  322MPD2    C2 4836   2.973   1.404  14.032  0.5051 -0.4984 -0.0674
  322MPD2    C3 4837   2.947   1.349  13.903 -0.1196 -0.0566 -0.3712
  322MPD2    C4 4838   2.885   1.424  13.802  0.0955 -0.0156  0.3742
  322MPD2    C5 4839   2.844   1.549  13.838 -0.1530  0.0183  0.6953
  322MPD2     H 4840   3.025   1.339  14.102  3.6846  1.7145 -0.4001
  322MPD2    H1 4841   2.850   1.400  13.702  0.9300 -3.2232  0.8675
  322MPD2    H2 4842   2.844   1.710  13.974 -1.3060  0.2734 -1.6756
  322MPD2    H3 4843   2.804   1.611  13.759  0.7906  0.0143  0.2098
  322MPD2     N 4844   3.007   1.223  13.860 -0.4150  0.4380  0.3104
  322MPD2    H5 4845   3.055   1.171  13.933 -0.6576 -0.9668 -0.5221
  322MPD2    N1 4846   2.950   1.600  14.185  0.0187  0.2825 -0.1707
  322MPD2    H7 4847   2.925   1.698  14.181  0.2756  0.4504  2.3345
  323TMC3    C1 4848   3.096   1.648  14.368  0.1218 -1.5678  0.6921
  323TMC3    C2 4849   3.133   1.769  14.309  0.1293 -0.2356  0.2161
  323TMC3    C3 4850   3.225   1.837  14.385 -0.4257  0.4925 -0.2121
  323TMC3    C4 4851   3.144   1.600  14.488 -0.0196  0.7627 -0.1381
  323TMC3    C5 4852   3.239   1.671  14.551 -0.0570  0.5423 -0.5308
  323TMC3    C6 4853   3.280   1.797  14.507 -0.1839  0.4516 -1.3656
  323TMC3     C 4854   3.027   1.549  14.286 -0.3705  0.3135 -0.8091
  323TMC3     O 4855   3.038   1.432  14.308  0.3383 -0.0205 -0.6220
  323TMC3     H 4856   3.095   1.796  14.211 -2.8605  0.2990  1.5350
  323TMC3    H1 4857   3.130   1.495  14.512  3.5262  0.9153  2.4613
  323TMC3    H2 4858   3.350   1.857  14.565  1.4844  1.0083 -3.9580
  323TMC3    C7 4859   3.334   1.589  14.632 -0.0344 -0.3787 -0.2912
  323TMC3    C8 4860   3.294   1.953  14.316  0.6834  0.5033 -0.0660
  323TMC3    O1 4861   3.299   1.476  14.662  0.6673  0.4875 -0.0177
  323TMC3    O2 4862   3.379   2.012  14.383  0.7649 -0.0173  0.1615
  324MPD2     C 4863   4.690   2.407  14.538 -0.0740 -0.0016  0.4813
  324MPD2    C1 4864   4.712   2.542  14.546 -0.2056 -0.6005  0.4566
  324MPD2    C2 4865   4.626   2.629  14.493  0.2780  0.2130 -0.3686
  324MPD2    C3 4866   4.508   2.579  14.438 -0.1911 -0.2929  0.3206
  324MPD2    C4 4867   4.490   2.447  14.425  0.3656  0.6918 -0.6172
  324MPD2    C5 4868   4.582   2.355  14.474  0.2021 -0.7297  0.7601
  324MPD2     H 4869   4.647   2.734  14.512 -1.1964  0.0403  2.1441
  324MPD2    H1 4870   4.399   2.408  14.380  0.8057  2.1901 -2.7781
  324MPD2    H2 4871   0.033   2.333  14.578  3.1454  1.3857 -2.5528
  324MPD2    H3 4872   4.560   2.249  14.464  1.3479 -0.9164  0.2107
  324MPD2     N 4873   4.410   2.656  14.373  0.6569  0.1462  0.0660
  324MPD2    H5 4874   4.342   2.608  14.316  1.0997  0.3051 -0.5976
  324MPD2    N1 4875   0.093   2.604  14.609  1.1314 -0.1563 -0.9114
  324MPD2    H7 4876   0.089   2.705  14.613 -1.8643 -0.3780  1.6676
  325TMC3    C1 4877   4.276   2.851  14.313 -0.2582 -0.1759  0.0241
  325TMC3    C2 4878   4.203   2.758  14.242  0.7589 -0.4481 -0.0928
  325TMC3    C3 4879   4.161   2.789  14.118 -0.2044  0.1875 -0.1512
  325TMC3    C4 4880   4.302   2.976  14.266 -0.1400 -0.5768  1.0417
  325TMC3    C5 4881   4.273   3.000  14.134  0.6302  0.4950  0.1271
  325TMC3    C6 4882   4.197   2.909  14.061 -1.4178 -0.1479 -0.3266
  325TMC3     C 4883   4.382   2.794  14.393 -0.0382  0.1265  0.1719
  325TMC3     O 4884   4.442   2.863  14.474  0.0106 -0.0455  0.4351
  325TMC3     H 4885   4.174   2.662  14.285 -2.0284  0.4956  0.0974
  325TMC3    H1 4886   4.367   3.046  14.317 -0.7422  0.2981  0.6148
  325TMC3    H2 4887   4.164   2.938  13.962  0.8155  2.9466 -0.1486
  325TMC3    C7 4888   4.285   3.141  14.095 -0.2382 -0.0936  0.7226
  325TMC3    C8 4889   4.117   2.686  14.026  0.5612  0.1542 -0.5943
  325TMC3    O1 4890   4.337   3.178  13.987  0.3569  0.4464 -0.1722
  325TMC3    O2 4891   4.158   2.690  13.911 -0.0473 -0.1912  0.1049
  326MPD2     C 4892   0.821   3.953  11.853 -0.7773  1.5634 -0.8560
  326MPD2    C1 4893   0.796   3.973  11.718 -0.8045  0.3215  0.5725
  326MPD2    C2 4894   0.887   4.036  11.637 -0.2197 -0.3111 -0.3376
  326MPD2    C3 4895   1.018   4.069  11.688  0.2391 -0.5238  0.5706
  326MPD2    C4 4896   1.040   4.038  11.821  0.2761 -0.5665  0.3874
  326MPD2    C5 4897   0.943   3.979  11.904  0.8921  0.2150 -0.8150
  326MPD2     H 4898   0.873   4.039  11.530 -2.2766 -0.4739 -0.0755
  326MPD2    H1 4899   1.133   4.062  11.871 -0.3178  0.8538  0.8097
  326MPD2    H2 4900   0.758   3.897  11.921 -0.8502 -0.7438 -2.8226
  326MPD2    H3 4901   0.975   3.948  12.002 -0.3544  0.6290 -0.2790
  326MPD2     N 4902   1.123   4.134  11.614  0.2379  0.1723  0.2346
  326MPD2    H5 4903   1.201   4.161  11.673  1.4660 -0.1311 -1.2684
  326MPD2    N1 4904   0.671   3.943  11.664  1.4743 -0.0592 -0.0907
  326MPD2    H7 4905   0.644   3.981  11.574  1.1480  0.9534  0.4279
  327TMC3    C1 4906   0.480   3.816  11.615  0.5404  0.0826 -0.1969
  327TMC3    C2 4907   0.463   3.932  11.550  0.3353 -0.0699  0.5425
  327TMC3    C3 4908   0.452   3.927  11.414 -0.4261 -0.3434 -0.6970
  327TMC3    C4 4909   0.498   3.704  11.541  0.1896  0.5816 -0.4189
  327TMC3    C5 4910   0.507   3.705  11.406 -0.5469  0.3315  0.1176
  327TMC3    C6 4911   0.478   3.817  11.332 -0.1529 -0.6137 -0.0636
  327TMC3     C 4912   0.588   3.839  11.706  0.1958  0.5165 -0.0625
  327TMC3     O 4913   0.617   3.749  11.784 -0.1291  0.1565 -0.2016
  327TMC3     H 4914   0.439   4.024  11.602  0.9653  0.2244  0.3068
  327TMC3    H1 4915   0.514   3.615  11.600  0.6966  1.6014  0.9848
  327TMC3    H2 4916   0.506   3.830  11.229 -2.4819  1.8993 -0.3891
  327TMC3    C7 4917   0.619   3.629  11.339 -0.3381  0.0330  0.6120
  327TMC3    C8 4918   0.448   4.056  11.354  0.8045 -0.0805 -0.1263
  327TMC3    O1 4919   0.620   3.638  11.217  0.5603 -0.2230 -0.9503
  327TMC3    O2 4920   0.502   4.149  11.419  0.5291  0.4081  0.2290
  328MPD2     C 4921   3.678   3.135  17.023  0.2700 -0.0885 -0.0171
  328MPD2    C1 4922   3.563   3.132  17.097  0.4531 -0.2374  0.2475
  328MPD2    C2 4923   3.490   3.248  17.121  0.4076  0.1329 -0.1561
  328MPD2    C3 4924   3.539   3.370  17.084  1.2096 -0.4232 -0.5476
  328MPD2    C4 4925   3.660   3.372  17.018 -0.7968 -0.0574 -1.1600
  328MPD2    C5 4926   3.731   3.257  16.994 -0.1568  0.3905  0.5844
  328MPD2     H 4927   3.401   3.244  17.183 -0.2857 -0.9076 -1.2085
  328MPD2    H1 4928   3.703   3.463  16.978  1.2356 -0.9207 -0.9439
  328MPD2    H2 4929   3.734   3.054  16.978 -0.6674  0.2937 -1.8439
  328MPD2    H3 4930   3.817   3.256  16.928 -0.6142 -1.2921  0.0168
  328MPD2     N 4931   3.474   3.492  17.115 -0.1983  0.1647  0.2004
  328MPD2    H5 4932   3.528   3.576  17.094 -0.4105 -0.0315 -1.1218
  328MPD2    N1 4933   3.504   3.004  17.110 -0.2768  0.0052 -0.3745
  328MPD2    H7 4934   3.561   2.931  17.069 -0.2870  0.0303 -0.4333
  329TMC3    C1 4935   3.334   2.839  17.148  0.1324  0.1662  0.7842
  329TMC3    C2 4936   3.223   2.811  17.211  0.1345  0.1652  0.5115
  329TMC3    C3 4937   3.156   2.697  17.173  0.1445 -0.0910 -0.0672
  329TMC3    C4 4938   3.398   2.758  17.057 -0.0129  0.1180 -0.4530
  329TMC3    C5 4939   3.335   2.636  17.028  0.0651  0.1558  0.2109
  329TMC3    C6 4940   3.213   2.603  17.084  0.0895  0.3847 -0.2719
  329TMC3     C 4941   3.382   2.976  17.168  0.0247 -0.0015 -0.8133
  329TMC3     O 4942   3.319   3.046  17.241  0.9492  0.0575  0.1499
  329TMC3     H 4943   3.169   2.878  17.277 -1.2232  0.6069 -1.0351
  329TMC3    H1 4944   3.491   2.784  17.007 -0.3989  2.0395 -0.1740
  329TMC3    H2 4945   3.163   2.510  17.061  0.2238  0.2208  0.0975
  329TMC3    C7 4946   3.409   2.542  16.952  0.1529  0.1898  0.1141
  329TMC3    C8 4947   3.050   2.645  17.252  0.7393 -0.2125  0.0643
  329TMC3    O1 4948   3.531   2.541  16.965  0.0732  0.5536 -0.5265
  329TMC3    O2 4949   3.012   2.530  17.232 -0.4155 -0.4939  0.4305
  330TMC3    C1 4950   1.459   3.477  10.215  0.0147  0.4759  0.0339
  330TMC3    C2 4951   1.363   3.418  10.133  0.1968  0.4026 -0.5955
  330TMC3    C3 4952   1.346   3.284  10.150 -0.2842  0.1002 -0.7236
  330TMC3    C4 4953   1.532   3.410  10.310 -0.4532  0.2018  0.3316
  330TMC3    C5 4954   1.517   3.275  10.314 -0.0190  0.7937  0.2949
  330TMC3    C6 4955   1.420   3.211  10.240  0.3965  0.4720 -0.1751
  330TMC3     C 4956   1.457   3.621  10.232  0.1355 -0.0347  0.0462
  330TMC3     O 4957   1.560   3.663  10.282  0.0307  0.0040 -0.0057
  330TMC3     H 4958   1.313   3.474  10.055 -0.7775  0.4561  0.0659
  330TMC3    H1 4959   1.612   3.457  10.368 -0.8490  2.1716 -0.7161
  330TMC3    H2 4960   1.417   3.103  10.235  0.4409  0.5882 -2.8219
  330TMC3    C7 4961   1.589   3.193  10.415 -0.2011 -0.8234 -0.0551
  330TMC3    C8 4962   1.245   3.226  10.061 -0.1073  0.3607  0.4165
  330TMC3    O1 4963   1.661   3.260  10.488 -0.1514  0.0577  0.4860
  330TMC3    O2 4964   1.241   3.291   9.960  0.3015 -0.0081  0.0744
  331MPD2     C 4965   3.798   2.087  12.826  0.5698  0.4454 -0.5187
  331MPD2    C1 4966   3.909   2.097  12.742 -1.1747 -0.1422 -0.1039
  331MPD2    C2 4967   4.021   2.022  12.757  0.8194  0.8908  0.4394
  331MPD2    C3 4968   4.020   1.931  12.856 -0.6568  0.6474 -0.8756
  331MPD2    C4 4969   3.915   1.924  12.947 -0.4514  0.0753 -0.0148
  331MPD2    C5 4970   3.806   2.006  12.934  0.0499  0.4540 -0.3021
  331MPD2     H 4971   4.109   2.046  12.698  0.9491  1.2448  0.7777
  331MPD2    H1 4972   3.920   1.851  13.027 -0.2543  1.7795  1.5195
  331MPD2    H2 4973   3.712   2.152  12.817  1.5344  2.2492  3.0853
  331MPD2    H3 4974   3.722   1.995  13.001  1.2036 -0.1425  1.0235
  331MPD2     N 4975   4.137   1.852  12.861 -0.2244 -0.7653 -0.4688
  331MPD2    H5 4976   4.193   1.868  12.777 -0.8636  0.6312 -0.6284
  331MPD2    N1 4977   3.931   2.202  12.651 -0.4047  0.4998  0.0230
  331MPD2    H7 4978   4.025   2.206  12.611  0.4385 -2.8374  1.6076
  332TMC3    C1 4979   4.293   1.679  12.901  0.2738  0.9814  0.7627
  332TMC3    C2 4980   4.346   1.703  12.773  0.8439 -0.4662 -0.7263
  332TMC3    C3 4981   4.454   1.632  12.733 -0.3090  0.5101  0.2608
  332TMC3    C4 4982   4.346   1.582  12.985 -0.6373 -0.4472 -0.0793
  332TMC3    C5 4983   4.460   1.522  12.942 -0.1213  0.0861  0.5513
  332TMC3    C6 4984   4.513   1.543  12.814  0.0792  0.7340  0.9729
  332TMC3     C 4985   4.176   1.755  12.950 -0.0177  0.0639  0.0028
  332TMC3     O 4986   4.128   1.723  13.055  0.2219  0.4990  0.5322
  332TMC3     H 4987   4.294   1.760  12.698 -0.3631 -0.5980  0.0048
  332TMC3    H1 4988   4.307   1.555  13.083  0.6362 -0.1231  0.5199
  332TMC3    H2 4989   4.600   1.486  12.786 -0.0348  1.6320 -1.1778
  332TMC3    C7 4990   4.554   1.478  13.041  0.7059  1.1794 -0.4808
  332TMC3    C8 4991   4.534   1.678  12.617 -0.4597  0.9614  0.2494
  332TMC3    O1 4992   4.511   1.419  13.139 -0.4488  0.1285  0.4466
  332TMC3    O2 4993   4.499   1.774  12.554 -0.4604 -0.3503  0.2310
  333MPD2     C 4994   0.116   2.008  11.722  0.5265  0.6018 -0.5472
  333MPD2    C1 4995   0.157   1.881  11.703  0.5424  0.1398  0.2598
  333MPD2    C2 4996   0.115   1.784  11.785 -0.0197 -1.2516 -0.2581
  333MPD2    C3 4997   0.022   1.803  11.883 -0.3971  0.3775  0.1489
  333MPD2    C4 4998   4.693   1.931  11.894  0.3815 -0.3465  0.3833
  333MPD2    C5 4999   0.023   2.031  11.818 -0.0618  0.4769  0.9869
  333MPD2     H 5000   0.144   1.680  11.773 -1.2543 -1.6567  0.3176
  333MPD2    H1 5001   4.615   1.955  11.965 -0.2427 -2.4018  0.3959
  333MPD2    H2 5002   0.142   2.097  11.666  1.8603  0.1091 -0.7259
  333MPD2    H3 5003   4.722   2.136  11.828  1.7183  1.1071 -0.8879
  333MPD2     N 5004   4.717   1.694  11.966  0.1780  0.0626 -0.0074
  333MPD2    H5 5005   0.046   1.614  11.936  0.7688  0.0778  1.0410
  333MPD2    N1 5006   0.246   1.847  11.593 -0.4096  0.0529 -0.0821
  333MPD2    H7 5007   0.268   1.923  11.529 -2.1367  1.0680  0.5382
  334TMC3    C1 5008   0.420   1.714  11.491 -0.0094 -0.5920  0.1526
  334TMC3    C2 5009   0.551   1.699  11.524  0.2801 -0.3379 -0.4570
  334TMC3    C3 5010   0.644   1.747  11.437 -0.4852 -0.0876 -0.2764
  334TMC3    C4 5011   0.382   1.754  11.365 -0.1695 -0.1186 -0.3537
  334TMC3    C5 5012   0.473   1.801  11.286 -0.1183  0.0838  0.7515
  334TMC3    C6 5013   0.609   1.793  11.307  0.2189 -0.1941  0.4464
  334TMC3     C 5014   0.339   1.737  11.603 -0.6520  0.3705 -0.0606
  334TMC3     O 5015   0.362   1.662  11.695 -0.0205 -0.4567 -0.5062
  334TMC3     H 5016   0.591   1.673  11.621 -0.1273  1.4057  0.1894
  334TMC3    H1 5017   0.275   1.769  11.351 -0.6666 -3.4252 -0.0080
  334TMC3    H2 5018   0.680   1.823  11.232  2.7605 -4.1896  1.2251
  334TMC3    C7 5019   0.433   1.905  11.197 -0.1424  0.8372 -0.4941
  334TMC3    C8 5020   0.782   1.706  11.465 -0.0954 -0.8538 -0.1727
  334TMC3    O1 5021   0.510   1.993  11.170 -0.6775 -0.1640  0.0784
  334TMC3    O2 5022   0.810   1.638  11.564  1.1289  0.2987  0.5016
  335TMC3    C1 5023   4.289   3.302   0.150 -0.5896  1.0214  1.1283
  335TMC3    C2 5024   4.238   3.244   0.034 -0.3705 -0.0691  1.3817
  335TMC3    C3 5025   4.293   3.275  17.618 -0.1945 -0.7788  0.0467
  335TMC3    C4 5026   4.396   3.391   0.141  0.4644  0.0607  0.0629
  335TMC3    C5 5027   4.439   3.425   0.010 -0.3475 -0.1027 -0.3915
  335TMC3    C6 5028   4.395   3.364  17.604 -0.5395 -0.6962 -0.5481
  335TMC3     C 5029   4.232   3.272   0.283  0.4369  0.1846 -0.8023
  335TMC3     O 5030   4.311   3.283   0.380 -0.1868  0.1000  0.1288
  335TMC3     H 5031   4.156   3.174   0.049  0.3256 -1.3125 -0.5728
  335TMC3    H1 5032   4.423   3.445   0.231  0.5196 -0.0279  0.0988
  335TMC3    H2 5033   4.426   3.396  17.505 -1.6332  0.0236 -0.6598
  335TMC3    C7 5034   4.544   3.517  17.686  0.1144 -0.3662 -0.9471
  335TMC3    C8 5035   4.270   3.175  17.512 -0.5065 -0.0507 -0.2239
  335TMC3    O1 5036   4.600   3.515  17.574  0.2204  0.2129 -0.7133
  335TMC3    O2 5037   4.351   3.169  17.426  0.3239  0.3930 -0.4251
  336MPD2     C 5038   4.104   1.331  16.343 -0.4741 -0.0518  0.9519
  336MPD2    C1 5039   4.130   1.250  16.236 -0.4047  0.1545 -0.0403
  336MPD2    C2 5040   4.175   1.119  16.265  0.1814  0.5702 -0.0015
  336MPD2    C3 5041   4.196   1.084  16.400 -0.5412 -0.2105 -0.0475
  336MPD2    C4 5042   4.178   1.178  16.497  0.3586 -0.6434 -0.4335
  336MPD2    C5 5043   4.132   1.303  16.473  0.5484  0.0353  0.5486
  336MPD2     H 5044   4.208   1.051  16.187 -2.3780 -0.0503 -0.5633
  336MPD2    H1 5045   4.210   1.155  16.598  0.7768 -0.2593 -0.4779
  336MPD2    H2 5046   4.059   1.428  16.326  1.1428  0.1857 -1.8851
  336MPD2    H3 5047   4.112   1.382  16.545 -5.0382 -1.8787  1.1452
  336MPD2     N 5048   4.251   0.955  16.441 -0.3735  0.5159 -0.4361
  336MPD2    H5 5049   4.269   0.946  16.541 -3.0573  1.0331  0.1089
  336MPD2    N1 5050   4.079   1.281  16.108  0.1934 -0.2470  0.2681
  336MPD2    H7 5051   4.062   1.203  16.045 -0.4581  0.7551 -0.7994
  337TMC3    C1 5052   4.016   1.424  15.939  0.6458  0.1094  0.1397
  337TMC3    C2 5053   3.897   1.368  15.919 -0.2035  0.5343 -0.2703
  337TMC3    C3 5054   3.808   1.432  15.838  0.2268 -0.8316 -0.4068
  337TMC3    C4 5055   4.059   1.540  15.880 -0.6133  0.4104 -0.3150
  337TMC3    C5 5056   3.960   1.609  15.827  0.9885  0.0931  0.2436
  337TMC3    C6 5057   3.841   1.551  15.783  0.0953 -0.2692  0.4620
  337TMC3     C 5058   4.065   1.411  16.069  0.1012  0.1767  0.6571
  337TMC3     O 5059   4.103   1.508  16.125 -0.4700 -0.2130 -0.6651
  337TMC3     H 5060   3.867   1.283  15.979 -2.1807  1.6720  0.3371
  337TMC3    H1 5061   4.156   1.576  15.911 -0.1693  0.3629 -1.7002
  337TMC3    H2 5062   3.784   1.610  15.711 -1.3679  1.0101  2.6415
  337TMC3    C7 5063   3.937   1.743  15.879 -0.1240 -0.0318  0.1177
  337TMC3    C8 5064   3.680   1.438  15.897 -0.6631  0.0466 -0.3971
  337TMC3    O1 5065   3.839   1.804  15.843 -0.1433 -0.0205  0.4967
  337TMC3    O2 5066   3.678   1.419  16.016  0.2977  0.4773  0.3196
  338MPD2     C 5067   4.340   0.975   0.866 -0.1636  0.0782  0.6872
  338MPD2    C1 5068   4.241   0.881   0.881  0.1303 -0.7681 -0.3592
  338MPD2    C2 5069   4.212   0.836   1.005  0.3567  0.0751 -0.1485
  338MPD2    C3 5070   4.283   0.889   1.119  0.0585 -0.6237 -0.4944
  338MPD2    C4 5071   4.363   0.995   1.103  0.2260  0.1664 -0.7476
  338MPD2    C5 5072   4.397   1.035   0.979  0.0155 -0.4294 -0.1464
  338MPD2     H 5073   4.137   0.759   1.016  1.9715 -1.3304  1.0429
  338MPD2    H1 5074   4.413   1.045   1.186 -1.6653  3.3387 -1.5215
  338MPD2    H2 5075   4.379   0.998   0.767  0.1104 -1.3452  0.4590
  338MPD2    H3 5076   4.466   1.117   0.957 -1.8897  1.1661 -0.1419
  338MPD2     N 5077   4.257   0.823   1.244  0.1143 -0.7313 -0.5614
  338MPD2    H5 5078   4.213   0.731   1.241 -1.0221 -0.2207  0.0771
  338MPD2    N1 5079   4.172   0.826   0.775 -0.1692 -0.2505  0.5869
  338MPD2    H7 5080   4.105   0.754   0.803 -1.6006  0.3979 -1.1264
  339TMC3    C1 5081   4.250   0.793   1.479 -0.3606 -0.0102  0.3238
  339TMC3    C2 5082   4.216   0.665   1.455  0.7243 -0.1995 -0.0736
  339TMC3    C3 5083   4.092   0.619   1.484  0.8145  0.0846  0.4998
  339TMC3    C4 5084   4.166   0.880   1.532 -0.7120 -0.3067 -0.3083
  339TMC3    C5 5085   4.032   0.839   1.558 -0.6093 -1.1213 -0.0782
  339TMC3    C6 5086   4.000   0.709   1.525  0.5637 -0.1351 -0.2057
  339TMC3     C 5087   4.303   0.864   1.363 -0.5402  0.3218 -0.7847
  339TMC3     O 5088   4.363   0.965   1.388  0.3072  0.1272  0.1645
  339TMC3     H 5089   4.293   0.603   1.412 -0.1959 -1.8080  0.6215
  339TMC3    H1 5090   4.201   0.979   1.557  1.2138 -1.4448  1.4175
  339TMC3    H2 5091   3.902   0.676   1.556  0.2792  0.1844 -0.7651
  339TMC3    C7 5092   3.944   0.960   1.538  0.7812 -0.1790  0.5671
  339TMC3    C8 5093   4.061   0.480   1.471 -0.0204  0.3161 -0.1277
  339TMC3    O1 5094   3.998   1.070   1.536  0.1037 -0.0702  0.3285
  339TMC3    O2 5095   4.151   0.407   1.508 -0.5633 -0.2670  0.9846
  340MPD2     C 5096   4.245   3.572   9.948 -0.3778 -0.1579  0.9590
  340MPD2    C1 5097   4.229   3.458  10.025  0.1813  0.5325  0.1867
  340MPD2    C2 5098   4.242   3.463  10.163 -0.0950  0.0047  0.1580
  340MPD2    C3 5099   4.275   3.584  10.226 -0.5558  0.4604  0.0093
  340MPD2    C4 5100   4.278   3.692  10.153  0.8577 -0.5605 -0.1418
  340MPD2    C5 5101   4.253   3.694  10.016 -0.4470 -0.7731  0.6153
  340MPD2     H 5102   4.233   3.373  10.222  0.8636  0.6602  1.3099
  340MPD2    H1 5103   4.281   3.790  10.199 -0.0784 -1.2412  1.3664
  340MPD2    H2 5104   4.216   3.576   9.843  0.5104 -1.3386  0.6740
  340MPD2    H3 5105   4.253   3.788   9.961  1.3692 -2.3791 -2.1361
  340MPD2     N 5106   4.302   3.584  10.369 -0.1277  0.0513  0.2124
  340MPD2    H5 5107   4.344   3.673  10.393  1.1121 -0.2986 -0.6551
  340MPD2    N1 5108   4.200   3.341   9.952 -0.1550 -0.9856 -0.2607
  340MPD2    H7 5109   4.217   3.344   9.852 -0.7717  0.4571 -0.3243
  341TMC3    C1 5110   4.119   3.131   9.904 -0.4235  0.2315 -0.3547
  341TMC3    C2 5111   4.016   3.043   9.924  0.9378 -0.2475  0.6542
  341TMC3    C3 5112   4.002   2.942   9.828 -0.0209  0.5174  0.1800
  341TMC3    C4 5113   4.220   3.100   9.818  0.0634  0.0706  0.2980
  341TMC3    C5 5114   4.198   3.001   9.724 -0.1058  0.7164  0.2957
  341TMC3    C6 5115   4.089   2.921   9.724 -0.3517 -1.1967  0.2480
  341TMC3     C 5116   4.142   3.229  10.004  0.4062 -1.0299 -0.3021
  341TMC3     O 5117   4.109   3.207  10.120 -0.2186  0.2893 -0.6221
  341TMC3     H 5118   3.934   3.069   9.990 -0.5620  0.1593 -1.3479
  341TMC3    H1 5119   4.312   3.158   9.817 -0.3390  0.7162  0.7866
  341TMC3    H2 5120   4.069   2.849   9.645 -1.2513 -1.3382  0.6132
  341TMC3    C7 5121   4.313   2.958   9.645  0.1280 -0.2861  0.5507
  341TMC3    C8 5122   3.894   2.844   9.851 -0.0549  0.2085 -0.3360
  341TMC3    O1 5123   4.426   2.982   9.687 -0.5338 -0.7340 -0.1161
  341TMC3    O2 5124   3.853   2.775   9.757 -0.5636 -0.0640  0.3132
  342MPD2     C 5125   2.595   1.657  17.069  0.3226 -0.9329 -0.2873
  342MPD2    C1 5126   2.557   1.613  17.197  0.6094 -0.8388 -0.6390
  342MPD2    C2 5127   2.453   1.677  17.262 -0.3475  0.0739  0.0714
  342MPD2    C3 5128   2.399   1.797  17.207 -0.6200 -0.6303  0.3180
  342MPD2    C4 5129   2.441   1.838  17.082  0.3816 -0.4489 -1.0077
  342MPD2    C5 5130   2.539   1.769  17.012 -0.3471  0.7223 -0.9603
  342MPD2     H 5131   2.423   1.646  17.361 -0.8811  1.0831  0.2254
  342MPD2    H1 5132   2.394   1.925  17.036 -0.1346  0.6412  1.5422
  342MPD2    H2 5133   2.669   1.608  17.007  0.3712  1.3765 -2.0237
  342MPD2    H3 5134   2.569   1.799  16.912  0.9329 -1.9244 -1.3773
  342MPD2     N 5135   2.298   1.871  17.276  0.1566 -0.5229 -0.4217
  342MPD2    H5 5136   2.294   1.967  17.244 -1.8127 -0.1482  0.9688
  342MPD2    N1 5137   2.623   1.507  17.260 -0.3451 -0.5000 -0.2624
  342MPD2    H7 5138   2.605   1.506  17.360  1.8177  1.5931  0.1608
  343TMC3    C1 5139   2.743   1.318  17.313  0.5800 -0.4596 -0.3106
  343TMC3    C2 5140   2.872   1.270  17.311 -0.2098 -0.3379 -0.0443
  343TMC3    C3 5141   2.900   1.196  17.419 -0.4331  0.2817  0.4543
  343TMC3    C4 5142   2.649   1.301  17.411 -0.3610 -0.1618  0.3373
  343TMC3    C5 5143   2.693   1.245  17.524 -0.1094 -0.5543  0.4762
  343TMC3    C6 5144   2.816   1.189  17.526  0.4863  0.2252 -0.4303
  343TMC3     C 5145   2.713   1.418  17.208 -0.6043  0.9965  0.2584
  343TMC3     O 5146   2.757   1.400  17.093 -1.1658 -0.0213 -0.1911
  343TMC3     H 5147   2.948   1.298  17.239  1.6229  1.8004  2.7407
  343TMC3    H1 5148   2.543   1.315  17.394 -0.8911 -2.5437  1.6063
  343TMC3    H2 5149   2.844   1.128  17.612  1.9122  2.8100  0.9722
  343TMC3    C7 5150   2.594   1.229  17.630 -0.0003 -0.6938 -0.0955
  343TMC3    C8 5151   3.037   1.224  17.452 -0.1968 -0.5580 -0.5289
  343TMC3    O1 5152   2.476   1.246  17.607 -0.0372 -0.2243  0.3268
  343TMC3    O2 5153   3.075   1.276  17.554  0.0049  0.0984  0.0415
  344MPD2     C 5154   3.357   1.134  10.848 -0.2857 -0.4488 -0.1175
  344MPD2    C1 5155   3.285   1.106  10.734 -0.5920 -0.0097  0.6124
  344MPD2    C2 5156   3.278   1.206  10.638  0.1858 -0.4105 -0.5816
  344MPD2    C3 5157   3.330   1.328  10.648  0.1927 -0.4954  0.6042
  344MPD2    C4 5158   3.402   1.355  10.767  0.1702  0.0510 -0.5883
  344MPD2    C5 5159   3.422   1.257  10.860 -0.0881  0.1194 -0.3885
  344MPD2     H 5160   3.225   1.182  10.546 -1.4920  1.6850 -0.1692
  344MPD2    H1 5161   3.447   1.451  10.790 -0.3024 -0.3464  2.0514
  344MPD2    H2 5162   3.367   1.068  10.933  0.2400  0.1631  0.2848
  344MPD2    H3 5163   3.480   1.292  10.945  0.2919 -1.1726 -0.1007
  344MPD2     N 5164   3.311   1.440  10.560  0.5158  0.5535 -0.5822
  344MPD2    H5 5165   3.368   1.521  10.582  1.1367  0.1704 -0.7562
  344MPD2    N1 5166   3.215   0.989  10.701 -0.3727 -1.0631  0.2510
  344MPD2    H7 5167   3.175   0.978  10.609  1.2079 -1.6772 -0.3783
  345TMC3    C1 5168   3.305   1.544  10.361  0.2855 -0.3464 -0.1695
  345TMC3    C2 5169   3.420   1.610  10.404  0.2205  0.4163 -0.7470
  345TMC3    C3 5170   3.453   1.732  10.342  0.3863  0.2674  0.4193
  345TMC3    C4 5171   3.216   1.612  10.284 -0.6791  0.8305 -0.7875
  345TMC3    C5 5172   3.245   1.732  10.239  1.0048 -0.6113  0.4149
  345TMC3    C6 5173   3.366   1.797  10.261 -0.5419  0.7523 -0.3262
  345TMC3     C 5174   3.270   1.420  10.428 -0.1495 -0.5407  0.7062
  345TMC3     O 5175   3.208   1.332  10.378 -0.2875  0.1400 -0.3708
  345TMC3     H 5176   3.490   1.563  10.471 -0.3526  0.0004 -0.4336
  345TMC3    H1 5177   3.123   1.557  10.282 -0.5883  0.6414  0.0287
  345TMC3    H2 5178   3.384   1.900  10.233 -1.6344  0.8800 -0.5758
  345TMC3    C7 5179   3.146   1.811  10.178  0.1584 -0.5726 -0.2362
  345TMC3    C8 5180   3.577   1.796  10.377  0.4628 -0.4666  0.8532
  345TMC3    O1 5181   3.179   1.927  10.157 -0.5491  0.7327 -0.4535
  345TMC3    O2 5182   3.602   1.778  10.495  0.8437 -0.1543 -0.0965
  346MPD2     C 5183   3.621   2.954  14.512 -0.7449  0.0113  0.1955
  346MPD2    C1 5184   3.686   3.043  14.430  0.0287 -0.7304 -0.6971
  346MPD2    C2 5185   3.732   3.160  14.480  1.6208  0.4090 -0.4680
  346MPD2    C3 5186   3.696   3.196  14.611 -0.6472  0.5959 -0.6056
  346MPD2    C4 5187   3.626   3.117  14.695 -0.0847  0.8123 -0.6696
  346MPD2    C5 5188   3.597   2.992  14.648  0.5209  0.3939  0.3795
  346MPD2     H 5189   3.789   3.228  14.417 -0.2105  1.1242 -1.3488
  346MPD2    H1 5190   3.621   3.138  14.801 -0.5105  0.8846 -0.7019
  346MPD2    H2 5191   3.585   2.855  14.488 -0.5263 -0.1472  0.5200
  346MPD2    H3 5192   3.555   2.916  14.713  2.2559 -0.5160  0.4204
  346MPD2     N 5193   3.730   3.332  14.637  0.2831 -0.0160 -0.1601
  346MPD2    H5 5194   3.768   3.382  14.557 -1.7881  1.0632 -0.4752
  346MPD2    N1 5195   3.732   3.017  14.301  0.2765  0.1548 -0.8898
  346MPD2    H7 5196   3.774   3.102  14.265 -2.3369  2.2852  1.0612
  347TMC3    C1 5197   3.749   3.546  14.726 -0.7304  0.0848 -0.4399
  347TMC3    C2 5198   3.750   3.572  14.597 -0.2479 -0.6256  0.7696
  347TMC3    C3 5199   3.847   3.651  14.536 -0.9613 -0.3568  0.0984
  347TMC3    C4 5200   3.850   3.591  14.802  0.3211  0.2432  0.3838
  347TMC3    C5 5201   3.951   3.667  14.739 -0.0407 -0.1536  0.7029
  347TMC3    C6 5202   3.950   3.709  14.608 -0.3493 -0.5020  0.3985
  347TMC3     C 5203   3.717   3.407  14.754 -0.4335 -0.2609 -0.0973
  347TMC3     O 5204   3.684   3.375  14.868  0.6879 -0.2711  0.1334
  347TMC3     H 5205   3.659   3.545  14.545  0.4044 -2.8587  0.8083
  347TMC3    H1 5206   3.861   3.539  14.896 -0.0138  1.0445  0.8701
  347TMC3    H2 5207   4.028   3.761  14.554 -0.4678 -1.0747 -0.3283
  347TMC3    C7 5208   4.072   3.689  14.819  0.3336 -0.4702 -0.1909
  347TMC3    C8 5209   3.891   3.569  14.427  0.5045  0.4360  0.4008
  347TMC3    O1 5210   4.075   3.637  14.934 -0.3571 -0.1981 -0.5508
  347TMC3    O2 5211   3.835   3.463  14.405  0.6109  0.4236 -0.5932
  348MPD2     C 5212   1.918   2.767  12.441 -0.3450 -0.2659  0.3863
  348MPD2    C1 5213   2.034   2.759  12.369  0.1314 -0.2116 -0.6382
  348MPD2    C2 5214   2.033   2.780  12.237  0.0264  0.6120 -0.3149
  348MPD2    C3 5215   1.914   2.790  12.175  0.1312  0.3894  0.0680
  348MPD2    C4 5216   1.798   2.788  12.244  0.3163  0.3467  0.3862
  348MPD2    C5 5217   1.801   2.792  12.382 -0.5302  0.4164  0.1096
  348MPD2     H 5218   2.122   2.780  12.175 -0.6392 -0.8837 -1.2836
  348MPD2    H1 5219   1.700   2.784  12.199  0.6368 -2.1696 -0.1122
  348MPD2    H2 5220   1.920   2.773  12.550 -1.9406  1.3121  0.3317
  348MPD2    H3 5221   1.705   2.796  12.433 -1.4561  0.5887 -1.6292
  348MPD2     N 5222   1.916   2.809  12.036 -0.0333 -0.4051 -0.3478
  348MPD2    H5 5223   2.007   2.800  11.990  0.4949 -1.5216  0.8941
  348MPD2    N1 5224   2.163   2.765  12.419  0.5797  0.3167  0.2312
  348MPD2    H7 5225   2.236   2.795  12.355  0.1178  0.1445 -0.3834
  349TMC3    C1 5226   2.353   2.760  12.565 -0.5254 -0.4704  0.1137
  349TMC3    C2 5227   2.415   2.666  12.643  0.8053  0.2537  0.7638
  349TMC3    C3 5228   2.549   2.638  12.618 -0.5131 -0.1166 -0.0213
  349TMC3    C4 5229   2.432   2.833  12.474  0.3452  0.6819  0.2021
  349TMC3    C5 5230   2.564   2.812  12.460 -0.7418 -0.1193 -0.2799
  349TMC3    C6 5231   2.620   2.710  12.527 -0.0576 -0.5056  0.1681
  349TMC3     C 5232   2.207   2.742  12.550 -1.0052  0.3968 -0.1391
  349TMC3     O 5233   2.149   2.692  12.645 -0.1392 -0.5428  0.0024
  349TMC3     H 5234   2.354   2.616  12.718 -1.1073  0.5797 -0.5714
  349TMC3    H1 5235   2.384   2.909  12.413 -0.3613  0.7849  0.8781
  349TMC3    H2 5236   2.728   2.695  12.528  0.2677  1.7759  1.2576
  349TMC3    C7 5237   2.632   2.866  12.348  0.1751  0.0110 -0.6294
  349TMC3    C8 5238   2.581   2.498  12.639  0.4889  0.5665 -0.4411
  349TMC3    O1 5239   2.754   2.882  12.362  0.3440  0.0143  0.0330
  349TMC3    O2 5240   2.512   2.439  12.720  0.3134 -0.2740  0.4455
  350MPD2     C 5241   0.893   0.890   9.624 -0.3236 -0.4220 -0.2027
  350MPD2    C1 5242   0.911   0.825   9.744  0.8968 -0.3896 -0.2712
  350MPD2    C2 5243   1.015   0.868   9.823  0.0491  0.2197  0.0606
  350MPD2    C3 5244   1.096   0.980   9.794 -0.2379  0.5809 -0.4653
  350MPD2    C4 5245   1.066   1.048   9.677  0.0094  0.4965 -0.0229
  350MPD2    C5 5246   0.967   1.003   9.593 -0.0304  0.5025 -0.2638
  350MPD2     H 5247   1.022   0.811   9.916 -2.3530 -1.3081 -0.6908
  350MPD2    H1 5248   1.110   1.142   9.647  0.9017  0.6534  1.7427
  350MPD2    H2 5249   0.822   0.854   9.551  0.9742 -0.6631 -1.3491
  350MPD2    H3 5250   0.949   1.048   9.496  0.5099 -0.8886 -1.0111
  350MPD2     N 5251   1.189   1.014   9.894  0.3861  0.0096  0.5276
  350MPD2    H5 5252   1.201   0.941   9.963  1.4873 -0.6731 -0.3827
  350MPD2    N1 5253   0.831   0.716   9.789 -0.3609  0.0986  0.0375
  350MPD2    H7 5254   0.858   0.670   9.875  0.7781  0.3882 -0.1625
  351TMC3    C1 5255   0.672   0.554   9.799  0.4145  0.3859  0.1755
  351TMC3    C2 5256   0.768   0.471   9.856 -0.8541 -0.2492 -0.0734
  351TMC3    C3 5257   0.727   0.354   9.921 -0.5051  0.3704 -0.3535
  351TMC3    C4 5258   0.539   0.534   9.819 -0.4915 -0.3832  0.0838
  351TMC3    C5 5259   0.505   0.416   9.887 -0.1363  0.0917 -0.7476
  351TMC3    C6 5260   0.592   0.324   9.935  0.0989 -0.4734  0.2718
  351TMC3     C 5261   0.713   0.672   9.729  0.0336  0.0897  0.7097
  351TMC3     O 5262   0.644   0.725   9.643  0.2396  0.2771  0.2306
  351TMC3     H 5263   0.871   0.479   9.823 -0.9270 -0.6389 -0.4034
  351TMC3    H1 5264   0.475   0.615   9.786  0.2926 -0.7604 -2.4426
  351TMC3    H2 5265   0.558   0.264  10.018 -0.1398  0.8496  1.1278
  351TMC3    C7 5266   0.367   0.396   9.902  0.1188  0.2852  0.2422
  351TMC3    C8 5267   0.830   0.277   9.988  0.8250  0.3481  0.2481
  351TMC3    O1 5268   0.293   0.488   9.868  0.0298  0.8851 -1.0311
  351TMC3    O2 5269   0.944   0.317   9.977 -0.2580 -0.3257 -0.1593
  352MPD2     C 5270   3.187   2.532   0.653  0.4459 -0.2578  0.4684
  352MPD2    C1 5271   3.091   2.594   0.724 -0.5149 -0.4981 -1.0275
  352MPD2    C2 5272   3.065   2.547   0.853 -0.2505  0.1671  0.5175
  352MPD2    C3 5273   3.150   2.456   0.912 -0.8640 -0.5727 -0.2690
  352MPD2    C4 5274   3.249   2.394   0.836 -0.5716  0.4346 -0.2669
  352MPD2    C5 5275   3.262   2.435   0.707  0.9330 -0.2341  0.2947
  352MPD2     H 5276   2.987   2.591   0.913  0.8382 -1.1459  2.9238
  352MPD2    H1 5277   3.323   2.326   0.877 -1.5712  0.6263  1.8321
  352MPD2    H2 5278   3.204   2.563   0.551 -1.4190  0.6652  0.4385
  352MPD2    H3 5279   3.336   2.388   0.643 -0.0286 -0.1432 -0.8974
  352MPD2     N 5280   3.144   2.414   1.048  0.1287 -0.2199 -0.4795
  352MPD2    H5 5281   3.202   2.335   1.074  1.1736  1.4755  2.3464
  352MPD2    N1 5282   3.045   2.712   0.668  0.1916  0.7055  0.2424
  352MPD2    H7 5283   3.084   2.747   0.581  0.3765  2.3766  0.9954
  353TMC3    C1 5284   3.092   2.417   1.273  0.4843 -0.3979 -0.0496
  353TMC3    C2 5285   3.220   2.390   1.315 -0.7328 -0.5802 -0.3729
  353TMC3    C3 5286   3.224   2.364   1.455  0.3592  0.2651 -0.0712
  353TMC3    C4 5287   2.982   2.393   1.354 -1.0686  0.2720  0.0855
  353TMC3    C5 5288   2.992   2.374   1.491 -0.3428  0.1406  0.2364
  353TMC3    C6 5289   3.116   2.357   1.543  0.4231  0.0692 -0.2744
  353TMC3     C 5290   3.054   2.456   1.138 -0.7430 -0.2613 -0.0492
  353TMC3     O 5291   2.954   2.526   1.129  0.5048  0.7255 -0.0213
  353TMC3     H 5292   3.309   2.400   1.254 -1.5274 -0.7187 -1.5523
  353TMC3    H1 5293   2.884   2.408   1.310 -1.0683 -0.3445 -0.1223
  353TMC3    H2 5294   3.140   2.334   1.646 -1.4358 -1.1314 -0.1044
  353TMC3    C7 5295   2.893   2.297   1.566  0.8315 -0.7910  0.0768
  353TMC3    C8 5296   3.349   2.314   1.516 -0.1944 -0.6017 -0.4744
  353TMC3    O1 5297   2.906   2.298   1.689  0.4200  0.4611  0.0562
  353TMC3    O2 5298   3.455   2.360   1.473  0.0661  0.1668  0.2581
  354TMC3    C1 5299   1.127   3.934  13.565 -0.1654 -0.3597 -0.2015
  354TMC3    C2 5300   1.204   4.047  13.595 -0.2937 -0.0180 -0.0363
  354TMC3    C3 5301   1.304   4.084  13.509  0.9454 -1.0191 -0.5136
  354TMC3    C4 5302   1.155   3.852  13.463 -0.6400 -0.0575  0.0298
  354TMC3    C5 5303   1.232   3.908  13.365  0.1217  0.8064 -0.8113
  354TMC3    C6 5304   1.316   4.017  13.386  0.0508 -0.3340 -0.5194
  354TMC3     C 5305   1.058   3.866  13.670 -0.2957  1.1391 -0.7883
  354TMC3     O 5306   1.042   3.745  13.656  0.9291 -0.0342  0.0675
  354TMC3     H 5307   1.170   4.128  13.659 -1.3649 -0.2513 -0.3123
  354TMC3    H1 5308   1.086   3.771  13.442 -0.0446 -0.9298  1.4935
  354TMC3    H2 5309   1.384   4.056  13.311 -1.7127 -0.5023 -2.1844
  354TMC3    C7 5310   1.214   3.854  13.234 -0.3099  0.2466 -0.6132
  354TMC3    C8 5311   1.329   4.224  13.497  0.2916 -0.1995  0.8109
  354TMC3    O1 5312   1.108   3.792  13.207  0.2153 -0.1808  0.4201
  354TMC3    O2 5313   1.242   4.299  13.527  0.0909 -0.0263  0.3255
  355MPD2     C 5314   1.293   0.069  12.398  0.8195 -0.6549  0.5142
  355MPD2    C1 5315   1.299   0.142  12.283  0.5709  0.3289  0.0343
  355MPD2    C2 5316   1.412   0.207  12.246 -0.4940  0.3975  0.2709
  355MPD2    C3 5317   1.522   0.208  12.333 -0.1389  1.2313 -0.1355
  355MPD2    C4 5318   1.510   0.153  12.462 -0.5422  0.4712 -0.1773
  355MPD2    C5 5319   1.397   0.073  12.487  0.3960 -0.2545 -0.0966
  355MPD2     H 5320   1.415   0.262  12.153  1.2458 -0.1713 -0.0043
  355MPD2    H1 5321   1.587   0.161  12.538 -0.6914 -0.9288  0.1343
  355MPD2    H2 5322   1.204   0.021  12.436 -0.3361  1.0049 -0.1018
  355MPD2    H3 5323   1.387   0.024  12.583 -1.1896  1.9813  0.8798
  355MPD2     N 5324   1.637   0.285  12.310  0.5888  0.0063  0.4297
  355MPD2    H5 5325   1.705   0.294  12.385  0.6904  2.5001  0.0303
  355MPD2    N1 5326   1.177   0.149  12.210  0.2938 -0.1155 -0.0902
  355MPD2    H7 5327   1.110   0.078  12.238  0.8243 -0.8339 -0.6375
  356TMC3    C1 5328   1.775   0.442  12.199 -0.2779  0.1711  0.1415
  356TMC3    C2 5329   1.823   0.454  12.074 -0.2925 -1.1352  0.6510
  356TMC3    C3 5330   1.879   0.575  12.043 -0.1749  0.3275  0.0767
  356TMC3    C4 5331   1.782   0.530  12.296  0.4876  0.0724 -0.0522
  356TMC3    C5 5332   1.839   0.646  12.256  0.3154  0.4063  0.3477
  356TMC3    C6 5333   1.892   0.674  12.134 -0.6893  0.3977 -0.3992
  356TMC3     C 5334   1.661   0.354  12.193  0.5865 -0.4730  0.5379
  356TMC3     O 5335   1.610   0.338  12.085 -0.1576  0.1574 -0.0128
  356TMC3     H 5336   1.814   0.373  12.002 -1.5968 -0.0578 -0.4128
  356TMC3    H1 5337   1.742   0.517  12.396 -1.9698 -0.6759 -1.1533
  356TMC3    H2 5338   1.899   0.778  12.103  1.0305  0.5615  0.5778
  356TMC3    C7 5339   1.813   0.755  12.344 -0.5680  0.1184 -0.4637
  356TMC3    C8 5340   1.955   0.585  11.922 -0.6760 -0.3752 -0.2367
  356TMC3    O1 5341   1.722   0.748  12.427 -0.8933  0.0571  1.0941
  356TMC3    O2 5342   1.929   0.506  11.833 -0.3799  0.5483  0.2390
  357MPD2     C 5343   0.283   3.986   1.307 -0.6859  0.0653 -0.3593
  357MPD2    C1 5344   0.279   3.886   1.212  0.1726 -0.0401 -0.2599
  357MPD2    C2 5345   0.167   3.803   1.205  0.0102  0.2576  0.2514
  357MPD2    C3 5346   0.064   3.807   1.299 -0.2806 -0.0266  0.4689
  357MPD2    C4 5347   0.072   3.912   1.394 -0.6476  1.1824  0.2304
  357MPD2    C5 5348   0.179   4.001   1.394 -1.0229 -0.4983  0.9923
  357MPD2     H 5349   0.171   3.715   1.141 -0.3828  1.6110 -1.6319
  357MPD2    H1 5350   4.719   3.923   1.467 -1.7687  1.7094 -1.0642
  357MPD2    H2 5351   0.369   4.052   1.314 -1.0887  0.4280  1.1999
  357MPD2    H3 5352   0.188   4.072   1.475  3.4571  2.1928 -1.8946
  357MPD2     N 5353   4.680   3.713   1.298  0.1168 -0.3795 -0.2191
  357MPD2    H5 5354   4.614   3.723   1.374 -0.3160 -0.3072 -0.6030
  357MPD2    N1 5355   0.397   3.865   1.131 -0.3772  0.3137 -0.3262
  357MPD2    H7 5356   0.481   3.913   1.160 -1.0370 -0.4153  2.8007
  358TMC3    C1 5357   0.541   3.765   0.972  0.1191 -0.8216  0.1399
  358TMC3    C2 5358   0.559   3.734   0.837  0.1318 -0.6668 -0.0175
  358TMC3    C3 5359   0.645   3.636   0.804 -0.0998  0.7302 -0.3216
  358TMC3    C4 5360   0.616   3.708   1.070  0.6544 -0.4862  0.4106
  358TMC3    C5 5361   0.706   3.613   1.024  0.3408 -0.0262 -0.1788
  358TMC3    C6 5362   0.719   3.569   0.897  0.1846 -0.0456  0.6423
  358TMC3     C 5363   0.403   3.807   1.005 -0.5945  0.4785 -0.4457
  358TMC3     O 5364   0.317   3.766   0.925 -0.2793  0.8710 -0.1944
  358TMC3     H 5365   0.496   3.783   0.763 -0.9153 -1.7174  0.1665
  358TMC3    H1 5366   0.600   3.729   1.175 -0.2033 -2.4513  0.6790
  358TMC3    H2 5367   0.807   3.509   0.875 -0.4856 -0.8045  0.0302
  358TMC3    C7 5368   0.808   3.571   1.121  0.0704 -0.2716 -0.1828
  358TMC3    C8 5369   0.674   3.621   0.663 -0.0241  0.3874  0.5420
  358TMC3    O1 5370   0.812   3.620   1.237  0.6290 -0.3744 -0.3933
  358TMC3    O2 5371   0.644   3.715   0.593  0.1912  0.0857  0.4130
  359MPD2     C 5372   2.070   3.722  12.890 -0.0526  0.1744 -0.4926
  359MPD2    C1 5373   2.057   3.632  12.793 -0.4573 -0.4395 -0.3808
  359MPD2    C2 5374   2.007   3.505  12.811  0.3351 -0.2986  0.5285
  359MPD2    C3 5375   1.954   3.475  12.935  0.0866  0.2635 -0.1221
  359MPD2    C4 5376   1.960   3.565  13.040 -0.1609 -0.0930  0.2749
  359MPD2    C5 5377   2.030   3.681  13.013 -0.4396  0.0350  0.1669
  359MPD2     H 5378   2.002   3.437  12.727  0.3471  0.1983  0.1311
  359MPD2    H1 5379   1.938   3.538  13.142  0.4336 -1.1868  0.1138
  359MPD2    H2 5380   2.108   3.822  12.873 -1.8786  1.3498  2.1633
  359MPD2    H3 5381   2.035   3.758  13.089  2.0070 -0.6645  0.7182
  359MPD2     N 5382   1.897   3.349  12.973 -0.1535 -0.3178  0.5361
  359MPD2    H5 5383   1.843   3.349  13.059 -1.0432  3.5321 -0.0301
  359MPD2    N1 5384   2.108   3.655  12.665  0.7467 -0.5058 -0.3621
  359MPD2    H7 5385   2.095   3.578  12.600 -1.4472  0.8257 -1.5231
  360TMC3    C1 5386   2.196   3.769  12.470  0.3495 -0.3872 -0.2779
  360TMC3    C2 5387   2.262   3.876  12.412 -0.6478  0.4450  0.5361
  360TMC3    C3 5388   2.316   3.860  12.287 -0.4248  0.2734  0.2998
  360TMC3    C4 5389   2.172   3.652  12.404  0.0497  0.6772 -0.7745
  360TMC3    C5 5390   2.221   3.641  12.275  0.0750 -0.3043  0.1978
  360TMC3    C6 5391   2.292   3.742  12.220  0.7398 -0.6695  0.8446
  360TMC3     C 5392   2.145   3.776  12.608 -0.3720  0.6352  0.0249
  360TMC3     O 5393   2.160   3.883  12.660  0.1937 -0.0742  0.3194
  360TMC3     H 5394   2.308   3.947  12.479  0.5133  0.7890 -0.6133
  360TMC3    H1 5395   2.123   3.561  12.438 -1.0934  0.7062 -2.3812
  360TMC3    H2 5396   2.337   3.721  12.124 -0.1214  1.5676 -0.0389
  360TMC3    C7 5397   2.153   3.557  12.180  0.3652 -0.0243 -0.1362
  360TMC3    C8 5398   2.402   3.961  12.231  0.4804  0.0976 -0.3299
  360TMC3    O1 5399   2.131   3.602  12.070  0.2100 -0.3401 -0.1437
  360TMC3    O2 5400   2.395   4.068  12.287 -0.2174 -0.2429  0.5062
  361MPD2     C 5401   2.726   2.159  17.008  0.3778  0.2887 -0.3430
  361MPD2    C1 5402   2.811   2.250  17.075 -0.1078 -0.1483  1.0969
  361MPD2    C2 5403   2.946   2.235  17.067 -0.1161  0.8995  0.2437
  361MPD2    C3 5404   3.000   2.125  17.001  0.0456  0.2352 -0.1712
  361MPD2    C4 5405   2.911   2.031  16.948 -0.1180 -0.3019 -0.3542
  361MPD2    C5 5406   2.778   2.048  16.950  0.1329 -0.2125  0.4136
  361MPD2     H 5407   3.014   2.308  17.110 -0.1708  2.4362 -2.2564
  361MPD2    H1 5408   2.943   1.941  16.897  0.4563 -0.0670 -0.4124
  361MPD2    H2 5409   2.620   2.176  16.999  0.4573  1.1990  0.5018
  361MPD2    H3 5410   2.717   1.977  16.894  2.4579 -0.8872 -1.2702
  361MPD2     N 5411   3.134   2.084  16.988 -0.4311 -0.1049 -0.1934
  361MPD2    H5 5412   3.155   1.999  16.937 -1.5430 -0.6469  0.2512
  361MPD2    N1 5413   2.762   2.375  17.121 -0.8122  1.0204 -0.2780
  361MPD2    H7 5414   2.828   2.450  17.136  1.1386 -0.7061 -0.2713
  362TMC3    C1 5415   2.616   2.543  17.187  0.0702 -0.1054 -0.0998
  362TMC3    C2 5416   2.503   2.570  17.259  0.5593 -0.0749  0.1847
  362TMC3    C3 5417   2.453   2.697  17.242  0.1284  0.1701  0.2806
  362TMC3    C4 5418   2.677   2.627  17.101 -0.1021  0.2803  0.0491
  362TMC3    C5 5419   2.623   2.752  17.094  0.1484  0.1274  0.3207
  362TMC3    C6 5420   2.511   2.792  17.166 -0.7842  0.5738  0.3006
  362TMC3     C 5421   2.630   2.403  17.157 -0.1798  0.1063  0.4317
  362TMC3     O 5422   2.530   2.333  17.147  0.1847 -0.2048  0.0257
  362TMC3     H 5423   2.453   2.489  17.311  0.2418 -0.6953 -1.0742
  362TMC3    H1 5424   2.755   2.589  17.037 -0.7481  1.2150 -1.2902
  362TMC3    H2 5425   2.460   2.887  17.151  0.2436  0.8010 -1.8174
  362TMC3    C7 5426   2.646   2.819  16.971 -0.0795 -0.3863  0.5399
  362TMC3    C8 5427   2.318   2.718  17.303  0.3774  0.3230 -0.2248
  362TMC3    O1 5428   2.634   2.938  16.982  0.2120  0.5771 -0.5176
  362TMC3    O2 5429   2.292   2.643  17.399 -0.0546  0.5188  0.4903
  363TMC3    C1 5430   2.375   0.321  10.225  0.5074  0.1170 -0.6137
  363TMC3    C2 5431   2.314   0.213  10.293  1.1161 -0.8065  0.4968
  363TMC3    C3 5432   2.187   0.223  10.349 -0.6594  0.5863  0.4814
  363TMC3    C4 5433   2.296   0.431  10.202 -0.4237  0.1894  0.0479
  363TMC3    C5 5434   2.178   0.442  10.266 -0.6140  0.3390 -0.0866
  363TMC3    C6 5435   2.120   0.346  10.349 -0.6610 -0.0059 -0.4257
  363TMC3     C 5436   2.490   0.299  10.135 -0.2981 -0.2961 -0.2965
  363TMC3     O 5437   2.498   0.342  10.023 -0.1228  0.5170  0.6572
  363TMC3     H 5438   2.368   0.119  10.286 -0.5999 -1.7000 -0.7885
  363TMC3    H1 5439   2.337   0.516  10.148 -0.8647  0.2622 -0.1649
  363TMC3    H2 5440   2.019   0.350  10.388 -0.3035  1.7133  0.3215
  363TMC3    C7 5441   2.077   0.538  10.212 -0.2655 -0.5395 -0.7406
  363TMC3    C8 5442   2.122   0.116  10.423  0.4025  0.3715 -0.3200
  363TMC3    O1 5443   2.125   0.630  10.144 -0.1055 -0.3729  0.2602
  363TMC3    O2 5444   2.013   0.152  10.466 -0.1646  0.4216  0.2439
  364MPD2     C 5445   0.410   4.339  10.923  0.1329 -0.3514 -0.2317
  364MPD2    C1 5446   0.464   4.371  11.047  0.5065 -0.1918  0.4586
  364MPD2    C2 5447   0.451   4.280  11.155  0.2140 -0.3971  0.2215
  364MPD2    C3 5448   0.383   4.163  11.135 -0.0700  0.2592  0.4689
  364MPD2    C4 5449   0.326   4.137  11.010 -0.4130 -0.0699  0.7900
  364MPD2    C5 5450   0.332   4.227  10.909  0.7942  0.5074 -0.4237
  364MPD2     H 5451   0.515   4.292  11.242  0.1161  0.0976  0.2235
  364MPD2    H1 5452   0.267   4.046  11.002  0.1569 -0.5731  2.1867
  364MPD2    H2 5453   0.424   4.402  10.836 -1.6979  0.4661  0.0854
  364MPD2    H3 5454   0.292   4.214  10.809  1.2197 -0.0697 -0.5219
  364MPD2     N 5455   0.386   4.053  11.228  0.3651  0.2176 -0.6335
  364MPD2    H5 5456   0.342   3.965  11.204 -0.0837  0.2552  0.0570
  364MPD2    N1 5457   0.559   4.476  11.045 -0.1561  0.2852  0.3352
  364MPD2    H7 5458   0.587   4.520  10.958  1.8055 -2.1743 -0.2893
  365TMC3    C1 5459   0.739   4.597  11.119  0.1904 -0.6739 -0.3282
  365TMC3    C2 5460   0.802   4.584  11.001  0.7201 -0.2158 -0.1557
  365TMC3    C3 5461   0.890   4.688  10.963  0.3422  0.2078 -0.0608
  365TMC3    C4 5462   0.764   4.704  11.205 -0.5763  0.3020 -0.4452
  365TMC3    C5 5463   0.860   0.065  11.170  0.0836  0.3910 -0.6819
  365TMC3    C6 5464   0.916   0.069  11.043  0.8828  0.0693  0.2261
  365TMC3     C 5465   0.626   4.516  11.155  0.0579  0.3392  0.1103
  365TMC3     O 5466   0.592   4.501  11.271 -0.0208 -0.0461 -0.2357
  365TMC3     H 5467   0.784   4.495  10.941 -2.2799  0.2518  0.0615
  365TMC3    H1 5468   0.705   4.705  11.296 -0.7064 -0.9718 -0.5117
  365TMC3    H2 5469   0.992   0.136  11.007 -1.5994  2.1555 -1.1357
  365TMC3    C7 5470   0.919   0.162  11.262 -0.1415  0.1075  0.8322
  365TMC3    C8 5471   0.989   4.649  10.873  0.0298  0.5073  0.6455
  365TMC3    O1 5472   0.998   0.243  11.219 -0.4920 -0.3117 -0.5951
  365TMC3    O2 5473   1.058   0.011  10.834 -0.0568 -0.0611  0.3510
  366MPD2     C 5474   3.703   0.373  15.488 -0.1366  0.0742 -0.2382
  366MPD2    C1 5475   3.792   0.478  15.461 -0.6113 -0.3093  0.3143
  366MPD2    C2 5476   3.923   0.450  15.437  0.4668  0.2835 -0.1976
  366MPD2    C3 5477   3.976   0.321  15.450 -0.0775  0.1424  0.2365
  366MPD2    C4 5478   3.896   0.221  15.486  0.3039  0.0806 -0.2457
  366MPD2    C5 5479   3.759   0.245  15.498 -0.4967  0.4671  0.1776
  366MPD2     H 5480   4.000   0.526  15.423 -0.0933  0.4211 -2.4645
  366MPD2    H1 5481   3.931   0.118  15.477 -0.5250 -0.3972  1.8991
  366MPD2    H2 5482   3.601   0.393  15.519  0.3564 -0.3401  1.6273
  366MPD2    H3 5483   3.701   0.162  15.534  1.5668 -0.0207  2.3988
  366MPD2     N 5484   4.116   0.308  15.425 -0.0385 -0.2673 -0.5931
  366MPD2    H5 5485   4.167   0.391  15.396  1.9992 -1.6753 -1.0482
  366MPD2    N1 5486   3.759   0.615  15.458  0.0147 -0.0174 -0.8028
  366MPD2    H7 5487   3.829   0.681  15.427  0.6337 -0.8125 -1.0942
  367TMC3    C1 5488   3.660   0.825  15.501  0.0311 -0.4692 -0.4994
  367TMC3    C2 5489   3.781   0.872  15.550  0.0652 -0.0165  0.8071
  367TMC3    C3 5490   3.806   1.007  15.552  1.4055  0.1915  0.3142
  367TMC3    C4 5491   3.557   0.908  15.470  0.3843  0.4795  1.1839
  367TMC3    C5 5492   3.580   1.044  15.485 -0.1460 -0.1244 -0.4192
  367TMC3    C6 5493   3.702   1.096  15.525 -0.6154  0.0593 -0.0499
  367TMC3     C 5494   3.641   0.679  15.488  0.6643  0.8040 -0.0115
  367TMC3     O 5495   3.529   0.631  15.489 -0.2491 -0.5360  0.2795
  367TMC3     H 5496   3.850   0.794  15.580 -0.6179  0.4799  3.6166
  367TMC3    H1 5497   3.463   0.865  15.438  0.8615  0.2200  0.1087
  367TMC3    H2 5498   3.729   1.200  15.507  1.1432 -0.1086  1.6604
  367TMC3    C7 5499   3.487   1.137  15.422  0.1965 -0.4437  0.5637
  367TMC3    C8 5500   3.936   1.051  15.603  0.3853  0.6021 -0.2271
  367TMC3    O1 5501   3.498   1.258  15.444  0.1675 -0.0022 -0.1087
  367TMC3    O2 5502   3.983   0.967  15.678  0.4644  0.8185  0.0246
  368MPD2     C 5503   0.207   2.409  12.765  0.3121 -0.4283 -0.4511
  368MPD2    C1 5504   0.211   2.513  12.855  0.2460  0.3255  0.6037
  368MPD2    C2 5505   0.330   2.581  12.867 -0.2577  0.0714 -0.0523
  368MPD2    C3 5506   0.444   2.548  12.793 -0.3099  0.6120  0.2528
  368MPD2    C4 5507   0.433   2.447  12.702 -0.4360  0.3692  0.5315
  368MPD2    C5 5508   0.314   2.378  12.678 -0.3899  0.1604 -0.0415
  368MPD2     H 5509   0.336   2.662  12.939 -0.5263 -0.6505  0.7776
  368MPD2    H1 5510   0.507   2.408  12.632 -0.6366  0.1917  0.4171
  368MPD2    H2 5511   0.109   2.364  12.753  0.4936  0.0769 -3.7419
  368MPD2    H3 5512   0.301   2.295  12.609  0.5778  0.0203 -0.0609
  368MPD2     N 5513   0.574   2.606  12.815  0.0417 -0.0334  0.1151
  368MPD2    H5 5514   0.651   2.561  12.766  0.0186 -0.4617  0.4802
  368MPD2    N1 5515   0.093   2.546  12.921  0.2414  0.4402 -0.8348
  368MPD2    H7 5516   0.013   2.485  12.904 -0.7946  1.3095  0.9326
  369TMC3    C1 5517   4.673   2.695  13.040  0.1299  0.4592 -0.2556
  369TMC3    C2 5518   4.657   2.827  13.073  0.2597 -0.1202 -0.1034
  369TMC3    C3 5519   4.529   2.874  13.066 -0.1970 -0.5145 -0.9431
  369TMC3    C4 5520   4.570   2.609  13.005  0.0651 -0.3217 -0.5532
  369TMC3    C5 5521   4.443   2.659  13.012  0.0633 -0.3135 -0.4697
  369TMC3    C6 5522   4.422   2.795  13.039 -0.2240 -0.2850  0.8668
  369TMC3     C 5523   0.081   2.662  12.997  0.2647 -0.0321 -0.0393
  369TMC3     O 5524   0.164   2.748  13.022 -0.5694 -0.2080 -0.7112
  369TMC3     H 5525   0.008   2.893  13.109  1.5802 -1.4259 -0.5135
  369TMC3    H1 5526   4.588   2.502  12.999  0.7694 -0.2640  0.5680
  369TMC3    H2 5527   4.326   2.843  13.053 -0.7316 -0.6485 -1.4114
  369TMC3    C7 5528   4.331   2.566  13.000 -0.0497 -0.0570  0.4465
  369TMC3    C8 5529   4.525   3.017  13.018 -0.1174 -0.3755  0.0538
  369TMC3    O1 5530   4.348   2.448  13.035 -0.2013 -0.1287 -0.3153
  369TMC3    O2 5531   4.630   3.050  12.962  0.7678  0.1688  0.1392
  370TMC3    C1 5532   4.404   3.145  16.642  0.1529 -0.1169 -0.0685
  370TMC3    C2 5533   4.380   3.057  16.744 -0.2675 -0.1138  0.0327
  370TMC3    C3 5534   4.320   2.943  16.705  0.1996  1.0759  0.4875
  370TMC3    C4 5535   4.379   3.122  16.508 -0.0470 -0.1106  0.6874
  370TMC3    C5 5536   4.318   3.005  16.484 -0.3712  0.3251 -0.2327
  370TMC3    C6 5537   4.297   2.907  16.579 -0.2286 -0.1456 -0.0561
  370TMC3     C 5538   4.431   3.281  16.679  0.5330 -0.4245  0.0019
  370TMC3     O 5539   4.412   3.321  16.792  0.3675 -0.1225  0.5214
  370TMC3     H 5540   4.393   3.091  16.846 -0.4833  0.6387 -0.1937
  370TMC3    H1 5541   4.383   3.202  16.434  2.1191  0.6684  1.6576
  370TMC3    H2 5542   4.269   2.804  16.561  0.1607 -0.2231 -0.2242
  370TMC3    C7 5543   4.337   2.966  16.347 -0.4763  0.3798 -0.3589
  370TMC3    C8 5544   4.279   2.844  16.799 -0.2410  0.0458  0.1485
  370TMC3    O1 5545   4.352   3.057  16.264 -0.4138 -0.1894  0.7229
  370TMC3    O2 5546   4.202   2.754  16.767  0.0292 -0.0678  0.0737
  371TMC3    C1 5547   1.131   1.521  15.993  1.0189 -0.4362  0.1550
  371TMC3    C2 5548   1.012   1.510  16.051  0.0032  0.7805  0.0674
  371TMC3    C3 5549   0.917   1.600  16.030  0.3130 -0.0049  0.0820
  371TMC3    C4 5550   1.151   1.606  15.889 -0.0049 -0.2325 -0.0045
  371TMC3    C5 5551   1.047   1.690  15.861  0.4088 -0.1830  0.8035
  371TMC3    C6 5552   0.936   1.692  15.927 -0.5198 -0.0198 -0.0840
  371TMC3     C 5553   1.237   1.426  16.022  1.0617  0.1665  0.1143
  371TMC3     O 5554   1.353   1.453  15.986 -0.4508 -0.4222  0.1186
  371TMC3     H 5555   0.997   1.443  16.134  4.2095 -0.1995  0.0197
  371TMC3    H1 5556   1.247   1.604  15.840 -0.8394  0.4847 -1.6695
  371TMC3    H2 5557   0.847   1.743  15.890 -1.3144 -1.9195 -0.8252
  371TMC3    C7 5558   1.051   1.758  15.733  0.1847  0.2829  0.2493
  371TMC3    C8 5559   0.795   1.577  16.098  0.3172 -0.3851  0.0329
  371TMC3    O1 5560   0.995   1.862  15.712  0.3118 -0.3132  0.5525
  371TMC3    O2 5561   0.776   1.463  16.135 -0.6008  0.3866  0.0063
  372MPD2     C 5562   0.293   3.001  13.868 -0.3069  0.4616  0.6688
  372MPD2    C1 5563   0.400   2.916  13.871 -0.1298 -0.1066 -0.1025
  372MPD2    C2 5564   0.376   2.783  13.891 -0.3797 -0.1742  0.0222
  372MPD2    C3 5565   0.251   2.736  13.943  0.5102 -0.7717  0.0449
  372MPD2    C4 5566   0.143   2.819  13.944  0.1487 -0.5428 -0.0784
  372MPD2    C5 5567   0.168   2.949  13.907  0.0981  0.2448  0.2094
  372MPD2     H 5568   0.462   2.718  13.891 -0.8109 -0.7438 -0.2793
  372MPD2    H1 5569   0.046   2.784  13.976 -1.1950  0.9278 -2.4965
  372MPD2    H2 5570   0.307   3.104  13.837 -2.1534 -0.8582 -4.4674
  372MPD2    H3 5571   0.082   3.016  13.908 -0.3690 -0.3409 -0.5432
  372MPD2     N 5572   0.250   2.606  13.992 -0.4244  0.3298 -0.8764
  372MPD2    H5 5573   0.338   2.558  14.007  0.1346  1.7008  0.2265
  372MPD2    N1 5574   0.534   2.957  13.850  0.3031 -0.4933  0.0523
  372MPD2    H7 5575   0.603   2.884  13.835  1.5132  0.6292  0.1384
  373TMC3    C1 5576   0.185   2.409  14.104 -0.1909  0.5847 -0.6139
  373TMC3    C2 5577   0.086   2.337  14.168 -0.2013  0.4384 -0.0716
  373TMC3    C3 5578   0.118   2.209  14.210  0.2738  0.2624  0.0714
  373TMC3    C4 5579   0.305   2.353  14.079 -0.2913  0.4061 -0.1666
  373TMC3    C5 5580   0.336   2.229  14.120  0.0401 -0.5434  0.3258
  373TMC3    C6 5581   0.240   2.154  14.179 -0.3205 -0.0914 -0.0195
  373TMC3     C 5582   0.146   2.542  14.055 -0.5399  0.1088  0.5330
  373TMC3     O 5583   0.024   2.560  14.038  0.1199  0.5615  0.1680
  373TMC3     H 5584   4.714   2.376  14.193  0.0306  0.2428  1.1451
  373TMC3    H1 5585   0.387   2.406  14.032 -1.3315  2.1126 -0.0202
  373TMC3    H2 5586   0.256   2.051  14.207  0.0042 -0.2710 -0.8783
  373TMC3    C7 5587   0.456   2.162  14.070  0.0602 -0.7570 -0.0783
  373TMC3    C8 5588   0.017   2.132  14.280 -0.4993  0.0311 -0.1205
  373TMC3    O1 5589   0.502   2.186  13.958 -0.9039  0.6795 -0.1717
  373TMC3    O2 5590   4.627   2.155  14.261 -0.3674  0.1894 -0.2600
  374TMC3    C1 5591   0.672   2.944  10.118 -0.9908  0.0446 -0.3773
  374TMC3    C2 5592   0.739   3.045  10.179 -0.6334  0.0906 -0.6952
  374TMC3    C3 5593   0.775   3.152  10.096 -0.3894  0.2781 -0.0319
  374TMC3    C4 5594   0.631   2.949   9.986  0.0015  0.3489  0.8246
  374TMC3    C5 5595   0.673   3.055   9.909 -0.5431  0.8494  0.1279
  374TMC3    C6 5596   0.744   3.157   9.965  0.2001 -0.3945  0.5255
  374TMC3     C 5597   0.636   2.811  10.179 -0.5980 -0.8608  0.2812
  374TMC3     O 5598   0.533   2.756  10.143 -0.2073 -0.2224 -0.6715
  374TMC3     H 5599   0.751   3.060  10.286  1.9263 -0.1647 -0.9359
  374TMC3    H1 5600   0.596   2.860   9.935  1.2961 -0.7464  1.8659
  374TMC3    H2 5601   0.782   3.242   9.908 -0.1528 -0.2171  0.5529
  374TMC3    C7 5602   0.640   3.071   9.770 -0.4978 -1.0348  0.5971
  374TMC3    C8 5603   0.863   3.263  10.142 -0.1133 -0.1164  0.1304
  374TMC3    O1 5604   0.727   3.117   9.691 -0.9841  0.1115  0.1171
  374TMC3    O2 5605   0.878   3.363  10.073  0.2908  0.7344 -0.4926
  375MPD2     C 5606   1.006   3.969  17.228 -0.3878 -0.2734  0.4480
  375MPD2    C1 5607   0.922   3.866  17.174 -0.5615  0.3642 -0.1483
  375MPD2    C2 5608   0.961   3.780  17.067 -0.5977 -0.2093  0.4624
  375MPD2    C3 5609   1.084   3.805  17.013  0.4957  0.1379  0.4989
  375MPD2    C4 5610   1.167   3.902  17.063  0.3850 -1.0932 -0.2524
  375MPD2    C5 5611   1.130   3.985  17.163  0.3199 -0.1139 -0.1377
  375MPD2     H 5612   0.893   3.706  17.027  1.7176 -1.2092 -1.6311
  375MPD2    H1 5613   1.263   3.936  17.025  0.0064 -0.5261 -0.7033
  375MPD2    H2 5614   0.975   4.040  17.303  0.8150  0.5301  0.1936
  375MPD2    H3 5615   1.188   4.072  17.191  1.0028 -0.7568  0.4670
  375MPD2     N 5616   1.132   3.730  16.898  0.3701 -0.4917  0.1098
  375MPD2    H5 5617   1.231   3.740  16.874  0.2608 -0.4724 -0.3409
  375MPD2    N1 5618   0.788   3.843  17.224 -0.6289 -0.0177  0.4698
  375MPD2    H7 5619   0.731   3.778  17.172 -2.4251  1.4555  0.6192
  376TMC3    C1 5620   1.137   3.550  16.747 -0.1742 -0.1308  0.1738
  376TMC3    C2 5621   1.273   3.540  16.761  0.2880 -0.3924 -0.2237
  376TMC3    C3 5622   1.327   3.433  16.701 -0.0588 -0.6916 -0.5867
  376TMC3    C4 5623   1.064   3.466  16.671 -0.0658 -0.3789 -0.3162
  376TMC3    C5 5624   1.123   3.361  16.614 -0.1125  0.6467 -0.3213
  376TMC3    C6 5625   1.258   3.341  16.627  0.3223  0.5090  0.6622
  376TMC3     C 5626   1.056   3.651  16.817  0.5817  0.1559  0.1234
  376TMC3     O 5627   0.935   3.639  16.817 -0.4338 -0.2025  0.5875
  376TMC3     H 5628   1.333   3.597  16.830  0.0108  1.8295 -1.8119
  376TMC3    H1 5629   0.957   3.482  16.660 -0.0055 -0.4804 -1.0713
  376TMC3    H2 5630   1.305   3.262  16.569 -1.4431  0.8088 -1.2024
  376TMC3    C7 5631   1.049   3.296  16.507  0.1472 -0.4715 -0.2592
  376TMC3    C8 5632   1.472   3.427  16.714  0.4018 -0.1074 -0.6877
  376TMC3    O1 5633   0.932   3.259  16.517 -0.5436 -0.5590 -0.7302
  376TMC3    O2 5634   1.532   3.530  16.747  0.7137  0.1013 -0.2239
  377MPD2     C 5635   3.388   3.015  12.582 -0.5050 -0.7112  0.1926
  377MPD2    C1 5636   3.501   2.942  12.634 -0.2167 -0.0512  0.0093
  377MPD2    C2 5637   3.497   2.874  12.757  0.0077 -0.4208 -0.0774
  377MPD2    C3 5638   3.378   2.879  12.827 -0.5595  0.2859  0.5746
  377MPD2    C4 5639   3.271   2.946  12.780  0.1187  0.2909  0.4963
  377MPD2    C5 5640   3.276   3.021  12.664 -0.5764  0.2008  0.0087
  377MPD2     H 5641   3.591   2.835  12.796  0.5144 -0.0213 -0.8984
  377MPD2    H1 5642   3.178   2.940  12.835  0.4022  1.6179  1.1137
  377MPD2    H2 5643   3.376   3.079  12.495 -1.7251 -0.1966  0.7383
  377MPD2    H3 5644   3.182   3.061  12.627 -2.0432 -1.8895  1.5067
  377MPD2     N 5645   3.356   2.813  12.947 -0.0503  0.4156  0.1522
  377MPD2    H5 5646   3.275   2.832  13.005 -0.8615  1.5438 -1.3610
  377MPD2    N1 5647   3.612   2.937  12.549 -0.4212  0.0101  1.1026
  377MPD2    H7 5648   3.606   2.996  12.466 -0.6560  0.9364  1.7759
  378TMC3    C1 5649   3.914   2.980  12.295 -0.7451 -0.3145 -0.1976
  378TMC3    C2 5650   3.803   2.931  12.362  0.5934  0.0791 -0.5316
  378TMC3    C3 5651   3.827   2.867  12.482  0.3781 -0.1318 -0.3562
  378TMC3    C4 5652   4.039   2.952  12.341 -0.0605 -0.3892  0.1331
  378TMC3    C5 5653   4.055   2.869  12.446 -0.9720 -0.1560 -0.0257
  378TMC3    C6 5654   3.949   2.828  12.521  0.8775  0.0616 -0.2728
  378TMC3     C 5655   3.893   3.045  12.163 -0.3747  0.2375  0.2470
  378TMC3     O 5656   3.788   3.106  12.155  0.1594 -0.2869  0.0049
  378TMC3     H 5657   3.703   2.956  12.328  1.2519  1.3150 -1.5648
  378TMC3    H1 5658   4.126   2.999  12.295 -0.9933  0.3007 -0.9418
  378TMC3    H2 5659   3.979   2.780  12.613 -1.2557 -0.2902  0.2306
  378TMC3    C7 5660   4.192   2.840  12.494 -0.8666 -0.3548 -0.4724
  378TMC3    C8 5661   3.725   2.868  12.579  0.7119  0.5318  0.1827
  378TMC3    O1 5662   4.209   2.798  12.608  0.3083  0.1160 -0.3365
  378TMC3    O2 5663   3.741   2.777  12.659  0.7107 -0.0399  0.0990
  379MPD2     C 5664   0.297   1.203  16.240 -0.6767  0.2591  0.4770
  379MPD2    C1 5665   0.212   1.119  16.293 -0.2895 -0.2344 -0.3182
  379MPD2    C2 5666   0.244   1.062  16.418 -0.9152 -0.4045 -0.0919
  379MPD2    C3 5667   0.357   1.091  16.490 -0.1341 -0.3048  0.1448
  379MPD2    C4 5668   0.454   1.166  16.424 -0.5055 -0.1521  0.0514
  379MPD2    C5 5669   0.424   1.225  16.302  0.0304  1.1862  0.6507
  379MPD2     H 5670   0.183   0.976  16.443 -1.8571  0.0973 -0.6648
  379MPD2    H1 5671   0.549   1.178  16.475 -0.8949 -0.3104  0.8047
  379MPD2    H2 5672   0.287   1.247  16.141  3.2978 -1.2116 -0.5794
  379MPD2    H3 5673   0.497   1.288  16.253 -0.2324  0.7050 -0.3673
  379MPD2     N 5674   0.388   1.031  16.615 -0.4108  0.7400  0.4311
  379MPD2    H5 5675   0.482   1.032  16.653  0.2000 -1.7167 -1.0260
  379MPD2    N1 5676   0.094   1.094  16.224 -0.3387  0.3902 -0.0317
  379MPD2    H7 5677   0.103   1.126  16.128 -1.1807  0.1983 -0.1722
  380TMC3    C1 5678   4.648   0.963  16.160  0.1389 -0.2137 -0.4492
  380TMC3    C2 5679   4.725   0.878  16.089 -1.2558 -0.8713 -0.0606
  380TMC3    C3 5680   4.705   0.876  15.950 -0.6795 -0.4030 -0.4816
  380TMC3    C4 5681   4.548   1.040  16.108 -0.4356  0.0082  0.3610
  380TMC3    C5 5682   4.527   1.036  15.975 -0.1682  0.1963 -0.6630
  380TMC3    C6 5683   4.600   0.948  15.893 -0.3103  0.4098  0.5716
  380TMC3     C 5684   4.721   1.015  16.267 -0.0976 -0.1055  0.2520
  380TMC3     O 5685   4.675   0.995  16.378 -0.4611 -0.0640  0.3598
  380TMC3     H 5686   0.080   0.821  16.133  0.7571  1.4243 -0.7403
  380TMC3    H1 5687   4.498   1.115  16.168 -2.7008 -0.2709 -1.1909
  380TMC3    H2 5688   4.581   0.951  15.787  0.1519 -1.2665  0.4324
  380TMC3    C7 5689   4.476   1.154  15.921  0.0201  1.0513  0.1166
  380TMC3    C8 5690   0.097   0.863  15.866 -0.6092  0.5411  0.7289
  380TMC3    O1 5691   4.517   1.258  15.970  0.3240 -0.2797 -0.4461
  380TMC3    O2 5692   0.091   0.875  15.741 -0.6379  0.0943 -0.4853
  381TMC3    C1 5693   3.937   2.507  16.528 -0.6598  0.0728 -0.3657
  381TMC3    C2 5694   4.064   2.560  16.541  0.1196 -0.2448 -0.2225
  381TMC3    C3 5695   4.162   2.480  16.599  0.2984  0.1105 -0.0115
  381TMC3    C4 5696   3.897   2.385  16.587  0.2979  0.2531  0.0907
  381TMC3    C5 5697   3.998   2.307  16.639 -0.5854 -0.2112  0.1786
  381TMC3    C6 5698   4.126   2.351  16.647 -0.2571  0.2140 -0.6115
  381TMC3     C 5699   3.839   2.594  16.457 -0.4372 -0.0231 -0.0669
  381TMC3     O 5700   3.883   2.681  16.387 -0.5503 -0.2754 -0.3468
  381TMC3     H 5701   4.080   2.661  16.505  2.3913 -0.4259  0.2449
  381TMC3    H1 5702   3.792   2.360  16.595  0.3576 -0.4551 -1.4959
  381TMC3    H2 5703   4.203   2.279  16.673 -1.6654 -0.9815  0.1627
  381TMC3    C7 5704   3.952   2.223  16.749 -0.5070 -0.0680 -0.6232
  381TMC3    C8 5705   4.301   2.524  16.602 -0.1583  0.0973  0.2230
  381TMC3    O1 5706   4.004   2.118  16.773  0.0249 -0.0308 -0.3803
  381TMC3    O2 5707   4.341   2.590  16.509 -0.1023 -0.1085  0.3866
  382MPD2     C 5708   4.018   4.360  17.380 -0.1286 -0.3077 -0.5115
  382MPD2    C1 5709   3.980   4.426  17.492  0.0601  0.0689 -0.1538
  382MPD2    C2 5710   3.886   4.370  17.579 -0.1780 -0.4443  0.6887
  382MPD2    C3 5711   3.832   4.249  17.552 -0.2970 -0.0673  0.0634
  382MPD2    C4 5712   3.868   4.191  17.430 -0.2809  0.1847  0.0316
  382MPD2    C5 5713   3.960   4.244  17.346  0.1770 -0.4786 -0.3463
  382MPD2     H 5714   3.867   4.422  17.672  1.5431  0.1378  0.7147
  382MPD2    H1 5715   3.823   4.097  17.401 -0.8089  0.0678  1.1980
  382MPD2    H2 5716   4.100   4.401  17.322  2.1093  0.1293  2.9529
  382MPD2    H3 5717   3.998   4.189  17.261 -1.3405 -2.9073  0.5537
  382MPD2     N 5718   3.739   4.177  17.633  0.0256 -0.1360  0.6514
  382MPD2    H5 5719   3.709   4.083  17.606  1.0530  0.2337 -1.8045
  382MPD2    N1 5720   4.036   4.551  17.524  0.2284  0.3172  0.3848
  382MPD2    H7 5721   4.007   4.580  17.617 -2.3373  1.2782 -0.6965
  383TMC3    C1 5722   3.596   4.121   0.097 -0.6000  0.0165  0.0845
  383TMC3    C2 5723   3.532   4.029   0.016 -0.4209 -0.3517 -0.3166
  383TMC3    C3 5724   3.411   3.982   0.061 -0.0659 -0.5461  0.0754
  383TMC3    C4 5725   3.536   4.166   0.209  0.5434  0.2063 -0.1525
  383TMC3    C5 5726   3.415   4.120   0.242 -0.7936  0.0008 -0.6447
  383TMC3    C6 5727   3.346   4.026   0.172  0.0987  0.1217  0.4371
  383TMC3     C 5728   3.700   4.214   0.050 -0.7226  0.5901  0.1566
  383TMC3     O 5729   3.721   4.308   0.122 -0.0124 -0.1461 -0.4292
  383TMC3     H 5730   3.559   4.000  17.621  0.5971 -1.1048  0.1772
  383TMC3    H1 5731   3.588   4.240   0.269 -0.5511  1.0257 -0.1965
  383TMC3    H2 5732   3.264   3.971   0.217 -0.2682 -0.0612 -0.4448
  383TMC3    C7 5733   3.344   4.161   0.361 -0.0115 -0.4159  0.0619
  383TMC3    C8 5734   3.336   3.901  17.682  0.2817 -0.5909  0.0649
  383TMC3    O1 5735   3.229   4.119   0.367 -0.3721 -0.4572  0.4722
  383TMC3    O2 5736   3.399   3.806  17.630  0.4311 -0.1626 -1.2861
  384MPD2     C 5737   0.087   0.888  12.258  0.2069  0.7527  0.3283
  384MPD2    C1 5738   0.042   0.887  12.389 -0.3555  0.1866 -0.2355
  384MPD2    C2 5739   0.127   0.832  12.480 -0.0957 -0.1199  0.0315
  384MPD2    C3 5740   0.253   0.786  12.449  0.5823 -0.4943  0.0076
  384MPD2    C4 5741   0.290   0.785  12.318 -0.1639 -0.3890  0.4299
  384MPD2    C5 5742   0.210   0.835  12.221 -0.3411 -0.5379 -0.4363
  384MPD2     H 5743   0.100   0.825  12.584 -1.3273 -1.0018 -0.3495
  384MPD2    H1 5744   0.389   0.754  12.285 -0.1034  0.2295  0.0246
  384MPD2    H2 5745   0.026   0.920  12.175  0.9402 -2.6849 -1.5507
  384MPD2    H3 5746   0.242   0.826  12.118 -2.0509 -1.2540 -0.9026
  384MPD2     N 5747   0.347   0.748  12.545  0.5233  0.1458 -0.4923
  384MPD2    H5 5748   0.432   0.707  12.510  1.4114  0.4978  1.2463
  384MPD2    N1 5749   4.638   0.936  12.428  0.1194 -0.5938 -0.5621
  384MPD2    H7 5750   4.572   0.963  12.356  0.7878 -1.4733 -1.5144
  385TMC3    C1 5751   0.417   0.714  12.769 -1.0559 -0.2528 -0.3912
  385TMC3    C2 5752   0.422   0.574  12.764  0.1920  0.1731 -0.1920
  385TMC3    C3 5753   0.427   0.512  12.884 -0.0777 -1.5462 -0.5556
  385TMC3    C4 5754   0.428   0.782  12.882  0.0612  0.2973  0.3842
  385TMC3    C5 5755   0.412   0.720  12.999 -0.3554 -1.2274 -1.1618
  385TMC3    C6 5756   0.419   0.581  13.004  1.0335 -0.7690 -0.7104
  385TMC3     C 5757   0.335   0.789  12.679 -0.6272  0.6192  0.0678
  385TMC3     O 5758   0.263   0.871  12.734 -0.6067  0.6504  0.4350
  385TMC3     H 5759   0.402   0.520  12.673  2.1556 -0.5601 -0.1840
  385TMC3    H1 5760   0.425   0.889  12.867 -0.0130  0.0184 -1.5541
  385TMC3    H2 5761   0.418   0.535  13.102  0.1366  0.6354 -0.0614
  385TMC3    C7 5762   0.321   0.797  13.089  0.0126 -0.4091  0.1052
  385TMC3    C8 5763   0.454   0.368  12.895 -0.1443  0.6285 -0.4958
  385TMC3    O1 5764   0.324   0.789  13.213  0.0161 -0.0394 -0.1291
  385TMC3    O2 5765   0.453   0.326  13.011 -0.3875  0.0244  0.0093
  386TMC3    C1 5766   0.732   2.963  12.057 -0.4180  0.4321  0.2420
  386TMC3    C2 5767   0.720   2.912  11.927  0.4730 -0.2623 -0.8610
  386TMC3    C3 5768   0.626   2.969  11.849 -0.3100 -0.3429  0.2414
  386TMC3    C4 5769   0.678   3.086  12.095 -0.2230 -0.5120 -0.3257
  386TMC3    C5 5770   0.586   3.139  12.009 -0.2290  0.0015  0.1070
  386TMC3    C6 5771   0.559   3.078  11.886 -0.0162 -0.3719  0.1476
  386TMC3     C 5772   0.836   2.929  12.150 -0.5612 -0.3140  0.1002
  386TMC3     O 5773   0.799   2.944  12.270  0.2329 -0.1276 -0.3071
  386TMC3     H 5774   0.761   2.815  11.902 -1.3140 -2.3221  4.0681
  386TMC3    H1 5775   0.690   3.130  12.194  0.3588 -0.1783 -0.5397
  386TMC3    H2 5776   0.476   3.110  11.823 -1.6119 -1.2085  1.8333
  386TMC3    C7 5777   0.502   3.245  12.062  0.0916 -0.0320  0.2162
  386TMC3    C8 5778   0.588   2.903  11.723 -0.3210 -0.3014  0.5498
  386TMC3    O1 5779   0.484   3.245  12.184 -0.1913 -0.6581  0.0572
  386TMC3    O2 5780   0.475   2.923  11.680  0.3642 -0.5238  0.5560
  387MPD2     C 5781   2.522   3.115   9.612 -0.0449  0.5422 -0.6522
  387MPD2    C1 5782   2.653   3.103   9.656  0.1786  0.0391 -0.0083
  387MPD2    C2 5783   2.701   2.976   9.693  1.1225 -0.6788 -0.8849
  387MPD2    C3 5784   2.622   2.864   9.672  0.9466  0.5871  0.6119
  387MPD2    C4 5785   2.500   2.879   9.613 -0.1851 -0.1826 -0.2687
  387MPD2    C5 5786   2.444   3.007   9.586 -0.3382 -0.1057  0.7151
  387MPD2     H 5787   2.798   2.969   9.741  1.1360 -0.8627 -0.9410
  387MPD2    H1 5788   2.446   2.786   9.598  0.6833 -1.0868  2.1184
  387MPD2    H2 5789   2.483   3.215   9.592 -0.9931 -0.1964 -2.4855
  387MPD2    H3 5790   2.347   3.026   9.541 -1.1809  0.1817  2.6240
  387MPD2     N 5791   2.673   2.745   9.730  0.0679  0.2185  0.1271
  387MPD2    H5 5792   2.772   2.750   9.753  0.2742 -0.4238 -0.5949
  387MPD2    N1 5793   2.730   3.213   9.706  0.0302 -0.0891 -0.8157
  387MPD2    H7 5794   2.821   3.190   9.746 -0.2816  1.1718  0.5924
  388TMC3    C1 5795   2.761   3.412   9.837 -0.2026 -0.3924  0.7932
  388TMC3    C2 5796   2.723   3.542   9.856  0.4966  0.5844  0.2089
  388TMC3    C3 5797   2.752   3.596   9.981 -0.3135 -0.7608 -0.0316
  388TMC3    C4 5798   2.818   3.328   9.931  0.2776  0.1861  0.4318
  388TMC3    C5 5799   2.842   3.386  10.053 -0.3355  0.0389  0.1194
  388TMC3    C6 5800   2.813   3.518  10.078 -0.0483  0.2493 -0.3486
  388TMC3     C 5801   2.694   3.340   9.727  0.1782  0.1931  0.0988
  388TMC3     O 5802   2.603   3.395   9.670  0.6430 -0.0477  0.2774
  388TMC3     H 5803   2.676   3.594   9.773 -1.3946 -0.4793  0.6203
  388TMC3    H1 5804   2.848   3.226   9.908 -1.7058 -0.4358  0.6767
  388TMC3    H2 5805   2.829   3.547  10.181  3.0990 -3.1930  0.1110
  388TMC3    C7 5806   2.901   3.299  10.149 -0.5607  0.0593  0.1796
  388TMC3    C8 5807   2.677   3.716  10.028 -0.5295 -0.4469  0.8724
  388TMC3    O1 5808   2.985   3.341  10.230 -0.2208  0.1984 -0.4095
  388TMC3    O2 5809   2.714   3.758  10.132 -0.1789 -0.5056  0.1192
  389MPD2     C 5810   2.604   1.355  11.523  0.2453 -0.7354 -0.4487
  389MPD2    C1 5811   2.551   1.236  11.481 -0.1787 -0.0596  0.6514
  389MPD2    C2 5812   2.421   1.205  11.500 -0.6069 -0.1499 -0.1149
  389MPD2    C3 5813   2.336   1.292  11.570 -0.0256  0.2493  0.6647
  389MPD2    C4 5814   2.389   1.410  11.618 -0.3266  0.4330  0.1467
  389MPD2    C5 5815   2.528   1.434  11.608 -1.0084 -0.3508  0.1615
  389MPD2     H 5816   2.379   1.115  11.455  1.8243 -0.8334 -1.0244
  389MPD2    H1 5817   2.333   1.484  11.674  1.7170  1.9413  0.2068
  389MPD2    H2 5818   2.711   1.368  11.514  0.2541 -0.8316 -0.4756
  389MPD2    H3 5819   2.565   1.520  11.662 -0.7299  1.0990 -2.3678
  389MPD2     N 5820   2.201   1.259  11.599  0.4073 -0.7341  0.0007
  389MPD2    H5 5821   2.149   1.321  11.660 -0.6392 -3.6474  2.0833
  389MPD2    N1 5822   2.631   1.159  11.390  0.0500 -0.4750  0.4640
  389MPD2    H7 5823   2.702   1.212  11.341  0.2506 -0.7297  0.4802
  390TMC3    C1 5824   1.991   1.151  11.580 -0.6957 -0.0206 -0.2428
  390TMC3    C2 5825   1.957   1.202  11.706 -1.1976 -0.3805  0.5040
  390TMC3    C3 5826   1.826   1.203  11.738  0.8094 -0.8019  0.1601
  390TMC3    C4 5827   1.891   1.104  11.496  1.0600  0.3816  0.2618
  390TMC3    C5 5828   1.761   1.099  11.540 -0.4257 -0.2915  1.0650
  390TMC3    C6 5829   1.732   1.154  11.657 -0.4057  0.2702 -0.0250
  390TMC3     C 5830   2.133   1.161  11.543  0.0630  0.6913 -0.1356
  390TMC3     O 5831   2.158   1.109  11.437 -0.0327  0.2148 -0.3207
  390TMC3     H 5832   2.038   1.227  11.773 -2.5982 -1.3015  2.5485
  390TMC3    H1 5833   1.916   1.073  11.395 -3.5571  1.6834 -1.2974
  390TMC3    H2 5834   1.630   1.166  11.692 -0.7104 -2.8649  0.1325
  390TMC3    C7 5835   1.667   1.018  11.465  0.3983  0.1996 -0.7116
  390TMC3    C8 5836   1.807   1.187  11.882 -0.0410 -0.3810  0.4704
  390TMC3    O1 5837   1.713   0.946  11.376  0.5960 -0.3013  0.0659
  390TMC3    O2 5838   1.859   1.263  11.964  0.0230 -0.1144  0.6545
  391MPD2     C 5839   1.512   2.557  11.367 -0.2944 -0.0339 -0.2474
  391MPD2    C1 5840   1.596   2.663  11.377 -0.2504 -0.7510  0.4408
  391MPD2    C2 5841   1.588   2.764  11.283 -0.1113  0.1093  0.3614
  391MPD2    C3 5842   1.482   2.762  11.186  0.5167 -0.1390 -0.3262
  391MPD2    C4 5843   1.386   2.662  11.190 -0.0927 -0.4673 -0.1081
  391MPD2    C5 5844   1.408   2.562  11.277 -1.0175 -0.1006 -0.5799
  391MPD2     H 5845   1.655   2.850  11.284 -0.3316  0.2889 -0.7815
  391MPD2    H1 5846   1.303   2.679  11.122 -0.6640 -1.2312  0.3921
  391MPD2    H2 5847   1.527   2.472  11.433 -0.9622  1.8522  2.3305
  391MPD2    H3 5848   1.340   2.478  11.275  0.3746 -1.2960  2.5344
  391MPD2     N 5849   1.489   2.861  11.083 -0.3186 -0.4798  0.2431
  391MPD2    H5 5850   1.551   2.941  11.088  0.8286 -1.4240  1.1191
  391MPD2    N1 5851   1.703   2.653  11.474 -0.5468  0.1234 -0.4780
  391MPD2    H7 5852   1.698   2.581  11.545 -0.1322  0.0662 -0.5045
  392TMC3    C1 5853   1.453   2.972  10.887  0.8323  0.0984  0.0572
  392TMC3    C2 5854   1.347   3.020  10.816  0.0718  0.1512 -0.6905
  392TMC3    C3 5855   1.359   3.143  10.758  0.2715 -0.3173  0.2114
  392TMC3    C4 5856   1.559   3.047  10.914  0.8801  0.0171 -0.2396
  392TMC3    C5 5857   1.563   3.168  10.848  0.7020  0.1874 -0.4654
  392TMC3    C6 5858   1.470   3.220  10.760  0.5907 -0.0398 -0.3312
  392TMC3     C 5859   1.415   2.858  10.964  0.6877 -1.0499 -0.3702
  392TMC3     O 5860   1.312   2.801  10.934  0.1489 -0.5453 -0.2167
  392TMC3     H 5861   1.262   2.957  10.795 -0.2714  1.1900 -2.4794
  392TMC3    H1 5862   1.643   3.016  10.974 -0.3709 -0.4829  1.2311
  392TMC3    H2 5863   1.488   3.317  10.716  1.4522  0.3752  0.9539
  392TMC3    C7 5864   1.688   3.236  10.871 -0.3181  0.4611  0.2831
  392TMC3    C8 5865   1.274   3.159  10.644 -0.2846 -0.4143 -0.1526
  392TMC3    O1 5866   1.744   3.221  10.978 -0.0846  0.2095  0.0735
  392TMC3    O2 5867   1.222   3.058  10.599  0.3222  0.3267 -0.4007
  393TMC3    C1 5868   0.865   0.994  11.048 -0.4027  0.3423  0.5898
  393TMC3    C2 5869   0.808   0.939  11.160  0.0390 -0.2331  0.3323
  393TMC3    C3 5870   0.845   0.810  11.183 -0.2861  0.0433  0.1628
  393TMC3    C4 5871   0.948   0.933  10.961 -0.1646  0.1136 -0.2836
  393TMC3    C5 5872   1.000   0.802  10.995  0.3160 -0.2228 -0.5292
  393TMC3    C6 5873   0.933   0.741  11.109 -0.1928  0.2967  0.4953
  393TMC3     C 5874   0.795   1.112  10.997  0.2809  0.3626 -0.5775
  393TMC3     O 5875   0.670   1.117  10.993  0.1328 -0.2934  0.5627
  393TMC3     H 5876   0.744   0.992  11.229 -0.1496  0.9995 -0.7635
  393TMC3    H1 5877   0.958   0.961  10.857  3.9635  0.3340  0.1340
  393TMC3    H2 5878   0.959   0.637  11.123 -0.9777  0.3302  2.1191
  393TMC3    C7 5879   1.057   0.714  10.890  0.8546  0.3344 -0.3021
  393TMC3    C8 5880   0.782   0.736  11.292 -0.9612 -0.1745 -0.3220
  393TMC3    O1 5881   1.034   0.593  10.893  0.6795 -0.9046 -0.5599
  393TMC3    O2 5882   0.764   0.615  11.281 -0.1225 -0.5411 -0.3438
  394TMC3    C1 5883   2.654   0.969  11.243  0.0355  0.3525 -0.1229
  394TMC3    C2 5884   2.602   0.844  11.218 -0.0360 -0.0535 -0.0791
  394TMC3    C3 5885   2.632   0.788  11.100  0.4193  0.4449 -0.1460
  394TMC3    C4 5886   2.739   1.040  11.154  0.0781 -0.1094 -0.5318
  394TMC3    C5 5887   2.771   0.968  11.036 -0.4885 -0.8107  0.5352
  394TMC3    C6 5888   2.725   0.841  11.012  0.4971 -0.2185  0.1954
  394TMC3     C 5889   2.608   1.028  11.366 -0.4182  0.2209  0.2589
  394TMC3     O 5890   2.536   0.957  11.434  0.1276 -0.7409  0.0158
  394TMC3     H 5891   2.527   0.804  11.284  2.0084 -1.3738  1.4277
  394TMC3    H1 5892   2.780   1.138  11.176 -0.0863 -0.3439  0.8053
  394TMC3    H2 5893   2.741   0.783  10.922 -1.5045  0.2670 -0.4532
  394TMC3    C7 5894   2.803   1.065  10.929 -0.7255 -0.1419 -0.3918
  394TMC3    C8 5895   2.495   0.791  11.040 -0.3609  0.0124  0.3434
  394TMC3    O1 5896   2.861   1.163  10.970  0.0120  0.9096 -0.4877
  394TMC3    O2 5897   2.406   0.739  11.103 -0.8623  0.1701 -0.2176
  395TMC3    C1 5898   2.607   2.987  14.839 -0.2973  0.0465 -0.9347
  395TMC3    C2 5899   2.544   2.996  14.714 -0.1029 -0.0037  0.1660
  395TMC3    C3 5900   2.518   3.113  14.652  0.1821  0.3874  0.0826
  395TMC3    C4 5901   2.663   3.104  14.892  0.2834  0.7580  0.1980
  395TMC3    C5 5902   2.660   3.216  14.808 -0.6087 -0.1666 -0.0633
  395TMC3    C6 5903   2.585   3.227  14.692  0.6841 -0.1452  0.0713
  395TMC3     C 5904   2.523   2.918  14.933 -0.1907  0.1745 -0.3067
  395TMC3     O 5905   2.494   2.986  15.032  0.3378 -0.3119  0.2005
  395TMC3     H 5906   2.511   2.903  14.668 -0.8694  0.0770  0.5573
  395TMC3    H1 5907   2.712   3.102  14.989 -1.7743 -0.6812  1.1947
  395TMC3    H2 5908   2.559   3.323  14.649  1.1971  0.7389  1.7535
  395TMC3    C7 5909   2.728   3.334  14.857  0.4868  0.1418 -0.1807
  395TMC3    C8 5910   2.375   3.139  14.619 -0.5153 -0.4370 -0.3416
  395TMC3    O1 5911   2.730   3.351  14.978 -0.5181 -0.3528  0.5147
  395TMC3    O2 5912   2.354   3.254  14.576 -0.4292 -0.7708  0.4573
  396MPD2     C 5913   1.517   4.504   0.271 -0.2525 -0.2441 -0.7844
  396MPD2    C1 5914   1.554   4.518   0.139 -0.0577  0.0415  0.0484
  396MPD2    C2 5915   1.544   4.642   0.076  0.3895 -0.4054  0.3222
  396MPD2    C3 5916   1.505   0.033   0.149 -0.1000  0.0024 -0.5700
  396MPD2    C4 5917   1.471   0.017   0.278  1.4589 -0.0808  0.2222
  396MPD2    C5 5918   1.479   4.619   0.341  0.6429  0.0868 -1.1938
  396MPD2     H 5919   1.579   4.672  17.685  0.2942  1.4922  0.8673
  396MPD2    H1 5920   1.454   0.104   0.340 -0.0862  0.2676 -0.7009
  396MPD2    H2 5921   1.543   4.415   0.327 -0.2086 -1.2517 -2.4033
  396MPD2    H3 5922   1.468   4.614   0.449  0.4196 -1.0944 -1.2696
  396MPD2     N 5923   1.505   0.157   0.074  0.4070 -0.8470  0.2020
  396MPD2    H5 5924   1.527   0.148  17.682 -0.6870  1.6303 -0.2821
  396MPD2    N1 5925   1.597   4.397   0.077 -0.3600  0.0554  0.3426
  396MPD2    H7 5926   1.590   4.313   0.134  1.7426 -1.1370 -1.1504
  397TMC3    C1 5927   1.683   4.252  17.623 -0.0323  0.2838  0.0633
  397TMC3    C2 5928   1.757   4.260  17.512  0.3829  0.2602  0.6508
  397TMC3    C3 5929   1.727   4.192  17.403 -0.3975 -0.4245 -0.5081
  397TMC3    C4 5930   1.570   4.173  17.620  0.4036  0.5359 -0.1251
  397TMC3    C5 5931   1.533   4.111  17.503 -0.1669  0.2309  0.0178
  397TMC3    C6 5932   1.609   4.122  17.389 -0.6038  0.2025 -0.0173
  397TMC3     C 5933   1.649   4.390  17.658 -0.3295 -0.5803 -0.2190
  397TMC3     O 5934   1.676   4.486  17.583  0.0891  0.0456 -0.5563
  397TMC3     H 5935   1.850   4.316  17.514  0.6528 -0.0886 -1.6205
  397TMC3    H1 5936   1.521   4.158   0.009  0.7064 -1.0558 -0.2241
  397TMC3    H2 5937   1.571   4.090  17.293  0.6127  0.9990 -0.7584
  397TMC3    C7 5938   1.499   3.970  17.509 -0.2261  0.2336 -0.1415
  397TMC3    C8 5939   1.799   4.215  17.277  0.7045  0.7471  0.3315
  397TMC3    O1 5940   1.464   3.921  17.403 -0.5775  0.8352 -0.0073
  397TMC3    O2 5941   1.869   4.316  17.282  0.1000  0.1280 -0.4121
  398MPD2     C 5942   4.285   0.315   0.252  0.0803  0.0679  0.2029
  398MPD2    C1 5943   4.315   0.290   0.385 -0.1291  0.2739 -0.2243
  398MPD2    C2 5944   4.373   0.381   0.469 -0.7333  0.3842 -0.2889
  398MPD2    C3 5945   4.401   0.508   0.416  0.3637  0.3587  0.2603
  398MPD2    C4 5946   4.368   0.537   0.287  0.1906  0.2827 -0.9615
  398MPD2    C5 5947   4.296   0.446   0.209  0.2853  0.4492  0.2173
  398MPD2     H 5948   4.403   0.360   0.570 -0.6919 -0.3798 -0.4615
  398MPD2    H1 5949   4.373   0.637   0.246 -1.6807  0.0198 -1.8261
  398MPD2    H2 5950   4.239   0.245   0.183 -1.7282  1.7842 -0.3245
  398MPD2    H3 5951   4.256   0.467   0.110  0.0228  1.1497  0.4715
  398MPD2     N 5952   4.470   0.592   0.501  0.6124 -0.8502 -0.5189
  398MPD2    H5 5953   4.483   0.555   0.595  3.7284  0.5280 -0.4218
  398MPD2    N1 5954   4.297   0.162   0.443 -0.2858  0.3561  0.0030
  398MPD2    H7 5955   4.297   0.146   0.543  1.9177 -1.5011 -0.2865
  399TMC3    C1 5956   4.266   4.650   0.442  0.4158 -0.2655  0.5109
  399TMC3    C2 5957   4.293   4.643   0.580 -0.1267 -0.2774  0.0299
  399TMC3    C3 5958   4.285   4.526   0.645  0.5932  0.1109 -0.8950
  399TMC3    C4 5959   4.235   4.540   0.371  1.3593 -0.7332  0.1148
  399TMC3    C5 5960   4.210   4.425   0.447 -0.0381 -0.2109 -0.0520
  399TMC3    C6 5961   4.231   4.414   0.579  0.2657  0.2130 -0.4701
  399TMC3     C 5962   4.279   0.048   0.371  0.0162 -0.8100 -0.6402
  399TMC3     O 5963   4.268   0.036   0.246 -0.8549 -0.1022  0.4739
  399TMC3     H 5964   4.339   0.003   0.626  0.4366  1.6053 -3.9927
  399TMC3    H1 5965   4.208   4.556   0.267  2.0948  2.2708  0.3935
  399TMC3    H2 5966   4.210   4.319   0.628  2.0416 -0.0373 -0.2092
  399TMC3    C7 5967   4.160   4.310   0.374 -0.4066  0.3662 -0.3180
  399TMC3    C8 5968   4.341   4.510   0.775 -0.2130  0.2481 -0.3754
  399TMC3    O1 5969   4.108   4.228   0.443 -0.3161 -0.6247  0.1662
  399TMC3    O2 5970   4.412   4.602   0.813 -0.3578  0.1801 -0.1270
  400TMC3    C1 5971   3.291   3.651  17.155 -0.8663  0.0998 -0.0008
  400TMC3    C2 5972   3.160   3.672  17.106  0.1914 -0.3025 -0.7899
  400TMC3    C3 5973   3.117   3.804  17.122  0.2209  0.1937  0.1818
  400TMC3    C4 5974   3.375   3.750  17.191 -0.1876 -0.1012  0.4109
  400TMC3    C5 5975   3.326   3.874  17.192 -0.0281 -0.3436 -0.2801
  400TMC3    C6 5976   3.193   3.900  17.175 -0.0647 -0.3305  0.0818
  400TMC3     C 5977   3.340   3.512  17.139  0.6046 -0.9582  0.1137
  400TMC3     O 5978   3.254   3.427  17.131  0.8047  0.2721 -0.0983
  400TMC3     H 5979   3.094   3.589  17.082 -0.6940 -0.0342  0.7488
  400TMC3    H1 5980   3.473   3.727  17.231 -0.0140  3.0460  1.8809
  400TMC3    H2 5981   3.149   3.999  17.180 -1.1223 -0.7903 -0.0900
  400TMC3    C7 5982   3.407   3.965  17.272  0.2791 -0.8263 -0.3339
  400TMC3    C8 5983   2.982   3.833  17.074 -0.0826  0.4143 -0.7296
  400TMC3    O1 5984   3.526   3.965  17.249  0.3162 -0.1895 -0.1255
  400TMC3    O2 5985   2.937   3.942  17.112 -0.4703  0.0240  0.1284
  401MPD2     C 5986   0.132   1.849   0.498 -0.3067  0.4827  0.8018
  401MPD2    C1 5987   0.242   1.769   0.510 -0.4956 -0.5148 -0.4526
  401MPD2    C2 5988   0.225   1.632   0.548 -0.1859 -0.1477  0.1747
  401MPD2    C3 5989   0.104   1.583   0.583 -0.0689  0.0088  0.3605
  401MPD2    C4 5990   4.719   1.670   0.567 -0.1644 -0.1859 -0.5133
  401MPD2    C5 5991   0.013   1.799   0.526  0.1643  0.7211  0.0749
  401MPD2     H 5992   0.307   1.564   0.564  1.8036  1.9943 -0.9811
  401MPD2    H1 5993   4.621   1.635   0.598 -0.0399  1.6748  1.9374
  401MPD2    H2 5994   0.149   1.953   0.472 -0.4088 -0.0508 -1.4437
  401MPD2    H3 5995   4.655   1.866   0.510  1.1053  1.5693 -1.3185
  401MPD2     N 5996   0.095   1.454   0.640 -0.5734 -0.0517 -0.4916
  401MPD2    H5 5997   0.182   1.401   0.640 -0.2926  0.4024  2.0646
  401MPD2    N1 5998   0.381   1.810   0.487  0.2618  0.0178  0.2521
  401MPD2    H7 5999   0.447   1.734   0.495  0.5937  0.0459 -1.9934
  402TMC3    C1 6000   0.047   1.305   0.806 -0.5746  1.1961 -0.3147
  402TMC3    C2 6001   0.076   1.361   0.930 -0.2870 -0.1136 -0.4236
  402TMC3    C3 6002   0.200   1.329   0.985 -0.6548  0.0776  0.0240
  402TMC3    C4 6003   0.136   1.215   0.750  0.0098  0.1131  0.5330
  402TMC3    C5 6004   0.256   1.194   0.799  0.0905  0.4914  0.8995
  402TMC3    C6 6005   0.284   1.228   0.931  0.3127 -0.2033 -0.1702
  402TMC3     C 6006   4.714   1.410   0.720 -0.6938  0.5372 -0.7666
  402TMC3     O 6007   4.618   1.474   0.757  0.4526  0.1926 -0.8625
  402TMC3     H 6008   0.010   1.431   0.980 -0.1164  0.3455 -0.8385
  402TMC3    H1 6009   0.114   1.177   0.651  0.3570 -0.0048  0.5030
  402TMC3    H2 6010   0.388   1.228   0.962 -0.7737 -2.4110  3.5196
  402TMC3    C7 6011   0.358   1.210   0.698 -0.0537  0.2550  0.1238
  402TMC3    C8 6012   0.273   1.455   1.009  0.4942 -0.4756 -0.2613
  402TMC3    O1 6013   0.333   1.282   0.605 -0.5351 -0.3137 -0.2587
  402TMC3    O2 6014   0.381   1.422   1.053  0.2319  0.3571 -0.4045
  403MPD2     C 6015   4.639   1.152  13.584  0.0446 -0.7014  0.7501
  403MPD2    C1 6016   4.705   1.036  13.611  0.1240  0.1577 -0.1640
  403MPD2    C2 6017   0.102   1.039  13.675 -0.3525 -0.2204 -0.2173
  403MPD2    C3 6018   0.170   1.153  13.705  0.4628 -1.2467  0.0528
  403MPD2    C4 6019   0.106   1.272  13.666 -0.5884 -0.7782  0.2595
  403MPD2    C5 6020   4.703   1.270  13.613 -0.4256  0.2400 -0.0881
  403MPD2     H 6021   0.159   0.948  13.689 -0.1645 -0.4100 -2.1434
  403MPD2    H1 6022   0.149   1.370  13.683 -3.2906  0.3813  0.4256
  403MPD2    H2 6023   4.545   1.159  13.531  2.2886 -1.9086 -3.3520
  403MPD2    H3 6024   4.658   1.362  13.577  0.8944  1.0828  0.3755
  403MPD2     N 6025   0.285   1.151  13.792  0.0221  0.1301  0.2740
  403MPD2    H5 6026   0.311   1.059  13.826  0.1133 -0.1310 -0.5078
  403MPD2    N1 6027   4.641   0.915  13.559  0.0860  0.5581  0.3912
  403MPD2    H7 6028   4.551   0.915  13.510  0.5387  2.0532 -0.4443
  404TMC3    C1 6029   4.607   0.689  13.522 -0.1831 -0.8551 -0.4089
  404TMC3    C2 6030   4.608   0.570  13.585 -0.1922 -0.3830 -0.7688
  404TMC3    C3 6031   4.531   0.471  13.528  0.2135 -0.2982  0.7188
  404TMC3    C4 6032   4.524   0.725  13.418  0.5099  0.2975  0.3725
  404TMC3    C5 6033   4.455   0.616  13.361  0.0341  0.3623 -0.3206
  404TMC3    C6 6034   4.463   0.488  13.412  0.2251  0.2691  0.5230
  404TMC3     C 6035   4.693   0.788  13.584  0.1483 -0.2210  0.0253
  404TMC3     O 6036   0.047   0.747  13.665 -0.2313 -0.2199 -0.3515
  404TMC3     H 6037   4.675   0.550  13.668  2.2616  1.0842 -2.4149
  404TMC3    H1 6038   4.522   0.821  13.366  1.5156  1.2308  2.0602
  404TMC3    H2 6039   4.398   0.407  13.384  0.1458  1.1611 -1.8982
  404TMC3    C7 6040   4.397   0.636  13.227 -0.3108  0.3882 -0.3115
  404TMC3    C8 6041   4.554   0.338  13.579  0.0881 -0.2715  0.4935
  404TMC3    O1 6042   4.378   0.746  13.175 -0.4133  0.0220  0.8605
  404TMC3    O2 6043   4.568   0.264  13.484  0.1618 -0.4967  0.1583
  405MPD2     C 6044   0.407   1.333  14.709 -0.3068 -0.3565 -0.4143
  405MPD2    C1 6045   0.381   1.262  14.591  0.0890  0.3900 -0.2839
  405MPD2    C2 6046   0.295   1.317  14.495  0.7670 -0.4144 -0.0613
  405MPD2    C3 6047   0.227   1.438  14.519 -0.1554  0.4626  0.5293
  405MPD2    C4 6048   0.264   1.505  14.630 -0.8634 -0.3462  0.4781
  405MPD2    C5 6049   0.354   1.458  14.726  0.9938  0.8509 -0.0742
  405MPD2     H 6050   0.269   1.261  14.406  0.6089 -0.5182  0.0496
  405MPD2    H1 6051   0.205   1.593  14.653  1.8907  1.4379  0.6635
  405MPD2    H2 6052   0.480   1.298  14.782 -2.1578 -1.1223  1.0601
  405MPD2    H3 6053   0.365   1.506  14.823  0.6124  0.7167  0.0371
  405MPD2     N 6054   0.116   1.468  14.439 -0.2727 -0.4708  0.3116
  405MPD2    H5 6055   0.103   1.404  14.361  0.6020  0.0933 -0.3027
  405MPD2    N1 6056   0.436   1.137  14.558  0.5190  0.3202 -0.0492
  405MPD2    H7 6057   0.409   1.103  14.466 -0.8443  0.3189  0.3573
  406TMC3    C1 6058   4.407   1.540  14.342 -0.3290 -0.2782  0.0025
  406TMC3    C2 6059   4.418   1.456  14.238  0.1837  0.5037  0.2525
  406TMC3    C3 6060   4.546   1.416  14.200  0.0789 -0.4129  0.3798
  406TMC3    C4 6061   4.512   1.591  14.412 -0.1467  0.6196  0.0130
  406TMC3    C5 6062   4.632   1.541  14.370  0.5743  0.5318  0.6132
  406TMC3    C6 6063   4.657   1.456  14.262 -0.5352 -0.0418 -0.0202
  406TMC3     C 6064   4.270   1.592  14.363  0.1857 -0.1104  0.6828
  406TMC3     O 6065   4.193   1.594  14.264  0.0269  0.5268  0.5297
  406TMC3     H 6066   4.328   1.441  14.180  0.3168 -1.0186  0.4406
  406TMC3    H1 6067   4.498   1.661  14.495  1.6257  1.1564 -0.1426
  406TMC3    H2 6068   0.028   1.425  14.224 -1.0735 -1.2475 -0.4188
  406TMC3    C7 6069   0.019   1.559  14.461 -0.4363 -0.1753 -0.5078
  406TMC3    C8 6070   4.545   1.296  14.129 -0.2614  0.0048  0.2634
  406TMC3    O1 6071   4.724   1.636  14.555  1.0490 -0.1143 -0.4289
  406TMC3    O2 6072   4.465   1.283  14.041 -0.3241  0.2808  0.4611
  407MPD2     C 6073   2.067   2.630   9.852 -0.3248  0.8046 -0.7474
  407MPD2    C1 6074   2.203   2.613   9.835 -0.2765 -0.4558 -0.4976
  407MPD2    C2 6075   2.291   2.654   9.933 -0.3337  0.5701 -0.6805
  407MPD2    C3 6076   2.248   2.720  10.038  0.0300  0.3897  0.0462
  407MPD2    C4 6077   2.110   2.727  10.063 -0.2705  0.5442  0.8093
  407MPD2    C5 6078   2.025   2.683   9.969 -0.8923  0.7296  0.3015
  407MPD2     H 6079   2.398   2.648   9.916 -0.2986 -0.6921 -0.0079
  407MPD2    H1 6080   2.075   2.790  10.143 -0.2279  0.4609  0.8925
  407MPD2    H2 6081   1.994   2.603   9.777  2.5558 -4.8469 -1.5488
  407MPD2    H3 6082   1.917   2.677   9.983 -0.8937 -0.2486 -0.1458
  407MPD2     N 6083   2.342   2.785  10.121  0.2221  0.4093  0.0602
  407MPD2    H5 6084   2.299   2.829  10.202  0.6994  0.4865  0.2670
  407MPD2    N1 6085   2.252   2.561   9.713  0.1838  0.8806  0.5787
  407MPD2    H7 6086   2.352   2.545   9.706 -0.2460 -1.2229 -0.8342
  408TMC3    C1 6087   2.287   2.542   9.483  0.1868 -0.3685  0.2846
  408TMC3    C2 6088   2.371   2.429   9.490  0.0258 -0.5273 -0.2946
  408TMC3    C3 6089   2.476   2.429   9.410  0.2348  0.5595  0.0498
  408TMC3    C4 6090   2.313   2.645   9.404 -0.2171  0.3139 -0.1862
  408TMC3    C5 6091   2.423   2.641   9.325  0.1524 -0.1366  0.2407
  408TMC3    C6 6092   2.503   2.533   9.328  0.0115 -0.4842  0.1492
  408TMC3     C 6093   2.192   2.567   9.591 -0.0060  0.1135  0.1816
  408TMC3     O 6094   2.089   2.630   9.556  0.2985 -0.1891 -0.4361
  408TMC3     H 6095   2.354   2.359   9.572 -0.4687 -0.5158 -0.3823
  408TMC3    H1 6096   2.243   2.727   9.417  0.1164  0.9491 -2.3980
  408TMC3    H2 6097   2.591   2.523   9.265  1.0998 -0.1175  1.5965
  408TMC3    C7 6098   2.478   2.766   9.274 -0.3054 -0.4566  0.4653
  408TMC3    C8 6099   2.583   2.333   9.445  0.4425 -0.2175 -0.5155
  408TMC3    O1 6100   2.596   2.770   9.241 -0.0553 -0.2527 -0.3311
  408TMC3    O2 6101   2.562   2.222   9.480 -0.0606 -0.2077 -0.8346
  409MPD2     C 6102   2.118   3.840  16.769 -0.0331  0.2482  0.1405
  409MPD2    C1 6103   2.133   3.812  16.899  0.3434 -0.1321  0.4550
  409MPD2    C2 6104   2.223   3.880  16.975  0.9421  0.4171 -0.1075
  409MPD2    C3 6105   2.299   3.980  16.926  0.1429 -0.4103  0.4139
  409MPD2    C4 6106   2.292   4.012  16.791 -0.0571 -0.3602  0.3360
  409MPD2    C5 6107   2.200   3.935  16.717  0.0096  0.3701  0.3383
  409MPD2     H 6108   2.220   3.851  17.080 -0.9658 -1.0971 -0.5905
  409MPD2    H1 6109   2.344   4.090  16.736 -2.2618  1.0340  0.2063
  409MPD2    H2 6110   2.037   3.802  16.707  0.4048  0.3232 -0.4793
  409MPD2    H3 6111   2.191   3.956  16.611  0.0974  0.8797  0.4286
  409MPD2     N 6112   2.385   4.060  17.009 -0.3510 -0.0992  0.1439
  409MPD2    H5 6113   2.418   4.151  16.977 -1.0944  0.0361 -0.2373
  409MPD2    N1 6114   2.040   3.728  16.966  0.3277 -0.3187 -0.1761
  409MPD2    H7 6115   2.065   3.720  17.064 -0.4003 -0.1855  0.0221
  410TMC3    C1 6116   2.515   4.118  17.205  0.3945  0.0076  0.2420
  410TMC3    C2 6117   2.586   4.064  17.306  0.4382  0.7130 -0.0505
  410TMC3    C3 6118   2.668   4.145  17.383  0.1774  0.6483 -0.3211
  410TMC3    C4 6119   2.519   4.247  17.172  0.1610  0.0893 -0.6196
  410TMC3    C5 6120   2.601   4.330  17.249  0.1991 -0.0523 -0.0574
  410TMC3    C6 6121   2.679   4.280  17.350  0.1046  0.1142 -0.0168
  410TMC3     C 6122   2.416   4.034  17.140 -0.3824 -0.6148  0.3766
  410TMC3     O 6123   2.378   3.933  17.200 -0.6707 -0.0861  0.5223
  410TMC3     H 6124   2.586   3.956  17.315  1.0802  0.6830 -0.4544
  410TMC3    H1 6125   2.460   4.285  17.089  1.6988 -0.0632 -1.7876
  410TMC3    H2 6126   2.754   4.338  17.401 -0.4316 -0.9108  1.9178
  410TMC3    C7 6127   2.639   4.454  17.187  0.0060  0.3249 -0.0142
  410TMC3    C8 6128   2.786   4.098  17.456  0.3275 -0.2496  0.5228
  410TMC3    O1 6129   2.685   4.448  17.076 -0.0873  0.2229 -0.1215
  410TMC3    O2 6130   2.841   4.175  17.528 -0.6149  0.5671 -0.0259
  411MPD2     C 6131   2.486   3.827  14.683 -0.5486 -0.4462 -0.3462
  411MPD2    C1 6132   2.360   3.857  14.646 -0.5118  0.3693  0.4972
  411MPD2    C2 6133   2.262   3.763  14.612  0.0945  0.1870  0.0267
  411MPD2    C3 6134   2.303   3.629  14.601 -0.1459  0.0571  0.1839
  411MPD2    C4 6135   2.433   3.593  14.623  0.1673 -0.2827  0.3349
  411MPD2    C5 6136   2.519   3.691  14.674 -0.0584 -0.0095 -0.2776
  411MPD2     H 6137   2.159   3.793  14.603  0.0722  0.8284  2.2646
  411MPD2    H1 6138   2.470   3.492  14.634 -0.4357 -0.5697 -0.2539
  411MPD2    H2 6139   2.564   3.899  14.702 -1.9605  0.8891  0.3549
  411MPD2    H3 6140   2.620   3.667  14.703 -0.5187 -0.4200  0.9901
  411MPD2     N 6141   2.217   3.517  14.585 -0.6682 -0.3952  0.5839
  411MPD2    H5 6142   2.258   3.425  14.568  1.5451  0.8324 -0.6925
  411MPD2    N1 6143   2.339   3.994  14.637 -0.3484 -0.3417  0.6147
  411MPD2    H7 6144   2.410   4.060  14.667  0.2349 -0.2600 -0.9443
  412TMC3    C1 6145   2.027   3.398  14.530 -0.7310  0.3156 -0.6665
  412TMC3    C2 6146   1.889   3.408  14.531  0.3218  0.6965  0.5145
  412TMC3    C3 6147   1.823   3.370  14.418  0.8361  0.7073 -0.9869
  412TMC3    C4 6148   2.095   3.347  14.416 -0.2794  0.1542 -0.8029
  412TMC3    C5 6149   2.019   3.314  14.308  0.2309 -0.0244 -0.1639
  412TMC3    C6 6150   1.883   3.319  14.306 -0.1717  0.3330 -0.3285
  412TMC3     C 6151   2.079   3.522  14.582 -0.9385  0.1986 -0.6841
  412TMC3     O 6152   2.003   3.606  14.631  0.3744 -0.2024 -0.1364
  412TMC3     H 6153   1.825   3.466  14.596  1.3895  1.4354  0.9153
  412TMC3    H1 6154   2.202   3.333  14.407  0.0203  1.8718 -0.1049
  412TMC3    H2 6155   1.820   3.291  14.222 -0.9633 -1.3229  0.8389
  412TMC3    C7 6156   2.085   3.323  14.183 -0.5282  0.0393 -0.8994
  412TMC3    C8 6157   1.693   3.424  14.396 -0.0929 -0.2768 -0.3398
  412TMC3    O1 6158   2.148   3.229  14.145  0.9441 -0.3184 -0.1053
  412TMC3    O2 6159   1.621   3.432  14.495  0.2008 -0.2106 -0.0087
  413MPD2     C 6160   4.039   2.890  15.742  0.1107  0.2861 -0.3003
  413MPD2    C1 6161   3.972   2.792  15.674 -0.5540  0.5717  0.5476
  413MPD2    C2 6162   4.043   2.683  15.619 -0.2286 -0.2461  0.2903
  413MPD2    C3 6163   4.186   2.671  15.646  0.2838 -0.0352 -0.1065
  413MPD2    C4 6164   4.243   2.769  15.719  0.3449  0.1059 -0.2586
  413MPD2    C5 6165   4.170   2.873  15.775  0.1653 -0.5908 -0.0286
  413MPD2     H 6166   3.999   2.598  15.567 -3.0642  0.8986  0.8263
  413MPD2    H1 6167   4.346   2.765  15.754 -0.3878  0.6390  1.9721
  413MPD2    H2 6168   3.990   2.976  15.784  1.1745  0.9463 -0.3984
  413MPD2    H3 6169   4.214   2.944  15.844  1.1423  1.4246 -2.7223
  413MPD2     N 6170   4.248   2.548  15.602  0.4053  0.4381  0.1814
  413MPD2    H5 6171   4.192   2.484  15.546  1.7545  0.2617 -0.9533
  413MPD2    N1 6172   3.836   2.820  15.642 -0.8049 -0.2478 -0.2653
  413MPD2    H7 6173   3.798   2.912  15.659  3.3231  1.4928 -0.5312
  414TMC3    C1 6174   4.409   2.369  15.583 -0.9433 -0.8552  0.2182
  414TMC3    C2 6175   4.448   2.271  15.675 -0.3816  0.9630  1.0492
  414TMC3    C3 6176   4.459   2.142  15.625 -0.5031  0.4074 -0.2008
  414TMC3    C4 6177   4.351   2.342  15.460  0.2787 -0.4490  0.1782
  414TMC3    C5 6178   4.370   2.213  15.416  0.3972  0.1228 -0.1241
  414TMC3    C6 6179   4.421   2.115  15.495 -0.4313  0.0101  0.5674
  414TMC3     C 6180   4.369   2.501  15.639  0.4688 -0.3467  0.0471
  414TMC3     O 6181   4.432   2.538  15.738  0.1684  0.3682 -0.3353
  414TMC3     H 6182   4.473   2.299  15.776 -3.3483  0.1134  2.0279
  414TMC3    H1 6183   4.334   2.428  15.396  0.4203  0.1090  0.8866
  414TMC3    H2 6184   4.435   2.015  15.456 -1.1299  0.4530 -0.8013
  414TMC3    C7 6185   4.276   2.164  15.311  0.2590 -0.3328  0.7924
  414TMC3    C8 6186   4.539   2.036  15.685  0.5546  0.0794  0.4924
  414TMC3    O1 6187   4.165   2.213  15.313 -0.4415 -0.4104 -0.2966
  414TMC3    O2 6188   4.528   1.922  15.643 -0.0699 -0.3242 -0.0937
  415TMC3    C1 6189   4.609   4.272  10.445  0.8331  0.4524 -0.7117
  415TMC3    C2 6190   4.718   4.349  10.475 -0.1043  0.6511 -0.0156
  415TMC3    C3 6191   0.013   4.467  10.410 -0.0284  0.5115  0.1407
  415TMC3    C4 6192   4.519   4.322  10.352  0.4923 -0.0270 -0.6680
  415TMC3    C5 6193   4.544   4.441  10.283 -0.2440  0.0718 -0.0671
  415TMC3    C6 6194   4.664   4.510  10.302 -0.0229  0.0112  0.2133
  415TMC3     C 6195   4.561   4.179  10.545  0.1858 -0.4132 -0.2056
  415TMC3     O 6196   4.464   4.115  10.510 -0.4082 -0.0718  0.2624
  415TMC3     H 6197   0.070   4.312  10.540  0.5293  0.0379 -1.1341
  415TMC3    H1 6198   4.438   4.253  10.332  2.6794 -3.1460  1.2774
  415TMC3    H2 6199   4.671   4.602  10.245 -0.5389 -1.7546 -2.7168
  415TMC3    C7 6200   4.454   4.489  10.177 -0.2368  0.1075 -0.3420
  415TMC3    C8 6201   0.146   4.533  10.428 -0.0999  1.0615 -0.8629
  415TMC3    O1 6202   4.510   4.524  10.074 -0.4819  0.5613 -0.0894
  415TMC3    O2 6203   0.228   4.492  10.508 -0.3342  0.2858  0.1340
  416MPD2     C 6204   1.573   4.116  12.178  0.4048  0.6499 -0.3047
  416MPD2    C1 6205   1.491   4.123  12.065  0.7322  0.4871 -0.1115
  416MPD2    C2 6206   1.492   4.013  11.976  0.1784  0.1312 -0.1485
  416MPD2    C3 6207   1.578   3.907  12.002 -0.4910  0.0620 -0.1248
  416MPD2    C4 6208   1.671   3.918  12.101 -0.3671 -0.6840 -0.1065
  416MPD2    C5 6209   1.667   4.020  12.192 -0.0894  1.1153  0.4834
  416MPD2     H 6210   1.424   4.009  11.892 -1.3289  0.7668  1.0452
  416MPD2    H1 6211   1.736   3.837  12.133  0.2113 -0.1151  0.1478
  416MPD2    H2 6212   1.548   4.173  12.267  0.5495 -0.8629  0.7026
  416MPD2    H3 6213   1.730   4.022  12.280 -0.9463  3.2565  1.0622
  416MPD2     N 6214   1.571   3.791  11.923  0.6800  0.9473 -0.1604
  416MPD2    H5 6215   1.645   3.724  11.942 -0.3372 -0.1620 -0.1076
  416MPD2    N1 6216   1.394   4.218  12.054  0.4172  0.1505 -0.5663
  416MPD2    H7 6217   1.378   4.290  12.123  1.7796  0.1939 -0.2971
  417TMC3    C1 6218   1.231   4.357  11.976  0.4032  0.2329  0.7426
  417TMC3    C2 6219   1.171   4.373  12.096  0.5845 -0.4289 -0.2889
  417TMC3    C3 6220   1.097   4.482  12.123  0.4994 -0.0948 -0.4329
  417TMC3    C4 6221   1.213   4.445  11.874 -0.7550 -0.3393 -0.3317
  417TMC3    C5 6222   1.133   4.555  11.901  0.5433 -0.0889  1.0013
  417TMC3    C6 6223   1.070   4.581  12.025 -0.2910 -0.5836  0.6036
  417TMC3     C 6224   1.317   4.247  11.943  0.5213  0.3301 -0.5452
  417TMC3     O 6225   1.328   4.213  11.826 -1.2945  0.0792 -0.1455
  417TMC3     H 6226   1.182   4.305  12.180  1.1234 -1.0344 -0.8520
  417TMC3    H1 6227   1.250   4.427  11.774 -1.5193 -0.6654 -0.5619
  417TMC3    H2 6228   1.008   4.667  12.044  2.5652  1.8708 -1.3422
  417TMC3    C7 6229   1.110   4.630  11.789 -0.6890 -0.3595 -0.8662
  417TMC3    C8 6230   1.039   4.500  12.258 -0.2143  1.0250 -0.2413
  417TMC3    O1 6231   1.174   0.004  11.777  0.1988  0.5750 -0.2383
  417TMC3    O2 6232   1.003   4.618  12.276  0.3442 -0.6712 -0.2467
  418TMC3    C1 6233   0.021   0.884   0.680 -0.0790  0.5046 -0.4129
  418TMC3    C2 6234   4.671   0.867   0.568  0.2191 -0.5223  0.5585
  418TMC3    C3 6235   4.562   0.789   0.582 -0.8586 -0.0393 -1.3066
  418TMC3    C4 6236   4.714   0.841   0.804 -0.6804  0.6129  0.3647
  418TMC3    C5 6237   4.597   0.770   0.816  0.2990  0.8718  0.5157
  418TMC3    C6 6238   4.524   0.739   0.704 -0.0832 -0.4139 -0.7358
  418TMC3     C 6239   0.165   0.876   0.652 -0.0916 -0.4351 -0.2008
  418TMC3     O 6240   0.205   0.941   0.556 -0.4893  0.1902 -0.3500
  418TMC3     H 6241   4.720   0.877   0.472 -0.8703 -1.1297 -0.0627
  418TMC3    H1 6242   0.050   0.865   0.890 -1.2078 -2.0368  1.4864
  418TMC3    H2 6243   4.421   0.707   0.714  0.5843 -1.7936  1.5323
  418TMC3    C7 6244   4.543   0.710   0.939  0.3256  0.0770 -0.0872
  418TMC3    C8 6245   4.504   0.722   0.467 -0.1750 -0.0824  0.5864
  418TMC3    O1 6246   4.443   0.640   0.924  0.4748 -0.2727  0.0681
  418TMC3    O2 6247   4.527   0.789   0.365 -0.2112  0.1797  0.1692
  419MPD2     C 6248   3.861   3.553  12.624 -0.0009  0.1114  0.5375
  419MPD2    C1 6249   3.740   3.613  12.601  0.0946 -0.2950 -0.2217
  419MPD2    C2 6250   3.647   3.629  12.701 -0.2564  0.0724  0.3809
  419MPD2    C3 6251   3.680   3.593  12.829  0.1484 -0.1429 -0.0325
  419MPD2    C4 6252   3.797   3.530  12.848  0.3593 -0.3584 -0.3756
  419MPD2    C5 6253   3.889   3.511  12.748  1.3991 -0.2020 -0.0313
  419MPD2     H 6254   3.555   3.682  12.681 -0.3650  0.1596  1.1058
  419MPD2    H1 6255   3.828   3.502  12.948  1.4206  0.0348 -0.5970
  419MPD2    H2 6256   3.942   3.541  12.553 -0.6046  1.6213 -0.4159
  419MPD2    H3 6257   3.988   3.473  12.771  0.9119 -0.6664  1.3136
  419MPD2     N 6258   3.594   3.644  12.929 -0.2352  0.0955  0.3329
  419MPD2    H5 6259   3.513   3.696  12.897 -1.6581 -1.6259  1.0693
  419MPD2    N1 6260   3.707   3.676  12.483 -0.3829  0.3256 -0.0156
  419MPD2    H7 6261   3.616   3.721  12.484 -0.4388  0.2024  0.6384
  420TMC3    C1 6262   3.537   3.755  13.129  0.4202  0.2390 -0.9550
  420TMC3    C2 6263   3.466   3.826  13.041  0.8123  0.7366  0.1323
  420TMC3    C3 6264   3.477   3.964  13.041 -0.8488  0.0027 -0.0345
  420TMC3    C4 6265   3.608   3.821  13.227  0.2347  0.6854  0.0120
  420TMC3    C5 6266   3.614   3.958  13.225  0.6696 -0.2155 -1.1879
  420TMC3    C6 6267   3.552   4.034  13.130  0.3571 -0.2798 -0.4313
  420TMC3     C 6268   3.614   3.641  13.065  0.2420  0.1808  0.1112
  420TMC3     O 6269   3.710   3.598  13.126  0.3100 -0.2136  1.2097
  420TMC3     H 6270   3.395   3.785  12.971  1.5672 -1.4384  0.6560
  420TMC3    H1 6271   3.669   3.767  13.299  0.2354 -0.5676 -0.9254
  420TMC3    H2 6272   3.571   4.139  13.113 -0.1896 -0.3464 -1.4636
  420TMC3    C7 6273   3.678   4.021  13.340  0.4467 -0.4785  0.2644
  420TMC3    C8 6274   3.432   4.029  12.919  0.4523 -0.1438 -0.6479
  420TMC3    O1 6275   3.733   3.947  13.421  1.5207  0.3461  0.1801
  420TMC3    O2 6276   3.408   3.965  12.817  0.0387 -0.3046 -0.3097
  421TMC3    C1 6277   0.476   1.218  13.913 -0.6538 -0.0868  0.1352
  421TMC3    C2 6278   0.583   1.308  13.920 -0.7863  0.2983  0.5098
  421TMC3    C3 6279   0.688   1.279  14.005 -0.8724  0.5389  0.3315
  421TMC3    C4 6280   0.476   1.104  13.986  0.2683  0.4209  1.2288
  421TMC3    C5 6281   0.585   1.078  14.064  0.4013 -0.5989 -0.4369
  421TMC3    C6 6282   0.689   1.167  14.082 -0.1326 -0.2350 -0.1530
  421TMC3     C 6283   0.364   1.257  13.832 -0.2428 -0.2809  0.7188
  421TMC3     O 6284   0.366   1.372  13.793 -0.2633 -0.3528  0.4210
  421TMC3     H 6285   0.590   1.385  13.844 -1.9271  1.3102  1.4402
  421TMC3    H1 6286   0.399   1.028  13.993 -0.4479  1.0030 -0.4509
  421TMC3    H2 6287   0.759   1.150  14.163 -1.2960 -0.9311  0.7022
  421TMC3    C7 6288   0.628   0.938  14.086  0.1811 -0.4239 -0.2701
  421TMC3    C8 6289   0.800   1.376  14.015 -0.0842  0.0513 -0.1685
  421TMC3    O1 6290   0.725   0.919  14.162  0.1015  0.1556 -0.3040
  421TMC3    O2 6291   0.824   1.453  13.920  0.3606  0.0106 -0.1643
  422TMC3    C1 6292   2.764   2.303  12.923 -0.3492 -0.0502 -0.7185
  422TMC3    C2 6293   2.742   2.418  13.002 -0.6546 -0.0965 -0.6248
  422TMC3    C3 6294   2.634   2.421  13.076 -0.3698  0.2113  0.7605
  422TMC3    C4 6295   2.665   2.212  12.910 -0.0781 -0.1566 -0.5677
  422TMC3    C5 6296   2.552   2.221  12.986 -0.3118 -0.1787  0.6760
  422TMC3    C6 6297   2.537   2.322  13.081  0.0504  0.0055  0.0752
  422TMC3     C 6298   2.874   2.314  12.831 -0.3518  0.0179 -0.0807
  422TMC3     O 6299   2.918   2.427  12.812 -0.0031  0.2004  0.2565
  422TMC3     H 6300   2.818   2.496  13.004 -1.5150  0.7485 -0.7621
  422TMC3    H1 6301   2.672   2.130  12.840 -0.7133 -0.8629  0.2059
  422TMC3    H2 6302   2.444   2.348  13.130  0.3759  0.5862  0.3838
  422TMC3    C7 6303   2.444   2.134  12.945  0.5809  0.0570  0.8824
  422TMC3    C8 6304   2.657   2.478  13.205  0.5095 -0.1752 -0.1613
  422TMC3    O1 6305   2.456   2.085  12.832 -0.3331  0.0586 -0.1100
  422TMC3    O2 6306   2.649   2.600  13.226  0.0514 -0.0168 -0.0593
  423MPD2     C 6307   3.306   3.191   0.215  0.0937  0.2815  0.4214
  423MPD2    C1 6308   3.298   3.075   0.279 -0.1055  0.2426  0.0931
  423MPD2    C2 6309   3.385   2.975   0.260  0.2426 -0.2084 -0.2366
  423MPD2    C3 6310   3.487   2.989   0.170  0.5206 -0.0015  0.4174
  423MPD2    C4 6311   3.499   3.110   0.103 -0.6270 -0.6894  0.5697
  423MPD2    C5 6312   3.407   3.212   0.126  0.3895 -0.2901  0.3269
  423MPD2     H 6313   3.357   2.881   0.304 -1.2512  1.7314  2.9391
  423MPD2    H1 6314   3.575   3.128   0.028  0.1130  0.6140  1.6266
  423MPD2    H2 6315   3.246   3.280   0.237  1.7848  1.5524 -0.1230
  423MPD2    H3 6316   3.429   3.311   0.087  0.4882 -0.7583 -0.8308
  423MPD2     N 6317   3.595   2.899   0.153 -0.1034 -0.2282  0.3974
  423MPD2    H5 6318   3.656   2.924   0.076  1.2404 -2.4000  0.7535
  423MPD2    N1 6319   3.199   3.043   0.374 -0.1357  0.2393 -0.1006
  423MPD2    H7 6320   3.209   2.959   0.430 -0.0552 -0.2417 -0.8313
  424TMC3    C1 6321   2.981   3.056   0.482  0.5945  0.2393  0.1128
  424TMC3    C2 6322   2.987   2.930   0.530  0.2944  0.2227 -0.2906
  424TMC3    C3 6323   2.902   2.894   0.634  0.0343  0.1409 -0.0180
  424TMC3    C4 6324   2.886   3.145   0.525 -0.2182  0.6714  0.4478
  424TMC3    C5 6325   2.803   3.100   0.625 -0.2624 -0.0873  0.8735
  424TMC3    C6 6326   2.802   2.976   0.670  0.3032  0.6737  0.0062
  424TMC3     C 6327   3.083   3.115   0.387  0.2466  0.2014 -1.1105
  424TMC3     O 6328   3.047   3.208   0.319  0.2788 -0.4876  0.1302
  424TMC3     H 6329   3.055   2.856   0.490  0.4952 -0.6051  1.5605
  424TMC3    H1 6330   2.886   3.246   0.484  0.2895  0.6701  0.4515
  424TMC3    H2 6331   2.734   2.944   0.748  0.9971 -0.0840  0.3099
  424TMC3    C7 6332   2.703   3.202   0.662 -0.8218  0.3414  0.0947
  424TMC3    C8 6333   2.935   2.777   0.716 -0.1284 -0.1588  0.1228
  424TMC3    O1 6334   2.691   3.301   0.588 -0.6278 -0.2078 -0.0118
  424TMC3    O2 6335   2.847   2.738   0.787 -0.6324 -0.5382 -0.4012
  425MPD2     C 6336   2.803   2.315   0.086  0.8795  0.0968  0.1604
  425MPD2    C1 6337   2.796   2.239  17.680  0.3068 -0.3103 -0.3818
  425MPD2    C2 6338   2.676   2.194  17.625 -0.2342 -1.1764  0.8236
  425MPD2    C3 6339   2.560   2.245  17.669  0.6332 -0.0921  0.0009
  425MPD2    C4 6340   2.566   2.327   0.073  0.5341 -0.1668 -0.1978
  425MPD2    C5 6341   2.684   2.357   0.143 -0.2007 -0.2091  0.4438
  425MPD2     H 6342   2.679   2.129  17.538  1.9403  0.6233 -0.4535
  425MPD2    H1 6343   2.478   2.375   0.113  0.8120 -0.3741  0.6592
  425MPD2    H2 6344   2.898   2.334   0.134  0.3276 -0.9434  1.6687
  425MPD2    H3 6345   2.692   2.430   0.224  0.7189 -0.0444  0.2070
  425MPD2     N 6346   2.440   2.192  17.602  0.9672 -0.8414 -0.2643
  425MPD2    H5 6347   2.452   2.122  17.529 -0.4527 -1.6885  0.3080
  425MPD2    N1 6348   2.919   2.184  17.634  0.5871  0.2637 -0.0276
  425MPD2    H7 6349   2.999   2.213  17.689  1.0484  0.5188 -0.8527
  426TMC3    C1 6350   3.070   2.048  17.496  0.3349  0.9295  0.4711
  426TMC3    C2 6351   3.081   1.980  17.381  0.1894 -0.1057 -0.5091
  426TMC3    C3 6352   3.179   1.886  17.377 -0.1837 -0.1179 -0.6164
  426TMC3    C4 6353   3.154   2.022  17.600  0.2409 -0.0259  0.7321
  426TMC3    C5 6354   3.253   1.922  17.594  0.3453  0.1034  0.8881
  426TMC3    C6 6355   3.269   1.858  17.480  0.2758 -0.1460  1.8385
  426TMC3     C 6356   2.938   2.105  17.521  0.6208  0.0412  0.4566
  426TMC3     O 6357   2.864   2.075  17.434 -0.2497 -0.8490  0.0531
  426TMC3     H 6358   3.014   2.002  17.299  0.7120  1.0057 -0.6354
  426TMC3    H1 6359   3.141   2.077  17.692  1.2505  1.0464  0.2274
  426TMC3    H2 6360   3.340   1.776  17.486 -2.2538 -2.4596 -0.1898
  426TMC3    C7 6361   3.297   1.860   0.012  0.1535  0.5500 -0.5238
  426TMC3    C8 6362   3.189   1.787  17.266  0.3884  0.1585 -0.1598
  426TMC3    O1 6363   3.401   1.799   0.028 -0.1335 -0.2819 -0.5402
  426TMC3    O2 6364   3.285   1.713  17.266  0.0268  0.1457 -0.3520
  427MPD2     C 6365   1.746   4.570  15.341  0.0903  0.7251  0.0862
  427MPD2    C1 6366   1.705   4.442  15.342  0.1082 -0.2992  0.2858
  427MPD2    C2 6367   1.567   4.415  15.358 -0.6331  0.1006 -0.5903
  427MPD2    C3 6368   1.480   4.519  15.366  0.3468 -0.2045  0.0759
  427MPD2    C4 6369   1.528   4.644  15.362  0.1067 -0.2582  0.3262
  427MPD2    C5 6370   1.661   4.678  15.343 -0.2625  1.2091  0.4899
  427MPD2     H 6371   1.529   4.314  15.356  1.3688 -0.6608 -0.7641
  427MPD2    H1 6372   1.458   0.001  15.357  1.4842  0.6994 -2.9254
  427MPD2    H2 6373   1.850   4.599  15.341  1.3716 -3.8427 -0.0836
  427MPD2    H3 6374   1.692   0.055  15.339 -0.5955  1.3840  2.1100
  427MPD2     N 6375   1.342   4.506  15.381 -0.0792 -0.5885  0.3239
  427MPD2    H5 6376   1.284   4.589  15.372 -0.3126 -0.8197 -0.3566
  427MPD2    N1 6377   1.799   4.351  15.324 -0.1408 -0.3505  0.2405
  427MPD2    H7 6378   1.892   4.392  15.315 -1.0170  1.1410 -2.0733
  428TMC3    C1 6379   1.904   4.149  15.293 -0.7855  0.1409 -0.0341
  428TMC3    C2 6380   1.908   4.047  15.199 -0.2857 -0.0682  0.4178
  428TMC3    C3 6381   2.024   4.002  15.152  0.1615  0.1209  0.2026
  428TMC3    C4 6382   2.020   4.204  15.338 -0.8218  0.6943 -0.0088
  428TMC3    C5 6383   2.140   4.164  15.281 -1.0174  0.4406  0.0641
  428TMC3    C6 6384   2.145   4.069  15.178 -0.8577  0.2772  0.4773
  428TMC3     C 6385   1.780   4.218  15.298  0.2767  0.8247 -0.5021
  428TMC3     O 6386   1.680   4.164  15.249  0.4645  0.8118  0.0241
  428TMC3     H 6387   1.816   4.002  15.163 -0.1254 -0.0431 -0.0162
  428TMC3    H1 6388   2.025   4.276  15.419  1.4898 -1.6407  1.9182
  428TMC3    H2 6389   2.235   4.018  15.146 -0.2234 -0.0452  2.7654
  428TMC3    C7 6390   2.265   4.201  15.349  0.2942  0.5948  0.1219
  428TMC3    C8 6391   2.027   3.860  15.119  0.7197  0.5739  0.2492
  428TMC3    O1 6392   2.264   4.230  15.471 -0.4927 -0.2328 -0.4106
  428TMC3    O2 6393   1.937   3.797  15.170 -0.2890 -0.3221 -0.2216
  429MPD2     C 6394   2.659   3.855   0.605 -0.0352 -0.4708  0.3904
  429MPD2    C1 6395   2.634   3.863   0.469 -0.5522  0.5299 -0.6121
  429MPD2    C2 6396   2.684   3.974   0.400  0.0204 -0.5762 -0.3477
  429MPD2    C3 6397   2.759   4.073   0.463  0.5145 -0.9776 -0.0265
  429MPD2    C4 6398   2.782   4.060   0.600 -0.2911 -0.4921  1.0493
  429MPD2    C5 6399   2.727   3.956   0.672 -0.7464 -0.3430  0.1728
  429MPD2     H 6400   2.673   3.985   0.292 -1.8267  1.9020  0.1100
  429MPD2    H1 6401   2.840   4.134   0.654  0.6745 -1.3353  1.1780
  429MPD2    H2 6402   2.620   3.775   0.667  0.2908 -1.1606 -0.2902
  429MPD2    H3 6403   2.732   3.957   0.780  0.2174 -0.0813  0.1336
  429MPD2     N 6404   2.814   4.181   0.391 -0.3298  0.9114  0.3267
  429MPD2    H5 6405   2.802   4.175   0.290  0.1771  1.9479  0.2017
  429MPD2    N1 6406   2.562   3.770   0.397  0.1579 -0.1461 -0.1381
  429MPD2    H7 6407   2.548   3.787   0.298  0.0955 -0.9600 -0.2712
  430TMC3    C1 6408   2.951   4.367   0.353 -0.7563  0.2826 -0.7026
  430TMC3    C2 6409   2.970   4.494   0.383  0.4177 -0.0015 -0.0983
  430TMC3    C3 6410   3.038   4.567   0.285 -0.8344  0.3138 -0.4195
  430TMC3    C4 6411   3.016   4.304   0.250  0.0143 -1.0427 -0.3031
  430TMC3    C5 6412   3.088   4.377   0.166 -0.3885  1.1560 -0.0977
  430TMC3    C6 6413   3.098   4.508   0.179 -0.4757  0.0957  0.0079
  430TMC3     C 6414   2.883   4.284   0.444 -0.2234 -0.1855  0.8346
  430TMC3     O 6415   2.859   4.339   0.549 -0.3468  0.1724  0.4784
  430TMC3     H 6416   2.916   4.538   0.466 -2.0507 -0.8016 -1.2557
  430TMC3    H1 6417   3.010   4.196   0.253 -0.7341 -0.9887  0.1782
  430TMC3    H2 6418   3.151   4.573   0.110 -0.1022 -0.0183  0.1856
  430TMC3    C7 6419   3.153   4.313   0.056 -0.4049  0.0128 -0.1378
  430TMC3    C8 6420   3.003   4.706   0.276  0.5824  0.6466 -0.3898
  430TMC3    O1 6421   3.113   4.202   0.046 -0.4249  0.0391  0.3213
  430TMC3    O2 6422   2.989   0.020   0.160 -0.5141  0.1885 -0.5167
  431MPD2     C 6423   3.822   4.200  12.945 -0.4377  0.7214  0.0560
  431MPD2    C1 6424   3.768   4.290  12.851 -0.3428 -0.0315 -0.4373
  431MPD2    C2 6425   3.744   4.250  12.719  0.4023 -0.2562 -0.5281
  431MPD2    C3 6426   3.760   4.115  12.682  0.5885 -0.1132  0.1114
  431MPD2    C4 6427   3.794   4.025  12.778 -0.4042 -0.0075 -0.2173
  431MPD2    C5 6428   3.829   4.064  12.909  0.5570 -0.4405 -0.1305
  431MPD2     H 6429   3.704   4.314  12.640  0.4652  1.1206  0.5526
  431MPD2    H1 6430   3.813   3.925  12.740 -0.0874 -0.1724  0.3798
  431MPD2    H2 6431   3.859   4.234  13.041 -1.1278  1.3936  0.0866
  431MPD2    H3 6432   3.866   3.987  12.976  0.0266 -2.7152 -2.4326
  431MPD2     N 6433   3.737   4.065  12.551  0.2533 -0.1030 -0.3278
  431MPD2    H5 6434   3.738   3.965  12.539 -0.7805 -0.0313 -0.9982
  431MPD2    N1 6435   3.748   4.423  12.876  0.0298 -0.1785  0.1950
  431MPD2    H7 6436   3.716   4.484  12.801  0.5292 -1.2220 -0.8619
  432TMC3    C1 6437   3.695   4.042  12.334 -0.2957  0.6056 -0.6237
  432TMC3    C2 6438   3.761   4.075  12.220  0.1152  0.1995  0.1871
  432TMC3    C3 6439   3.830   3.980  12.146  0.3363  0.2553 -0.2850
  432TMC3    C4 6440   3.689   3.916  12.373  0.0419  0.0140 -0.4916
  432TMC3    C5 6441   3.750   3.814  12.293  0.4234  0.2210  0.7523
  432TMC3    C6 6442   3.839   3.852  12.192 -0.0049  0.6732 -0.0154
  432TMC3     C 6443   3.696   4.137  12.440 -0.0457 -0.3568  0.3134
  432TMC3     O 6444   3.699   4.257  12.414  0.3011 -0.1476  0.3216
  432TMC3     H 6445   3.747   4.179  12.190 -0.9682  0.0732  0.2651
  432TMC3    H1 6446   3.618   3.903  12.454  0.3903 -0.1946 -0.2246
  432TMC3    H2 6447   3.897   3.773  12.144 -2.4404 -0.1608 -1.5464
  432TMC3    C7 6448   3.787   3.692  12.368 -0.5471  0.0851 -0.9462
  432TMC3    C8 6449   3.933   4.027  12.059  0.0361  0.6871  0.0277
  432TMC3    O1 6450   3.894   3.639  12.346  0.4204  0.9736  1.0219
  432TMC3    O2 6451   3.982   3.954  11.974 -0.3119 -0.0331 -0.3183
  433MPD2     C 6452   2.758   3.470  10.893  0.8091  0.1745 -0.6164
  433MPD2    C1 6453   2.796   3.374  10.982  0.0875  0.1126 -1.1058
  433MPD2    C2 6454   2.851   3.417  11.098  0.3393  0.6425  0.3000
  433MPD2    C3 6455   2.851   3.550  11.136  0.7152  0.1923  0.7424
  433MPD2    C4 6456   2.816   3.646  11.043  0.5796 -0.1216 -0.6209
  433MPD2    C5 6457   2.769   3.605  10.916 -0.1806  0.2353  0.0445
  433MPD2     H 6458   2.878   3.345  11.175  1.8688 -0.6189 -1.4357
  433MPD2    H1 6459   2.814   3.753  11.063 -0.5796 -0.4093  0.7881
  433MPD2    H2 6460   2.710   3.439  10.801  1.7475 -0.2730 -0.9550
  433MPD2    H3 6461   2.723   3.676  10.848  0.6314 -0.0183 -0.7771
  433MPD2     N 6462   2.913   3.577  11.267  0.0555 -0.1672  0.1988
  433MPD2    H5 6463   2.941   3.499  11.326  1.2603  0.9948  1.1686
  433MPD2    N1 6464   2.792   3.242  10.937  0.8639 -0.1475  0.5199
  433MPD2    H7 6465   2.755   3.223  10.844  1.2246  2.3014 -0.1239
  434TMC3    C1 6466   2.808   3.000  10.951  0.7650 -0.2667 -0.3186
  434TMC3    C2 6467   2.885   2.902  11.002  0.2567 -0.3943  0.1292
  434TMC3    C3 6468   2.853   2.771  10.971 -0.4674 -0.6712  0.2104
  434TMC3    C4 6469   2.693   2.973  10.882 -0.2720  0.4413 -0.4850
  434TMC3    C5 6470   2.658   2.838  10.862 -0.5008 -0.2142 -0.0443
  434TMC3    C6 6471   2.745   2.736  10.896 -0.2101 -0.0421 -0.1267
  434TMC3     C 6472   2.828   3.136  11.011  0.4087 -0.0809 -0.6174
  434TMC3     O 6473   2.914   3.138  11.101  0.1486 -0.5619 -0.7097
  434TMC3     H 6474   2.974   2.934  11.055 -0.0965 -1.1474  1.1647
  434TMC3    H1 6475   2.610   3.042  10.881  1.2140  2.2011 -0.9877
  434TMC3    H2 6476   2.741   2.634  10.859 -0.2701 -0.4577  1.0260
  434TMC3    C7 6477   2.547   2.823  10.769 -0.2121  0.1017 -0.4959
  434TMC3    C8 6478   2.926   2.673  11.045 -0.1314 -0.3298 -0.8048
  434TMC3    O1 6479   2.479   2.926  10.743  0.5714  0.3965  0.5488
  434TMC3    O2 6480   3.030   2.721  11.088 -0.2655  0.3170  0.1929
  435MPD2     C 6481   4.593   3.302  15.804 -0.1786  0.5765  0.0599
  435MPD2    C1 6482   4.503   3.264  15.902 -0.3251  1.3723 -0.4689
  435MPD2    C2 6483   4.556   3.202  16.017 -0.0774 -0.4144  0.0312
  435MPD2    C3 6484   4.687   3.152  16.012  0.3363  0.0839 -0.5569
  435MPD2    C4 6485   0.041   3.194  15.911 -0.4286  0.2104 -0.0858
  435MPD2    C5 6486   4.723   3.275  15.816  0.7798 -0.9121 -0.5543
  435MPD2     H 6487   4.493   3.177  16.102  0.2538 -0.4365  0.2696
  435MPD2    H1 6488   0.147   3.172  15.916 -0.4316  0.3396  0.5016
  435MPD2    H2 6489   4.566   3.351  15.711 -0.7489 -0.9084 -0.5467
  435MPD2    H3 6490   0.066   3.301  15.737 -0.8898  0.3622 -1.6150
  435MPD2     N 6491   0.009   3.063  16.115  0.2413  0.1263  0.0151
  435MPD2    H5 6492   4.675   3.047  16.195  0.6701 -1.6094 -0.0052
  435MPD2    N1 6493   4.371   3.317  15.898  0.2576 -0.0516  0.0545
  435MPD2    H7 6494   4.319   3.305  15.985  2.9816  0.4585  1.7398
  436TMC3    C1 6495   3.977   3.349  15.953  1.0927  0.2149  0.3977
  436TMC3    C2 6496   4.109   3.316  15.930 -0.0911 -0.1305 -0.2706
  436TMC3    C3 6497   4.168   3.409  15.848  0.6799  0.3759  0.1499
  436TMC3    C4 6498   3.915   3.463  15.906  0.2475  0.1150  0.6071
  436TMC3    C5 6499   3.985   3.547  15.828  0.3322 -0.1530 -0.4134
  436TMC3    C6 6500   4.106   3.509  15.783  0.1940 -0.1792  0.5826
  436TMC3     C 6501   3.907   3.273  16.058  0.0184  0.1343  0.3974
  436TMC3     O 6502   3.925   3.151  16.068  0.1103  0.1757 -0.2195
  436TMC3     H 6503   4.152   3.225  15.970  1.0152  1.7056  2.6869
  436TMC3    H1 6504   3.815   3.500  15.924  0.8279  2.1531 -0.2661
  436TMC3    H2 6505   4.163   3.563  15.708 -1.2166  1.0613  0.4023
  436TMC3    C7 6506   3.911   3.651  15.766 -0.2030 -0.1418 -0.1726
  436TMC3    C8 6507   4.308   3.386  15.805  0.0128 -0.2266  0.6764
  436TMC3    O1 6508   3.789   3.632  15.757  0.2042  0.0731 -0.1508
  436TMC3    O2 6509   4.352   3.423  15.698 -0.0991  0.0813 -0.2696
  437TMC3    C1 6510   2.671   0.228  13.476  0.3207  0.7065 -0.4033
  437TMC3    C2 6511   2.575   0.297  13.545  0.0436  0.3174  0.0095
  437TMC3    C3 6512   2.557   0.431  13.525 -0.4420 -0.6177  0.1579
  437TMC3    C4 6513   2.741   0.285  13.367  0.3412 -0.3768  0.7357
  437TMC3    C5 6514   2.698   0.414  13.333 -0.0448 -0.0338 -0.2927
  437TMC3    C6 6515   2.616   0.487  13.410  0.5991  0.0318  0.2956
  437TMC3     C 6516   2.685   0.086  13.502 -0.0815 -0.3003  0.1060
  437TMC3     O 6517   2.617   0.040  13.589  0.1992  0.1581 -0.0894
  437TMC3     H 6518   2.541   0.251  13.636  2.3160  0.0271  0.7130
  437TMC3    H1 6519   2.791   0.229  13.288  0.4529 -1.5799  1.6598
  437TMC3    H2 6520   2.614   0.594  13.394 -1.0352 -0.1625 -0.7926
  437TMC3    C7 6521   2.751   0.484  13.216 -0.5719  0.3002 -0.1809
  437TMC3    C8 6522   2.417   0.482  13.539 -0.3808 -1.4021  0.4956
  437TMC3    O1 6523   2.684   0.581  13.172  0.5366  0.1306 -0.2411
  437TMC3    O2 6524   2.396   0.604  13.530 -0.3829 -0.3307  0.2921
  438MPD2     C 6525   0.950   1.157  17.336 -0.1595 -0.1687 -0.2426
  438MPD2    C1 6526   0.931   1.271  17.413  1.2249 -0.2311  0.1212
  438MPD2    C2 6527   0.868   1.259  17.538 -0.1935 -0.3880  0.2533
  438MPD2    C3 6528   0.828   1.132  17.583  0.0821 -0.2811  0.2850
  438MPD2    C4 6529   0.857   1.019  17.510  0.1332  0.1421  0.3149
  438MPD2    C5 6530   0.917   1.034  17.391 -0.4290 -0.2049 -0.1202
  438MPD2     H 6531   0.852   1.351  17.593  0.5917 -0.4435  0.5726
  438MPD2    H1 6532   0.821   0.921  17.538  0.0918  0.0351 -0.1090
  438MPD2    H2 6533   1.006   1.155  17.243 -0.1974 -2.0443 -0.2286
  438MPD2    H3 6534   0.944   0.942  17.340 -1.2075 -1.1109  1.1076
  438MPD2     N 6535   0.748   1.114  17.696  0.0089 -0.7275  0.2933
  438MPD2    H5 6536   0.752   1.019   0.028  2.2334 -1.1410 -0.9412
  438MPD2    N1 6537   0.969   1.401  17.365 -0.4320  0.1115  0.0001
  438MPD2    H7 6538   0.911   1.475  17.404  1.7355  1.2128  1.1043
  439TMC3    C1 6539   1.168   1.350  17.243 -0.3895  0.0454 -0.5739
  439TMC3    C2 6540   1.219   1.341  17.112 -0.6659 -0.0375 -0.3805
  439TMC3    C3 6541   1.342   1.284  17.094 -0.1690  0.0620  0.3381
  439TMC3    C4 6542   1.226   1.295  17.351 -1.0976  0.4515 -0.3202
  439TMC3    C5 6543   1.339   1.221  17.322  0.7268 -0.7395  0.2314
  439TMC3    C6 6544   1.406   1.224  17.199 -0.6825 -0.3986  0.0444
  439TMC3     C 6545   1.057   1.440  17.269 -0.1491  0.0939 -0.4930
  439TMC3     O 6546   1.059   1.536  17.197 -0.4607 -0.1520  0.5507
  439TMC3     H 6547   1.157   1.381  17.033 -0.3755 -0.0685 -0.6244
  439TMC3    H1 6548   1.200   1.311  17.455  0.7150 -3.1475  0.6893
  439TMC3    H2 6549   1.491   1.157  17.194  0.9958  1.8073 -1.7720
  439TMC3    C7 6550   1.407   1.166  17.433 -0.1810 -0.9215  0.2897
  439TMC3    C8 6551   1.364   1.209  16.966 -0.8481  0.0253 -0.2271
  439TMC3    O1 6552   1.528   1.187  17.452 -0.0363  0.1121  0.2882
  439TMC3    O2 6553   1.377   1.092  16.987  0.2962 -0.1474 -0.4611
  440MPD2     C 6554   4.321   1.507  15.346  0.0319 -0.5495 -1.1040
  440MPD2    C1 6555   4.390   1.611  15.407 -0.2159 -0.3312  0.0488
  440MPD2    C2 6556   4.525   1.616  15.395  0.0353 -1.0136 -0.2898
  440MPD2    C3 6557   4.598   1.516  15.331 -0.3396  0.6113  0.3683
  440MPD2    C4 6558   4.528   1.410  15.268 -0.8577  0.4452  0.1290
  440MPD2    C5 6559   4.393   1.404  15.284 -0.6680 -0.0956  0.7117
  440MPD2     H 6560   4.578   1.699  15.438  0.7882 -2.0583  0.8033
  440MPD2    H1 6561   4.579   1.336  15.208  0.2911  0.4260  1.1257
  440MPD2    H2 6562   4.214   1.496  15.358  0.0951 -0.0703 -0.0885
  440MPD2    H3 6563   4.343   1.323  15.232 -1.0850  1.6844 -1.6685
  440MPD2     N 6564   0.014   1.514  15.320  0.4688 -0.1831  0.6176
  440MPD2    H5 6565   0.055   1.429  15.283  1.1689  1.0027 -1.3245
  440MPD2    N1 6566   4.328   1.702  15.497 -1.0628  0.2922  0.2757
  440MPD2    H7 6567   4.385   1.764  15.554  0.0408  1.0442 -1.6420
  441TMC3    C1 6568   0.237   1.551  15.395  0.2158 -0.0651  1.1076
  441TMC3    C2 6569   0.308   1.651  15.451 -0.5430  0.2473 -0.2633
  441TMC3    C3 6570   0.398   1.627  15.554 -0.3008 -0.2081  0.1576
  441TMC3    C4 6571   0.261   1.420  15.428  0.4248  0.0938  0.1718
  441TMC3    C5 6572   0.352   1.403  15.536  0.2911  0.2683 -0.0475
  441TMC3    C6 6573   0.423   1.501  15.597 -0.2284 -0.7111 -0.6849
  441TMC3     C 6574   0.098   1.602  15.381  0.0754 -0.4844  0.3408
  441TMC3     O 6575   0.075   1.711  15.439 -0.1481  0.0316  0.4132
  441TMC3     H 6576   0.292   1.750  15.409 -1.9570 -0.0235 -0.3864
  441TMC3    H1 6577   0.197   1.342  15.389  1.6036  0.2156 -1.9989
  441TMC3    H2 6578   0.478   1.491  15.690  0.6028 -1.3642 -1.2423
  441TMC3    C7 6579   0.339   1.277  15.602  0.4136 -0.0123  0.1027
  441TMC3    C8 6580   0.387   1.723  15.660 -0.3459 -0.6247  0.3507
  441TMC3    O1 6581   0.244   1.202  15.568  0.5256  0.5518  0.3169
  441TMC3    O2 6582   0.458   1.716  15.759  0.2748  0.4724  0.4132
  442MPD2     C 6583   2.765   2.314  16.707  0.5444  0.3940 -0.0072
  442MPD2    C1 6584   2.643   2.265  16.660  0.8302 -0.0946  1.1065
  442MPD2    C2 6585   2.652   2.162  16.577 -0.5084 -0.2014  0.5054
  442MPD2    C3 6586   2.766   2.086  16.557  0.1365 -0.3141 -0.4156
  442MPD2    C4 6587   2.884   2.122  16.614 -0.2574  0.4363 -0.4009
  442MPD2    C5 6588   2.883   2.242  16.684 -0.6052  1.1135 -0.3481
  442MPD2     H 6589   2.567   2.125  16.522  0.1043  0.1950 -0.7133
  442MPD2    H1 6590   2.975   2.065  16.597  0.4709  1.7000 -0.8053
  442MPD2    H2 6591   2.771   2.401  16.772  0.8126  0.0317  0.4493
  442MPD2    H3 6592   2.979   2.283  16.713  0.2430 -1.5872  0.6014
  442MPD2     N 6593   2.765   1.964  16.484 -0.4474 -0.8603 -0.4995
  442MPD2    H5 6594   2.853   1.919  16.460  0.1808 -0.6396  1.4189
  442MPD2    N1 6595   2.519   2.330  16.685  0.1943 -0.6442  0.7060
  442MPD2    H7 6596   2.437   2.293  16.639  1.2280 -0.9096 -0.9215
  443TMC3    C1 6597   2.355   2.479  16.789 -0.6112  0.1031 -0.2163
  443TMC3    C2 6598   2.278   2.455  16.676 -0.3376 -0.0428  0.1477
  443TMC3    C3 6599   2.143   2.453  16.701  0.0297 -1.0666 -0.1340
  443TMC3    C4 6600   2.309   2.502  16.914  0.0677 -0.0233 -0.2641
  443TMC3    C5 6601   2.171   2.502  16.928 -0.1032 -0.4748 -0.3422
  443TMC3    C6 6602   2.087   2.459  16.829  0.5514 -0.1494  0.0314
  443TMC3     C 6603   2.499   2.437  16.774  0.2311  0.2619 -0.3203
  443TMC3     O 6604   2.580   2.483  16.855 -0.6078 -0.3455  0.9176
  443TMC3     H 6605   2.315   2.447  16.574  1.5881  1.1583  0.7495
  443TMC3    H1 6606   2.374   2.519  17.000  0.5468  0.2548 -0.6822
  443TMC3    H2 6607   1.979   2.467  16.840  0.7665  1.8349  0.7005
  443TMC3    C7 6608   2.116   2.504  17.060  0.5607 -0.3052  0.4228
  443TMC3    C8 6609   2.063   2.383  16.615 -0.8235  0.2410 -0.1343
  443TMC3    O1 6610   2.174   2.440  17.146 -0.2813 -0.0063  0.3949
  443TMC3    O2 6611   1.992   2.295  16.661 -0.0240  0.1907  0.4793
  444MPD2     C 6612   3.339   1.222  17.397  0.7455 -0.1216 -0.5272
  444MPD2    C1 6613   3.248   1.123  17.363 -0.6574 -0.0493 -0.1224
  444MPD2    C2 6614   3.294   1.002  17.305  0.5036  0.2587 -0.3395
  444MPD2    C3 6615   3.427   0.982  17.291  0.2378 -0.2182  0.4360
  444MPD2    C4 6616   3.518   1.076  17.336 -0.3325  0.4505 -0.4991
  444MPD2    C5 6617   3.474   1.198  17.390 -0.1327  0.1946 -0.9521
  444MPD2     H 6618   3.221   0.931  17.269 -1.3815  1.6001  0.7839
  444MPD2    H1 6619   3.626   1.072  17.326 -0.0467  0.7830  2.5523
  444MPD2    H2 6620   3.304   1.311  17.448 -0.6070 -1.3609  0.6909
  444MPD2    H3 6621   3.545   1.274  17.420  0.6421 -0.0625 -2.1296
  444MPD2     N 6622   3.463   0.857  17.239  0.3079  0.2776  0.7243
  444MPD2    H5 6623   3.394   0.783  17.245  1.0004 -0.2690  1.9034
  444MPD2    N1 6624   3.105   1.132  17.378  0.2390  0.2134 -0.1649
  444MPD2    H7 6625   3.046   1.080  17.314 -0.3047  0.8589 -0.1827
  445TMC3    C1 6626   3.601   0.678  17.181 -1.1911  0.0406  0.1869
  445TMC3    C2 6627   3.573   0.599  17.292  0.3559 -0.2188  0.9524
  445TMC3    C3 6628   3.645   0.485  17.306 -0.5295  0.0973  0.5055
  445TMC3    C4 6629   3.689   0.642  17.089 -0.1616  0.8947  0.6611
  445TMC3    C5 6630   3.750   0.518  17.103  0.6295  0.5660  0.0073
  445TMC3    C6 6631   3.736   0.439  17.207 -0.6714  0.4337  0.6741
  445TMC3     C 6632   3.586   0.820  17.197  0.6494  0.0969  0.2481
  445TMC3     O 6633   3.685   0.890  17.168  0.5161 -0.1121  0.6771
  445TMC3     H 6634   3.513   0.638  17.373 -0.0999 -0.5475  0.7768
  445TMC3    H1 6635   3.701   0.711  17.006  0.5749 -0.6677 -0.5512
  445TMC3    H2 6636   3.801   0.353  17.214 -0.9204  0.0347 -2.0715
  445TMC3    C7 6637   3.870   0.516  17.037 -0.3095  0.1150  0.1614
  445TMC3    C8 6638   3.595   0.400  17.416 -0.4376 -1.0618 -0.0174
  445TMC3    O1 6639   3.874   0.552  16.920  0.0811  0.0592 -0.2650
  445TMC3    O2 6640   3.522   0.456  17.501 -0.2167 -0.3314 -0.2809
  446MPD2     C 6641   2.786   2.759  11.622  0.2007 -0.5174  0.6375
  446MPD2    C1 6642   2.782   2.737  11.485 -0.1623 -0.0194  0.3583
  446MPD2    C2 6643   2.866   2.810  11.408  0.2242  0.7557 -0.5048
  446MPD2    C3 6644   2.968   2.884  11.458  0.1689  0.5839  0.2132
  446MPD2    C4 6645   2.980   2.902  11.592  0.4955  0.3778 -0.9216
  446MPD2    C5 6646   2.883   2.839  11.678  0.0438  0.4720  0.9831
  446MPD2     H 6647   2.856   2.803  11.300  0.8516  0.0211 -0.5243
  446MPD2    H1 6648   3.052   2.964  11.643 -0.2161  0.0376  0.4955
  446MPD2    H2 6649   2.712   2.716  11.689  0.8684 -1.8888  0.5112
  446MPD2    H3 6650   2.887   2.862  11.784  3.3715 -1.6156  1.3109
  446MPD2     N 6651   3.064   2.941  11.369 -0.5402 -0.5365 -0.4386
  446MPD2    H5 6652   3.046   2.924  11.270 -0.6175 -1.4172 -0.2682
  446MPD2    N1 6653   2.693   2.652  11.417  0.0006  0.3720 -0.2416
  446MPD2    H7 6654   2.682   2.678  11.320 -1.9337 -0.3188 -0.2113
  447TMC3    C1 6655   3.277   2.949  11.285  0.0509 -0.1036  0.6883
  447TMC3    C2 6656   3.232   2.970  11.160  0.1183 -0.2039 -0.4372
  447TMC3    C3 6657   3.292   2.904  11.057  0.5452  0.3069  0.0182
  447TMC3    C4 6658   3.378   2.868  11.315  0.2746 -0.2301 -0.1085
  447TMC3    C5 6659   3.432   2.797  11.212 -0.1545  0.0627 -0.7484
  447TMC3    C6 6660   3.394   2.816  11.080 -0.2410  0.2899 -0.3733
  447TMC3     C 6661   3.196   2.980  11.403  0.5611 -0.1602 -0.0840
  447TMC3     O 6662   3.246   2.976  11.514 -0.1584  0.6744 -0.4139
  447TMC3     H 6663   3.147   3.033  11.135  1.3425  1.6553  0.0132
  447TMC3    H1 6664   3.423   2.855  11.413 -1.3188  1.3231  0.8427
  447TMC3    H2 6665   3.449   2.770  10.999 -0.1110 -0.0278 -0.1084
  447TMC3    C7 6666   3.544   2.707  11.240  0.3681 -0.1963  0.1208
  447TMC3    C8 6667   3.225   2.920  10.929  0.2338 -0.5766 -0.2612
  447TMC3    O1 6668   3.637   2.719  11.158  0.1359  0.2433  0.1026
  447TMC3    O2 6669   3.139   3.006  10.914  0.1077 -0.0227 -0.1993
  448TMC3    C1 6670   1.108   3.119  17.123  0.1633  0.3355  0.0341
  448TMC3    C2 6671   1.147   2.993  17.083  0.1918 -0.1190  0.7405
  448TMC3    C3 6672   1.142   2.892  17.177  0.1204  0.2369  0.0414
  448TMC3    C4 6673   1.089   3.157  17.252  0.1049 -0.5038  0.0064
  448TMC3    C5 6674   1.102   3.055  17.344 -0.9931  0.4174  0.4121
  448TMC3    C6 6675   1.133   2.931  17.307 -1.0677  0.2519 -0.1874
  448TMC3     C 6676   1.027   3.196  17.026  0.5047 -0.0401  0.5067
  448TMC3     O 6677   1.048   3.167  16.911  0.5433 -0.1911 -0.0351
  448TMC3     H 6678   1.179   2.976  16.981  1.4689  1.4581  0.8834
  448TMC3    H1 6679   1.091   3.264  17.268  1.3351 -0.4700 -0.3779
  448TMC3    H2 6680   1.127   2.862  17.391  1.7766 -0.9821 -1.0285
  448TMC3    C7 6681   1.052   3.069  17.479 -0.1223 -0.2381 -0.2808
  448TMC3    C8 6682   1.195   2.765  17.137  0.3132  0.7787 -0.1858
  448TMC3    O1 6683   1.059   3.187  17.511 -0.0022  0.2395 -0.2155
  448TMC3    O2 6684   1.266   2.706  17.217 -0.1519 -0.1457  0.1256
  449MPD2     C 6685   2.485   0.308  13.924  0.2389  0.0633  0.5757
  449MPD2    C1 6686   2.363   0.374  13.940  0.3641 -0.8060  0.4884
  449MPD2    C2 6687   2.249   0.291  13.944  0.1387 -0.2610  0.6538
  449MPD2    C3 6688   2.254   0.153  13.948  0.4666 -0.5470 -0.2587
  449MPD2    C4 6689   2.376   0.095  13.925 -0.3980  0.0628 -0.5486
  449MPD2    C5 6690   2.491   0.169  13.915  0.0374  0.2308  0.8174
  449MPD2     H 6691   2.158   0.348  13.956  0.3527 -0.0981  1.5871
  449MPD2    H1 6692   2.385   4.713  13.918  1.2345  0.1113  0.7987
  449MPD2    H2 6693   2.572   0.366  13.897 -0.8228  2.4377  2.2987
  449MPD2    H3 6694   2.584   0.123  13.884  0.3188  0.4019  1.4083
  449MPD2     N 6695   2.134   0.081  13.968 -0.7750 -0.6838  0.1081
  449MPD2    H5 6696   2.048   0.134  13.981 -0.1686  0.1449  0.8355
  449MPD2    N1 6697   2.338   0.510  13.929 -0.1842  0.0587 -0.6106
  449MPD2    H7 6698   2.245   0.547  13.944  1.6409  4.5326 -0.4347
  450TMC3    C1 6699   2.362   0.733  13.893  0.7085 -0.8083  0.2501
  450TMC3    C2 6700   2.363   0.794  13.772 -0.0572  0.2024  0.6184
  450TMC3    C3 6701   2.253   0.847  13.714  0.2782 -0.0324  0.0773
  450TMC3    C4 6702   2.245   0.733  13.966 -0.5957 -0.2185 -0.6071
  450TMC3    C5 6703   2.129   0.784  13.906 -0.5546 -0.1417  0.0372
  450TMC3    C6 6704   2.131   0.842  13.780  0.8812 -0.0530 -0.3364
  450TMC3     C 6705   2.432   0.602  13.894  0.3878  0.0206 -0.8998
  450TMC3     O 6706   2.552   0.598  13.871  0.2355  0.4672 -0.8868
  450TMC3     H 6707   2.461   0.779  13.727 -0.3950 -0.6172  0.1510
  450TMC3    H1 6708   2.252   0.691  14.065  2.0072  1.2832 -0.1602
  450TMC3    H2 6709   2.037   0.874  13.736  1.6062 -0.1611 -1.9710
  450TMC3    C7 6710   2.020   0.691  13.928 -0.1290 -0.2622  0.6610
  450TMC3    C8 6711   2.271   0.912  13.580  0.1587 -0.0107  0.0083
  450TMC3    O1 6712   2.059   0.582  13.959 -0.4239  0.1320  0.1993
  450TMC3    O2 6713   2.167   0.940  13.521 -0.3457 -0.1626  0.1162
  451MPD2     C 6714   2.332   3.989   0.907  0.8483 -0.2925 -0.1485
  451MPD2    C1 6715   2.450   3.988   0.978 -0.1321 -0.1661  0.2582
  451MPD2    C2 6716   2.523   3.868   0.979  0.1716 -0.1310  0.4259
  451MPD2    C3 6717   2.484   3.754   0.918 -0.2681  0.4029  0.6661
  451MPD2    C4 6718   2.357   3.751   0.860  0.6445 -0.9017  0.4050
  451MPD2    C5 6719   2.282   3.867   0.860  0.3249  0.0951  0.1433
  451MPD2     H 6720   2.618   3.868   1.030  0.3729 -0.1920  0.0497
  451MPD2    H1 6721   2.323   3.657   0.820  1.4549 -0.6234 -0.9326
  451MPD2    H2 6722   2.291   4.087   0.883 -0.3523 -0.7950 -0.1605
  451MPD2    H3 6723   2.193   3.887   0.802  0.1056  3.0823  1.4972
  451MPD2     N 6724   2.558   3.637   0.904  0.1831 -0.3234  0.2379
  451MPD2    H5 6725   2.539   3.567   0.833 -0.2909  1.5739 -1.4851
  451MPD2    N1 6726   2.496   4.109   1.037  0.2531  0.3528  0.2367
  451MPD2    H7 6727   2.437   4.190   1.024  2.0915  1.4406 -1.1730
  452TMC3    C1 6728   2.759   3.510   0.926 -0.1753 -0.3119 -0.1978
  452TMC3    C2 6729   2.835   3.444   1.015  0.3067 -0.1219 -0.3172
  452TMC3    C3 6730   2.951   3.388   0.971 -0.8603 -0.6155  0.0666
  452TMC3    C4 6731   2.795   3.536   0.793  0.1433  0.4325  0.3016
  452TMC3    C5 6732   2.908   3.465   0.754  0.6982 -0.0343 -0.2548
  452TMC3    C6 6733   2.985   3.390   0.836  0.0539  0.3365 -0.4615
  452TMC3     C 6734   2.666   3.607   0.985 -0.0912  0.2015 -0.5489
  452TMC3     O 6735   2.707   3.675   1.077 -0.8137  0.2372 -0.2026
  452TMC3     H 6736   2.817   3.432   1.121  0.1897 -3.4269 -0.7236
  452TMC3    H1 6737   2.731   3.598   0.731  0.0486  2.2998  2.2667
  452TMC3    H2 6738   3.060   3.322   0.796 -0.6213 -0.3232 -0.6155
  452TMC3    C7 6739   2.987   3.514   0.647 -0.4892 -0.1364  0.5182
  452TMC3    C8 6740   3.040   3.322   1.065 -0.5326 -0.0628  0.2003
  452TMC3    O1 6741   3.109   3.523   0.667 -0.1017 -0.0734 -0.1689
  452TMC3    O2 6742   2.986   3.289   1.167 -0.6499  0.6305  0.0864
  453TMC3    C1 6743   0.476   1.157  11.654 -0.4672  0.2316 -0.1579
  453TMC3    C2 6744   0.411   1.037  11.641  0.0308  0.2113  0.4745
  453TMC3    C3 6745   0.395   0.988  11.515 -0.1394 -0.8504 -0.2386
  453TMC3    C4 6746   0.526   1.222  11.543  0.0311 -0.2733  1.1730
  453TMC3    C5 6747   0.509   1.162  11.422 -0.1530  0.3441  0.0974
  453TMC3    C6 6748   0.450   1.048  11.407  0.4510  0.6246 -0.2191
  453TMC3     C 6749   0.481   1.230  11.782  0.8105 -0.1158 -0.1031
  453TMC3     O 6750   0.527   1.343  11.775  0.5329  0.3269  0.0981
  453TMC3     H 6751   0.362   0.991  11.726 -0.0685  0.2332  0.4295
  453TMC3    H1 6752   0.559   1.324  11.558  2.6453 -1.1709  1.4112
  453TMC3    H2 6753   0.430   1.013  11.307  0.3806  1.4320 -0.4879
  453TMC3    C7 6754   0.528   1.235  11.295  0.4839  0.9012  0.6705
  453TMC3    C8 6755   0.345   0.855  11.492 -0.0354  0.0437 -0.6419
  453TMC3    O1 6756   0.440   1.216  11.212 -0.1783 -0.5260 -0.1550
  453TMC3    O2 6757   0.296   0.827  11.383  0.2278 -0.4270  0.5548
  454MPD2     C 6758   3.891   0.916  16.647  0.0465  0.1178 -0.5336
  454MPD2    C1 6759   3.832   1.038  16.622  0.2852  0.1636  0.5352
  454MPD2    C2 6760   3.786   1.112  16.727 -0.3352  1.2071 -0.1412
  454MPD2    C3 6761   3.778   1.058  16.855 -0.3046  0.4336 -0.0287
  454MPD2    C4 6762   3.848   0.942  16.883 -0.0880 -0.8127 -0.4618
  454MPD2    C5 6763   3.895   0.867  16.776 -0.0542  0.0431  0.2831
  454MPD2     H 6764   3.729   1.201  16.701  0.0028  1.7293  0.9316
  454MPD2    H1 6765   3.847   0.898  16.982 -1.7046 -0.2699 -0.2368
  454MPD2    H2 6766   3.939   0.857  16.569  0.6738 -0.2565  0.1331
  454MPD2    H3 6767   3.936   0.769  16.797 -0.3813 -0.1531  0.0056
  454MPD2     N 6768   3.703   1.112  16.961 -0.0273  0.0597  0.0757
  454MPD2    H5 6769   3.710   1.059  17.047  0.1684  1.6223  1.0191
  454MPD2    N1 6770   3.810   1.094  16.493 -0.6706 -0.2788  0.1446
  454MPD2    H7 6771   3.777   1.190  16.493  4.2948  1.4275 -0.0077
  455TMC3    C1 6772   3.513   1.213  16.832 -0.3956  0.0845 -0.1343
  455TMC3    C2 6773   3.454   1.332  16.802 -0.1296 -0.4913  0.2262
  455TMC3    C3 6774   3.360   1.338  16.706 -0.2273 -0.0217  0.1150
  455TMC3    C4 6775   3.477   1.096  16.779 -0.4885  0.0921 -0.0230
  455TMC3    C5 6776   3.389   1.104  16.679 -0.1231  0.6634  0.3282
  455TMC3    C6 6777   3.331   1.221  16.641  0.6663  0.0518  0.5582
  455TMC3     C 6778   3.605   1.211  16.950  0.2599 -0.5828  0.3872
  455TMC3     O 6779   3.555   1.281  17.036 -0.1889  0.3320  0.5946
  455TMC3     H 6780   3.485   1.421  16.856  0.1576  0.2354 -1.1532
  455TMC3    H1 6781   3.510   0.999  16.813 -0.6128 -0.3594 -1.2118
  455TMC3    H2 6782   3.247   1.228  16.573  1.4369  0.3912 -0.3579
  455TMC3    C7 6783   3.410   1.016  16.564 -0.6444 -0.1073  0.5272
  455TMC3    C8 6784   3.245   1.423  16.721 -0.4832  0.1867 -0.2021
  455TMC3    O1 6785   3.330   1.032  16.470 -0.2071  0.5365 -0.6101
  455TMC3    O2 6786   3.163   1.416  16.631  0.6669 -0.0522  0.0153
  456MPD2     C 6787   1.634   1.623  16.460 -0.3041 -0.1884 -0.2164
  456MPD2    C1 6788   1.661   1.551  16.569  0.9451 -0.2760 -0.3067
  456MPD2    C2 6789   1.654   1.619  16.688 -0.1104  0.0618  0.2670
  456MPD2    C3 6790   1.630   1.757  16.694  0.0525  0.4139  0.0619
  456MPD2    C4 6791   1.598   1.823  16.574  0.1916  0.4506  0.1651
  456MPD2    C5 6792   1.591   1.754  16.456 -0.4035 -0.7321 -0.4950
  456MPD2     H 6793   1.682   1.568  16.779  0.2892  0.4316  0.3521
  456MPD2    H1 6794   1.577   1.929  16.568 -2.4501  0.0565  2.2366
  456MPD2    H2 6795   1.615   1.577  16.363  3.5119 -1.3002 -0.3984
  456MPD2    H3 6796   1.546   1.804  16.371 -0.9492 -0.9471 -0.3295
  456MPD2     N 6797   1.631   1.815  16.818  0.0360 -0.8322 -0.3474
  456MPD2    H5 6798   1.615   1.749  16.894  0.5321 -2.2423 -1.4610
  456MPD2    N1 6799   1.682   1.412  16.558 -0.9391  0.4621  0.1443
  456MPD2    H7 6800   1.686   1.377  16.463 -1.0404 -0.1059  0.3457
  457TMC3    C1 6801   1.585   1.975  16.979  0.8013  0.0285 -0.2287
  457TMC3    C2 6802   1.569   2.108  17.003 -0.1638 -0.1455 -0.9687
  457TMC3    C3 6803   1.492   2.148  17.112  0.5870 -0.6125 -0.7171
  457TMC3    C4 6804   1.507   1.881  17.048 -0.3880  0.2059 -0.3164
  457TMC3    C5 6805   1.441   1.918  17.163  0.0845  0.2929  0.4485
  457TMC3    C6 6806   1.435   2.050  17.194  0.3970 -0.7528  0.2323
  457TMC3     C 6807   1.617   1.948  16.842 -0.1001  0.3879 -0.6867
  457TMC3     O 6808   1.642   2.041  16.766  0.6298 -0.0662  0.0473
  457TMC3     H 6809   1.621   2.180  16.941  0.9946  1.6402  2.0669
  457TMC3    H1 6810   1.508   1.775  17.023 -1.6891  0.2015 -0.3350
  457TMC3    H2 6811   1.399   2.082  17.291 -0.0743  0.5233 -0.3607
  457TMC3    C7 6812   1.364   1.820  17.240 -0.2295  0.0559 -0.2074
  457TMC3    C8 6813   1.422   2.276  17.097 -0.0899 -0.2109  0.4772
  457TMC3    O1 6814   1.401   1.703  17.230 -0.6232  0.7012 -0.0625
  457TMC3    O2 6815   1.364   2.326  17.196  0.5577 -0.1523  0.1673
  458MPD2     C 6816   3.151   0.623  12.936  0.4064  0.1678 -0.1585
  458MPD2    C1 6817   3.195   0.531  13.031  0.7776  0.6556  0.3983
  458MPD2    C2 6818   3.102   0.475  13.112 -0.4433  0.6116 -0.0835
  458MPD2    C3 6819   2.970   0.504  13.102  0.5082  0.1419  0.3503
  458MPD2    C4 6820   2.935   0.606  13.016 -0.2606  0.3771  0.3932
  458MPD2    C5 6821   3.022   0.655  12.924 -0.0191 -0.1004 -0.5538
  458MPD2     H 6822   3.137   0.412  13.193 -0.3523 -2.5213 -2.5504
  458MPD2    H1 6823   2.832   0.633  12.998  0.3301  0.9517 -2.1995
  458MPD2    H2 6824   3.223   0.676  12.875  0.4449  1.3704  0.9161
  458MPD2    H3 6825   2.983   0.716  12.844 -1.8224  0.3704  0.6922
  458MPD2     N 6826   2.883   0.444  13.196 -0.1168 -0.0669  0.1759
  458MPD2    H5 6827   2.923   0.366  13.246  1.2249  0.2503 -0.4120
  458MPD2    N1 6828   3.335   0.513  13.043  0.0275 -0.4796 -0.3236
  458MPD2    H7 6829   3.393   0.581  12.997 -0.2954 -0.1524 -0.2456
  459TMC3    C1 6830   3.536   0.427  13.125 -0.3309  0.1463 -0.3441
  459TMC3    C2 6831   3.607   0.468  13.014  0.6351 -0.2557  0.4916
  459TMC3    C3 6832   3.742   0.493  13.036 -0.2211  0.1872  0.7542
  459TMC3    C4 6833   3.595   0.392  13.250 -0.4905 -0.1190  0.8894
  459TMC3    C5 6834   3.725   0.410  13.253  0.8485 -0.1637 -0.0759
  459TMC3    C6 6835   3.800   0.463  13.157  0.1171 -0.2742  0.7735
  459TMC3     C 6836   3.389   0.418  13.121 -0.0743 -0.1497 -0.9781
  459TMC3     O 6837   3.339   0.330  13.193 -0.4824  0.3455 -0.1627
  459TMC3     H 6838   3.549   0.488  12.925  0.5685  0.8404  0.7781
  459TMC3    H1 6839   3.531   0.357  13.330 -0.8421 -2.3174 -0.3376
  459TMC3    H2 6840   3.905   0.490  13.161  0.0710  0.2555 -1.4870
  459TMC3    C7 6841   3.794   0.363  13.370 -1.0881  0.1191 -0.0403
  459TMC3    C8 6842   3.830   0.556  12.941  0.2258  0.7639 -0.2238
  459TMC3    O1 6843   3.751   0.258  13.425  0.2267 -0.8834  0.3399
  459TMC3    O2 6844   3.918   0.625  12.986 -0.5620 -0.1551  0.3126
  460MPD2     C 6845   3.194   2.631  10.711  0.2061  0.0559  0.1500
  460MPD2    C1 6846   3.168   2.763  10.750 -0.1848 -0.2796  0.1900
  460MPD2    C2 6847   3.062   2.835  10.692 -0.4685  0.3729  0.3572
  460MPD2    C3 6848   2.973   2.771  10.608  0.4155  0.3136 -0.6015
  460MPD2    C4 6849   2.997   2.636  10.582  0.0207 -0.7355  0.2903
  460MPD2    C5 6850   3.109   2.572  10.626  0.3797 -1.3622 -0.6063
  460MPD2     H 6851   3.034   2.932  10.731  0.8931  0.6683  0.6301
  460MPD2    H1 6852   2.938   2.589  10.504  0.0649  1.0021 -0.7850
  460MPD2    H2 6853   3.288   2.582  10.734  0.5835  0.0092 -1.5167
  460MPD2    H3 6854   3.125   2.472  10.588 -1.3081 -1.2815 -1.5127
  460MPD2     N 6855   2.855   2.834  10.562 -0.0483  1.0261  0.3006
  460MPD2    H5 6856   2.846   2.935  10.573 -1.8576  0.8584  0.3206
  460MPD2    N1 6857   3.251   2.814  10.852  0.8750  0.3938  0.2925
  460MPD2    H7 6858   3.310   2.743  10.893  1.2577  0.3336 -0.3464
  461TMC3    C1 6859   2.639   2.831  10.432  0.0053 -0.2968 -0.2726
  461TMC3    C2 6860   2.597   2.781  10.317  0.0355  0.0309 -0.5981
  461TMC3    C3 6861   2.535   2.860  10.224  0.2239 -1.0682  0.3311
  461TMC3    C4 6862   2.615   2.961  10.464  0.6462 -1.0734 -0.0319
  461TMC3    C5 6863   2.528   3.024  10.383 -0.1097 -0.1269  0.3797
  461TMC3    C6 6864   2.496   2.986  10.256  0.3965  0.4782  0.7164
  461TMC3     C 6865   2.745   2.763  10.507 -0.3463 -0.5393 -0.6797
  461TMC3     O 6866   2.718   2.642  10.500 -0.3893  0.3744  0.1927
  461TMC3     H 6867   2.622   2.678  10.291 -0.1476 -0.5363  1.4473
  461TMC3    H1 6868   2.649   2.996  10.561  0.3546 -0.5129 -0.1339
  461TMC3    H2 6869   2.433   3.033  10.181 -1.3173 -1.4735  0.9577
  461TMC3    C7 6870   2.457   3.145  10.430 -0.2665  0.1835 -0.5983
  461TMC3    C8 6871   2.480   2.797  10.112  0.4584  0.7857 -0.1958
  461TMC3    O1 6872   2.404   3.213  10.342  0.2943  0.6990 -0.2850
  461TMC3    O2 6873   2.561   2.757  10.028 -0.3394  0.2152 -0.1437
  462TMC3    C1 6874   2.401   3.216  17.614  0.3525 -0.6815  0.0131
  462TMC3    C2 6875   2.478   3.101  17.621 -0.4482 -0.5555 -0.8130
  462TMC3    C3 6876   2.421   2.991  17.676  0.3784  0.2094  0.5041
  462TMC3    C4 6877   2.269   3.217  17.646 -0.6910  0.0242  0.0153
  462TMC3    C5 6878   2.218   3.100  17.695 -0.1115 -0.6120 -0.0419
  462TMC3    C6 6879   2.294   2.995   0.016 -0.4565 -0.7913 -0.3340
  462TMC3     C 6880   2.472   3.341  17.632 -0.3755 -0.4103  0.0459
  462TMC3     O 6881   2.579   3.342  17.695 -0.3259 -0.4540  0.1519
  462TMC3     H 6882   2.586   3.104  17.609 -0.3892 -2.8720 -1.0335
  462TMC3    H1 6883   2.214   3.307  17.621  1.5964  0.6611 -2.8063
  462TMC3    H2 6884   2.252   2.896   0.032 -0.5151 -0.7085  0.0304
  462TMC3    C7 6885   2.077   3.081   0.009 -0.1479 -0.1174  0.5286
  462TMC3    C8 6886   2.486   2.862  17.658  0.2654  0.2388 -0.0970
  462TMC3    O1 6887   2.055   2.969   0.052  0.1446 -0.1547 -0.6251
  462TMC3    O2 6888   2.466   2.765   0.024  0.0230 -0.2276 -0.5879
  463MPD2     C 6889   3.022   2.654   1.623  0.4461 -0.3475 -0.5358
  463MPD2    C1 6890   2.936   2.713   1.531 -0.7883 -0.6740  0.2675
  463MPD2    C2 6891   2.986   2.777   1.420  0.5871 -0.1183 -0.0298
  463MPD2    C3 6892   3.127   2.774   1.397  0.1222 -0.1073 -0.6037
  463MPD2    C4 6893   3.208   2.724   1.496  0.4740  0.2049 -0.5692
  463MPD2    C5 6894   3.157   2.660   1.606 -0.8467  0.4709  0.0285
  463MPD2     H 6895   2.913   2.822   1.354 -1.6349 -2.4318  0.8467
  463MPD2    H1 6896   3.316   2.729   1.487  0.6765 -1.3800  1.0857
  463MPD2    H2 6897   2.989   2.589   1.703 -0.5232  1.8119  0.8205
  463MPD2    H3 6898   3.219   2.613   1.681 -2.1586 -0.6658  0.4147
  463MPD2     N 6899   3.186   2.800   1.276  0.4135 -0.1455 -0.3192
  463MPD2    H5 6900   3.284   2.775   1.269  1.0210  1.3752  2.6174
  463MPD2    N1 6901   2.800   2.717   1.541  0.5793 -0.2260  0.1463
  463MPD2    H7 6902   2.755   2.780   1.476 -1.0422 -1.1806  0.3445
  464TMC3    C1 6903   2.588   2.637   1.614  0.1979  0.3150 -0.2830
  464TMC3    C2 6904   2.518   2.713   1.520 -0.2629  0.0680 -0.7144
  464TMC3    C3 6905   2.378   2.723   1.538 -0.1458  0.2760 -0.8925
  464TMC3    C4 6906   2.517   2.567   1.714 -0.1831  0.1333 -1.3633
  464TMC3    C5 6907   2.385   2.573   1.718  0.5016  0.0235 -0.6204
  464TMC3    C6 6908   2.310   2.650   1.630 -0.1240 -0.1597 -0.3447
  464TMC3     C 6909   2.730   2.649   1.635  0.4051 -0.2572 -0.3100
  464TMC3     O 6910   2.770   2.582   1.729  0.0424 -0.2897  0.3239
  464TMC3     H 6911   2.574   2.776   1.452  0.4502  1.1383  0.8623
  464TMC3    H1 6912   2.562   2.495   1.782  1.4271  1.5115 -0.9724
  464TMC3    H2 6913   2.202   2.644   1.624 -0.0891 -0.5353 -0.5709
  464TMC3    C7 6914   2.324   2.456   1.774  0.2848  0.6843  0.6572
  464TMC3    C8 6915   2.307   2.812   1.445 -0.6764  0.5832  0.2291
  464TMC3    O1 6916   2.332   2.433   1.894 -0.1985 -0.1826  0.0659
  464TMC3    O2 6917   2.353   2.828   1.334 -0.8550  0.6931  0.0264
  465MPD2     C 6918   0.600   1.536  16.763 -0.8318  0.9519  0.5095
  465MPD2    C1 6919   0.567   1.412  16.806 -0.0917 -0.3256  0.1265
  465MPD2    C2 6920   0.449   1.356  16.761 -0.4391  0.1879  0.6997
  465MPD2    C3 6921   0.369   1.422  16.668  0.3116 -0.2455  0.2745
  465MPD2    C4 6922   0.415   1.540  16.621  0.1754 -0.1824 -0.0718
  465MPD2    C5 6923   0.537   1.592  16.657 -0.3891  0.6641  0.3022
  465MPD2     H 6924   0.420   1.254  16.781 -0.7396  0.0025 -0.6919
  465MPD2    H1 6925   0.362   1.600  16.548  0.1104  0.4133  0.4657
  465MPD2    H2 6926   0.693   1.575  16.802  0.4491  0.0116 -1.5958
  465MPD2    H3 6927   0.568   1.687  16.615 -1.2331  0.3021 -1.1360
  465MPD2     N 6928   0.247   1.352  16.617  0.1923  0.8608 -0.2006
  465MPD2    H5 6929   0.225   1.258  16.648  0.7630  1.0402  0.7712
  465MPD2    N1 6930   0.642   1.360  16.918  0.2171 -0.1205 -0.0768
  465MPD2    H7 6931   0.708   1.420  16.965 -0.7335  0.3636  0.6386
  466TMC3    C1 6932   4.587   1.290  16.746 -0.1107 -0.4041 -0.2082
  466TMC3    C2 6933   4.480   1.318  16.659  0.4610  0.1012  0.3855
  466TMC3    C3 6934   4.514   1.346  16.528  0.0967 -0.5347  0.3548
  466TMC3    C4 6935   4.714   1.303  16.709  0.6135  0.1814 -0.0239
  466TMC3    C5 6936   0.018   1.345  16.581  0.8883 -0.6811 -0.1230
  466TMC3    C6 6937   4.642   1.359  16.490  0.0718 -0.1368 -0.1035
  466TMC3     C 6938   4.563   1.261  16.886 -0.7197  0.2121 -0.0822
  466TMC3     O 6939   4.654   1.210  16.953  1.1417 -0.2533 -0.0318
  466TMC3     H 6940   4.376   1.296  16.680  1.0530 -0.2580  2.9416
  466TMC3    H1 6941   0.068   1.289  16.780 -0.2962 -3.2832  0.3416
  466TMC3    H2 6942   4.651   1.384  16.385  2.6442  0.6515  0.3007
  466TMC3    C7 6943   0.146   1.408  16.548  0.1462 -0.5706  0.1362
  466TMC3    C8 6944   4.430   1.456  16.477 -0.3205  0.7022  0.1281
  466TMC3    O1 6945   0.137   1.509  16.480  0.4099  0.1390  0.3858
  466TMC3    O2 6946   4.422   1.476  16.357 -0.8607  0.5610 -0.2619
  467TMC3    C1 6947   1.316   4.516  13.798 -0.3288 -0.3362 -0.5299
  467TMC3    C2 6948   1.335   4.571  13.675 -0.3258  0.1085 -0.1200
  467TMC3    C3 6949   1.239   4.659  13.628  0.2152  0.0663 -0.3983
  467TMC3    C4 6950   1.200   4.548  13.873 -0.1047 -0.1470  0.1811
  467TMC3    C5 6951   1.102   4.622  13.811 -0.3551 -0.2701 -0.1988
  467TMC3    C6 6952   1.124   4.679  13.690  0.9605 -0.4165 -0.3341
  467TMC3     C 6953   1.423   4.442  13.869  0.2206 -0.3845 -0.2474
  467TMC3     O 6954   1.414   4.432  13.993  0.0666 -0.6997 -0.0341
  467TMC3     H 6955   1.414   4.540  13.608 -0.4018 -1.4805  0.5264
  467TMC3    H1 6956   1.202   4.521  13.978 -0.7158 -0.5451  0.0885
  467TMC3    H2 6957   1.047   0.004  13.633  0.4523  0.9603  1.5599
  467TMC3    C7 6958   0.990   4.690  13.879  0.8268  0.2044 -0.0716
  467TMC3    C8 6959   1.287   0.052  13.543 -0.7442  0.1488  0.0743
  467TMC3    O1 6960   0.966   0.074  13.827 -0.1718 -0.3545 -0.1701
  467TMC3    O2 6961   1.209   0.144  13.537  0.1255  0.5555  0.6874
  468MPD2     C 6962   0.053   2.137  10.941 -0.4905 -0.1199  0.3715
  468MPD2    C1 6963   0.162   2.198  10.995  0.2614  0.6965  0.1364
  468MPD2    C2 6964   0.259   2.116  11.047 -1.1901  0.3155  0.0860
  468MPD2    C3 6965   0.242   1.970  11.047  0.1143  0.2814 -0.4252
  468MPD2    C4 6966   0.126   1.922  10.989  0.1426  0.4539  0.8478
  468MPD2    C5 6967   0.045   2.001  10.921 -0.3016 -0.1279 -1.0756
  468MPD2     H 6968   0.345   2.159  11.096 -1.6597  1.5025 -0.1023
  468MPD2    H1 6969   0.094   1.819  10.992 -0.3945  0.5814 -0.3649
  468MPD2    H2 6970   4.699   2.197  10.900 -2.6889 -1.4225  2.7262
  468MPD2    H3 6971   4.683   1.961  10.873  0.2065 -0.8647 -1.3910
  468MPD2     N 6972   0.316   1.879  11.128 -0.4928  0.3539 -0.7410
  468MPD2    H5 6973   0.273   1.787  11.138  3.4058 -1.3276  0.7799
  468MPD2    N1 6974   0.180   2.337  11.002 -0.0781  0.3310  1.0820
  468MPD2    H7 6975   0.264   2.362  11.053 -0.0734 -1.8653  2.1391
  469TMC3    C1 6976   0.137   2.572  10.994  0.1223  0.3685  0.2412
  469TMC3    C2 6977   0.198   2.577  11.116 -0.0635  0.5517  0.2529
  469TMC3    C3 6978   0.184   2.689  11.196  0.3647 -0.3228  0.1901
  469TMC3    C4 6979   0.057   2.677  10.951 -0.8972 -0.8511 -0.2505
  469TMC3    C5 6980   0.028   2.772  11.046  0.0973 -0.2165 -0.2831
  469TMC3    C6 6981   0.093   2.784  11.166  0.1922  0.9699  0.1168
  469TMC3     C 6982   0.089   2.438  10.960 -0.1827  1.4370  0.1914
  469TMC3     O 6983   4.700   2.430  10.927 -0.7009  0.2082 -0.2831
  469TMC3     H 6984   0.253   2.494  11.157  1.2632  1.7011  0.8197
  469TMC3    H1 6985   4.724   2.675  10.860  0.8173 -2.1869 -1.3385
  469TMC3    H2 6986   0.098   2.877  11.223  1.6462  1.7240 -1.2163
  469TMC3    C7 6987   4.645   2.855  11.008  0.0742  0.1336 -0.0981
  469TMC3    C8 6988   0.291   2.729  11.290  0.0657 -0.5680 -0.2284
  469TMC3    O1 6989   4.599   2.844  10.898 -0.1566  0.0666 -0.3900
  469TMC3    O2 6990   0.265   2.809  11.379 -0.7527 -0.0845  0.0606
  470TMC3    C1 6991   1.629   3.162   0.975  0.1424 -0.2772 -0.3688
  470TMC3    C2 6992   1.608   3.298   0.996  0.0132  0.4330  0.1732
  470TMC3    C3 6993   1.566   3.327   1.122  0.8143 -0.0657  0.2571
  470TMC3    C4 6994   1.611   3.065   1.076 -0.1212  0.9545 -0.4274
  470TMC3    C5 6995   1.559   3.111   1.200 -0.5665 -0.3611  0.4091
  470TMC3    C6 6996   1.539   3.241   1.226 -0.3082 -0.2997 -0.0661
  470TMC3     C 6997   1.663   3.117   0.841 -0.3692 -0.0621 -0.7995
  470TMC3     O 6998   1.677   2.998   0.825 -0.5633  0.1780  0.2993
  470TMC3     H 6999   1.631   3.373   0.921 -1.3897  0.3985 -0.2991
  470TMC3    H1 7000   1.627   2.958   1.071 -1.3479  0.7463 -0.0375
  470TMC3    H2 7001   1.526   3.274   1.328  3.0727 -2.9669  1.2182
  470TMC3    C7 7002   1.560   3.017   1.316  0.1017  0.5543  0.2295
  470TMC3    C8 7003   1.584   3.464   1.153  0.0880  0.1950 -0.7734
  470TMC3    O1 7004   1.562   3.064   1.429 -0.0366  0.5786 -0.0383
  470TMC3    O2 7005   1.488   3.518   1.207 -0.7191  0.2570  0.4114
  471MPD2     C 7006   2.775   0.396   0.438  0.5752  0.0858  0.8646
  471MPD2    C1 7007   2.766   0.333   0.315  0.2288 -0.4282 -0.4492
  471MPD2    C2 7008   2.827   0.211   0.310  0.1313 -0.0861  0.3123
  471MPD2    C3 7009   2.894   0.155   0.416 -0.3458  0.1351  0.5559
  471MPD2    C4 7010   2.913   0.221   0.530  0.8003 -0.8883 -0.0393
  471MPD2    C5 7011   2.859   0.346   0.540 -0.2487 -0.6016 -0.2229
  471MPD2     H 7012   2.826   0.158   0.215  2.1252  0.3414  0.0565
  471MPD2    H1 7013   2.962   0.182   0.618 -1.7314 -1.3616  1.1258
  471MPD2    H2 7014   2.725   0.491   0.445 -0.6991 -0.5536  0.3769
  471MPD2    H3 7015   2.872   0.400   0.633 -0.4885 -0.5691 -0.2064
  471MPD2     N 7016   2.978   0.034   0.403 -0.3227  0.0110  0.1873
  471MPD2    H5 7017   3.011   4.714   0.487  1.5443 -0.6133 -0.9019
  471MPD2    N1 7018   2.699   0.381   0.202  0.5709 -0.3968 -0.1849
  471MPD2    H7 7019   2.720   0.332   0.116 -1.5269  0.3610 -1.1290
  472TMC3    C1 7020   2.550   0.503   0.071 -0.4768  0.6966 -0.6585
  472TMC3    C2 7021   2.410   0.506   0.059  0.2977  1.0584 -0.2400
  472TMC3    C3 7022   2.355   0.483  17.638 -0.1501  0.5623  0.1059
  472TMC3    C4 7023   2.632   0.467  17.671  0.6769 -0.4704  0.5659
  472TMC3    C5 7024   2.571   0.439  17.549 -0.5596  0.1787 -0.1959
  472TMC3    C6 7025   2.438   0.448  17.529 -0.7479 -0.6583 -0.4311
  472TMC3     C 7026   2.605   0.481   0.206 -0.2207 -0.0541  0.3766
  472TMC3     O 7027   2.560   0.547   0.304 -0.2424 -0.0011  0.2939
  472TMC3     H 7028   2.351   0.514   0.149  1.6929  1.0203  0.6753
  472TMC3    H1 7029   2.736   0.446  17.693  1.2806  2.1953  0.1916
  472TMC3    H2 7030   2.392   0.408  17.439 -0.7887 -0.9648 -0.2743
  472TMC3    C7 7031   2.630   0.328  17.486 -0.2125  0.3761  0.2948
  472TMC3    C8 7032   2.211   0.482  17.623 -0.8969 -0.4667  0.2646
  472TMC3    O1 7033   2.693   0.253  17.552  1.1405 -0.1419  0.2862
  472TMC3    O2 7034   2.136   0.528   0.006 -0.0566  0.3012  0.3236
  473MPD2     C 7035   2.633   2.233  14.382  0.1743 -0.1108 -0.5924
  473MPD2    C1 7036   2.623   2.336  14.295  1.0513 -0.4083  0.7755
  473MPD2    C2 7037   2.705   2.446  14.317  0.2721  0.5837 -0.3284
  473MPD2    C3 7038   2.781   2.461  14.433 -0.3238 -0.1376  0.0368
  473MPD2    C4 7039   2.792   2.351  14.517  0.9227 -0.3696  0.8304
  473MPD2    C5 7040   2.725   2.236  14.487 -0.0610 -0.4690 -0.7476
  473MPD2     H 7041   2.707   2.522  14.240 -1.9745  0.2009 -0.7620
  473MPD2    H1 7042   2.858   2.350  14.603  0.9461  0.8933  0.8273
  473MPD2    H2 7043   2.567   2.147  14.388  1.0198 -0.7142  0.1110
  473MPD2    H3 7044   2.739   2.156  14.559 -1.1723 -1.5765 -1.7605
  473MPD2     N 7045   2.842   2.584  14.461 -0.3675  0.1100 -0.2458
  473MPD2    H5 7046   2.900   2.582  14.544 -2.0363  1.9246  0.9506
  473MPD2    N1 7047   2.527   2.343  14.187 -0.5631 -0.2556  0.3898
  473MPD2    H7 7048   2.532   2.431  14.138  2.3842 -0.4148  0.4161
  474TMC3    C1 7049   2.875   2.815  14.467  0.3271  0.8091 -0.3187
  474TMC3    C2 7050   2.834   2.938  14.427 -0.3452  0.5714 -0.3475
  474TMC3    C3 7051   2.852   3.048  14.518  0.0052  0.5557 -0.0073
  474TMC3    C4 7052   2.955   2.797  14.572 -0.1343  0.0196  0.2093
  474TMC3    C5 7053   2.982   2.907  14.645  0.6882 -0.0720  0.6756
  474TMC3    C6 7054   2.923   3.035  14.629  0.0154  0.4829 -0.1241
  474TMC3     C 7055   2.817   2.705  14.399  0.8519  0.4154 -0.7605
  474TMC3     O 7056   2.740   2.736  14.307  0.1420  0.2156 -0.2675
  474TMC3     H 7057   2.776   2.954  14.337  2.4793  1.3245 -2.0368
  474TMC3    H1 7058   3.017   2.708  14.579  0.6931  0.8979  4.1414
  474TMC3    H2 7059   2.949   3.125  14.685 -0.6017  0.2595  0.5225
  474TMC3    C7 7060   3.092   2.893  14.736 -1.0894 -0.7159  0.3690
  474TMC3    C8 7061   2.813   3.182  14.470 -0.3678  0.6929 -0.0301
  474TMC3    O1 7062   3.184   2.826  14.694  0.3797  0.4249 -0.4229
  474TMC3    O2 7063   2.866   3.278  14.519  0.1930 -0.0066 -0.3166
  475MPD2     C 7064   1.257   0.639  10.424 -1.1821  0.2788 -0.0860
  475MPD2    C1 7065   1.243   0.773  10.446 -0.4983 -0.2346  0.5572
  475MPD2    C2 7066   1.192   0.814  10.569  0.1695  0.0923  0.2536
  475MPD2    C3 7067   1.153   0.728  10.663 -0.0184 -0.6467 -0.1819
  475MPD2    C4 7068   1.159   0.592  10.639  0.5939  0.0662  0.6420
  475MPD2    C5 7069   1.219   0.548  10.521 -0.5698 -0.3714 -0.5413
  475MPD2     H 7070   1.196   0.919  10.596 -0.2813 -0.0109  0.7236
  475MPD2    H1 7071   1.114   0.516  10.702 -1.1890  0.5252 -0.0546
  475MPD2    H2 7072   1.282   0.608  10.323 -0.3943 -0.4845  0.3453
  475MPD2    H3 7073   1.222   0.442  10.501 -0.7946 -0.4493 -0.1526
  475MPD2     N 7074   1.108   0.788  10.787  0.1159 -0.5035 -0.3576
  475MPD2    H5 7075   1.121   0.888  10.790 -0.3023 -0.4551 -0.0911
  475MPD2    N1 7076   1.287   0.860  10.348  0.5501 -0.1575 -0.1777
  475MPD2    H7 7077   1.273   0.830  10.252  0.0907  0.7558 -0.3943
  476TMC3    C1 7078   1.394   1.035  10.244  0.1017 -0.1363  0.1988
  476TMC3    C2 7079   1.310   1.040  10.126  0.0763 -0.1215 -0.6145
  476TMC3    C3 7080   1.349   1.116  10.027 -0.4922  0.4650 -0.3198
  476TMC3    C4 7081   1.500   1.118  10.262 -0.3680  0.5475 -0.3039
  476TMC3    C5 7082   1.518   1.207  10.161 -0.6172 -0.0338 -0.0455
  476TMC3    C6 7083   1.454   1.200  10.038  0.2582  0.1133 -0.3418
  476TMC3     C 7084   1.345   0.981  10.366 -0.1046  0.8096 -0.5375
  476TMC3     O 7085   1.374   1.021  10.480  0.0795 -0.2196  0.4661
  476TMC3     H 7086   1.207   1.007  10.126  0.7388 -2.2690  1.6683
  476TMC3    H1 7087   1.547   1.126  10.360  0.5177 -1.7426 -0.5397
  476TMC3    H2 7088   1.464   1.273   9.959  3.1687 -0.1380 -0.2190
  476TMC3    C7 7089   1.623   1.303  10.170  0.0613 -0.0705 -0.0478
  476TMC3    C8 7090   1.277   1.119   9.898  1.0505  0.4958  0.1207
  476TMC3    O1 7091   1.664   1.362  10.071  0.4234  0.3542 -0.2709
  476TMC3    O2 7092   1.294   1.207   9.810 -0.7019  0.1445  0.1228
  477MPD2     C 7093   3.261   2.004  11.905 -0.2798  0.4453  0.1373
  477MPD2    C1 7094   3.305   2.122  11.962 -0.6493  0.5388  0.5892
  477MPD2    C2 7095   3.373   2.107  12.088 -0.0629 -0.1004  0.2933
  477MPD2    C3 7096   3.399   1.979  12.146  0.0786 -0.2587  0.7031
  477MPD2    C4 7097   3.350   1.868  12.088  0.2643  0.7639 -0.2402
  477MPD2    C5 7098   3.282   1.887  11.971  0.6041  0.7144  0.2837
  477MPD2     H 7099   3.419   2.189  12.142  0.5290  0.3509 -0.8951
  477MPD2    H1 7100   3.348   1.765  12.122  2.7075  1.0755  0.8970
  477MPD2    H2 7101   3.206   2.011  11.812  0.2920 -0.9774 -0.3071
  477MPD2    H3 7102   3.243   1.797  11.923  0.4051 -0.5887  2.9084
  477MPD2     N 7103   3.475   1.975  12.261  0.2813  0.2549 -0.3478
  477MPD2    H5 7104   3.502   2.062  12.306  0.0196  0.0358  0.2397
  477MPD2    N1 7105   3.292   2.242  11.887 -0.1122 -0.4744  0.5222
  477MPD2    H7 7106   3.239   2.239  11.800  2.6939 -0.0418 -1.1802
  478TMC3    C1 7107   3.310   2.470  11.838  0.3981 -0.3952 -0.5019
  478TMC3    C2 7108   3.306   2.588  11.897  0.0734 -0.4896  0.1630
  478TMC3    C3 7109   3.281   2.701  11.815  0.2751 -0.3074 -0.6249
  478TMC3    C4 7110   3.284   2.455  11.710 -0.8418  0.1618  0.2463
  478TMC3    C5 7111   3.253   2.563  11.632  0.5871 -1.0938 -0.3495
  478TMC3    C6 7112   3.267   2.687  11.682 -0.1698  0.4078  0.0219
  478TMC3     C 7113   3.343   2.356  11.927  0.7449 -0.5504  0.2458
  478TMC3     O 7114   3.409   2.382  12.026 -0.1915 -0.2769 -0.1898
  478TMC3     H 7115   3.333   2.598  12.001 -0.1960 -1.9315  0.3824
  478TMC3    H1 7116   3.301   2.356  11.668 -1.2897  0.9866 -1.8592
  478TMC3    H2 7117   3.238   2.772  11.621  2.7446  0.5717 -1.1133
  478TMC3    C7 7118   3.180   2.551  11.502  0.1551 -0.0433  1.0064
  478TMC3    C8 7119   3.298   2.830  11.879  0.6147  0.3504  0.1819
  478TMC3    O1 7120   3.226   2.625  11.420  0.0995 -0.5545  0.6248
  478TMC3    O2 7121   3.318   2.831  11.999  0.1994 -0.9067  0.3112
  479MPD2     C 7122   2.575   4.337  15.191  0.2067 -0.2587 -0.2090
  479MPD2    C1 7123   2.507   4.273  15.290 -0.3020  0.1630 -0.3724
  479MPD2    C2 7124   2.544   4.288  15.423  0.4739 -0.2863 -0.4815
  479MPD2    C3 7125   2.653   4.372  15.455  0.4329  0.3021  0.2155
  479MPD2    C4 7126   2.725   4.429  15.351 -0.2644  0.4513  0.2914
  479MPD2    C5 7127   2.685   4.413  15.222 -0.3687  0.3483  0.2132
  479MPD2     H 7128   2.499   4.233  15.505 -0.7233  0.7003 -0.4843
  479MPD2    H1 7129   2.813   4.492  15.361  1.0227 -1.7434  2.6619
  479MPD2    H2 7130   2.552   4.337  15.085  1.7495 -1.0037 -0.5452
  479MPD2    H3 7131   2.737   4.461  15.140 -1.7935  1.6626  0.0771
  479MPD2     N 7132   2.702   4.392  15.586  0.4524 -0.9358 -0.7199
  479MPD2    H5 7133   2.801   4.409  15.583  0.3323  0.3091  2.1495
  479MPD2    N1 7134   2.373   4.215  15.261 -0.2143 -0.4996  0.7072
  479MPD2    H7 7135   2.351   4.206  15.162  0.9837 -1.7742  0.5735
  480TMC3    C1 7136   2.308   4.291  15.838 -0.5443  0.6108 -0.3654
  480TMC3    C2 7137   2.236   4.390  15.776  0.2508 -0.5339 -0.5221
  480TMC3    C3 7138   2.294   4.460  15.668  0.3529  0.1108 -0.2048
  480TMC3    C4 7139   2.442   4.281  15.813 -0.6276  0.2958 -0.1554
  480TMC3    C5 7140   2.498   4.366  15.714  1.2592 -0.3631  0.2277
  480TMC3    C6 7141   2.423   4.456  15.636  0.0110 -1.0342 -0.6310
  480TMC3     C 7142   2.246   4.175  15.912  0.0298  0.5410 -0.2372
  480TMC3     O 7143   2.329   4.105  15.964  0.2269 -0.1237  0.0877
  480TMC3     H 7144   2.130   4.405  15.790  0.6032  0.1957  1.3584
  480TMC3    H1 7145   2.506   4.204  15.856  1.1303  1.7592 -0.1832
  480TMC3    H2 7146   2.468   4.521  15.561 -2.1120  1.8447  0.6171
  480TMC3    C7 7147   2.641   4.354  15.705 -0.4261 -0.3132  0.1019
  480TMC3    C8 7148   2.217   4.548  15.589  0.2136  0.3081 -0.6811
  480TMC3    O1 7149   2.695   4.324  15.810 -0.3816 -0.1768 -0.2161
  480TMC3    O2 7150   2.122   4.607  15.637  0.0784  0.0394 -0.1363
  481MPD2     C 7151   4.098   4.273  14.580  0.4295 -0.2124 -0.6217
  481MPD2    C1 7152   4.011   4.167  14.566  0.4020  0.1703  0.2743
  481MPD2    C2 7153   3.975   4.101  14.679  0.1791  0.1124  0.0569
  481MPD2    C3 7154   4.032   4.125  14.805 -0.2490  0.4926  0.3840
  481MPD2    C4 7155   4.115   4.236  14.818 -0.2474 -0.4622  0.3227
  481MPD2    C5 7156   4.154   4.305  14.702  0.6355 -0.1626 -0.0573
  481MPD2     H 7157   3.894   4.030  14.672  0.2279 -0.0921  1.7062
  481MPD2    H1 7158   4.168   4.266  14.908  3.3614 -0.5595 -1.7744
  481MPD2    H2 7159   4.118   4.332  14.491  1.4617  0.9365  0.3702
  481MPD2    H3 7160   4.223   4.389  14.708  1.9920 -1.3240  0.7061
  481MPD2     N 7161   4.012   4.053  14.922 -0.6172 -0.0248 -0.2926
  481MPD2    H5 7162   4.072   4.063  15.004 -0.9143  2.7898 -0.3926
  481MPD2    N1 7163   3.956   4.141  14.443  0.4280 -0.3079 -0.2233
  481MPD2    H7 7164   3.991   4.188  14.360 -1.6566  2.4783  0.4523
  482TMC3    C1 7165   3.814   4.039  14.276 -0.2227 -0.1210 -0.0906
  482TMC3    C2 7166   3.776   3.915  14.236  0.0704  0.2449 -0.1612
  482TMC3    C3 7167   3.764   3.886  14.106  0.0481 -0.0621 -0.1591
  482TMC3    C4 7168   3.827   4.139  14.179 -0.4862 -0.4933  0.2903
  482TMC3    C5 7169   3.795   4.110  14.046  0.3468 -0.1710 -0.2208
  482TMC3    C6 7170   3.762   3.983  14.010 -0.1644 -0.3791  0.1164
  482TMC3     C 7171   3.860   4.049  14.418 -0.0721  0.5435  0.0409
  482TMC3     O 7172   3.806   3.966  14.488  0.3578 -0.1428  0.1504
  482TMC3     H 7173   3.787   3.829  14.300  1.3410  0.2872 -0.3306
  482TMC3    H1 7174   3.827   4.243  14.211  0.5040 -0.4906  0.2994
  482TMC3    H2 7175   3.742   3.952  13.908 -0.9549  0.8325 -0.0928
  482TMC3    C7 7176   3.741   4.221  13.967  0.1296 -0.3013 -0.1993
  482TMC3    C8 7177   3.789   3.753  14.067 -0.2520  0.1476 -0.0440
  482TMC3    O1 7178   3.698   4.324  14.021  0.2558 -0.2296  0.9802
  482TMC3    O2 7179   3.716   3.662  14.090 -0.2079 -0.1341  0.0220
  483TMC3    C1 7180   0.557   1.957   0.447  0.2249  0.3035  0.5350
  483TMC3    C2 7181   0.577   2.068   0.366 -0.5220  0.4964 -0.0050
  483TMC3    C3 7182   0.691   2.063   0.288  0.7092 -0.0267 -0.2040
  483TMC3    C4 7183   0.648   1.859   0.468  0.7706 -0.0190  0.9277
  483TMC3    C5 7184   0.759   1.865   0.389  0.1798  0.7036  0.5447
  483TMC3    C6 7185   0.778   1.960   0.295  0.9405 -0.0163 -0.2049
  483TMC3     C 7186   0.418   1.944   0.481  0.1042 -0.0818 -0.2744
  483TMC3     O 7187   0.348   2.044   0.477 -0.0102 -0.1022 -0.5834
  483TMC3     H 7188   0.510   2.152   0.364 -2.0557 -0.8147 -2.7249
  483TMC3    H1 7189   0.635   1.787   0.547 -1.4568  0.6616  1.2045
  483TMC3    H2 7190   0.871   1.968   0.241  1.7330 -1.2350  0.9855
  483TMC3    C7 7191   0.881   1.849   0.468 -0.3690 -0.3511 -0.2119
  483TMC3    C8 7192   0.742   2.191   0.240  0.0865 -0.7827  0.2547
  483TMC3    O1 7193   0.978   1.912   0.430 -0.1092 -0.2916  0.4306
  483TMC3    O2 7194   0.795   2.203   0.128 -0.4903  0.0273 -0.7662
  484MPD2     C 7195   3.812   0.519  12.582  0.0133 -0.8548 -0.1565
  484MPD2    C1 7196   3.860   0.559  12.702  0.4770  0.4974 -0.1998
  484MPD2    C2 7197   3.954   0.658  12.699 -0.0277  0.6666 -0.1697
  484MPD2    C3 7198   4.006   0.701  12.576  0.3570  0.5426  0.0039
  484MPD2    C4 7199   3.973   0.643  12.458  0.2699  0.5023 -0.2379
  484MPD2    C5 7200   3.866   0.552  12.459  0.2198 -0.1142 -0.6037
  484MPD2     H 7201   3.995   0.693  12.793  0.7116 -2.8324  0.8118
  484MPD2    H1 7202   4.031   0.662  12.368 -0.2903  0.0843 -0.6913
  484MPD2    H2 7203   3.742   0.438  12.567 -0.7230 -0.9154  3.7325
  484MPD2    H3 7204   3.844   0.501  12.366  1.3354 -0.3202 -0.7580
  484MPD2     N 7205   4.125   0.789  12.577 -0.0154  0.1159  0.5983
  484MPD2    H5 7206   4.159   0.814  12.485 -0.8574 -0.1344  0.2128
  484MPD2    N1 7207   3.789   0.522  12.820 -0.2855 -0.5006 -0.2604
  484MPD2    H7 7208   3.709   0.459  12.822 -0.8174  0.1907  0.2799
  485TMC3    C1 7209   4.288   0.944  12.679  0.0227 -0.3640  0.3588
  485TMC3    C2 7210   4.304   1.040  12.774  0.0055 -0.6605  0.1741
  485TMC3    C3 7211   4.397   1.130  12.762  0.0876 -0.3764 -0.2414
  485TMC3    C4 7212   4.371   0.932  12.574  0.7550 -0.5639  0.4704
  485TMC3    C5 7213   4.476   1.016  12.569  0.3312 -0.4695  0.0628
  485TMC3    C6 7214   4.488   1.120  12.665  0.8768 -0.2137 -0.0641
  485TMC3     C 7215   4.172   0.852  12.691  0.0696  0.1703  0.5598
  485TMC3     O 7216   4.145   0.840  12.811 -0.6621  0.4369 -0.3025
  485TMC3     H 7217   4.248   1.035  12.867  0.0740 -1.7929  0.1570
  485TMC3    H1 7218   4.377   0.847  12.507 -1.1181 -1.6205  1.6312
  485TMC3    H2 7219   4.566   1.194  12.650  1.9884 -1.3069  0.3249
  485TMC3    C7 7220   4.606   0.964  12.557  0.1844  0.0775  0.3095
  485TMC3    C8 7221   4.449   1.149  12.894  0.5459  0.0346  0.2959
  485TMC3    O1 7222   4.663   0.948  12.663 -0.1390 -0.1044  0.0482
  485TMC3    O2 7223   4.374   1.197  12.979 -0.2450  0.0538  0.3581
  486MPD2     C 7224   2.010   4.559  13.045 -0.2191 -0.8731 -0.2127
  486MPD2    C1 7225   1.896   4.538  12.974  0.6127  0.1391 -0.5440
  486MPD2    C2 7226   1.800   4.643  12.966  0.4674 -0.7623 -0.6395
  486MPD2    C3 7227   1.833   0.051  13.017  0.4048 -0.4429  0.0893
  486MPD2    C4 7228   1.965   0.071  13.073 -0.4765 -0.3889  0.3627
  486MPD2    C5 7229   2.043   4.688  13.092 -0.0422  0.2712  0.2202
  486MPD2     H 7230   1.703   4.624  12.921  0.5310  1.0158 -1.5254
  486MPD2    H1 7231   2.002   0.166  13.110 -2.1250  0.5743 -0.4863
  486MPD2    H2 7232   2.086   4.484  13.066 -0.6149 -0.5510  2.3596
  486MPD2    H3 7233   2.137   4.698  13.144 -0.7988  1.6171  1.3310
  486MPD2     N 7234   1.738   0.150  12.996 -0.1045  0.3018 -0.0257
  486MPD2    H5 7235   1.645   0.124  12.965 -0.8563  1.9359  0.8306
  486MPD2    N1 7236   1.874   4.413  12.914 -0.5203  0.0831 -0.4167
  486MPD2    H7 7237   1.944   4.344  12.941  0.2382  0.2774 -1.8950
  487TMC3    C1 7238   1.762   4.252  12.766 -0.6521 -0.3929 -0.7271
  487TMC3    C2 7239   1.682   4.226  12.662 -0.0415  0.6883 -0.5581
  487TMC3    C3 7240   1.676   4.100  12.614 -0.0580  0.3058 -0.5520
  487TMC3    C4 7241   1.821   4.154  12.842 -0.6371  0.0507  0.2410
  487TMC3    C5 7242   1.801   4.025  12.806 -0.3155 -0.0233 -0.1481
  487TMC3    C6 7243   1.739   3.998  12.689 -0.5041 -0.3372 -0.0459
  487TMC3     C 7244   1.765   4.387  12.822 -0.2105 -0.2665  0.1747
  487TMC3     O 7245   1.703   4.464  12.750  0.2022 -0.0986  0.2713
  487TMC3     H 7246   1.637   4.309  12.608  0.5523 -0.1084 -2.2572
  487TMC3    H1 7247   1.877   4.181  12.932  2.4966  0.1537 -1.7251
  487TMC3    H2 7248   1.701   3.899  12.665 -3.0422  0.2255  1.5892
  487TMC3    C7 7249   1.777   3.947  12.922 -0.7449  0.7652 -0.6662
  487TMC3    C8 7250   1.538   4.058  12.600 -0.2597 -0.5470  0.0850
  487TMC3    O1 7251   1.815   3.989  13.033  0.2863 -0.4180 -0.0737
  487TMC3    O2 7252   1.506   3.974  12.520 -1.0474 -0.4805 -0.8115
  488MPD2     C 7253   2.022   1.412  16.812  1.0394  0.6308  0.2273
  488MPD2    C1 7254   1.989   1.537  16.785 -0.7610  0.2977  0.3674
  488MPD2    C2 7255   1.945   1.626  16.883 -0.3074  0.8050 -0.3825
  488MPD2    C3 7256   1.926   1.581  17.017  1.1106 -0.1813  0.4130
  488MPD2    C4 7257   1.959   1.448  17.040 -0.4740 -0.0758 -0.7569
  488MPD2    C5 7258   1.997   1.366  16.941  1.0045  0.6864  0.3281
  488MPD2     H 7259   1.924   1.729  16.857 -1.1361 -0.4420 -4.5617
  488MPD2    H1 7260   1.952   1.405  17.139 -1.4897  0.5936 -0.5385
  488MPD2    H2 7261   2.056   1.347  16.733 -0.8569  2.1255 -1.8337
  488MPD2    H3 7262   2.008   1.262  16.967  0.7871  0.6794  0.3941
  488MPD2     N 7263   1.862   1.662  17.109 -0.2157 -0.1820  0.8573
  488MPD2    H5 7264   1.824   1.746  17.067  0.0911  0.5336  2.0359
  488MPD2    N1 7265   1.990   1.588  16.651 -0.4083 -0.3296  0.0410
  488MPD2    H7 7266   1.983   1.689  16.637 -1.4782 -0.2421  1.1694
  489TMC3    C1 7267   1.799   1.753  17.325 -0.0732  0.1477  0.6206
  489TMC3    C2 7268   1.836   1.876  17.275 -0.3350  0.1627  0.0624
  489TMC3    C3 7269   1.773   1.987  17.330 -0.8955 -0.0735  0.2093
  489TMC3    C4 7270   1.709   1.739  17.428 -0.2786 -0.4912  0.6522
  489TMC3    C5 7271   1.646   1.857  17.472  0.3670  0.5676  0.4011
  489TMC3    C6 7272   1.666   1.977  17.410 -0.6502 -0.0434  0.2286
  489TMC3     C 7273   1.843   1.635  17.249 -0.6420  0.2512  0.2113
  489TMC3     O 7274   1.869   1.537  17.320  0.2850 -0.1834  0.0497
  489TMC3     H 7275   1.909   1.881  17.194 -1.4635  1.3589 -0.8627
  489TMC3    H1 7276   1.677   1.644  17.468 -2.8244  0.7822  1.6168
  489TMC3    H2 7277   1.627   2.062  17.465  0.7155 -0.0629  1.1996
  489TMC3    C7 7278   1.539   1.851  17.569 -0.1300 -0.0551  0.7555
  489TMC3    C8 7279   1.821   2.119  17.281 -0.1929 -0.7769 -0.6372
  489TMC3    O1 7280   1.439   1.925  17.550 -0.6747  0.1528  0.1470
  489TMC3    O2 7281   1.919   2.110  17.209 -0.2757  0.2483 -0.0704
  490MPD2     C 7282   2.805   0.832  17.501 -0.4041  0.5250  0.0083
  490MPD2    C1 7283   2.786   0.841  17.644  0.6782  0.0225 -0.2559
  490MPD2    C2 7284   2.894   0.852   0.025  0.3818  0.2141 -0.6985
  490MPD2    C3 7285   3.026   0.840  17.682 -0.0896  0.1032  0.4650
  490MPD2    C4 7286   3.044   0.824  17.542  0.0840 -0.5589 -0.2027
  490MPD2    C5 7287   2.932   0.821  17.459 -0.4508 -0.4563  0.0847
  490MPD2     H 7288   2.881   0.880   0.129  1.8580 -0.7635 -0.2507
  490MPD2    H1 7289   3.146   0.806  17.509  0.2284 -1.4811  0.7373
  490MPD2    H2 7290   2.721   0.839  17.432 -0.0481 -1.4521 -0.6458
  490MPD2    H3 7291   2.949   0.823  17.352  0.0477 -0.6903  0.1612
  490MPD2     N 7292   3.140   0.836   0.057  0.4731 -0.2324  0.3425
  490MPD2    H5 7293   3.231   0.824   0.013  1.1446  0.3984  1.5752
  490MPD2    N1 7294   2.664   0.849   0.006 -0.5787  0.7096 -0.5104
  490MPD2    H7 7295   2.663   0.852   0.107  1.2869  0.1020 -0.4727
  491TMC3    C1 7296   2.431   0.858   0.046 -1.0084 -0.3919 -0.2864
  491TMC3    C2 7297   2.450   0.845   0.179 -0.0277 -0.3456  0.6513
  491TMC3    C3 7298   2.344   0.809   0.260  0.4973  0.2886  0.3498
  491TMC3    C4 7299   2.312   0.852  17.691  0.7462  0.3942 -0.3577
  491TMC3    C5 7300   2.202   0.842   0.069  0.4035  0.0371 -0.1100
  491TMC3    C6 7301   2.220   0.813   0.205  0.4193 -0.4094 -0.7977
  491TMC3     C 7302   2.544   0.851  17.652  0.2897 -0.8222 -0.6305
  491TMC3     O 7303   2.520   0.829  17.540 -0.3811  0.2396 -0.2569
  491TMC3     H 7304   2.538   0.887   0.226 -1.3633  2.2331  0.8391
  491TMC3    H1 7305   2.303   0.868  17.585 -1.0207 -2.7154 -0.6822
  491TMC3    H2 7306   2.132   0.792   0.265  0.1323  0.9618 -0.7376
  491TMC3    C7 7307   2.067   0.840   0.013 -0.0153  0.1666  0.1266
  491TMC3    C8 7308   2.346   0.793   0.405  0.2678 -0.1146 -0.4527
  491TMC3    O1 7309   1.978   0.813   0.097 -0.6943  0.6308 -0.2032
  491TMC3    O2 7310   2.235   0.794   0.462  0.5892  0.3276 -0.0818
  492MPD2     C 7311   2.617   0.284  10.886  0.0705 -0.6658 -1.0125
  492MPD2    C1 7312   2.685   0.389  10.937 -0.8523 -0.9068 -0.2536
  492MPD2    C2 7313   2.655   0.433  11.066  0.2127 -0.4338 -0.1905
  492MPD2    C3 7314   2.557   0.369  11.144  0.0073  0.0785  0.8435
  492MPD2    C4 7315   2.496   0.264  11.084 -0.1663 -0.2717 -0.4829
  492MPD2    C5 7316   2.526   0.219  10.961 -0.8709 -0.0101  0.0085
  492MPD2     H 7317   2.715   0.506  11.118  0.5802 -2.0682  1.6664
  492MPD2    H1 7318   2.442   0.195  11.148 -1.6315  1.2011 -0.1124
  492MPD2    H2 7319   2.642   0.244  10.788  2.1022  1.4002 -1.3299
  492MPD2    H3 7320   2.479   0.124  10.939 -0.7409  0.1948 -1.1710
  492MPD2     N 7321   2.522   0.397  11.277 -0.1300 -0.5816 -0.5995
  492MPD2    H5 7322   2.436   0.355  11.310  1.3117 -2.2042  1.0846
  492MPD2    N1 7323   2.777   0.458  10.855 -0.1765 -0.4515 -0.2680
  492MPD2    H7 7324   2.791   0.424  10.760  1.7870 -0.4239  0.0050
  493TMC3    C1 7325   2.964   0.595  10.791 -0.0250 -0.7006  0.5885
  493TMC3    C2 7326   3.041   0.700  10.834  0.4243 -0.7485  0.7515
  493TMC3    C3 7327   3.086   0.790  10.742  0.4105  0.2201  0.0493
  493TMC3    C4 7328   2.923   0.592  10.663 -0.3870 -0.0730  0.0157
  493TMC3    C5 7329   2.980   0.665  10.568  0.3989 -0.0032  0.6597
  493TMC3    C6 7330   3.056   0.775  10.610  0.4906 -0.0862  0.1879
  493TMC3     C 7331   2.874   0.546  10.893 -0.1530  0.4234 -0.6619
  493TMC3     O 7332   2.897   0.580  11.012  0.0577 -0.3104 -0.2690
  493TMC3     H 7333   3.073   0.707  10.937 -3.8088 -3.9123  2.2794
  493TMC3    H1 7334   2.857   0.512  10.629 -1.0626  1.3961 -2.1325
  493TMC3    H2 7335   3.097   0.842  10.536  0.9669 -1.1889 -0.5409
  493TMC3    C7 7336   2.884   0.701  10.460  0.2997  0.3744 -0.6906
  493TMC3    C8 7337   3.171   0.899  10.790 -0.2552  0.5945 -1.0801
  493TMC3    O1 7338   2.772   0.681  10.491 -0.3682 -0.0445  0.0284
  493TMC3    O2 7339   3.177   0.902  10.915  0.4403  0.0287  0.3916
  494TMC3    C1 7340   2.675   2.533   0.596 -0.0566  0.2780 -0.4735
  494TMC3    C2 7341   2.711   2.408   0.639  0.0192 -0.3462  0.5814
  494TMC3    C3 7342   2.820   2.355   0.582 -0.1866 -0.3425 -0.4209
  494TMC3    C4 7343   2.736   2.592   0.492 -0.3749  0.4136 -0.9145
  494TMC3    C5 7344   2.836   2.523   0.426  0.8163 -0.3263  0.0032
  494TMC3    C6 7345   2.884   2.406   0.472 -0.3098 -0.2416 -0.1862
  494TMC3     C 7346   2.568   2.594   0.666 -0.5113 -0.5151  0.0681
  494TMC3     O 7347   2.563   2.716   0.654 -0.1488 -0.3076 -0.4016
  494TMC3     H 7348   2.673   2.366   0.731 -1.6402  0.6314  0.3306
  494TMC3    H1 7349   2.704   2.693   0.470 -0.1529  0.0983 -2.6848
  494TMC3    H2 7350   2.969   2.358   0.424 -1.6297 -1.2432 -1.5107
  494TMC3    C7 7351   2.919   2.592   0.331 -0.3049 -0.6802  0.0032
  494TMC3    C8 7352   2.879   2.232   0.638  0.3935 -0.4276 -0.1027
  494TMC3    O1 7353   3.033   2.556   0.322 -0.2413 -0.1814  0.3862
  494TMC3    O2 7354   2.994   2.210   0.602 -0.3571 -0.0592 -0.2384
  495TMC3    C1 7355   2.245   4.196  14.639  0.4889 -0.2126 -0.2197
  495TMC3    C2 7356   2.164   4.266  14.554 -0.3251 -0.0659  0.4737
  495TMC3    C3 7357   2.069   4.345  14.603  0.2405 -0.1078  0.6981
  495TMC3    C4 7358   2.242   4.233  14.770 -0.0445  0.1723 -0.5132
  495TMC3    C5 7359   2.165   4.338  14.814 -0.3301 -0.3964  0.0054
  495TMC3    C6 7360   2.068   4.377  14.734 -0.3529 -0.1969 -0.3007
  495TMC3     C 7361   2.223   4.052  14.612  0.3498 -0.2951 -0.3549
  495TMC3     O 7362   2.128   4.020  14.546 -0.3300  0.1841  0.1766
  495TMC3     H 7363   2.169   4.250  14.447 -0.3394  1.4383  0.2537
  495TMC3    H1 7364   2.301   4.189  14.850 -1.8954 -0.2743  0.6122
  495TMC3    H2 7365   1.995   4.453  14.757  1.1071  0.9116  0.6284
  495TMC3    C7 7366   2.197   4.395  14.950  0.2768 -0.2533  0.7939
  495TMC3    C8 7367   1.944   4.332  14.533 -0.1486 -0.5340  0.2711
  495TMC3    O1 7368   2.267   4.324  15.021 -0.4357  0.6115 -0.3425
  495TMC3    O2 7369   1.850   4.406  14.553 -0.9081 -0.7021 -1.2052
  496MPD2     C 7370   4.598   4.594  15.670  0.0445  0.0251  0.2726
  496MPD2    C1 7371   4.577   4.460  15.707 -0.6991 -0.0191 -0.6701
  496MPD2    C2 7372   4.485   4.433  15.805 -0.2263  0.8011  0.5059
  496MPD2    C3 7373   4.408   4.538  15.855 -0.1496 -0.3466 -0.5025
  496MPD2    C4 7374   4.431   4.671  15.820  0.1137  0.9868 -0.6188
  496MPD2    C5 7375   4.528   4.699  15.724 -1.2293 -0.0101  0.0546
  496MPD2     H 7376   4.457   4.334  15.839  2.3559  0.4279  1.5612
  496MPD2    H1 7377   4.380   0.032  15.860 -1.5697  0.3329 -1.3317
  496MPD2    H2 7378   4.668   4.639  15.600 -1.1477 -2.0493 -2.2577
  496MPD2    H3 7379   4.552   0.073  15.691 -1.9813  0.4488  0.8765
  496MPD2     N 7380   4.315   4.500  15.955 -0.1707 -0.4824 -1.0867
  496MPD2    H5 7381   4.293   4.403  15.971  0.6300 -0.7735 -1.7516
  496MPD2    N1 7382   4.667   4.360  15.643  0.2524 -0.6217  0.1743
  496MPD2    H7 7383   0.014   4.393  15.582 -0.6245 -1.4200 -1.2977
  497TMC3    C1 7384   4.189   4.496  16.140  0.0694  0.5236  0.5328
  497TMC3    C2 7385   4.148   4.372  16.108 -0.3405 -0.3343  0.3560
  497TMC3    C3 7386   4.099   4.288  16.205  0.5315 -0.0877 -0.1776
  497TMC3    C4 7387   4.174   4.549  16.264  0.2120  0.5499  0.1490
  497TMC3    C5 7388   4.126   4.471  16.357 -0.0131  0.3790 -0.4145
  497TMC3    C6 7389   4.102   4.339  16.333  0.8970  0.2304  0.3636
  497TMC3     C 7390   4.248   4.579  16.042 -0.5724  0.5383 -0.2475
  497TMC3     O 7391   4.250   4.702  16.060  0.2225 -0.4447 -0.2300
  497TMC3     H 7392   4.135   4.351  16.002 -1.5199  1.2815  0.1964
  497TMC3    H1 7393   4.184   4.656  16.280  1.6855  0.4061  0.2361
  497TMC3    H2 7394   4.070   4.267  16.408  1.5697  0.8454  1.2334
  497TMC3    C7 7395   4.195   4.498  16.485  0.4763  0.0786  0.4915
  497TMC3    C8 7396   4.098   4.147  16.196 -0.4179  0.3283 -0.0103
  497TMC3    O1 7397   4.285   4.578  16.479  0.1298  0.1714  0.1784
  497TMC3    O2 7398   4.068   4.085  16.294  0.0739 -0.0091  0.5895
  498MPD2     C 7399   0.428   0.235  10.360  0.4295 -0.3383  0.0360
  498MPD2    C1 7400   0.295   0.267  10.339  0.6972 -0.2780 -0.7319
  498MPD2    C2 7401   0.203   0.159  10.333 -0.1720  0.5077  1.0136
  498MPD2    C3 7402   0.240   0.034  10.373  0.4111  0.4364  0.0725
  498MPD2    C4 7403   0.372   0.013  10.413  0.4752 -0.0290  0.2781
  498MPD2    C5 7404   0.461   0.107  10.392  0.7067 -0.1408 -0.1308
  498MPD2     H 7405   0.099   0.164  10.303  0.5993 -0.2850 -1.8284
  498MPD2    H1 7406   0.405   4.639  10.437  2.0290  0.3699 -0.1774
  498MPD2    H2 7407   0.503   0.311  10.347 -0.3576  0.7171  1.6698
  498MPD2    H3 7408   0.565   0.078  10.405  0.6497 -0.5731 -0.6404
  498MPD2     N 7409   0.136   4.659  10.378  0.0111  0.0751 -0.0255
  498MPD2    H5 7410   0.043   4.691  10.355  0.5903  0.6676 -1.5294
  498MPD2    N1 7411   0.249   0.388  10.289  0.1340 -0.4466  0.1955
  498MPD2    H7 7412   0.149   0.405  10.288  0.1258 -0.4864  0.8962
  499TMC3    C1 7413   0.251   0.604  10.203 -0.4088  0.5905  0.2957
  499TMC3    C2 7414   0.121   0.625  10.247  0.2550  0.4088 -0.1827
  499TMC3    C3 7415   0.055   0.741  10.211  0.5553  0.2830 -0.0946
  499TMC3    C4 7416   0.308   0.681  10.110  0.5934 -0.4645  0.6360
  499TMC3    C5 7417   0.232   0.784  10.057 -0.1246 -0.3735  0.2606
  499TMC3    C6 7418   0.113   0.827  10.122  0.1679  0.0666 -0.0661
  499TMC3     C 7419   0.333   0.494  10.254  0.1944  0.7779  0.2810
  499TMC3     O 7420   0.452   0.496  10.234 -0.5765 -0.0054 -0.0510
  499TMC3     H 7421   0.089   0.560  10.328  1.1761 -1.4617 -1.3058
  499TMC3    H1 7422   0.398   0.642  10.063  0.9592  1.6201 -0.4201
  499TMC3    H2 7423   0.071   0.926  10.124 -0.8421 -0.3539 -0.2968
  499TMC3    C7 7424   0.303   0.882   9.974  0.0346  0.1351 -0.3529
  499TMC3    C8 7425   4.658   0.778  10.276 -0.2666  0.4211  0.3204
  499TMC3    O1 7426   0.420   0.853   9.954  0.1160  0.2791 -0.1455
  499TMC3    O2 7427   4.620   0.894  10.260 -0.3966  0.0711 -0.1141
  500MPD2     C 7428   2.030   1.898  10.081  0.0063 -0.4644 -0.1786
  500MPD2    C1 7429   2.001   1.953  10.204  0.2927 -0.6249  0.2467
  500MPD2    C2 7430   1.887   2.034  10.213 -0.0688 -0.6392  1.1886
  500MPD2    C3 7431   1.792   2.048  10.112  0.1207 -0.4155  0.1087
  500MPD2    C4 7432   1.823   1.988   9.993  0.2186 -0.3816  0.0979
  500MPD2    C5 7433   1.942   1.918   9.976 -0.1045 -0.2790  0.3491
  500MPD2     H 7434   1.864   2.090  10.303  1.3108  1.4950  0.2305
  500MPD2    H1 7435   1.754   1.990   9.910  0.3247  0.1944  0.0224
  500MPD2    H2 7436   2.124   1.846  10.067 -0.7155 -2.0912  0.8837
  500MPD2    H3 7437   1.958   1.863   9.884  1.5792  3.4705 -1.6377
  500MPD2     N 7438   1.664   2.109  10.126  0.4274 -0.2289 -0.5486
  500MPD2    H5 7439   1.605   2.091  10.045  0.6445 -0.9940 -0.5338
  500MPD2    N1 7440   2.084   1.947  10.315 -0.0226  0.3896  0.6928
  500MPD2    H7 7441   2.054   2.013  10.387 -2.1471  1.9929 -1.6936
  501TMC3    C1 7442   2.279   1.920  10.440 -0.4341 -0.4362  0.0273
  501TMC3    C2 7443   2.271   2.048  10.481 -0.6282  0.4252 -0.4144
  501TMC3    C3 7444   2.355   2.077  10.589 -0.2276  0.9604  0.2747
  501TMC3    C4 7445   2.338   1.819  10.512  0.8972 -1.1781 -0.9632
  501TMC3    C5 7446   2.403   1.854  10.628  0.2682 -0.2475 -0.7187
  501TMC3    C6 7447   2.416   1.987  10.659 -0.6769 -0.2181 -0.0122
  501TMC3     C 7448   2.193   1.871  10.333  0.4496  0.4919 -0.3475
  501TMC3     O 7449   2.230   1.777  10.265 -0.1390  0.2516  0.1878
  501TMC3     H 7450   2.222   2.115  10.412 -1.5246  0.8989  0.6722
  501TMC3    H1 7451   2.333   1.714  10.485 -0.6063 -1.4912  0.5828
  501TMC3    H2 7452   2.458   2.016  10.755  0.2063  0.5327 -0.6250
  501TMC3    C7 7453   2.500   1.764  10.683  0.2919  0.9645  0.1033
  501TMC3    C8 7454   2.381   2.214  10.625 -0.2820 -0.3480 -0.7655
  501TMC3    O1 7455   2.608   1.813  10.708  0.0206 -0.0633  0.2602
  501TMC3    O2 7456   2.477   2.239  10.695 -0.5776  0.4014  0.2818
  502TMC3    C1 7457   1.262   0.267  15.632  0.0750  0.3146  0.1023
  502TMC3    C2 7458   1.286   0.291  15.503  0.4365  0.5067 -0.1078
  502TMC3    C3 7459   1.180   0.351  15.434  0.0664  0.0489  0.3394
  502TMC3    C4 7460   1.157   0.304  15.711 -0.2373  0.8200 -0.0458
  502TMC3    C5 7461   1.057   0.366  15.642  0.1576  0.1791 -0.0515
  502TMC3    C6 7462   1.071   0.387  15.505 -0.0969 -0.3615  0.0846
  502TMC3     C 7463   1.384   0.241  15.702 -0.0407 -0.4007  0.1756
  502TMC3     O 7464   1.452   0.160  15.640  0.6684  0.4093  0.1163
  502TMC3     H 7465   1.376   0.260  15.451 -0.3087 -1.9223  0.0775
  502TMC3    H1 7466   1.163   0.289  15.818 -0.0204 -1.3505 -0.3594
  502TMC3    H2 7467   0.992   0.428  15.443  0.0880  0.8411  0.6442
  502TMC3    C7 7468   1.018   0.482  15.720 -0.2242 -0.4161  0.4759
  502TMC3    C8 7469   1.234   0.451  15.341 -0.3043 -0.3493 -0.1610
  502TMC3    O1 7470   1.089   0.520  15.812 -0.3090  0.3574  0.2490
  502TMC3    O2 7471   1.344   0.429  15.287  0.0025 -0.0420 -0.2943
  503MPD2     C 7472   3.717   1.649  16.692 -0.0939 -0.1283  0.9436
  503MPD2    C1 7473   3.681   1.623  16.823  0.6483 -0.0619 -0.0303
  503MPD2    C2 7474   3.747   1.523  16.890  0.0403 -0.1287 -0.2592
  503MPD2    C3 7475   3.857   1.464  16.834 -0.6962 -0.1880  0.2620
  503MPD2    C4 7476   3.895   1.490  16.705 -0.7863 -0.2891 -0.5603
  503MPD2    C5 7477   3.820   1.585  16.634  0.2593 -0.1629 -0.1967
  503MPD2     H 7478   3.719   1.497  16.992 -0.0860 -1.0801 -0.5350
  503MPD2    H1 7479   3.991   1.452  16.670 -0.3236  1.0823 -0.7853
  503MPD2    H2 7480   3.663   1.729  16.642 -0.1908  0.1760  1.5340
  503MPD2    H3 7481   3.838   1.619  16.533 -0.0213  0.6539  0.0251
  503MPD2     N 7482   3.910   1.362  16.916 -0.1017  0.0247  0.2883
  503MPD2    H5 7483   3.851   1.341  16.996 -0.1258  0.0655  0.2810
  503MPD2    N1 7484   3.590   1.697  16.899  0.3958  0.5466 -0.2642
  503MPD2    H7 7485   3.589   1.674  16.997  1.9210  0.2048 -0.3444
  504TMC3    C1 7486   4.058   1.191  16.991 -0.3648  0.4800  0.2827
  504TMC3    C2 7487   3.979   1.190  17.106 -0.0721  0.6470  0.2878
  504TMC3    C3 7488   4.002   1.104  17.207  0.2026 -0.1561  0.7055
  504TMC3    C4 7489   4.174   1.120  16.983  0.8184  0.2902 -0.4971
  504TMC3    C5 7490   4.189   1.025  17.088 -0.3303  0.5990 -0.0897
  504TMC3    C6 7491   4.101   1.006  17.198  0.2505  0.8663  0.4556
  504TMC3     C 7492   4.030   1.297  16.893  0.6423 -0.4037  0.6115
  504TMC3     O 7493   4.107   1.312  16.798  0.5914 -0.0287  0.4312
  504TMC3     H 7494   3.888   1.249  17.104 -1.1417 -1.0245 -1.1640
  504TMC3    H1 7495   4.228   1.134  16.890  0.1483  1.0553 -0.7639
  504TMC3    H2 7496   4.108   0.934  17.279  0.7112  1.1833  0.7018
  504TMC3    C7 7497   4.319   0.957  17.085  0.4333  0.4045  0.0695
  504TMC3    C8 7498   3.926   1.120  17.326 -0.4675 -0.1812  0.3869
  504TMC3    O1 7499   4.390   0.967  16.985  0.0105 -0.2027 -0.2417
  504TMC3    O2 7500   3.832   1.190  17.303 -0.0406  0.8577 -0.6488
  505MPD2     C 7501   3.718   4.388  10.733  0.0721  0.7406  0.2800
  505MPD2    C1 7502   3.706   4.276  10.649  0.2249  0.1343 -0.2517
  505MPD2    C2 7503   3.747   4.158  10.700  0.2693  0.7108  0.1231
  505MPD2    C3 7504   3.792   4.145  10.829 -0.2484  0.0252  0.3554
  505MPD2    C4 7505   3.806   4.256  10.904  0.1524  1.1682 -0.3995
  505MPD2    C5 7506   3.771   4.380  10.859  0.5330 -0.4877  0.8672
  505MPD2     H 7507   3.744   4.065  10.643 -1.0917 -0.9949  2.9881
  505MPD2    H1 7508   3.859   4.260  10.999 -0.5814 -0.7602  0.0950
  505MPD2    H2 7509   3.689   4.486  10.698  0.6293  0.7282 -0.2023
  505MPD2    H3 7510   3.771   4.463  10.928 -0.2226  0.9256 -0.8318
  505MPD2     N 7511   3.841   4.024  10.875 -0.2477 -0.2315 -0.6428
  505MPD2    H5 7512   3.811   3.947  10.817  1.9231 -1.1094 -0.6171
  505MPD2    N1 7513   3.657   4.281  10.516  0.1940  0.6405  0.3738
  505MPD2    H7 7514   3.637   4.377  10.489  0.5763  0.5705 -0.1713
  506TMC3    C1 7515   3.562   4.212  10.302  0.6318 -0.5866 -0.0540
  506TMC3    C2 7516   3.617   4.315  10.238  1.1116 -0.1404 -0.4918
  506TMC3    C3 7517   3.659   4.298  10.111 -0.0933  0.0828  0.2973
  506TMC3    C4 7518   3.527   4.104  10.228 -0.2763  0.3463  0.2023
  506TMC3    C5 7519   3.585   4.075  10.107  0.3348  0.2881 -0.0515
  506TMC3    C6 7520   3.631   4.182  10.046  0.2982 -0.1611  0.1162
  506TMC3     C 7521   3.632   4.179  10.431 -0.1902 -0.3583  0.3297
  506TMC3     O 7522   3.640   4.058  10.447  0.4685 -0.0921 -0.5235
  506TMC3     H 7523   3.659   4.401  10.288  0.1623  0.3645 -0.5550
  506TMC3    H1 7524   3.470   4.022  10.270  0.2349 -1.1410 -2.0179
  506TMC3    H2 7525   3.673   4.164   9.947  1.5733 -1.1697  0.8366
  506TMC3    C7 7526   3.654   3.953  10.095 -0.0003 -0.4330 -0.0504
  506TMC3    C8 7527   3.752   4.389  10.051  0.1070  0.1305 -0.3019
  506TMC3    O1 7528   3.692   3.913   9.986 -0.3180 -0.1127  0.4834
  506TMC3    O2 7529   3.724   4.456   9.954  0.3096 -0.1088 -0.0017
  507TMC3    C1 7530   0.302   0.770  14.602 -0.8575  0.9866 -0.0867
  507TMC3    C2 7531   0.295   0.771  14.463 -0.4026 -0.4687  0.7743
  507TMC3    C3 7532   0.385   0.849  14.389 -0.1728  0.1706 -0.5160
  507TMC3    C4 7533   0.403   0.838  14.672  0.0609  0.6126 -0.0657
  507TMC3    C5 7534   0.483   0.919  14.594 -0.3597 -0.4587 -0.0268
  507TMC3    C6 7535   0.472   0.926  14.460  0.4858  0.3488  0.5807
  507TMC3     C 7536   0.200   0.693  14.670 -1.0486 -0.2438 -0.5865
  507TMC3     O 7537   0.166   0.589  14.621 -0.1162  0.6119 -0.3221
  507TMC3     H 7538   0.223   0.706  14.414  0.1395 -0.5341  0.0689
  507TMC3    H1 7539   0.428   0.817  14.775  3.0326  0.1487 -0.8785
  507TMC3    H2 7540   0.534   0.995  14.404 -2.1206 -0.1712 -2.8862
  507TMC3    C7 7541   0.484   1.046  14.650 -0.4613  0.3115  0.4836
  507TMC3    C8 7542   0.319   0.924  14.293  0.7776 -0.8256 -0.2367
  507TMC3    O1 7543   0.487   1.051  14.770  0.0312  0.0862  0.0822
  507TMC3    O2 7544   0.351   1.043  14.301  0.1406  0.0472  0.3030
  508MPD2     C 7545   0.984   3.143  16.258 -0.0486 -0.3272  0.2732
  508MPD2    C1 7546   1.086   3.241  16.273  0.1191 -0.0961 -0.6512
  508MPD2    C2 7547   1.139   3.298  16.160 -0.0522  0.4281 -0.0400
  508MPD2    C3 7548   1.096   3.261  16.038 -0.1772 -0.0412 -0.0861
  508MPD2    C4 7549   0.997   3.167  16.024 -0.4685  0.3980  1.0415
  508MPD2    C5 7550   0.946   3.110  16.134 -0.0415  0.4326  0.7764
  508MPD2     H 7551   1.207   3.380  16.183  1.7914 -0.9988 -0.4014
  508MPD2    H1 7552   0.958   3.128  15.931 -0.4241 -0.6009  1.4412
  508MPD2    H2 7553   0.937   3.100  16.346 -0.5793  2.4055  1.3089
  508MPD2    H3 7554   0.868   3.036  16.120 -0.4209  1.3370 -1.7005
  508MPD2     N 7555   1.156   3.318  15.927  0.0494  0.0070  0.3814
  508MPD2    H5 7556   1.248   3.360  15.940 -0.0210  0.8633 -1.8888
  508MPD2    N1 7557   1.127   3.294  16.396 -0.4763  0.2799  0.3882
  508MPD2    H7 7558   1.207   3.355  16.396  0.7775 -1.3523  1.8754
  509TMC3    C1 7559   1.075   3.617  15.632  0.3215 -0.3671 -0.0120
  509TMC3    C2 7560   1.197   3.674  15.639 -0.2807 -0.0246  0.3950
  509TMC3    C3 7561   1.295   3.601  15.687  0.0514 -0.0278 -0.2918
  509TMC3    C4 7562   1.059   3.483  15.658  0.2781  0.2927  0.2919
  509TMC3    C5 7563   1.165   3.410  15.715  0.7538 -0.0196 -0.5017
  509TMC3    C6 7564   1.281   3.472  15.736 -0.5782 -0.1068 -0.1769
  509TMC3     C 7565   0.952   3.696  15.620  1.2345 -0.0589  1.0408
  509TMC3     O 7566   0.849   3.644  15.575 -0.6532 -0.2131 -0.2028
  509TMC3     H 7567   1.211   3.779  15.616  0.0121  0.3575  2.3310
  509TMC3    H1 7568   0.958   3.445  15.649  0.0196  0.9848  0.3397
  509TMC3    H2 7569   1.363   3.419  15.784 -1.0709 -0.5307  0.1988
  509TMC3    C7 7570   1.115   3.303  15.801  0.7505 -0.0691 -0.1109
  509TMC3    C8 7571   1.428   3.657  15.700  0.0766 -0.7532 -1.3837
  509TMC3    O1 7572   1.005   3.259  15.762 -0.1846  0.2464 -0.3286
  509TMC3    O2 7573   1.516   3.574  15.709  0.9230  0.4199  0.3014
  510MPD2     C 7574   4.035   0.528  14.773 -0.3327 -0.7765 -0.2663
  510MPD2    C1 7575   4.024   0.392  14.767  0.3411 -0.2386 -0.4473
  510MPD2    C2 7576   4.126   0.318  14.714  0.4474  0.2375 -0.3307
  510MPD2    C3 7577   4.238   0.375  14.659  0.4524  0.4842 -0.2173
  510MPD2    C4 7578   4.257   0.511  14.676 -0.0237  0.6802 -0.2398
  510MPD2    C5 7579   4.152   0.584  14.732 -0.3025 -0.3752  0.0259
  510MPD2     H 7580   4.117   0.210  14.718  0.5659  0.2081 -0.8557
  510MPD2    H1 7581   4.354   0.557  14.667  0.2983 -0.0308 -0.3527
  510MPD2    H2 7582   3.965   0.591  14.826  0.0752 -0.3537 -0.2275
  510MPD2    H3 7583   4.180   0.686  14.757  0.8267 -0.9486  1.0411
  510MPD2     N 7584   4.338   0.292  14.622 -0.3818  0.7519 -0.4606
  510MPD2    H5 7585   4.316   0.194  14.606  1.1466  0.7640 -2.5742
  510MPD2    N1 7586   3.918   0.324  14.820 -0.0195 -0.1270 -0.0923
  510MPD2    H7 7587   3.855   0.371  14.884  1.1721 -1.6977  2.2168
  511TMC3    C1 7588   3.737   0.174  14.828  0.1459  0.3001 -0.7554
  511TMC3    C2 7589   3.716   0.191  14.959  0.1452 -0.0350 -0.2620
  511TMC3    C3 7590   3.609   0.123  15.017  0.5292  0.1927  0.2337
  511TMC3    C4 7591   3.662   0.081  14.757  0.2198 -0.1581  0.9407
  511TMC3    C5 7592   3.562   0.018  14.819 -0.3246 -0.2617  0.2502
  511TMC3    C6 7593   3.539   0.024  14.954 -0.3810  0.5886  0.3542
  511TMC3     C 7594   3.868   0.203  14.770  0.2849 -0.3334 -0.3372
  511TMC3     O 7595   3.909   0.132  14.678 -0.1796  0.2043 -0.5862
  511TMC3     H 7596   3.779   0.256  15.018  1.2811 -0.3275 -1.1554
  511TMC3    H1 7597   3.678   0.061  14.652  1.2111  1.0039  0.8806
  511TMC3    H2 7598   3.446   4.708  14.991 -0.3496  0.4888  0.3201
  511TMC3    C7 7599   3.493   4.644  14.735 -0.5624  0.0822 -0.2855
  511TMC3    C8 7600   3.578   0.156  15.156  0.2008 -0.6710 -0.3334
  511TMC3    O1 7601   3.492   4.668  14.616  0.0460 -0.1004  0.2899
  511TMC3    O2 7602   3.632   0.257  15.202 -0.1518  0.0551 -0.0124
  512TMC3    C1 7603   2.288   4.104  13.880 -0.2344 -0.3403 -0.4219
  512TMC3    C2 7604   2.421   4.135  13.922  0.4247  0.3468  0.7304
  512TMC3    C3 7605   2.495   4.033  13.968  0.3862  0.0875 -0.4488
  512TMC3    C4 7606   2.231   3.982  13.877 -0.2563 -0.6607 -0.4048
  512TMC3    C5 7607   2.313   3.876  13.916  0.5109  0.0710  0.1315
  512TMC3    C6 7608   2.442   3.909  13.961  0.8549 -0.3384 -0.0177
  512TMC3     C 7609   2.248   4.182  13.763  0.3935 -0.5849  0.1769
  512TMC3     O 7610   2.246   4.304  13.765 -0.0563 -0.2733 -0.0309
  512TMC3     H 7611   2.463   4.224  13.877 -1.1544 -0.3838 -2.2068
  512TMC3    H1 7612   2.129   3.968  13.843  0.5810 -0.7824 -2.8316
  512TMC3    H2 7613   2.499   3.828  14.006  0.3229 -0.6297  0.1388
  512TMC3    C7 7614   2.313   3.781  13.811  0.4598 -0.2582  0.0817
  512TMC3    C8 7615   2.637   4.025  13.914 -0.9054  0.1053 -0.1025
  512TMC3    O1 7616   2.277   3.816  13.698 -0.1377 -0.1868 -0.3913
  512TMC3    O2 7617   2.673   3.913  13.889  0.1767  0.2581 -0.4302
  513MPD2     C 7618   3.990   4.488  13.865 -0.3767  0.0845  0.0894
  513MPD2    C1 7619   4.034   4.386  13.785 -0.2099 -0.0368 -0.4121
  513MPD2    C2 7620   4.100   4.279  13.840 -0.3169 -0.2793  0.3335
  513MPD2    C3 7621   4.106   4.268  13.980 -0.0525  0.1332  0.2626
  513MPD2    C4 7622   4.047   4.356  14.068  0.0648 -0.0249 -0.3210
  513MPD2    C5 7623   3.997   4.465  14.006 -0.4172 -0.8162 -0.0420
  513MPD2     H 7624   4.159   4.206  13.786  0.6861  0.9799 -0.2557
  513MPD2    H1 7625   4.058   4.359  14.176 -2.2285  0.5770 -0.1135
  513MPD2    H2 7626   3.943   4.578  13.829 -0.0086 -0.5721 -2.0196
  513MPD2    H3 7627   3.951   4.549  14.057 -0.6412 -0.7324 -0.3796
  513MPD2     N 7628   4.181   4.159  14.031  0.0629 -0.0558  0.0905
  513MPD2    H5 7629   4.235   4.112  13.959  0.9912 -0.6170  1.1590
  513MPD2    N1 7630   4.015   4.411  13.647 -0.6618 -0.3045 -0.4977
  513MPD2    H7 7631   3.981   4.503  13.620 -0.3364  0.7690  2.6572
  514TMC3    C1 7632   3.994   4.352  13.421 -0.3604 -0.5465 -0.2987
  514TMC3    C2 7633   4.062   4.462  13.387  0.3597  0.2477  0.0678
  514TMC3    C3 7634   4.119   4.464  13.268  0.2287  0.1315 -0.7877
  514TMC3    C4 7635   4.001   4.235  13.343  0.3896  0.6942 -0.7886
  514TMC3    C5 7636   4.072   4.238  13.226  0.2093  0.2604 -0.9092
  514TMC3    C6 7637   4.127   4.358  13.187  0.1286 -0.1292 -0.3645
  514TMC3     C 7638   4.024   4.311  13.557  0.4104 -0.3328 -0.2947
  514TMC3     O 7639   4.072   4.196  13.567 -0.0220 -0.4271  0.3012
  514TMC3     H 7640   4.039   4.555  13.436 -2.4255  0.2890 -1.3078
  514TMC3    H1 7641   3.949   4.150  13.385 -0.0429  1.2171 -0.2710
  514TMC3    H2 7642   4.206   4.354  13.113  0.6618  1.1176  0.1358
  514TMC3    C7 7643   4.159   4.117  13.217  0.0826  0.2915 -0.5062
  514TMC3    C8 7644   4.170   4.598  13.215  0.6663 -0.8064 -0.4640
  514TMC3    O1 7645   4.216   4.100  13.110  0.2149  0.1657  0.5257
  514TMC3    O2 7646   4.183   4.689  13.301 -0.1727 -0.4535 -0.0730
  515MPD2     C 7647   2.351   1.039  15.674  0.0888  0.2915  0.0421
  515MPD2    C1 7648   2.417   1.027  15.558  0.4243  1.1596  0.5402
  515MPD2    C2 7649   2.509   1.126  15.520  0.6601  1.0492  0.1544
  515MPD2    C3 7650   2.530   1.230  15.606 -0.5511  0.4469 -0.2380
  515MPD2    C4 7651   2.466   1.241  15.728 -1.0515 -0.1736  0.2924
  515MPD2    C5 7652   2.373   1.146  15.759  0.3832 -1.0287 -0.1605
  515MPD2     H 7653   2.553   1.115  15.421 -2.4995 -0.9033 -1.0395
  515MPD2    H1 7654   2.484   1.329  15.790  0.0744 -0.5485  0.5013
  515MPD2    H2 7655   2.279   0.970  15.717  0.5697 -1.1110 -1.4410
  515MPD2    H3 7656   2.326   1.150  15.857  1.5802  0.8480  0.3354
  515MPD2     N 7657   2.628   1.333  15.574 -0.1802 -0.3371  0.4474
  515MPD2    H5 7658   2.638   1.409  15.641  0.6560  0.3831 -0.4923
  515MPD2    N1 7659   2.407   0.915  15.473 -0.4261 -0.1276 -0.0988
  515MPD2    H7 7660   2.456   0.923  15.385  0.7436  0.0037  0.5590
  516TMC3    C1 7661   2.318   0.697  15.407  0.2253 -0.3269  0.1632
  516TMC3    C2 7662   2.338   0.732  15.274  0.5242  0.3815 -0.7591
  516TMC3    C3 7663   2.350   0.633  15.181  0.1592  0.4551  0.7562
  516TMC3    C4 7664   2.315   0.564  15.448  0.8877 -0.7258 -0.3067
  516TMC3    C5 7665   2.334   0.467  15.354  0.1685  0.3040 -0.2569
  516TMC3    C6 7666   2.346   0.500  15.222  0.0626  0.8018  0.3246
  516TMC3     C 7667   2.347   0.794  15.515  0.0302  0.1151  0.2728
  516TMC3     O 7668   2.308   0.765  15.629  0.0791 -0.2998 -0.0971
  516TMC3     H 7669   2.351   0.836  15.247  0.4106  0.9272  1.2476
  516TMC3    H1 7670   2.321   0.542  15.554 -0.1418  1.8205  0.2622
  516TMC3    H2 7671   2.360   0.423  15.148  0.4524  0.5113  0.6968
  516TMC3    C7 7672   2.377   0.336  15.410  0.7710 -0.7650 -0.1544
  516TMC3    C8 7673   2.365   0.674  15.045  0.2205 -0.1849  1.4672
  516TMC3    O1 7674   2.349   0.316  15.526 -0.4825 -0.1519 -0.7005
  516TMC3    O2 7675   2.307   0.783  15.024 -0.0133  0.0092  0.1183
  517MPD2     C 7676   1.660   2.054   0.152  0.4942 -0.4934 -0.6303
  517MPD2    C1 7677   1.708   2.141   0.056 -0.4952  0.4177 -0.0545
  517MPD2    C2 7678   1.638   2.252   0.027  0.2634 -0.8225  0.3528
  517MPD2    C3 7679   1.519   2.291   0.095  0.7777  0.2198 -0.0693
  517MPD2    C4 7680   1.474   2.208   0.199 -0.0367 -0.5019  0.1836
  517MPD2    C5 7681   1.542   2.094   0.219 -0.2244 -0.0132 -0.1144
  517MPD2     H 7682   1.678   2.311  17.651 -1.9243  0.9246  0.5655
  517MPD2    H1 7683   1.392   2.234   0.265 -1.2749  0.4380 -1.7322
  517MPD2    H2 7684   1.716   1.968   0.186  0.3747 -1.3130 -2.5073
  517MPD2    H3 7685   1.504   2.032   0.299  0.2702  0.5487  0.5597
  517MPD2     N 7686   1.441   2.407   0.068 -0.2302  0.0807 -0.2754
  517MPD2    H5 7687   1.355   2.420   0.121 -0.6869 -0.3946 -0.8981
  517MPD2    N1 7688   1.828   2.120  17.691  0.5070 -0.4661  0.1471
  517MPD2    H7 7689   1.859   2.204  17.645 -1.2420  1.2817  2.1522
  518TMC3    C1 7690   2.024   2.028  17.610 -0.3277 -1.0076  0.0455
  518TMC3    C2 7691   2.061   1.917  17.532 -0.1049  0.8290 -0.1914
  518TMC3    C3 7692   2.167   1.935  17.455  0.7501 -0.2234  0.2310
  518TMC3    C4 7693   2.094   2.142  17.634 -0.1372 -0.4812  0.3344
  518TMC3    C5 7694   2.215   2.144  17.571  0.3660 -0.0637  0.0444
  518TMC3    C6 7695   2.240   2.051  17.473 -0.4102 -1.4087  0.1608
  518TMC3     C 7696   1.900   2.003  17.685  0.5736 -0.6373  0.1563
  518TMC3     O 7697   1.862   1.893   0.009 -0.1570  0.3613 -0.2414
  518TMC3     H 7698   2.003   1.825  17.531 -0.0735  0.7985  0.7931
  518TMC3    H1 7699   2.058   2.215  17.706  0.3887  0.3464 -0.2395
  518TMC3    H2 7700   2.335   2.064  17.422  0.2009 -1.6475  1.2423
  518TMC3    C7 7701   2.315   2.224  17.642  0.2980  0.2995  0.2763
  518TMC3    C8 7702   2.222   1.821  17.379 -0.6291 -0.1476  0.0933
  518TMC3    O1 7703   2.280   2.290   0.030 -0.7299  0.5646  0.2518
  518TMC3    O2 7704   2.206   1.709  17.430  0.2590  0.8770  0.3701
  519MPD2     C 7705   4.054   1.011  14.709 -0.5918 -0.4024  0.6381
  519MPD2    C1 7706   3.984   1.025  14.591  0.2257 -0.0260 -0.6352
  519MPD2    C2 7707   4.044   0.986  14.472  0.8752 -0.2202 -0.5488
  519MPD2    C3 7708   4.158   0.921  14.463 -0.6227 -0.3449  0.0690
  519MPD2    C4 7709   4.226   0.894  14.582 -0.8920 -0.4607 -0.3237
  519MPD2    C5 7710   4.175   0.938  14.701 -0.3867 -0.0366  0.2484
  519MPD2     H 7711   3.987   1.013  14.385  0.1813 -0.2231 -0.0916
  519MPD2    H1 7712   4.316   0.833  14.581 -1.1719 -0.8631 -1.5086
  519MPD2    H2 7713   4.029   1.052  14.806 -1.7384 -0.0841  0.2067
  519MPD2    H3 7714   4.240   0.950  14.787 -0.1344  1.2197 -0.1235
  519MPD2     N 7715   4.205   0.873  14.341  0.3683  0.4591  0.4984
  519MPD2    H5 7716   4.274   0.800  14.354 -0.3732 -0.3086  0.0707
  519MPD2    N1 7717   3.849   1.077  14.599  0.0750 -0.2080 -0.7145
  519MPD2    H7 7718   3.806   1.093  14.690 -1.0257 -1.5568 -1.0163
  520TMC3    C1 7719   4.202   0.801  14.119 -0.0815  0.1670 -0.2510
  520TMC3    C2 7720   4.117   0.780  14.016 -0.0410  0.2981  0.2238
  520TMC3    C3 7721   4.170   0.734  13.896  0.2067  0.5868  0.1219
  520TMC3    C4 7722   4.335   0.774  14.117  0.2919 -0.2093  0.2922
  520TMC3    C5 7723   4.384   0.718  13.999 -0.1324 -0.6518  0.1075
  520TMC3    C6 7724   4.305   0.706  13.890 -0.6147  0.2962  0.0324
  520TMC3     C 7725   4.152   0.897  14.215  0.5098 -0.5787 -0.2583
  520TMC3     O 7726   4.066   0.976  14.179 -0.1909 -0.1229  0.0093
  520TMC3     H 7727   4.023   0.834  14.021 -0.6066 -0.5529 -1.2770
  520TMC3    H1 7728   4.399   0.808  14.198  2.7979  0.7703 -2.0678
  520TMC3    H2 7729   4.344   0.665  13.798 -2.0160 -1.7938  0.3586
  520TMC3    C7 7730   4.505   0.637  14.007  0.1994  0.1104 -0.1163
  520TMC3    C8 7731   4.100   0.776  13.774  0.1234  0.3457 -0.3230
  520TMC3    O1 7732   4.528   0.574  13.907  0.9769 -0.1819  0.1636
  520TMC3    O2 7733   4.175   0.816  13.689 -0.1479  0.3514  0.1195
  521MPD2     C 7734   4.693   3.747   0.220 -0.0660 -0.3639 -0.5186
  521MPD2    C1 7735   4.691   3.675   0.105  0.6018  0.6532  0.4019
  521MPD2    C2 7736   0.055   3.692   0.003  0.5215 -0.4261  0.6414
  521MPD2    C3 7737   0.156   3.782   0.026  0.6079 -0.6713  0.1314
  521MPD2    C4 7738   0.157   3.864   0.138 -0.1092  0.3078 -0.1883
  521MPD2    C5 7739   0.057   3.843   0.235 -0.8714  0.0580 -0.5449
  521MPD2     H 7740   0.048   3.651  17.609  1.0208  0.5990  0.1958
  521MPD2    H1 7741   0.221   3.949   0.160  2.3830 -1.6275  0.1173
  521MPD2    H2 7742   4.611   3.742   0.291  2.4722 -2.4200  2.3185
  521MPD2    H3 7743   0.063   3.907   0.322  0.6174 -0.8927  0.0520
  521MPD2     N 7744   0.245   3.786  17.620 -0.7076 -0.5334 -0.0904
  521MPD2    H5 7745   0.226   3.715  17.550  6.0156 -1.7971 -0.6421
  521MPD2    N1 7746   4.582   3.585   0.097 -0.2925 -0.7789 -0.2323
  521MPD2    H7 7747   4.530   3.561   0.181  0.0696  1.7446  0.7318
  522TMC3    C1 7748   0.396   3.861  17.467  0.9161  0.0748  0.5605
  522TMC3    C2 7749   0.517   3.929  17.438  0.4002  0.5217 -0.2732
  522TMC3    C3 7750   0.580   3.898  17.319  0.2429 -0.9131  0.0257
  522TMC3    C4 7751   0.333   3.777  17.377 -0.0901 -0.8433  0.1901
  522TMC3    C5 7752   0.403   3.745  17.267  0.2907 -0.2842 -0.2213
  522TMC3    C6 7753   0.529   3.797  17.236  0.0418 -0.0823  0.6781
  522TMC3     C 7754   0.337   3.882  17.597 -0.0753 -0.2261  0.1019
  522TMC3     O 7755   0.370   3.981  17.663 -0.0404 -0.0115 -0.1040
  522TMC3     H 7756   0.560   4.001  17.506 -1.2692 -0.0602  1.3974
  522TMC3    H1 7757   0.229   3.747  17.384 -0.9905  1.7325 -2.0208
  522TMC3    H2 7758   0.567   3.793  17.135 -2.5911  0.2651 -0.3349
  522TMC3    C7 7759   0.340   3.693  17.146  0.3630 -0.2750  0.4822
  522TMC3    C8 7760   0.724   3.921  17.312  0.2181  0.3896 -0.2824
  522TMC3    O1 7761   0.410   3.679  17.047 -0.5896 -0.1130  0.2093
  522TMC3    O2 7762   0.774   4.006  17.380 -0.1485 -0.5879  0.0898
  523MPD2     C 7763   2.424   3.275  10.776  0.0707 -0.2167 -0.2602
  523MPD2    C1 7764   2.435   3.277  10.638 -0.3197 -0.0990 -0.1615
  523MPD2    C2 7765   2.414   3.400  10.568  0.1141  0.4371  0.3507
  523MPD2    C3 7766   2.368   3.515  10.637  0.1615 -0.6096 -0.4443
  523MPD2    C4 7767   2.351   3.506  10.773 -0.5531  0.2021  0.0226
  523MPD2    C5 7768   2.379   3.389  10.842 -0.6336 -0.4303 -0.4061
  523MPD2     H 7769   2.426   3.401  10.460 -0.6995 -0.1357  0.2553
  523MPD2    H1 7770   2.300   3.582  10.832  1.0587  1.2554  0.0682
  523MPD2    H2 7771   2.437   3.181  10.829 -4.1828 -0.3452  0.5431
  523MPD2    H3 7772   2.373   3.383  10.950 -0.9142 -0.2576 -0.4131
  523MPD2     N 7773   2.336   3.635  10.576 -0.2684  0.4430  0.8280
  523MPD2    H5 7774   2.315   3.713  10.637 -0.3134 -0.8809  2.5002
  523MPD2    N1 7775   2.455   3.158  10.569 -0.4699  0.2490  0.4374
  523MPD2    H7 7776   2.473   3.080  10.631 -1.3314  0.3210  0.7699
  524TMC3    C1 7777   2.326   3.805  10.407 -0.3225  0.5027  0.4572
  524TMC3    C2 7778   2.322   3.831  10.275  0.0010 -0.1247  0.1035
  524TMC3    C3 7779   2.251   3.939  10.229 -0.0266 -0.3132 -0.8742
  524TMC3    C4 7780   2.252   3.878  10.498  0.2312  0.2058 -0.6881
  524TMC3    C5 7781   2.200   3.993  10.440  0.1218 -0.2447 -0.1876
  524TMC3    C6 7782   2.181   4.020  10.307  0.2918  0.2133  1.1148
  524TMC3     C 7783   2.351   3.668  10.441  0.6764  0.1210 -0.0411
  524TMC3     O 7784   2.360   3.596  10.342  0.1801 -0.4234 -0.0536
  524TMC3     H 7785   2.397   3.782  10.214  0.9868  0.4100  0.8829
  524TMC3    H1 7786   2.256   3.866  10.605  0.5718 -0.1030 -0.7364
  524TMC3    H2 7787   2.111   4.099  10.280 -1.4844 -1.9318 -0.5757
  524TMC3    C7 7788   2.166   4.099  10.531 -0.7037 -0.1518 -0.1346
  524TMC3    C8 7789   2.197   3.918  10.096 -0.2193  0.6789 -0.0100
  524TMC3    O1 7790   2.108   4.078  10.638  0.1599 -0.1041 -0.1174
  524TMC3    O2 7791   2.135   4.011  10.056 -0.0553 -0.1516 -0.1055
  525MPD2     C 7792   0.550   0.507  14.647 -0.2015  0.1606 -0.0665
  525MPD2    C1 7793   0.681   0.503  14.686 -0.1080  0.0863 -0.4039
  525MPD2    C2 7794   0.775   0.551  14.595  0.3662 -0.0960  0.3869
  525MPD2    C3 7795   0.745   0.614  14.474 -1.0502  0.9370  0.8031
  525MPD2    C4 7796   0.612   0.606  14.435  0.2758 -0.1782 -0.6165
  525MPD2    C5 7797   0.519   0.553  14.518 -0.7404 -0.0888 -0.1688
  525MPD2     H 7798   0.875   0.567  14.634  0.5019  1.8055 -0.7246
  525MPD2    H1 7799   0.580   0.631  14.335  0.6230 -0.2724 -0.7488
  525MPD2    H2 7800   0.475   0.477  14.719  1.8990 -1.6022  1.3773
  525MPD2    H3 7801   0.413   0.555  14.496 -0.7568  0.5518 -0.0197
  525MPD2     N 7802   0.849   0.681  14.398  0.0800 -0.2489  0.8067
  525MPD2    H5 7803   0.817   0.752  14.333  3.3262 -0.4418 -0.9820
  525MPD2    N1 7804   0.722   0.448  14.813 -0.1613 -0.2928 -0.5553
  525MPD2    H7 7805   0.821   0.433  14.831  0.6120  2.0251 -2.8271
  526TMC3    C1 7806   0.700   0.365  15.031  0.2392 -0.0315  0.3917
  526TMC3    C2 7807   0.657   0.408  15.152  0.5080 -0.4228  0.2795
  526TMC3    C3 7808   0.725   0.352  15.258 -0.1481 -0.2718  0.5603
  526TMC3    C4 7809   0.798   0.273  15.012 -0.3457 -0.5409  0.0310
  526TMC3    C5 7810   0.854   0.218  15.123 -0.3793  0.6665 -0.2728
  526TMC3    C6 7811   0.822   0.253  15.255  0.3308 -0.1059 -0.2770
  526TMC3     C 7812   0.631   0.416  14.915  0.3229 -0.1857  0.1518
  526TMC3     O 7813   0.516   0.457  14.933 -0.4778 -0.4011  0.5340
  526TMC3     H 7814   0.571   0.473  15.157  0.6915 -0.1024 -0.6284
  526TMC3    H1 7815   0.815   0.220  14.919  1.1353  1.0224 -0.5993
  526TMC3    H2 7816   0.862   0.202  15.343  1.2271  0.1581 -0.5373
  526TMC3    C7 7817   0.962   0.126  15.110  0.9222 -0.1126  0.4802
  526TMC3    C8 7818   0.693   0.385  15.393 -0.4581  0.7711 -0.3333
  526TMC3    O1 7819   0.997   0.086  15.225 -0.0246 -0.1889  0.2344
  526TMC3    O2 7820   0.770   0.338  15.478  0.3379  0.4078  0.3496
  527MPD2     C 7821   2.336   3.404   0.937  0.0387  0.1472  0.8080
  527MPD2    C1 7822   2.403   3.308   1.027  0.6018 -0.0652 -0.4994
  527MPD2    C2 7823   2.491   3.229   0.961  0.0442  0.5099  0.4121
  527MPD2    C3 7824   2.526   3.238   0.829 -0.0808  1.2357 -0.1651
  527MPD2    C4 7825   2.458   3.323   0.746 -0.2506 -0.1939 -0.0993
  527MPD2    C5 7826   2.363   3.404   0.807  0.0543 -0.3582 -0.0483
  527MPD2     H 7827   2.537   3.152   1.022 -2.7458  0.2996  2.2526
  527MPD2    H1 7828   2.481   3.331   0.640  1.3447 -3.8878 -0.0184
  527MPD2    H2 7829   2.272   3.480   0.981 -0.4833  1.4621 -2.2247
  527MPD2    H3 7830   2.314   3.486   0.756  0.8150 -0.7239 -1.3725
  527MPD2     N 7831   2.645   3.173   0.787  0.0524  0.0839  0.6451
  527MPD2    H5 7832   2.682   3.097   0.843  1.1550  1.0883  1.2698
  527MPD2    N1 7833   2.396   3.291   1.164  0.3106 -0.1475  0.5035
  527MPD2    H7 7834   2.446   3.210   1.198  2.3381  2.0855  2.8579
  528TMC3    C1 7835   2.294   3.313   1.378  0.1711 -0.3266  0.3992
  528TMC3    C2 7836   2.400   3.253   1.449  0.6868  0.5694  0.3138
  528TMC3    C3 7837   2.367   3.208   1.576 -0.4248  0.2765  0.5363
  528TMC3    C4 7838   2.174   3.351   1.441 -0.5856  0.7048  0.5980
  528TMC3    C5 7839   2.152   3.322   1.575  1.2065  0.5329  0.3321
  528TMC3    C6 7840   2.246   3.239   1.641  0.1054  0.8128 -0.6110
  528TMC3     C 7841   2.303   3.360   1.238 -0.2063 -0.4374  0.3112
  528TMC3     O 7842   2.244   3.464   1.214  1.0329 -0.1844  0.7074
  528TMC3     H 7843   2.501   3.249   1.409  0.0684 -0.7846 -1.0946
  528TMC3    H1 7844   2.101   3.408   1.384 -1.1756  0.0689  0.7155
  528TMC3    H2 7845   2.235   3.211   1.745 -2.7714  0.8869 -0.9209
  528TMC3    C7 7846   2.014   3.318   1.625  0.5697 -0.2836 -0.2632
  528TMC3    C8 7847   2.469   3.135   1.639  0.2100  0.0449  0.0666
  528TMC3    O1 7848   1.999   3.227   1.706 -0.2038  0.3826  0.0292
  528TMC3    O2 7849   2.557   3.096   1.563  0.2182 -0.1021 -0.3363
  529MPD2     C 7850   4.672   2.669   0.922  0.6285  0.3012  0.0548
  529MPD2    C1 7851   0.046   2.575   0.919 -0.2723 -0.3293  0.2199
  529MPD2    C2 7852   0.135   2.580   0.811 -0.1268 -0.2575  0.3410
  529MPD2    C3 7853   0.107   2.664   0.700 -0.6424 -0.3085 -0.5246
  529MPD2    C4 7854   0.006   2.756   0.713  0.0863  0.1268  0.0939
  529MPD2    C5 7855   4.648   2.761   0.822 -0.3725 -0.1450 -0.1377
  529MPD2     H 7856   0.221   2.513   0.818 -1.3806 -1.7773  1.1992
  529MPD2    H1 7857   4.709   2.830   0.638 -0.2047 -0.3577 -0.2974
  529MPD2    H2 7858   4.599   2.657   1.001 -1.0452 -2.2326 -1.8716
  529MPD2    H3 7859   4.568   2.833   0.826 -1.9085 -1.8942  0.3137
  529MPD2     N 7860   0.177   2.668   0.582  0.2145  0.0729  0.4839
  529MPD2    H5 7861   0.151   2.741   0.517  0.0887 -0.2942  0.1216
  529MPD2    N1 7862   0.065   2.483   1.024  0.3112  0.5485  0.7257
  529MPD2    H7 7863   0.152   2.432   1.034  0.0269 -0.1271 -0.1978
  530TMC3    C1 7864   0.001   2.330   1.206 -0.7270 -0.4347  0.3659
  530TMC3    C2 7865   0.129   2.318   1.253 -0.3779  0.2366  0.4356
  530TMC3    C3 7866   0.159   2.224   1.349 -0.3750  0.7398 -0.7901
  530TMC3    C4 7867   4.630   2.241   1.248  0.2068  0.3292  0.0494
  530TMC3    C5 7868   4.659   2.142   1.336  0.4244 -0.1828 -0.2415
  530TMC3    C6 7869   0.060   2.134   1.389  0.4312 -0.6164 -0.7648
  530TMC3     C 7870   4.689   2.435   1.107 -0.8053 -0.3521 -0.2293
  530TMC3     O 7871   4.570   2.462   1.114 -0.2788  0.4621  0.1475
  530TMC3     H 7872   0.195   2.402   1.236 -0.3952  0.1992  0.1796
  530TMC3    H1 7873   4.526   2.263   1.223  0.1463  0.6569  0.5818
  530TMC3    H2 7874   0.085   2.055   1.460  1.7387 -1.3230 -2.0007
  530TMC3    C7 7875   4.548   2.097   1.417  0.4098 -0.6788  0.6598
  530TMC3    C8 7876   0.292   2.231   1.403  0.3743  0.2412  0.1173
  530TMC3    O1 7877   4.448   2.164   1.421  0.0845 -0.5711 -0.0791
  530TMC3    O2 7878   0.346   2.341   1.410 -0.1596  0.3080  0.1295
  531MPD2     C 7879   4.492   3.838  13.498  0.5055  0.0757 -0.3343
  531MPD2    C1 7880   4.402   3.892  13.582 -0.4998 -0.1101  0.4090
  531MPD2    C2 7881   4.292   3.967  13.533  0.1018 -0.6325  0.5387
  531MPD2    C3 7882   4.274   3.974  13.395 -0.1471 -0.4394  0.0421
  531MPD2    C4 7883   4.358   3.898  13.312 -0.2470 -0.2450 -0.8600
  531MPD2    C5 7884   4.467   3.833  13.367  0.1553 -0.2713  0.6238
  531MPD2     H 7885   4.232   4.031  13.596  0.2124 -0.3191  0.3228
  531MPD2    H1 7886   4.337   3.895  13.206 -2.2313  1.7467 -0.5271
  531MPD2    H2 7887   4.579   3.786  13.537  0.9093 -0.0119 -1.3278
  531MPD2    H3 7888   4.534   3.780  13.300 -0.1801  1.5669 -1.1660
  531MPD2     N 7889   4.181   4.067  13.346  0.0029 -0.5739  0.0870
  531MPD2    H5 7890   4.133   4.120  13.417  0.1998  1.7734 -1.5411
  531MPD2    N1 7891   4.425   3.879  13.717 -0.2950 -0.1614 -0.4382
  531MPD2    H7 7892   4.512   3.835  13.742  0.2033  1.5145  0.8201
  532TMC3    C1 7893   4.404   3.923  13.955  0.1108 -0.2394 -0.1916
  532TMC3    C2 7894   4.314   3.950  14.055 -0.2409 -0.3144 -0.3660
  532TMC3    C3 7895   4.336   4.046  14.151  0.9980  0.4708 -0.3093
  532TMC3    C4 7896   4.525   3.996  13.950  0.4108 -0.5026  0.1894
  532TMC3    C5 7897   4.543   4.090  14.048  0.1973  0.5042  1.0512
  532TMC3    C6 7898   4.451   4.122  14.141 -0.2225  0.8108 -0.6238
  532TMC3     C 7899   4.344   3.931  13.820 -0.5026 -1.0153  0.6153
  532TMC3     O 7900   4.234   3.982  13.815  0.1585  0.1336  0.5022
  532TMC3     H 7901   4.216   3.903  14.053 -0.8814  1.0473 -1.2031
  532TMC3    H1 7902   4.599   3.985  13.871  0.3732 -0.3745  0.1367
  532TMC3    H2 7903   4.476   4.191  14.220 -1.0776 -0.1832  0.5043
  532TMC3    C7 7904   4.659   4.179  14.035  1.0181 -0.2175 -0.0317
  532TMC3    C8 7905   4.221   4.132  14.163  0.2706  0.2111  0.2995
  532TMC3    O1 7906   4.647   4.298  14.061 -0.1794 -0.5497  0.0127
  532TMC3    O2 7907   4.183   4.181  14.269 -0.5337 -0.2769 -0.0326
  533TMC3    C1 7908   1.055   0.787  14.388 -0.2258 -0.2870 -0.1223
  533TMC3    C2 7909   1.189   0.769  14.429  0.1823 -0.3596  0.6095
  533TMC3    C3 7910   1.239   0.874  14.506  0.4229 -0.0361  0.6620
  533TMC3    C4 7911   0.990   0.908  14.389 -1.0585 -0.0170 -0.2783
  533TMC3    C5 7912   1.050   1.000  14.466 -0.4182 -0.7461 -0.0388
  533TMC3    C6 7913   1.176   0.991  14.515  0.5175  0.4379  0.3288
  533TMC3     C 7914   0.977   0.671  14.425 -0.5488  0.0890  0.0996
  533TMC3     O 7915   1.040   0.575  14.466  0.0354  0.6280 -0.6450
  533TMC3     H 7916   1.235   0.671  14.424 -0.6799 -0.6326 -2.1226
  533TMC3    H1 7917   0.886   0.918  14.361 -0.0317  2.1273 -3.2671
  533TMC3    H2 7918   1.223   1.075  14.565  0.4590  0.4412  0.3780
  533TMC3    C7 7919   0.963   1.074  14.553 -0.8427 -0.0483  0.4535
  533TMC3    C8 7920   1.370   0.870  14.564  0.7452 -0.7243 -0.2024
  533TMC3    O1 7921   0.849   1.031  14.562  0.6156 -0.1110  0.0108
  533TMC3    O2 7922   1.396   0.958  14.647  0.5470 -0.2970 -0.3252
  534MPD2     C 7923   2.196   2.185   1.797 -0.9564  0.0392  0.1776
  534MPD2    C1 7924   2.214   2.257   1.681 -0.0039  0.6528  0.1084
  534MPD2    C2 7925   2.179   2.196   1.561 -0.3352  0.7384 -0.2960
  534MPD2    C3 7926   2.106   2.078   1.559 -0.3037 -0.0008 -0.6724
  534MPD2    C4 7927   2.081   2.009   1.679  0.2477  0.4749  0.3381
  534MPD2    C5 7928   2.137   2.061   1.795 -0.2143 -0.0092 -0.0792
  534MPD2     H 7929   2.188   2.246   1.465 -1.5396  3.1039  0.8207
  534MPD2    H1 7930   2.029   1.914   1.689 -1.6722  1.4692 -0.2394
  534MPD2    H2 7931   2.228   2.221   1.894 -0.0589  1.5334 -0.6698
  534MPD2    H3 7932   2.115   2.016   1.891 -2.4447 -1.0647 -1.0903
  534MPD2     N 7933   2.080   2.011   1.441 -0.0611 -0.6115  0.0764
  534MPD2    H5 7934   2.033   1.921   1.443 -1.6807  0.2376 -0.0459
  534MPD2    N1 7935   2.281   2.383   1.664 -0.3320  0.3878 -0.6854
  534MPD2    H7 7936   2.295   2.419   1.571 -0.5136 -0.3848 -1.0092
  535TMC3    C1 7937   2.101   1.958   1.213  0.2081  0.4864  0.2915
  535TMC3    C2 7938   1.976   1.990   1.171  0.4693 -0.5766  0.3136
  535TMC3    C3 7939   1.952   1.972   1.040 -0.1435  0.2342 -0.0033
  535TMC3    C4 7940   2.202   1.939   1.126  0.1088  0.0754  0.0037
  535TMC3    C5 7941   2.179   1.928   0.992  0.8953 -0.0804 -0.0242
  535TMC3    C6 7942   2.052   1.946   0.943  0.1624  0.2472  0.5654
  535TMC3     C 7943   2.152   2.036   1.323 -0.5453  0.5236 -0.0427
  535TMC3     O 7944   2.246   2.109   1.301  0.2802 -0.3539  0.0175
  535TMC3     H 7945   1.893   2.010   1.239  0.8399  1.9190  0.0241
  535TMC3    H1 7946   2.298   1.918   1.170  0.1105  0.6267  0.2504
  535TMC3    H2 7947   2.024   1.924   0.841  2.8889 -0.1353 -0.1026
  535TMC3    C7 7948   2.290   1.870   0.920 -0.2567  0.3927  0.3506
  535TMC3    C8 7949   1.817   1.996   0.987  0.1237 -0.7049 -0.2184
  535TMC3    O1 7950   2.393   1.839   0.979 -0.4856  0.7153 -0.2447
  535TMC3    O2 7951   1.758   1.903   0.924 -0.1357  0.5795 -0.1161
  536MPD2     C 7952   1.413   0.078  17.182  0.0033 -0.3465  0.2374
  536MPD2    C1 7953   1.435   0.209  17.195  0.2311  0.7002  0.2356
  536MPD2    C2 7954   1.474   0.283  17.084  0.5718  0.1918  0.0932
  536MPD2    C3 7955   1.478   0.235  16.954  0.8865  0.2285  0.4838
  536MPD2    C4 7956   1.446   0.105  16.937  0.5941 -0.0759  0.0200
  536MPD2    C5 7957   1.411   0.036  17.053  0.5430 -0.2922  0.1336
  536MPD2     H 7958   1.495   0.390  17.090 -2.6456  0.7712  0.9985
  536MPD2    H1 7959   1.429   0.047  16.847 -0.7438 -1.0976  0.9288
  536MPD2    H2 7960   1.393   0.016  17.269 -1.1080  1.2628  1.1278
  536MPD2    H3 7961   1.370   4.663  17.040 -1.7975  0.6577  0.2387
  536MPD2     N 7962   1.482   0.331  16.858 -0.6710  0.4111 -0.6539
  536MPD2    H5 7963   1.463   0.424  16.892  0.4534  0.8256 -1.1728
  536MPD2    N1 7964   1.428   0.261  17.326 -0.4773  0.4533 -0.2105
  536MPD2    H7 7965   1.429   0.197  17.404 -0.4767 -0.9283 -1.3366
  537TMC3    C1 7966   1.401   0.421  17.492  0.4308  0.3935 -0.9439
  537TMC3    C2 7967   1.410   0.558  17.521  0.6712  0.2860 -0.1546
  537TMC3    C3 7968   1.451   0.603  17.645  0.2694  0.1977 -0.3871
  537TMC3    C4 7969   1.426   0.325  17.589  0.1180 -0.5410 -0.1043
  537TMC3    C5 7970   1.460   0.375   0.002 -0.2899  0.1447  0.0353
  537TMC3    C6 7971   1.470   0.509   0.034  0.2022  0.3178 -0.5475
  537TMC3     C 7972   1.405   0.393  17.352 -0.9957  0.5854  0.7208
  537TMC3     O 7973   1.394   0.487  17.270  0.5476  0.0156 -0.3369
  537TMC3     H 7974   1.389   0.634  17.447 -2.1854 -1.0343 -0.7005
  537TMC3    H1 7975   1.383   0.226  17.586 -0.4427 -0.3125  0.2525
  537TMC3    H2 7976   1.488   0.541   0.136 -0.2153  1.1025 -0.7214
  537TMC3    C7 7977   1.478   0.285   0.116  0.4251  0.2349  0.1230
  537TMC3    C8 7978   1.563   0.692  17.645  0.3007  0.3424 -0.2212
  537TMC3    O1 7979   1.461   0.328   0.228  0.0529  0.5127 -0.5290
  537TMC3    O2 7980   1.636   0.676   0.034 -0.1063  0.2711 -0.2621
  538TMC3    C1 7981   3.045   4.104  11.107  0.8341 -0.2968 -0.4408
  538TMC3    C2 7982   3.086   4.028  11.005  0.4047  0.7016 -0.5987
  538TMC3    C3 7983   2.995   4.015  10.903  0.3334 -0.3397 -0.0968
  538TMC3    C4 7984   2.928   4.167  11.125  0.2658 -0.0985 -0.7166
  538TMC3    C5 7985   2.840   4.149  11.023 -0.2327 -0.5750  0.0216
  538TMC3    C6 7986   2.879   4.079  10.908  0.1584  0.0381 -0.4805
  538TMC3     C 7987   3.117   4.091  11.232 -0.0191  0.6317 -0.0890
  538TMC3     O 7988   3.101   4.182  11.313  0.5435 -0.5808  0.0593
  538TMC3     H 7989   3.188   3.992  10.999  0.0710 -0.4553  0.6538
  538TMC3    H1 7990   2.900   4.205  11.222  0.6397  1.9378 -1.3928
  538TMC3    H2 7991   2.802   4.070  10.832 -0.4803 -1.3995  0.3389
  538TMC3    C7 7992   2.699   4.156  11.052 -0.1506 -0.7310 -0.4549
  538TMC3    C8 7993   3.005   3.939  10.784  0.0285 -0.4094 -0.0231
  538TMC3    O1 7994   2.627   4.078  10.993  0.3231 -0.1524  0.3608
  538TMC3    O2 7995   2.980   3.992  10.679 -0.1113  0.2149 -0.0954
  539MPD2     C 7996   3.379   3.111  11.966  0.3018 -0.7952 -0.0537
  539MPD2    C1 7997   3.317   3.074  11.845  0.2197 -0.6006 -0.7791
  539MPD2    C2 7998   3.276   3.179  11.768 -0.7745  0.3555 -0.2579
  539MPD2    C3 7999   3.277   3.310  11.810  0.0031 -0.3271  0.0410
  539MPD2    C4 8000   3.339   3.341  11.929 -0.4760 -0.0599 -0.3136
  539MPD2    C5 8001   3.383   3.242  12.011 -0.4192  0.5378  0.1792
  539MPD2     H 8002   3.233   3.160  11.670  1.5295 -1.1466 -0.9942
  539MPD2    H1 8003   3.366   3.444  11.951 -2.1825  0.0693  1.1661
  539MPD2    H2 8004   3.418   3.032  12.029 -0.3796 -1.3037 -0.2622
  539MPD2    H3 8005   3.445   3.262  12.097 -1.5138 -0.3781  1.1764
  539MPD2     N 8006   3.209   3.418  11.752  0.2063  0.6127 -0.4996
  539MPD2    H5 8007   3.214   3.506  11.801 -2.3320 -0.0124  0.8950
  539MPD2    N1 8008   3.309   2.940  11.796 -0.0215  0.0284 -0.0921
  539MPD2    H7 8009   3.291   2.927  11.697 -1.3495  0.6548  0.0583
  540TMC3    C1 8010   3.065   3.542  11.614 -0.0430 -0.5774  0.2230
  540TMC3    C2 8011   3.047   3.580  11.483  0.0906 -0.0812  0.6508
  540TMC3    C3 8012   2.975   3.693  11.456  0.8765  0.4758  0.1560
  540TMC3    C4 8013   3.005   3.604  11.718 -0.7258 -0.7142 -0.3187
  540TMC3    C5 8014   2.932   3.716  11.691  0.2209  0.4466 -1.1030
  540TMC3    C6 8015   2.921   3.766  11.556  0.0088  0.4929  0.2471
  540TMC3     C 8016   3.129   3.415  11.638 -0.4085  0.0174 -0.5865
  540TMC3     O 8017   3.125   3.325  11.559 -0.0294  0.2145 -0.0645
  540TMC3     H 8018   3.104   3.522  11.412 -0.2110  0.6015 -0.1503
  540TMC3    H1 8019   3.023   3.580  11.823 -0.3377 -0.7988 -0.4055
  540TMC3    H2 8020   2.850   3.844  11.534  0.5729  1.0871  0.5585
  540TMC3    C7 8021   2.848   3.765  11.798  0.3491  0.6346 -0.4747
  540TMC3    C8 8022   2.921   3.704  11.326 -0.7322  0.1788  0.5306
  540TMC3    O1 8023   2.812   3.678  11.879  0.3349 -0.2505  0.3503
  540TMC3    O2 8024   2.876   3.810  11.282  0.0140 -0.2227 -0.0335
  541MPD2     C 8025   1.599   4.399  13.313 -0.6512 -1.1317 -0.0006
  541MPD2    C1 8026   1.474   4.376  13.362  0.1608 -0.5431 -0.2303
  541MPD2    C2 8027   1.375   4.462  13.332  0.5798  0.8327 -0.0489
  541MPD2    C3 8028   1.407   4.571  13.249 -0.0618  0.1573 -0.1250
  541MPD2    C4 8029   1.539   4.598  13.205 -0.1804 -0.2226 -0.0047
  541MPD2    C5 8030   1.626   4.504  13.236  0.1840  0.0772  0.3596
  541MPD2     H 8031   1.273   4.448  13.364  0.6213  0.5174 -0.0545
  541MPD2    H1 8032   1.554   4.691  13.153 -0.9755 -1.5577 -2.6401
  541MPD2    H2 8033   1.685   4.336  13.333 -1.6475 -3.0976 -1.8451
  541MPD2    H3 8034   1.724   4.526  13.196  0.0069  1.2138  0.5475
  541MPD2     N 8035   1.302   4.657  13.204 -0.2867  0.1199 -0.4915
  541MPD2    H5 8036   1.325   0.008  13.143 -0.7889  1.2079  0.6873
  541MPD2    N1 8037   1.447   4.253  13.433  0.3138  0.1297 -0.4186
  541MPD2    H7 8038   1.521   4.183  13.435 -0.0734 -0.2504  0.5717
  542TMC3    C1 8039   1.101   4.723  13.113  1.1596  0.3890  0.0747
  542TMC3    C2 8040   1.027   4.673  13.006 -0.2325 -0.4637 -0.6424
  542TMC3    C3 8041   0.998   0.037  12.907  0.6467 -0.2019  0.0274
  542TMC3    C4 8042   1.141   0.130  13.117 -0.6323 -0.4982 -1.0125
  542TMC3    C5 8043   1.090   0.217  13.021 -1.0122  0.1551 -0.4888
  542TMC3    C6 8044   1.025   0.172  12.906  0.2057  0.2265 -0.1255
  542TMC3     C 8045   1.168   4.633  13.199  0.7088  0.5882  0.1125
  542TMC3     O 8046   1.113   4.533  13.233  0.6378 -0.2773 -0.2984
  542TMC3     H 8047   0.993   4.570  13.002 -0.2371 -0.5102  0.5037
  542TMC3    H1 8048   1.190   0.166  13.207 -2.3002 -0.9700  0.0838
  542TMC3    H2 8049   1.000   0.225  12.815 -1.7661  0.8377  0.7472
  542TMC3    C7 8050   1.119   0.361  13.051  0.0811 -0.0067 -0.4268
  542TMC3    C8 8051   0.979   4.702  12.773 -0.1768 -0.3840 -0.3485
  542TMC3    O1 8052   1.167   0.393  13.158 -0.6175  0.4439  0.1470
  542TMC3    O2 8053   1.051   0.016  12.686  0.1449  0.1267  0.2094
  543TMC3    C1 8054   0.585   1.174   0.154  0.1325 -0.0028  0.3943
  543TMC3    C2 8055   0.593   1.042   0.195 -0.3093 -0.3213  0.0391
  543TMC3    C3 8056   0.491   0.996   0.275 -0.0028  0.7269 -0.5022
  543TMC3    C4 8057   0.476   1.251   0.186 -0.1251 -0.6838  0.4694
  543TMC3    C5 8058   0.380   1.199   0.265 -0.8590  0.0043 -0.4816
  543TMC3    C6 8059   0.383   1.071   0.307  0.6127 -0.5911  0.3014
  543TMC3     C 8060   0.671   1.221   0.047 -0.5189  0.2443  0.2100
  543TMC3     O 8061   0.644   1.333  17.706  0.3532 -0.6246  0.4014
  543TMC3     H 8062   0.672   0.970   0.176  0.1627 -0.2112  1.5370
  543TMC3    H1 8063   0.460   1.354   0.154  1.5110 -0.1336  1.4185
  543TMC3    H2 8064   0.329   1.045   0.398  1.9665 -0.1776  1.2224
  543TMC3    C7 8065   0.256   1.279   0.272 -0.3563 -0.0697 -0.0545
  543TMC3    C8 8066   0.492   0.851   0.317 -0.2648  0.2161  0.0418
  543TMC3    O1 8067   0.250   1.396   0.244  0.0719 -0.0088  0.2773
  543TMC3    O2 8068   0.590   0.780   0.298  0.1232 -0.1038 -0.0137
  544MPD2     C 8069   0.229   0.411   0.428 -0.0867 -0.2685 -0.5387
  544MPD2    C1 8070   0.363   0.441   0.439 -0.5413  0.9735 -0.1336
  544MPD2    C2 8071   0.411   0.569   0.416 -0.1057  0.4089  0.1150
  544MPD2    C3 8072   0.328   0.677   0.385  0.1101 -1.0171  0.1654
  544MPD2    C4 8073   0.193   0.644   0.389 -0.4475 -0.0235  0.0600
  544MPD2    C5 8074   0.144   0.521   0.408 -0.3362  0.2356 -0.3871
  544MPD2     H 8075   0.514   0.598   0.434 -0.2815 -0.5159  2.5771
  544MPD2    H1 8076   0.122   0.722   0.365 -2.0147 -1.4261  0.1599
  544MPD2    H2 8077   0.191   0.310   0.437  0.0432 -0.1287  1.5310
  544MPD2    H3 8078   0.036   0.519   0.417 -0.3046 -2.3574 -0.6912
  544MPD2     N 8079   0.365   0.807   0.351 -0.4535  0.1642 -0.9130
  544MPD2    H5 8080   0.291   0.877   0.357 -0.1862  0.3790 -0.1163
  544MPD2    N1 8081   0.451   0.331   0.459 -0.2884  0.3802 -0.0936
  544MPD2    H7 8082   0.410   0.241   0.476  0.6684 -0.0348  0.0317
  545TMC3    C1 8083   0.644   0.199   0.481  0.0807  0.2304  0.5638
  545TMC3    C2 8084   0.573   0.109   0.553  0.7433 -0.2468  0.1884
  545TMC3    C3 8085   0.607   4.703   0.549  0.1971 -0.3858  0.5115
  545TMC3    C4 8086   0.747   0.157   0.409  0.7301 -0.4135 -0.2249
  545TMC3    C5 8087   0.770   0.024   0.390 -0.2737  0.0697  0.3084
  545TMC3    C6 8088   0.705   4.656   0.466  0.1705  0.1069  0.6232
  545TMC3     C 8089   0.587   0.329   0.440 -0.5304 -0.8095  0.0320
  545TMC3     O 8090   0.661   0.418   0.402 -0.0469 -0.3058 -1.0923
  545TMC3     H 8091   0.497   0.139   0.625  0.1463  2.2267 -1.4607
  545TMC3    H1 8092   0.802   0.225   0.347 -0.8027 -0.6198 -1.8268
  545TMC3    H2 8093   0.727   4.551   0.476  0.9540  0.0968 -1.3762
  545TMC3    C7 8094   0.884   4.706   0.302 -0.5807  0.6208 -0.1823
  545TMC3    C8 8095   0.534   4.606   0.635 -0.1150 -0.2841 -0.2177
  545TMC3    O1 8096   0.945   0.066   0.245 -0.1876  0.0471  0.2203
  545TMC3    O2 8097   0.466   4.650   0.726 -0.2077  0.1425  0.5125
  546MPD2     C 8098   2.491   1.151   0.421  0.2071  0.2304  0.5701
  546MPD2    C1 8099   2.403   1.181   0.321 -0.4770 -0.9802 -0.4588
  546MPD2    C2 8100   2.463   1.201   0.199  0.4693  0.4774  0.0483
  546MPD2    C3 8101   2.601   1.188   0.175 -0.3376  0.1956  0.7730
  546MPD2    C4 8102   2.678   1.141   0.281  0.9847  0.8967 -0.8034
  546MPD2    C5 8103   2.625   1.135   0.404  0.2166 -0.5522  0.2264
  546MPD2     H 8104   2.395   1.222   0.117 -0.5151  0.9861  1.0147
  546MPD2    H1 8105   2.785   1.126   0.278  1.1917  2.6112 -2.0828
  546MPD2    H2 8106   2.449   1.126   0.518  1.8197 -0.7260  1.0158
  546MPD2    H3 8107   2.683   1.103   0.489 -1.6798  0.9894  2.0937
  546MPD2     N 8108   2.658   1.196   0.040  0.0796  0.4423 -0.2552
  546MPD2    H5 8109   2.757   1.174   0.038 -0.0547 -0.1906  0.0008
  546MPD2    N1 8110   2.264   1.179   0.350 -0.0671  1.0835  0.7159
  546MPD2    H7 8111   2.245   1.159   0.448 -1.3365  1.0883  0.4728
  547TMC3    C1 8112   2.040   1.119   0.307 -0.4386  0.0529 -0.3245
  547TMC3    C2 8113   1.933   1.123   0.222 -0.3443 -0.5639 -0.5367
  547TMC3    C3 8114   1.816   1.062   0.254 -0.3558  0.0541  0.3534
  547TMC3    C4 8115   2.033   1.044   0.425  0.7906  0.6571 -0.0838
  547TMC3    C5 8116   1.914   0.990   0.456 -0.0884 -0.6673  0.3527
  547TMC3    C6 8117   1.803   0.997   0.375  0.0033 -0.7967 -0.2484
  547TMC3     C 8118   2.169   1.153   0.253  0.0844  0.1654 -0.4762
  547TMC3     O 8119   2.166   1.182   0.134  0.4562 -0.0347  0.5228
  547TMC3     H 8120   1.938   1.170   0.125  2.4360 -1.7781 -0.9823
  547TMC3    H1 8121   2.118   1.016   0.486  0.6187 -0.2763 -0.2764
  547TMC3    H2 8122   1.715   0.937   0.393  0.1261 -1.1473 -0.7989
  547TMC3    C7 8123   1.891   0.902   0.564  0.4524 -0.2124  0.4218
  547TMC3    C8 8124   1.706   1.069   0.160 -0.2286 -0.0995  0.0277
  547TMC3    O1 8125   1.782   0.904   0.614 -0.6227  0.3531  0.0943
  547TMC3    O2 8126   1.724   1.149   0.066  0.2528  0.0630 -0.0628
  548MPD2     C 8127   1.910   1.933  12.508  0.3880  0.2493 -0.3045
  548MPD2    C1 8128   1.912   1.803  12.553  0.1105 -0.8939 -0.1644
  548MPD2    C2 8129   2.009   1.718  12.510  0.4670 -0.4701  0.2156
  548MPD2    C3 8130   2.104   1.764  12.418 -0.7956  0.4959  0.0225
  548MPD2    C4 8131   2.112   1.898  12.387 -0.7848 -0.3929 -0.2453
  548MPD2    C5 8132   2.015   1.988  12.438  0.4394  0.3934  0.4672
  548MPD2     H 8133   2.012   1.613  12.535  1.3206 -1.1482 -2.6587
  548MPD2    H1 8134   2.189   1.940  12.323 -2.1989  1.8748 -0.4670
  548MPD2    H2 8135   1.830   2.000  12.541 -0.5961 -0.9792 -0.1911
  548MPD2    H3 8136   2.018   2.095  12.425  3.0836  0.3708  0.9307
  548MPD2     N 8137   2.204   1.670  12.393  0.4471 -0.1306  0.3851
  548MPD2    H5 8138   2.202   1.589  12.455  0.9771 -2.2300 -2.2954
  548MPD2    N1 8139   1.811   1.768  12.643 -0.3007  0.6302 -0.3046
  548MPD2    H7 8140   1.733   1.832  12.650  0.0212  0.7682  2.0153
  549TMC3    C1 8141   1.672   1.628  12.781  0.5613  0.0608 -0.0069
  549TMC3    C2 8142   1.593   1.735  12.811  0.7979  0.5715  0.7844
  549TMC3    C3 8143   1.484   1.712  12.896  0.4515 -0.7496 -0.3650
  549TMC3    C4 8144   1.651   1.499  12.841 -0.1513 -0.0665 -0.8154
  549TMC3    C5 8145   1.539   1.485  12.920  0.1940  0.5057  0.2729
  549TMC3    C6 8146   1.461   1.591  12.953 -0.1603 -0.1436 -0.2173
  549TMC3     C 8147   1.795   1.641  12.700 -0.2902 -0.3272 -0.4044
  549TMC3     O 8148   1.857   1.540  12.697 -0.6418 -0.1505 -0.0857
  549TMC3     H 8149   1.587   1.826  12.753 -1.5371  0.9869  1.6786
  549TMC3    H1 8150   1.707   1.416  12.800  0.0133 -0.4460  0.1761
  549TMC3    H2 8151   1.366   1.576  13.004  0.3888 -1.6349  0.3745
  549TMC3    C7 8152   1.460   1.379  12.869  0.0716 -0.4069 -0.2412
  549TMC3    C8 8153   1.358   1.760  12.842 -0.6762 -0.2682 -0.2938
  549TMC3    O1 8154   1.347   1.407  12.823  0.2051  0.3123 -0.5778
  549TMC3    O2 8155   1.267   1.684  12.834  0.0750 -0.3923 -0.2970
  550TMC3    C1 8156   0.006   4.055  13.006 -0.0552 -1.0760  0.0685
  550TMC3    C2 8157   0.078   4.104  13.111 -0.2938 -0.3797 -0.5692
  550TMC3    C3 8158   0.158   4.218  13.087  0.5334 -0.6895  0.6220
  550TMC3    C4 8159   0.008   4.116  12.884  0.1071  0.5072 -0.5450
  550TMC3    C5 8160   0.094   4.219  12.864  0.2503  0.7171  0.3869
  550TMC3    C6 8161   0.170   4.273  12.963 -0.8331 -0.1364  0.7829
  550TMC3     C 8162   4.710   3.910  12.993 -0.7025  0.4405  0.8813
  550TMC3     O 8163   4.640   3.843  13.064  0.0208  0.3470  0.0968
  550TMC3     H 8164   0.061   4.057  13.207 -2.8573  0.9732 -0.3728
  550TMC3    H1 8165   4.676   4.076  12.801 -0.1846 -0.4142  0.0989
  550TMC3    H2 8166   0.227   4.364  12.950 -0.3665 -0.1866  2.4010
  550TMC3    C7 8167   0.065   4.294  12.752 -0.7636  0.2938  0.3031
  550TMC3    C8 8168   0.204   4.304  13.193  1.4775 -0.3147 -0.4370
  550TMC3    O1 8169   4.680   4.277  12.700  0.0804 -0.0517 -0.2962
  550TMC3    O2 8170   0.273   4.399  13.165 -0.1904  0.3692 -0.2440
  551TMC3    C1 8171   2.881   1.830  13.577 -0.2141 -0.2400  0.8642
  551TMC3    C2 8172   2.988   1.760  13.529 -0.1511  0.0160 -0.2184
  551TMC3    C3 8173   3.099   1.746  13.607 -0.3516 -0.2372  0.6534
  551TMC3    C4 8174   2.882   1.885  13.703 -0.4986  0.2609  0.6573
  551TMC3    C5 8175   2.994   1.866  13.777 -1.0152 -0.3538 -0.1795
  551TMC3    C6 8176   3.103   1.801  13.732  0.1098 -0.6180 -0.1650
  551TMC3     C 8177   2.771   1.860  13.483 -0.2489  0.3137  0.1388
  551TMC3     O 8178   2.806   1.857  13.367 -0.0061 -0.7750 -0.0079
  551TMC3     H 8179   2.992   1.721  13.428  0.5763  1.3399 -0.6995
  551TMC3    H1 8180   2.796   1.934  13.748 -1.0178  1.2453 -1.3871
  551TMC3    H2 8181   3.193   1.802  13.792  1.0686 -2.5754 -1.5948
  551TMC3    C7 8182   3.007   1.944  13.893 -0.7593 -0.4441 -0.4791
  551TMC3    C8 8183   3.219   1.771  13.524 -0.0012  0.0055 -0.7132
  551TMC3    O1 8184   3.059   1.901  14.000 -0.0582 -0.5005 -0.3034
  551TMC3    O2 8185   3.267   1.673  13.471  0.2215 -0.3739 -0.3166
  552MPD2     C 8186   0.103   3.778  14.600  0.1107 -0.2191  0.4070
  552MPD2    C1 8187   0.128   3.642  14.597  0.5228 -0.3706 -0.1876
  552MPD2    C2 8188   0.249   3.589  14.648  0.3632  0.0860 -0.2060
  552MPD2    C3 8189   0.339   3.675  14.709  0.0946 -0.1290  0.0776
  552MPD2    C4 8190   0.319   3.806  14.715  0.0383  0.4272  0.4606
  552MPD2    C5 8191   0.208   3.855  14.652  0.7629 -0.0550  0.4509
  552MPD2     H 8192   0.264   3.482  14.651  0.8417  0.0903 -2.0727
  552MPD2    H1 8193   0.394   3.868  14.762 -1.8394  0.8962  2.8324
  552MPD2    H2 8194   0.011   3.824  14.566  0.0365 -0.9781 -0.4056
  552MPD2    H3 8195   0.200   3.962  14.662 -0.5551 -0.1713  0.6882
  552MPD2     N 8196   0.456   3.621  14.768 -0.4522 -0.0966 -0.0174
  552MPD2    H5 8197   0.525   3.685  14.805  0.1637 -0.0269 -1.2840
  552MPD2    N1 8198   0.027   3.557  14.547 -0.1722 -0.4124  0.2198
  552MPD2    H7 8199   4.664   3.601  14.527 -0.0633 -0.7783 -1.0912
  553TMC3    C1 8200   4.663   3.373  14.450  0.3805 -0.3085 -0.1763
  553TMC3    C2 8201   4.656   3.444  14.331  0.4784 -0.3839  0.2267
  553TMC3    C3 8202   4.624   3.372  14.210 -0.7997  0.1488  0.1979
  553TMC3    C4 8203   4.645   3.236  14.446  0.1632  0.5592  0.1762
  553TMC3    C5 8204   4.613   3.165  14.332 -0.5932 -0.5518  0.2751
  553TMC3    C6 8205   4.604   3.232  14.211 -0.4092  0.4369 -0.2423
  553TMC3     C 8206   0.026   3.421  14.553  0.3664 -0.1457  0.2394
  553TMC3     O 8207   0.109   3.341  14.589 -0.1648 -0.1551  0.3083
  553TMC3     H 8208   4.680   3.549  14.321  0.3346 -0.0689  3.2105
  553TMC3    H1 8209   4.658   3.180  14.538  0.5656 -1.5112 -1.1660
  553TMC3    H2 8210   4.613   3.177  14.118  2.3012  0.2316  0.1339
  553TMC3    C7 8211   4.677   3.035  14.326 -0.1471 -0.2307  0.4108
  553TMC3    C8 8212   4.644   3.446  14.082  0.5547 -0.6133 -0.2582
  553TMC3    O1 8213   4.653   2.966  14.230 -0.1068 -0.3966  0.4105
  553TMC3    O2 8214   4.712   3.548  14.092 -0.0451 -0.5312 -0.3504
  554TMC3    C1 8215   1.842   2.851  11.820  0.3970 -0.0500 -0.1868
  554TMC3    C2 8216   1.798   2.769  11.719  0.4361  0.1095  0.0107
  554TMC3    C3 8217   1.874   2.757  11.608 -0.2099 -0.4967 -0.1668
  554TMC3    C4 8218   1.939   2.942  11.812 -0.5779  0.0697  0.2213
  554TMC3    C5 8219   2.010   2.933  11.694 -0.1908  0.5595  0.9251
  554TMC3    C6 8220   1.981   2.845  11.599  0.7473 -0.0345  0.0043
  554TMC3     C 8221   1.805   2.822  11.956 -0.0944  0.1070 -0.1095
  554TMC3     O 8222   1.687   2.795  11.973  0.2238 -0.4826 -0.4146
  554TMC3     H 8223   1.703   2.718  11.725  0.7459 -0.5974 -1.0700
  554TMC3    H1 8224   1.980   2.993  11.898 -1.5401 -0.6600  1.1051
  554TMC3    H2 8225   2.053   2.835  11.518  0.8754  1.8471 -0.1100
  554TMC3    C7 8226   2.084   3.050  11.647 -0.7716  0.3849 -0.9549
  554TMC3    C8 8227   1.805   2.746  11.483  0.9098 -0.2304  0.1126
  554TMC3    O1 8228   2.108   3.068  11.529 -0.1219 -0.3635 -0.5652
  554TMC3    O2 8229   1.839   2.844  11.415 -0.0952 -0.8504  0.5928
  555TMC3    C1 8230   1.202   2.436  15.252  0.6887 -0.2625  0.0720
  555TMC3    C2 8231   1.155   2.536  15.333 -0.0221 -0.9404 -0.0234
  555TMC3    C3 8232   1.153   2.500  15.466 -0.4644  0.6179 -0.2413
  555TMC3    C4 8233   1.255   2.316  15.298 -0.5572  0.0122 -0.4284
  555TMC3    C5 8234   1.247   2.291  15.433 -1.0580  0.4730 -0.3576
  555TMC3    C6 8235   1.195   2.383  15.515 -0.5352  0.3169  0.0158
  555TMC3     C 8236   1.192   2.460  15.113  0.2724 -0.3134 -0.4976
  555TMC3     O 8237   1.271   2.400  15.044 -0.2976  0.2214  0.0180
  555TMC3     H 8238   1.093   2.619  15.300 -1.3156 -1.5869  0.7731
  555TMC3    H1 8239   1.290   2.238  15.230  2.6300 -1.1064  2.4580
  555TMC3    H2 8240   1.200   2.363  15.622 -1.9591  0.4532  0.0986
  555TMC3    C7 8241   1.261   2.159  15.485  0.9357  0.3548 -0.4694
  555TMC3    C8 8242   1.109   2.590  15.563  0.1419  0.0599  0.4295
  555TMC3    O1 8243   1.250   2.142  15.608 -0.2957 -0.3535  0.4563
  555TMC3    O2 8244   1.010   2.663  15.536 -0.1950  0.1064  0.1185
  556MPD2     C 8245   4.154   3.640  11.257  0.6518 -0.3693 -0.1736
  556MPD2    C1 8246   4.020   3.657  11.276  0.7652  0.9436  0.3453
  556MPD2    C2 8247   3.931   3.566  11.213 -0.2513  1.0905  0.4000
  556MPD2    C3 8248   3.970   3.476  11.121  0.2703  0.0213  0.6891
  556MPD2    C4 8249   4.110   3.469  11.099 -0.0116  1.0801  0.5298
  556MPD2    C5 8250   4.197   3.545  11.171 -0.1501 -0.1030  0.7575
  556MPD2     H 8251   3.827   3.582  11.239 -0.6154  0.2059 -0.5386
  556MPD2    H1 8252   4.152   3.403  11.024  1.5004  0.6684  1.7311
  556MPD2    H2 8253   4.229   3.682  11.323  0.5940  0.3502 -0.5651
  556MPD2    H3 8254   4.301   3.516  11.161  0.8299  3.4736  0.3876
  556MPD2     N 8255   3.867   3.409  11.047  0.1760  0.5897 -0.7695
  556MPD2    H5 8256   3.771   3.435  11.070 -0.7633 -2.1099 -1.5972
  556MPD2    N1 8257   3.967   3.761  11.360 -0.4667  0.1016  0.2211
  556MPD2    H7 8258   3.865   3.763  11.359 -0.4591  0.3118 -0.4511
  557TMC3    C1 8259   3.749   3.312  10.870 -0.3517 -0.5614 -0.0901
  557TMC3    C2 8260   3.714   3.184  10.851 -0.4014  0.0954 -0.3017
  557TMC3    C3 8261   3.598   3.153  10.790 -0.0736  0.0294 -0.1730
  557TMC3    C4 8262   3.663   3.410  10.832  0.0263 -0.0062 -0.0440
  557TMC3    C5 8263   3.546   3.385  10.764  0.2073  1.8044  0.0198
  557TMC3    C6 8264   3.513   3.252  10.741  0.6452 -0.2431 -0.6781
  557TMC3     C 8265   3.879   3.344  10.926 -0.5842  1.0844 -0.5307
  557TMC3     O 8266   3.969   3.276  10.875 -0.3985  0.0900  0.2754
  557TMC3     H 8267   3.782   3.104  10.878  1.6664  1.7285 -0.6817
  557TMC3    H1 8268   3.682   3.514  10.854  2.3218 -0.6242  0.8734
  557TMC3    H2 8269   3.417   3.219  10.702  0.2990 -0.4619  0.3659
  557TMC3    C7 8270   3.443   3.487  10.760  0.4126  0.2972 -0.2504
  557TMC3    C8 8271   3.558   3.021  10.789 -0.7721 -0.3563  0.6029
  557TMC3    O1 8272   3.450   3.573  10.844  0.8172  0.4278  0.3690
  557TMC3    O2 8273   3.572   2.949  10.887  0.5570 -0.4581  0.0677
  558TMC3    C1 8274   1.475   2.204  10.247 -0.7273 -0.0052  0.1045
  558TMC3    C2 8275   1.414   2.167  10.364 -0.1840 -0.0774  0.5782
  558TMC3    C3 8276   1.277   2.149  10.367  0.5599 -0.0530  0.4552
  558TMC3    C4 8277   1.397   2.234  10.137 -0.0275 -0.5243  0.3445
  558TMC3    C5 8278   1.260   2.229  10.149  0.8932  0.7719  0.7453
  558TMC3    C6 8279   1.202   2.182  10.259  0.0232 -0.0577  0.1756
  558TMC3     C 8280   1.618   2.169  10.242  0.0537  0.2213 -0.9561
  558TMC3     O 8281   1.676   2.180  10.349  0.0618  0.1134 -0.0478
  558TMC3     H 8282   1.469   2.149  10.455 -0.1935 -0.0675  0.5859
  558TMC3    H1 8283   1.452   2.274  10.053 -0.2320 -0.4987  0.2226
  558TMC3    H2 8284   1.094   2.174  10.260 -0.1258  1.8753 -1.2845
  558TMC3    C7 8285   1.192   2.196  10.023 -1.2305 -0.0814  0.6034
  558TMC3    C8 8286   1.216   2.072  10.481 -0.0745 -0.3002 -0.2297
  558TMC3    O1 8287   1.222   2.274   9.932  0.1997 -0.3014  0.3065
  558TMC3    O2 8288   1.094   2.061  10.499 -0.3502  0.2475  0.0970
  559MPD2     C 8289   1.926   2.488  10.786  0.2271 -0.0346  0.4563
  559MPD2    C1 8290   1.915   2.398  10.889  0.3469  0.0776  0.6549
  559MPD2    C2 8291   2.023   2.379  10.980 -0.4974  0.6250  0.0107
  559MPD2    C3 8292   2.139   2.456  10.962 -0.1411 -0.8592 -0.1665
  559MPD2    C4 8293   2.142   2.546  10.867  0.1519 -1.3886  0.3639
  559MPD2    C5 8294   2.036   2.566  10.781 -0.5052  0.2362 -0.3373
  559MPD2     H 8295   2.019   2.313  11.066  0.0233  2.4004  1.3944
  559MPD2    H1 8296   2.235   2.600  10.856 -2.0557  2.3085 -0.2321
  559MPD2    H2 8297   1.861   2.492  10.698 -1.3408  0.2831  1.6265
  559MPD2    H3 8298   2.039   2.641  10.702 -0.1279  1.0102  0.4053
  559MPD2     N 8299   2.250   2.443  11.052 -0.1925  0.1410  0.0244
  559MPD2    H5 8300   2.243   2.362  11.113 -1.1995 -0.3388 -0.7179
  559MPD2    N1 8301   1.791   2.322  10.894 -0.3280 -0.0752 -0.2585
  559MPD2    H7 8302   1.729   2.334  10.815  0.8002  1.7161 -0.9025
  560TMC3    C1 8303   2.453   2.471  11.153  0.2349 -0.3277 -0.3849
  560TMC3    C2 8304   2.448   2.331  11.166  0.5898 -0.4230 -0.8826
  560TMC3    C3 8305   2.455   2.276  11.287  0.0031  0.0819 -0.1999
  560TMC3    C4 8306   2.508   2.548  11.246 -0.6026 -0.7112  0.7191
  560TMC3    C5 8307   2.530   2.489  11.366 -0.0805 -0.3879 -0.1091
  560TMC3    C6 8308   2.505   2.352  11.389  0.6565  0.2213 -0.0449
  560TMC3     C 8309   2.354   2.531  11.065  0.6958 -0.0308  0.9890
  560TMC3     O 8310   2.371   2.652  11.047  0.7309  0.2957  0.1970
  560TMC3     H 8311   2.432   2.267  11.080 -0.0280  1.6236 -2.3024
  560TMC3    H1 8312   2.509   2.655  11.227 -0.6137 -0.9870 -0.8904
  560TMC3    H2 8313   2.518   2.303  11.485  2.2973 -0.4031 -0.5807
  560TMC3    C7 8314   2.618   2.549  11.471  0.0494  0.5003  0.2315
  560TMC3    C8 8315   2.336   2.193  11.307 -0.3194  0.4562 -0.3629
  560TMC3    O1 8316   2.624   2.507  11.584 -0.0193 -0.2054  0.3799
  560TMC3    O2 8317   2.269   2.181  11.204  0.2388 -1.0056  0.0935
  561TMC3    C1 8318   4.651   1.330  12.131  0.5909  0.9197 -0.1831
  561TMC3    C2 8319   4.583   1.316  12.246  0.2575 -0.2583  0.0094
  561TMC3    C3 8320   4.495   1.418  12.284 -0.2586 -0.6486  0.6009
  561TMC3    C4 8321   4.671   1.452  12.071  0.2310 -0.1936  0.0523
  561TMC3    C5 8322   4.603   1.561  12.126  1.1691 -0.6760  0.1777
  561TMC3    C6 8323   4.506   1.547  12.224 -0.3387  0.4131 -0.1797
  561TMC3     C 8324   4.682   1.202  12.068 -0.1910  0.3260  0.1175
  561TMC3     O 8325   4.620   1.108  12.114  0.8092 -0.0978  0.6469
  561TMC3     H 8326   4.558   1.218  12.286 -1.2158  0.0596 -0.1296
  561TMC3    H1 8327   4.726   1.451  11.978  0.1611  0.8648  0.0062
  561TMC3    H2 8328   4.463   1.637  12.265 -0.3267 -0.5658  1.9802
  561TMC3    C7 8329   4.622   1.692  12.068 -0.1087  0.0900  0.4208
  561TMC3    C8 8330   4.427   1.414  12.410  0.8321  0.8471 -0.2934
  561TMC3    O1 8331   4.539   1.778  12.101  0.2910 -0.0137 -0.1076
  561TMC3    O2 8332   4.475   1.331  12.485 -0.2099 -0.0186 -0.9752
  562TMC3    C1 8333   1.352   2.698  16.495  0.4020  0.2736 -0.5458
  562TMC3    C2 8334   1.220   2.731  16.485  0.3931 -0.5178 -0.1584
  562TMC3    C3 8335   1.156   2.702  16.366 -0.1665 -0.5490 -0.1533
  562TMC3    C4 8336   1.413   2.615  16.398 -0.5505  0.0037 -0.1629
  562TMC3    C5 8337   1.342   2.580  16.293 -0.5285  0.8006  0.4331
  562TMC3    C6 8338   1.217   2.632  16.266 -0.8750  0.3324 -0.0812
  562TMC3     C 8339   1.433   2.750  16.605 -0.1652 -0.1701 -0.3254
  562TMC3     O 8340   1.531   2.682  16.636 -0.3208  0.1692 -0.0830
  562TMC3     H 8341   1.174   2.773  16.574  1.5833 -0.7297  0.5562
  562TMC3    H1 8342   1.510   2.569  16.413 -0.9976 -1.2383 -1.0972
  562TMC3    H2 8343   1.175   2.613  16.168 -1.5368 -0.5283  0.3741
  562TMC3    C7 8344   1.399   2.534  16.170  0.0443  0.9163 -0.3530
  562TMC3    C8 8345   1.025   2.772  16.348 -0.1885 -0.0067  0.5764
  562TMC3    O1 8346   1.329   2.457  16.103  0.3163  0.0552 -0.3106
  562TMC3    O2 8347   1.009   2.855  16.439 -0.2728 -0.0223  0.3482
  563MPD2     C 8348   3.150   4.004  15.961 -0.4956 -0.0333 -0.3638
  563MPD2    C1 8349   3.195   4.118  16.020  0.8200 -0.4549  0.2901
  563MPD2    C2 8350   3.325   4.118  16.064  0.1465  0.2808  0.1485
  563MPD2    C3 8351   3.406   4.005  16.054 -0.1333 -0.0949 -0.0241
  563MPD2    C4 8352   3.362   3.893  15.992 -0.5135 -0.4709  0.7889
  563MPD2    C5 8353   3.232   3.891  15.949 -0.3063 -0.1039  0.5132
  563MPD2     H 8354   3.370   4.201  16.117  0.5705 -0.4586  0.9442
  563MPD2    H1 8355   3.416   3.798  15.992 -0.2723 -0.3426  2.4330
  563MPD2    H2 8356   3.047   3.987  15.934 -0.3435 -2.0371  0.3356
  563MPD2    H3 8357   3.194   3.794  15.918 -1.8229 -0.1526  2.4996
  563MPD2     N 8358   3.530   3.996  16.120 -0.4409  0.2183  0.1109
  563MPD2    H5 8359   3.547   4.081  16.172  0.2777 -0.1206  0.4222
  563MPD2    N1 8360   3.105   4.230  16.021  0.0786  0.0464 -0.7601
  563MPD2    H7 8361   3.018   4.212  15.971  0.4933  1.3446 -1.9618
  564TMC3    C1 8362   3.008   4.422  16.112  0.1322 -0.2216  0.2385
  564TMC3    C2 8363   2.899   4.350  16.073  0.7176  0.5564  0.2450
  564TMC3    C3 8364   2.797   4.316  16.160 -0.2808  0.5808  0.2459
  564TMC3    C4 8365   3.011   4.470  16.238 -0.4525 -1.2869 -0.4091
  564TMC3    C5 8366   2.917   4.430  16.324  0.6945  0.1654  0.0153
  564TMC3    C6 8367   2.811   4.350  16.291  0.4199  0.4890  0.4564
  564TMC3     C 8368   3.126   4.349  16.083 -0.0992 -0.0802  0.7376
  564TMC3     O 8369   3.228   4.382  16.136  0.0199  0.2609  0.2938
  564TMC3     H 8370   2.874   4.353  15.968  1.6741  1.1105  0.0340
  564TMC3    H1 8371   3.101   4.523  16.264 -1.9743  0.1500  1.9264
  564TMC3    H2 8372   2.744   4.303  16.362 -2.0278  2.5779 -0.4916
  564TMC3    C7 8373   2.988   4.368  16.430 -0.7051  0.2205  0.5256
  564TMC3    C8 8374   2.743   4.184  16.138 -0.1628 -0.0855  0.8679
  564TMC3    O1 8375   2.970   4.246  16.434 -0.0986 -0.2252 -0.1490
  564TMC3    O2 8376   2.717   4.127  16.243 -0.1419  0.3702 -0.4763
  565TMC3    C1 8377   3.785   0.756  10.273  0.2148 -0.4948  0.3133
  565TMC3    C2 8378   3.825   0.736  10.403  0.6241  0.4188 -0.0015
  565TMC3    C3 8379   3.780   0.629  10.477 -0.4453  0.5028 -0.3013
  565TMC3    C4 8380   3.689   0.669  10.221  0.7326  0.2084  0.7432
  565TMC3    C5 8381   3.652   0.555  10.293  0.6435 -0.5400 -0.5289
  565TMC3    C6 8382   3.697   0.530  10.420  0.0965 -0.4102  0.7044
  565TMC3     C 8383   3.822   0.876  10.195 -0.2584 -1.2504  0.4013
  565TMC3     O 8384   3.752   0.899  10.095 -0.3298 -0.1593  0.1243
  565TMC3     H 8385   3.909   0.797  10.435  2.8904 -2.0903 -1.2014
  565TMC3    H1 8386   3.656   0.680  10.118  1.1576 -0.9104  0.4914
  565TMC3    H2 8387   3.643   0.461  10.483 -1.7940  0.7718  0.3883
  565TMC3    C7 8388   3.544   0.470  10.249  0.4183 -0.1232  0.7271
  565TMC3    C8 8389   3.836   0.588  10.606  0.6245  0.4321  0.4384
  565TMC3    O1 8390   3.530   0.367  10.316  0.1610  0.1918 -0.1200
  565TMC3    O2 8391   3.815   0.470  10.638 -0.3323  0.4924 -0.8564
  566MPD2     C 8392   0.410   1.945  14.563 -0.0817 -0.5231  0.1598
  566MPD2    C1 8393   0.390   2.074  14.520 -0.7349  0.1945 -0.4575
  566MPD2    C2 8394   0.269   2.108  14.463  0.0957  0.5660  0.8256
  566MPD2    C3 8395   0.177   2.013  14.435  1.1502  0.0290  0.0840
  566MPD2    C4 8396   0.198   1.890  14.484 -0.6392  0.4888 -0.0116
  566MPD2    C5 8397   0.305   1.855  14.558 -0.2750 -0.1503  0.3059
  566MPD2     H 8398   0.249   2.214  14.451 -3.4741 -0.0352  1.4234
  566MPD2    H1 8399   0.121   1.815  14.474 -0.4576  0.0283  2.1352
  566MPD2    H2 8400   0.503   1.915  14.611  1.4240  1.6150 -1.4240
  566MPD2    H3 8401   0.317   1.751  14.586 -0.0661  0.3080  1.8655
  566MPD2     N 8402   0.058   2.030  14.366  0.3289  0.0638 -0.3038
  566MPD2    H5 8403   4.716   1.959  14.390  0.9818  0.0753  1.5719
  566MPD2    N1 8404   0.496   2.169  14.541  0.4796  0.2611  0.1454
  566MPD2    H7 8405   0.580   2.143  14.592 -1.8299 -2.9526  2.3407
  567TMC3    C1 8406   0.618   2.364  14.522 -0.4406  0.1559  0.3021
  567TMC3    C2 8407   0.672   2.447  14.428 -0.8531  0.6453 -0.1728
  567TMC3    C3 8408   0.803   2.491  14.447 -0.1230 -0.3631 -0.3343
  567TMC3    C4 8409   0.690   2.317  14.626  0.3620 -0.4110  0.5943
  567TMC3    C5 8410   0.816   2.369  14.642 -0.0975 -0.1559 -0.3392
  567TMC3    C6 8411   0.872   2.462  14.561 -0.0619 -0.4979 -0.1281
  567TMC3     C 8412   0.500   2.288  14.481 -0.4882 -0.5149 -0.3831
  567TMC3     O 8413   0.436   2.323  14.383  0.0784  0.0075  0.2918
  567TMC3     H 8414   0.630   2.461  14.330 -1.6288  0.9099  0.1995
  567TMC3    H1 8415   0.660   2.245  14.701  0.9710 -0.3914  0.8591
  567TMC3    H2 8416   0.968   2.509  14.582  0.0309 -1.1712  0.9597
  567TMC3    C7 8417   0.900   2.322  14.749  0.1886  0.6390  0.2853
  567TMC3    C8 8418   0.855   2.572  14.334  0.0450 -0.4152 -0.5407
  567TMC3    O1 8419   1.019   2.298  14.727  0.5148 -0.7878 -0.0133
  567TMC3    O2 8420   0.776   2.592  14.243  0.1682  0.5294 -0.0295
  568MPD2     C 8421   2.732   2.703  16.635  1.0118 -0.7147  0.1037
  568MPD2    C1 8422   2.710   2.793  16.737 -0.0824 -0.2803 -0.1126
  568MPD2    C2 8423   2.726   2.925  16.709  0.2102 -0.7144 -0.4118
  568MPD2    C3 8424   2.757   2.968  16.580 -0.0384 -0.2370 -0.2836
  568MPD2    C4 8425   2.775   2.876  16.482 -0.1559 -0.3237 -0.3594
  568MPD2    C5 8426   2.773   2.741  16.512 -0.3128  0.2070 -0.1606
  568MPD2     H 8427   2.722   3.006  16.780 -1.6131 -0.4143 -0.8652
  568MPD2    H1 8428   2.788   2.902  16.378 -2.2317  0.8386 -0.3154
  568MPD2    H2 8429   2.730   2.598  16.662 -2.2328 -0.6354  0.1235
  568MPD2    H3 8430   2.788   2.663  16.439  0.8074 -0.0480  0.3531
  568MPD2     N 8431   2.763   3.109  16.546 -0.7097 -0.2605  0.0378
  568MPD2    H5 8432   2.736   3.168  16.624  1.9407  0.3497  0.5156
  568MPD2    N1 8433   2.677   2.738  16.862 -0.0664 -0.5557 -0.4976
  568MPD2    H7 8434   2.662   2.638  16.868  1.5896 -0.7784  0.0582
  569TMC3    C1 8435   2.742   3.302  16.404  0.4237  0.0994  0.1196
  569TMC3    C2 8436   2.652   3.359  16.495 -0.1935  0.0747  0.6625
  569TMC3    C3 8437   2.597   3.473  16.446 -0.3507 -0.6318 -0.3144
  569TMC3    C4 8438   2.759   3.353  16.276 -0.0639  0.1017  0.0093
  569TMC3    C5 8439   2.695   3.467  16.236 -0.4844 -0.1805  1.0965
  569TMC3    C6 8440   2.608   3.527  16.322  0.3185  0.7887 -1.1707
  569TMC3     C 8441   2.780   3.162  16.421 -0.2737  0.4978  0.3960
  569TMC3     O 8442   2.823   3.116  16.317  0.1425  0.0933 -0.8433
  569TMC3     H 8443   2.629   3.327  16.596  0.5082 -2.1167  0.1136
  569TMC3    H1 8444   2.822   3.304  16.203  1.2428  2.5136 -0.5076
  569TMC3    H2 8445   2.561   3.624  16.312 -0.4596  0.4419 -0.8845
  569TMC3    C7 8446   2.730   3.528  16.114  0.0559 -0.3203  0.3394
  569TMC3    C8 8447   2.566   3.575  16.543  0.6426 -0.3569  0.1436
  569TMC3    O1 8448   2.770   3.461  16.016 -1.1445 -0.5192 -0.0706
  569TMC3    O2 8449   2.466   3.641  16.522  0.2817 -0.8518  0.2095
  570TMC3    C1 8450   2.016   1.602  16.426 -0.2919  0.7188 -0.1206
  570TMC3    C2 8451   2.095   1.559  16.325 -0.4374 -0.3392 -0.3523
  570TMC3    C3 8452   2.116   1.652  16.223 -0.3048 -0.0986 -0.2929
  570TMC3    C4 8453   1.946   1.716  16.420  0.1006 -0.3238  0.2646
  570TMC3    C5 8454   1.969   1.803  16.319  0.1130 -0.1623  0.0739
  570TMC3    C6 8455   2.058   1.776  16.223 -0.4383  0.2019  0.1717
  570TMC3     C 8456   2.009   1.509  16.536  0.0821 -0.2191  0.2529
  570TMC3     O 8457   2.036   1.392  16.521 -0.1832  0.1482 -0.3127
  570TMC3     H 8458   2.146   1.464  16.335  0.2594 -0.0766 -1.4510
  570TMC3    H1 8459   1.866   1.739  16.490 -0.4383 -1.7457  0.1221
  570TMC3    H2 8460   2.071   1.846  16.141  1.8405  0.2022  0.5198
  570TMC3    C7 8461   1.923   1.937  16.335 -0.0503 -0.4409  0.0653
  570TMC3    C8 8462   2.253   1.665  16.170  0.4930 -0.1040  0.0914
  570TMC3    O1 8463   1.881   1.959  16.448  0.0745 -0.0162  0.1296
  570TMC3    O2 8464   2.284   1.783  16.143  0.4000 -0.1117 -0.6995
  571MPD2     C 8465   0.674   3.552  17.538 -0.2579 -0.1948  0.2967
  571MPD2    C1 8466   0.596   3.451  17.588  0.4147  0.7765  0.4572
  571MPD2    C2 8467   0.528   3.463   0.002  0.0354 -0.2129 -0.3435
  571MPD2    C3 8468   0.549   3.576   0.080 -0.3964 -0.3738  0.7025
  571MPD2    C4 8469   0.630   3.678   0.031 -0.2063  0.1902  0.2766
  571MPD2    C5 8470   0.685   3.663  17.613  0.6250  0.1319  0.1811
  571MPD2     H 8471   0.461   3.386   0.040  1.1057 -0.2367  1.4812
  571MPD2    H1 8472   0.656   3.767   0.086 -0.0956 -0.0610  0.6315
  571MPD2    H2 8473   0.726   3.543  17.444 -1.5026 -1.0132 -0.3212
  571MPD2    H3 8474   0.742   3.744  17.568 -0.0490  0.2926 -0.3820
  571MPD2     N 8475   0.492   3.599   0.208 -0.5346 -0.0481 -0.2890
  571MPD2    H5 8476   0.522   3.678   0.264 -1.3303 -1.9331  2.7532
  571MPD2    N1 8477   0.593   3.334  17.512 -0.1680 -0.2335 -0.0050
  571MPD2    H7 8478   0.667   3.306  17.449 -0.5027 -3.0278  0.8439
  572TMC3    C1 8479   0.374   3.567   0.408 -0.1490 -0.5581 -0.4042
  572TMC3    C2 8480   0.340   3.472   0.499 -1.1670  0.2191 -0.1693
  572TMC3    C3 8481   0.271   3.505   0.614 -0.6333  0.4051 -0.2155
  572TMC3    C4 8482   0.340   3.703   0.423 -0.3687 -0.2017 -0.6578
  572TMC3    C5 8483   0.271   3.735   0.541 -0.2399  0.8322 -0.5146
  572TMC3    C6 8484   0.243   3.642   0.639  0.4264 -0.5755 -0.0419
  572TMC3     C 8485   0.424   3.509   0.279 -0.0924 -0.1961  0.0336
  572TMC3     O 8486   0.384   3.396   0.254  0.3828 -0.1774  0.0725
  572TMC3     H 8487   0.376   3.371   0.488  0.1685  0.5639  0.9236
  572TMC3    H1 8488   0.372   3.772   0.346  0.7478 -0.0196 -0.0340
  572TMC3    H2 8489   0.190   3.663   0.731 -1.5407 -2.4481 -0.7615
  572TMC3    C7 8490   0.242   3.875   0.563  0.0750 -0.1040  0.2748
  572TMC3    C8 8491   0.187   3.404   0.677 -0.0311  0.1439  0.5834
  572TMC3    O1 8492   0.265   3.953   0.470 -0.3874 -0.3877  0.6332
  572TMC3    O2 8493   0.235   3.289   0.684  0.2281  0.0935 -0.1459
  573MPD2     C 8494   0.793   3.322   0.502  0.9559  0.0550  0.1177
  573MPD2    C1 8495   0.763   3.452   0.507  0.0660 -0.0399 -1.0509
  573MPD2    C2 8496   0.808   3.538   0.406 -0.9255  0.0998 -0.2577
  573MPD2    C3 8497   0.869   3.487   0.291 -0.4804 -0.0014 -0.2570
  573MPD2    C4 8498   0.888   3.352   0.287  0.8990  0.5833  0.4644
  573MPD2    C5 8499   0.841   3.272   0.382  0.4561  0.1349 -0.1919
  573MPD2     H 8500   0.786   3.642   0.427  2.0531  0.5943  0.4094
  573MPD2    H1 8501   0.951   3.313   0.209  0.9118  0.7145  0.4107
  573MPD2    H2 8502   0.768   3.252   0.581 -0.1412  1.1516  0.7202
  573MPD2    H3 8503   0.865   3.167   0.373 -0.8011 -0.0645 -1.2378
  573MPD2     N 8504   0.938   3.563   0.190 -0.6079 -0.5811  0.3225
  573MPD2    H5 8505   0.974   3.504   0.116 -2.1564 -0.5031 -0.4804
  573MPD2    N1 8506   0.709   3.497   0.628  0.0597 -0.3939  0.2931
  573MPD2    H7 8507   0.683   3.423   0.693 -0.1752 -0.7346 -0.1864
  574TMC3    C1 8508   1.009   3.756   0.071 -0.2462 -0.1032  0.1106
  574TMC3    C2 8509   1.024   3.893   0.072  0.2819 -0.6042 -0.1697
  574TMC3    C3 8510   1.078   3.946  17.666 -0.2041 -0.2683 -0.5128
  574TMC3    C4 8511   1.041   3.676  17.668  0.3442  0.2755  0.5007
  574TMC3    C5 8512   1.083   3.736  17.549 -0.6214  0.9623 -0.4423
  574TMC3    C6 8513   1.104   3.868  17.551 -0.8368 -0.0590 -0.3262
  574TMC3     C 8514   0.938   3.702   0.184  0.0153 -0.1037 -0.1731
  574TMC3     O 8515   0.882   3.784   0.256  0.1663  0.9681  0.0712
  574TMC3     H 8516   1.002   3.950   0.162 -1.0949  2.3686 -2.3999
  574TMC3    H1 8517   1.016   3.570  17.668  0.5685  0.2319 -1.7593
  574TMC3    H2 8518   1.140   3.919  17.462 -0.8662 -0.3465 -0.5014
  574TMC3    C7 8519   1.112   3.648  17.442 -0.3740 -0.1506 -1.3400
  574TMC3    C8 8520   1.105   4.090  17.660  0.4938 -0.1876 -0.6936
  574TMC3    O1 8521   1.065   3.535  17.447  0.0726 -0.0581 -0.2880
  574TMC3    O2 8522   1.193   4.124  17.586 -0.5302 -0.1650  0.0702
  575TMC3    C1 8523   3.966   0.212  11.430  0.1359 -0.3203  0.3650
  575TMC3    C2 8524   3.923   0.083  11.417 -0.6147  0.3641  0.3128
  575TMC3    C3 8525   3.898   0.043  11.286 -0.3628  0.0668  0.6171
  575TMC3    C4 8526   3.978   0.300  11.325 -0.1179  0.1720  0.0565
  575TMC3    C5 8527   3.939   0.257  11.201 -0.2317 -0.4941 -0.1883
  575TMC3    C6 8528   3.902   0.128  11.180  0.5626 -0.3583 -0.1352
  575TMC3     C 8529   3.948   0.258  11.562 -0.1450 -0.6504  0.0021
  575TMC3     O 8530   3.873   0.194  11.635 -0.0726 -0.0668  0.4517
  575TMC3     H 8531   3.933   0.012  11.499  1.6088 -1.5050 -1.5577
  575TMC3    H1 8532   4.008   0.401  11.348  0.7648 -0.0300 -0.1953
  575TMC3    H2 8533   3.881   0.094  11.079 -1.8189  0.3877  0.1118
  575TMC3    C7 8534   3.942   0.348  11.090  0.4058  0.0077 -0.1357
  575TMC3    C8 8535   3.844   4.635  11.261  0.0506  1.1831 -0.2194
  575TMC3    O1 8536   3.913   0.306  10.977 -0.2208 -0.1057  0.5150
  575TMC3    O2 8537   3.852   4.586  11.147 -0.8552  0.4985 -0.5409
  576MPD2     C 8538   3.210   1.838  12.992 -0.5627  0.1276  0.3402
  576MPD2    C1 8539   3.241   1.949  12.917 -0.2996  0.1397 -0.4172
  576MPD2    C2 8540   3.186   2.062  12.960  0.1479 -0.1593  0.7373
  576MPD2    C3 8541   3.113   2.078  13.079 -0.7684  0.0014  0.0211
  576MPD2    C4 8542   3.088   1.966  13.155 -0.0047 -0.1697 -0.3074
  576MPD2    C5 8543   3.128   1.846  13.107  0.4781  0.0431 -0.2579
  576MPD2     H 8544   3.210   2.146  12.896 -0.5149  1.5734  2.7524
  576MPD2    H1 8545   3.030   1.968  13.247 -1.0128  1.1089 -0.9746
  576MPD2    H2 8546   3.246   1.739  12.967  0.9292  0.7783 -0.1049
  576MPD2    H3 8547   3.103   1.760  13.169 -0.3602  0.3868 -0.1189
  576MPD2     N 8548   3.082   2.213  13.112  0.0264 -0.8387  0.8120
  576MPD2    H5 8549   3.127   2.280  13.050  0.1278 -0.5269  1.2287
  576MPD2    N1 8550   3.323   1.950  12.801  0.3601 -0.1477 -0.3379
  576MPD2    H7 8551   3.334   2.038  12.752  1.6722 -0.8417 -1.2701
  577TMC3    C1 8552   3.518   1.891  12.677  0.2619 -0.4864 -0.3389
  577TMC3    C2 8553   3.634   1.823  12.695 -0.4184 -0.4107 -0.5692
  577TMC3    C3 8554   3.714   1.787  12.597 -0.2123  0.1625  0.6158
  577TMC3    C4 8555   3.485   1.909  12.544 -0.3534 -0.1935  0.1008
  577TMC3    C5 8556   3.567   1.868  12.445 -0.1566 -0.0533  0.6539
  577TMC3    C6 8557   3.691   1.818  12.469 -0.3956  0.2734  0.3676
  577TMC3     C 8558   3.409   1.845  12.765  0.1578 -0.5355  0.3073
  577TMC3     O 8559   3.439   1.744  12.831  0.7252  0.1303  0.1721
  577TMC3     H 8560   3.655   1.802  12.800 -0.7133 -1.5666 -0.7376
  577TMC3    H1 8561   3.389   1.954  12.522  0.2334  0.8000 -0.3982
  577TMC3    H2 8562   3.754   1.770  12.395  1.2361  2.1644  0.5348
  577TMC3    C7 8563   3.522   1.859  12.310  0.2245 -0.7131  0.0149
  577TMC3    C8 8564   3.809   1.697  12.642  0.0129  0.8064 -0.1330
  577TMC3    O1 8565   3.547   1.757  12.249  0.3133  0.0966 -0.1499
  577TMC3    O2 8566   3.767   1.612  12.717  0.3757 -0.1893  0.5720
  578MPD2     C 8567   0.227   1.782   0.841 -0.1287 -1.1724  0.2754
  578MPD2    C1 8568   0.290   1.680   0.910 -0.0948 -0.7430 -0.2151
  578MPD2    C2 8569   0.424   1.700   0.949 -0.3022 -0.5608 -0.4645
  578MPD2    C3 8570   0.493   1.812   0.908  0.2091 -0.5161 -0.0658
  578MPD2    C4 8571   0.429   1.922   0.860  0.5756 -0.2085  0.0473
  578MPD2    C5 8572   0.294   1.901   0.825 -0.0591 -0.2320 -0.4405
  578MPD2     H 8573   0.483   1.615   0.982 -0.1645 -0.4240 -0.3629
  578MPD2    H1 8574   0.476   2.017   0.839 -1.4845  1.1957  1.7171
  578MPD2    H2 8575   0.128   1.773   0.798  0.4810 -1.0401 -1.1649
  578MPD2    H3 8576   0.231   1.977   0.780 -0.7205 -0.4051  0.1967
  578MPD2     N 8577   0.629   1.805   0.912  0.7422 -0.0512 -0.4232
  578MPD2    H5 8578   0.669   1.735   0.974 -2.7722 -0.8646  0.9146
  578MPD2    N1 8579   0.221   1.563   0.941 -0.3533 -0.0923  0.2564
  578MPD2    H7 8580   0.129   1.551   0.900 -0.3752  1.5131 -0.1487
  579TMC3    C1 8581   0.848   1.870   0.910 -0.1091 -0.0206  0.4356
  579TMC3    C2 8582   0.937   1.975   0.902  0.4928 -0.2587 -0.7646
  579TMC3    C3 8583   1.063   1.958   0.950  0.1953 -0.4377  1.1221
  579TMC3    C4 8584   0.879   1.745   0.960  0.3174  0.4060 -0.1362
  579TMC3    C5 8585   1.009   1.735   1.001 -0.4969 -0.2029 -0.3386
  579TMC3    C6 8586   1.103   1.837   1.002  0.8730 -0.2508 -0.0862
  579TMC3     C 8587   0.717   1.889   0.855 -0.9489 -0.1124  0.2990
  579TMC3     O 8588   0.703   1.979   0.776  0.2745 -0.3706 -0.0585
  579TMC3     H 8589   0.904   2.066   0.854 -0.9428  0.7043  2.0166
  579TMC3    H1 8590   0.819   1.657   0.943  2.3052 -0.6238 -1.8345
  579TMC3    H2 8591   1.200   1.826   1.050  0.2420 -0.6871  1.0931
  579TMC3    C7 8592   1.054   1.603   1.059 -0.1144 -0.1486 -0.4213
  579TMC3    C8 8593   1.154   2.071   0.946 -0.7717 -0.0587 -1.0176
  579TMC3    O1 8594   1.176   1.599   1.079 -0.2546  0.7458  0.3797
  579TMC3    O2 8595   1.101   2.179   0.930 -0.4741 -0.8865 -0.3401
  580TMC3    C1 8596   1.096   1.051  12.130 -0.1277  0.3505 -0.5242
  580TMC3    C2 8597   1.091   0.997  12.002  0.8147 -0.2813 -0.4584
  580TMC3    C3 8598   1.061   0.865  11.981  0.2605  0.7341  0.1160
  580TMC3    C4 8599   1.090   0.976  12.243  0.4569 -0.0102 -0.4180
  580TMC3    C5 8600   1.056   0.843  12.215 -0.5935 -0.7368  0.5596
  580TMC3    C6 8601   1.037   0.783  12.092 -0.1552  0.2014  0.2944
  580TMC3     C 8602   1.157   1.181  12.143  0.6767  0.0826  0.0796
  580TMC3     O 8603   1.202   1.224  12.039  0.3286  1.3225  0.0916
  580TMC3     H 8604   1.100   1.066  11.918  2.4518 -1.1967 -1.0372
  580TMC3    H1 8605   1.089   1.024  12.340 -2.5477 -0.0464 -0.4373
  580TMC3    H2 8606   1.028   0.675  12.081  1.5937  0.1487 -0.7042
  580TMC3    C7 8607   1.089   0.752  12.320  0.1013  1.2673 -0.5449
  580TMC3    C8 8608   1.130   0.793  11.874  0.3499  0.3791  0.6190
  580TMC3    O1 8609   1.128   0.808  12.419  0.9610  0.0029 -0.1818
  580TMC3    O2 8610   1.127   0.672  11.870 -0.5720  0.3423  0.2704
  581MPD2     C 8611   4.417   0.932  15.420  0.2441  0.2446 -0.0863
  581MPD2    C1 8612   4.351   0.819  15.370  0.4351 -0.4387  0.7363
  581MPD2    C2 8613   4.227   0.838  15.310  0.1108 -0.1933  0.5231
  581MPD2    C3 8614   4.169   0.964  15.309 -1.3176  0.0229  0.1801
  581MPD2    C4 8615   4.237   1.071  15.365 -0.1340  0.2982  0.9200
  581MPD2    C5 8616   4.360   1.055  15.423  0.1135  0.8558  1.0048
  581MPD2     H 8617   4.169   0.762  15.260  1.2699 -1.6215  1.3602
  581MPD2    H1 8618   4.186   1.166  15.382 -0.7778 -0.2700  2.1416
  581MPD2    H2 8619   4.513   0.925  15.471 -0.6111  1.0604  1.6534
  581MPD2    H3 8620   4.402   1.140  15.476  0.5831 -0.0901  2.1449
  581MPD2     N 8621   4.048   0.996  15.245  0.4845  0.1333  0.0976
  581MPD2    H5 8622   4.012   1.091  15.251  0.4738  0.1210  0.2308
  581MPD2    N1 8623   4.415   0.690  15.386 -0.4667 -0.3584 -0.0719
  581MPD2    H7 8624   4.492   0.688  15.452  1.0698 -0.1020 -1.8586
  582TMC3    C1 8625   4.410   0.447  15.399 -0.4456 -0.3591  0.0121
  582TMC3    C2 8626   4.487   0.449  15.513  0.5303 -0.3621  0.1906
  582TMC3    C3 8627   4.476   0.344  15.596  0.3020  0.2018 -1.1163
  582TMC3    C4 8628   4.340   0.336  15.356 -0.7185 -0.3523  0.5030
  582TMC3    C5 8629   4.326   0.237  15.448 -0.2419  0.6115  0.2872
  582TMC3    C6 8630   4.382   0.246  15.571 -0.0653  0.4735  0.0460
  582TMC3     C 8631   4.351   0.568  15.347 -0.5822  0.7363 -0.0956
  582TMC3     O 8632   4.245   0.556  15.279  0.2532  0.6247 -0.4286
  582TMC3     H 8633   4.539   0.536  15.551  1.4477 -0.0098 -1.8477
  582TMC3    H1 8634   4.303   0.329  15.254 -0.8026 -1.0856  0.5868
  582TMC3    H2 8635   4.367   0.160  15.636  1.2258  1.0027  1.0621
  582TMC3    C7 8636   4.191   0.190  15.447 -0.6512  0.7892 -0.2470
  582TMC3    C8 8637   4.513   0.359  15.740 -0.6679  0.0872  0.3712
  582TMC3    O1 8638   4.159   0.085  15.497 -0.4258  0.3897 -0.3213
  582TMC3    O2 8639   4.445   0.312  15.831 -0.0780 -0.1284 -0.3181
  583MPD2     C 8640   3.867   2.170  17.036 -0.1810 -0.1819 -0.2544
  583MPD2    C1 8641   3.849   2.293  16.972  0.3951 -0.6374  0.1336
  583MPD2    C2 8642   3.777   2.388  17.039 -0.2019 -0.3650  0.0010
  583MPD2    C3 8643   3.717   2.364  17.162 -0.4338 -0.1161 -0.1922
  583MPD2    C4 8644   3.731   2.238  17.220  0.7694 -0.0308 -0.8217
  583MPD2    C5 8645   3.804   2.143  17.156 -0.3779  0.2762  0.0261
  583MPD2     H 8646   3.785   2.493  17.014  2.7268 -0.5854  0.0812
  583MPD2    H1 8647   3.679   2.209  17.310  0.2198 -1.1463 -1.4831
  583MPD2    H2 8648   3.931   2.088  17.005 -1.6987 -0.9214 -1.4537
  583MPD2    H3 8649   3.840   2.057  17.212  0.1520  1.3482  1.3279
  583MPD2     N 8650   3.644   2.465  17.221  0.2542  0.6035  0.1282
  583MPD2    H5 8651   3.652   2.558  17.181 -0.7806  0.7825  0.3191
  583MPD2    N1 8652   3.889   2.316  16.836 -0.0322  0.6967 -0.1676
  583MPD2    H7 8653   3.881   2.411  16.800  0.6060  0.8897  0.1859
  584TMC3    C1 8654   3.497   2.587  17.374 -1.0692  0.2476 -0.1053
  584TMC3    C2 8655   3.583   2.689  17.368  0.4328 -0.3425 -0.5749
  584TMC3    C3 8656   3.561   2.802  17.452 -0.4117 -0.5884  0.4516
  584TMC3    C4 8657   3.383   2.597  17.447 -0.5811  0.3987  0.9800
  584TMC3    C5 8658   3.364   2.708  17.523 -0.3811  0.3445  0.3613
  584TMC3    C6 8659   3.454   2.808  17.532 -0.2541 -0.4671  0.5961
  584TMC3     C 8660   3.550   2.456  17.330 -0.8206 -0.5813  0.3782
  584TMC3     O 8661   3.501   2.355  17.371  0.0748 -0.8677 -0.3484
  584TMC3     H 8662   3.679   2.677  17.319  0.1567 -0.8579 -0.9831
  584TMC3    H1 8663   3.306   2.521  17.453  0.3291 -0.6585 -0.6819
  584TMC3    H2 8664   3.466   2.883  17.610 -2.4410  0.5374 -0.0306
  584TMC3    C7 8665   3.272   2.703  17.633 -0.9159  0.3850  1.1515
  584TMC3    C8 8666   3.676   2.897  17.471  0.1082  0.0481 -0.1167
  584TMC3    O1 8667   3.239   2.598  17.678 -0.1952 -0.2632  0.3894
  584TMC3    O2 8668   3.692   2.951  17.580 -0.3320 -0.4746 -0.7576
  585MPD2     C 8669   3.105   1.188   0.892  0.3761 -0.2044  0.3225
  585MPD2    C1 8670   3.180   1.235   0.787 -0.1281 -0.6483 -0.0851
  585MPD2    C2 8671   3.279   1.160   0.726  0.3036 -0.2922  0.1566
  585MPD2    C3 8672   3.278   1.023   0.754 -0.4786 -0.2422  0.6822
  585MPD2    C4 8673   3.196   0.973   0.854  0.1434 -0.5079  0.2133
  585MPD2    C5 8674   3.114   1.055   0.915 -0.0405 -0.1356  0.2561
  585MPD2     H 8675   3.341   1.204   0.650 -0.3517 -0.0505 -0.2406
  585MPD2    H1 8676   3.181   0.868   0.877 -2.0521 -0.4674 -0.9940
  585MPD2    H2 8677   3.039   1.253   0.948  3.0281  2.2008  0.6207
  585MPD2    H3 8678   3.060   1.012   0.998 -1.0241  0.9482  0.1822
  585MPD2     N 8679   3.340   0.935   0.668 -0.5088 -0.2082 -0.5086
  585MPD2    H5 8680   3.304   0.841   0.670  0.7020 -0.6978 -1.5202
  585MPD2    N1 8681   3.154   1.364   0.741  0.8397  0.0184  0.3233
  585MPD2    H7 8682   3.223   1.408   0.681 -0.3448  1.0594 -0.2685
  586TMC3    C1 8683   3.404   0.900   0.447  0.0468 -0.4348 -0.2104
  586TMC3    C2 8684   3.510   0.857   0.377 -0.6906 -0.2838 -0.5998
  586TMC3    C3 8685   3.492   0.811   0.248 -0.1510  0.4916 -0.2115
  586TMC3    C4 8686   3.282   0.917   0.385 -0.7274 -0.4086  0.4303
  586TMC3    C5 8687   3.272   0.871   0.255 -0.1838 -0.0983  0.2675
  586TMC3    C6 8688   3.373   0.815   0.194  0.3681 -0.1928  0.1646
  586TMC3     C 8689   3.423   0.979   0.565  0.0674 -0.1918 -0.0737
  586TMC3     O 8690   3.518   1.059   0.566  0.2867  0.1882 -0.0221
  586TMC3     H 8691   3.606   0.840   0.424 -0.6677  3.5025  0.6891
  586TMC3    H1 8692   3.195   0.958   0.435 -0.3215 -0.5916  1.2732
  586TMC3    H2 8693   3.367   0.761   0.100 -0.0857  1.4137 -0.7328
  586TMC3    C7 8694   3.139   0.868   0.191  0.0258 -0.2523  0.8146
  586TMC3    C8 8695   3.596   0.738   0.191  0.6778 -0.3894 -0.9361
  586TMC3    O1 8696   3.056   0.913   0.269  0.1888  0.2066 -0.1825
  586TMC3    O2 8697   3.670   0.674   0.262 -0.3165  0.0634  0.6317
  587TMC3    C1 8698   1.085   4.676  16.947 -0.2108  0.7403 -0.3736
  587TMC3    C2 8699   1.101   0.057  16.874 -0.0774  0.2829  0.0350
  587TMC3    C3 8700   1.117   0.183  16.931 -0.4640 -0.3420  0.2648
  587TMC3    C4 8701   1.090   4.688  17.077 -0.2366  0.6709 -0.4130
  587TMC3    C5 8702   1.093   0.082  17.138 -0.0744  0.7242 -0.5876
  587TMC3    C6 8703   1.107   0.200  17.067 -0.3407 -0.9958  0.2715
  587TMC3     C 8704   0.997   4.575  16.889 -0.2273  0.3237 -0.6033
  587TMC3     O 8705   1.041   4.487  16.816  0.2355 -0.4054 -0.4362
  587TMC3     H 8706   1.105   0.056  16.765 -2.3514  0.5324 -0.0603
  587TMC3    H1 8707   1.091   4.594  17.132 -2.4496  0.0343 -1.4709
  587TMC3    H2 8708   1.133   0.297  17.108 -1.8681  0.4859 -2.2505
  587TMC3    C7 8709   1.105   0.083  17.284  0.6024  0.5513  0.0864
  587TMC3    C8 8710   1.111   0.290  16.833  1.2167  0.5182 -0.5410
  587TMC3    O1 8711   1.119   4.702  17.344 -0.0115  0.1838 -0.2135
  587TMC3    O2 8712   1.166   0.282  16.725 -0.4979 -0.3281 -0.0536
  588TMC3    C1 8713   2.700   2.518   9.798  0.2204 -0.4467 -0.3084
  588TMC3    C2 8714   2.650   2.391   9.811 -0.7110 -0.0419 -0.2399
  588TMC3    C3 8715   2.674   2.325   9.927 -0.3488 -0.3617 -0.6470
  588TMC3    C4 8716   2.785   2.567   9.896  0.8598  0.2305 -0.3211
  588TMC3    C5 8717   2.802   2.493  10.007 -0.8049  0.2472  0.1400
  588TMC3    C6 8718   2.757   2.368  10.033  0.1729 -0.1395  0.5968
  588TMC3     C 8719   2.625   2.613   9.721  1.0885  0.5212  0.4442
  588TMC3     O 8720   2.527   2.579   9.653  0.4001  0.3547 -0.4197
  588TMC3     H 8721   2.579   2.351   9.739  0.5883  0.4705 -1.8060
  588TMC3    H1 8722   2.844   2.657   9.884  1.8567 -0.6511 -1.9577
  588TMC3    H2 8723   2.762   2.314  10.127  1.5842 -2.9838 -1.1192
  588TMC3    C7 8724   2.871   2.563  10.113  0.6848 -0.2007  0.6403
  588TMC3    C8 8725   2.668   2.186   9.914 -0.0930  0.4977  0.1029
  588TMC3    O1 8726   2.952   2.498  10.181 -0.0454 -0.3868 -0.0561
  588TMC3    O2 8727   2.583   2.141   9.840  0.3551  0.6247 -0.3239
  589TMC3    C1 8728   1.357   4.303   1.246 -0.3590  0.0288 -0.4048
  589TMC3    C2 8729   1.450   4.401   1.251 -0.6276 -0.1050 -0.0995
  589TMC3    C3 8730   1.580   4.370   1.255 -0.3017 -0.0745 -0.4206
  589TMC3    C4 8731   1.390   4.182   1.213 -0.2870  0.3504 -0.0655
  589TMC3    C5 8732   1.522   4.150   1.211  0.3044  0.5874  0.3591
  589TMC3    C6 8733   1.618   4.239   1.239  0.0621  0.3981  0.2957
  589TMC3     C 8734   1.217   4.341   1.264  0.1757 -0.2349  0.1576
  589TMC3     O 8735   1.133   4.269   1.211  0.4185 -0.5755 -0.3003
  589TMC3     H 8736   1.423   4.501   1.283  1.0223  0.0920  0.6810
  589TMC3    H1 8737   1.313   4.108   1.194 -0.0875 -0.2826  1.6548
  589TMC3    H2 8738   1.721   4.209   1.255 -0.1249  0.4554  1.5918
  589TMC3    C7 8739   1.557   4.015   1.188  0.0960  0.1723 -0.7112
  589TMC3    C8 8740   1.679   4.484   1.265 -0.5143 -0.0263 -0.1371
  589TMC3    O1 8741   1.477   3.932   1.226 -0.0061  0.7209  0.2619
  589TMC3    O2 8742   1.629   4.587   1.300 -0.2512  0.0555 -0.2524
  590MPD2     C 8743   1.686   3.133  16.658 -0.6221 -0.5313  0.0181
  590MPD2    C1 8744   1.654   3.264  16.671 -0.4067 -0.1255  0.3632
  590MPD2    C2 8745   1.761   3.354  16.682 -0.2789  0.6408  0.4202
  590MPD2    C3 8746   1.889   3.310  16.664  0.0213 -0.9989  0.1108
  590MPD2    C4 8747   1.917   3.173  16.654  0.1780 -0.4258  0.3770
  590MPD2    C5 8748   1.812   3.083  16.645  0.2107  0.3265  0.7576
  590MPD2     H 8749   1.749   3.461  16.688 -2.6924  0.3187  1.1902
  590MPD2    H1 8750   2.013   3.126  16.633  0.5623  0.7580 -0.5253
  590MPD2    H2 8751   1.607   3.059  16.661 -0.9997 -0.1075  0.5489
  590MPD2    H3 8752   1.821   2.975  16.646  1.4066  0.4205 -1.0424
  590MPD2     N 8753   1.992   3.407  16.653  0.3190 -0.1584 -0.1357
  590MPD2    H5 8754   1.956   3.501  16.649 -0.9000 -0.5973  0.4985
  590MPD2    N1 8755   1.518   3.299  16.679  0.5840  0.4639 -0.0684
  590MPD2    H7 8756   1.451   3.223  16.666 -0.9544  1.1164  4.0861
  591TMC3    C1 8757   2.144   3.469  16.500  0.1623 -0.5472 -0.4054
  591TMC3    C2 8758   2.236   3.415  16.422 -0.0564 -0.1064 -0.1331
  591TMC3    C3 8759   2.254   3.455  16.290  0.6742 -0.1912  0.7836
  591TMC3    C4 8760   2.055   3.554  16.451 -0.0433  0.5170 -0.5860
  591TMC3    C5 8761   2.080   3.605  16.324 -0.7233 -0.0831 -0.3922
  591TMC3    C6 8762   2.177   3.551  16.237 -0.1923  0.0285  0.5328
  591TMC3     C 8763   2.117   3.380  16.612 -0.1331  0.0700  0.2145
  591TMC3     O 8764   2.184   3.280  16.625  0.0962 -0.1980  0.1937
  591TMC3     H 8765   2.301   3.332  16.447  0.3411  0.2984  0.1762
  591TMC3    H1 8766   1.984   3.608  16.511  1.6650 -0.4824  2.3168
  591TMC3    H2 8767   2.198   3.588  16.138 -1.4010 -0.1913  0.1981
  591TMC3    C7 8768   2.005   3.718  16.288 -0.0528  0.8291 -0.0820
  591TMC3    C8 8769   2.348   3.377  16.211 -0.3434 -0.4370  0.7999
  591TMC3    O1 8770   1.900   3.736  16.351 -0.1331  0.1354  0.4055
  591TMC3    O2 8771   2.378   3.264  16.243  0.3968  0.8574 -0.2233
  592MPD2     C 8772   2.263   0.831  11.596  0.0619  0.7591 -0.6603
  592MPD2    C1 8773   2.271   0.892  11.718  0.4720 -0.0810 -0.6763
  592MPD2    C2 8774   2.196   0.843  11.827 -0.0532 -0.6459 -0.0458
  592MPD2    C3 8775   2.109   0.745  11.810 -0.1848  0.2571 -0.1191
  592MPD2    C4 8776   2.096   0.687  11.683 -0.5754 -0.2342  0.7388
  592MPD2    C5 8777   2.168   0.735  11.578 -1.3119 -0.0218  0.0560
  592MPD2     H 8778   2.203   0.887  11.926 -0.0183  1.6920 -1.0873
  592MPD2    H1 8779   2.028   0.608  11.654 -0.3316 -0.5382  1.0008
  592MPD2    H2 8780   2.315   0.885  11.518  0.7523  0.5673 -0.3322
  592MPD2    H3 8781   2.140   0.701  11.479 -0.1889  2.5330 -1.1517
  592MPD2     N 8782   2.038   0.695  11.921  0.0235  0.6527  0.4747
  592MPD2    H5 8783   2.056   0.745  12.008  1.0276  1.2592 -0.0812
  592MPD2    N1 8784   2.387   0.966  11.731  0.2641  0.7343  0.0658
  592MPD2    H7 8785   2.445   0.966  11.648  0.9658 -0.6152  0.5537
  593TMC3    C1 8786   2.546   1.113  11.839 -0.4049 -0.6549  0.8292
  593TMC3    C2 8787   2.570   1.216  11.921  0.5116 -0.3755 -0.1139
  593TMC3    C3 8788   2.696   1.275  11.929 -0.3877 -0.4148 -0.4213
  593TMC3    C4 8789   2.644   1.068  11.750 -0.0530 -0.6600 -0.0047
  593TMC3    C5 8790   2.770   1.117  11.770 -0.5593  0.5623 -0.7258
  593TMC3    C6 8791   2.797   1.222  11.854 -0.2529  0.3479 -0.3189
  593TMC3     C 8792   2.413   1.053  11.841  0.2364 -0.2636 -0.3699
  593TMC3     O 8793   2.338   1.080  11.934  0.0849 -0.0429 -0.7361
  593TMC3     H 8794   2.503   1.251  11.999 -0.5468  1.0886 -1.7108
  593TMC3    H1 8795   2.622   0.985  11.684 -1.0267 -0.6936  0.3566
  593TMC3    H2 8796   2.896   1.265  11.860 -0.7413  1.4128 -0.0213
  593TMC3    C7 8797   2.875   1.104  11.671  0.5135  0.4012 -0.6004
  593TMC3    C8 8798   2.721   1.389  12.012 -0.2503 -0.1277 -0.0956
  593TMC3    O1 8799   2.962   1.193  11.668  0.2041  0.1552 -0.1457
  593TMC3    O2 8800   2.633   1.471  12.024 -0.0514  0.0467 -0.8685
  594MPD2     C 8801   0.981   3.641  14.395 -0.6616  0.7736  0.4961
  594MPD2    C1 8802   0.948   3.714  14.507  0.4294 -0.4503  0.3946
  594MPD2    C2 8803   0.963   3.853  14.500 -0.1637 -0.1467 -0.7210
  594MPD2    C3 8804   1.014   3.918  14.385 -0.5644 -0.9641  0.3961
  594MPD2    C4 8805   1.050   3.836  14.279  0.1851  0.8427 -0.0276
  594MPD2    C5 8806   1.016   3.704  14.276 -0.3367 -0.5652  0.4887
  594MPD2     H 8807   0.947   3.916  14.587 -2.0296 -0.6483 -0.7128
  594MPD2    H1 8808   1.080   3.884  14.187 -2.8744  1.3845 -0.7386
  594MPD2    H2 8809   0.943   3.541  14.381 -0.5429  0.8740 -0.5785
  594MPD2    H3 8810   1.026   3.657  14.179 -0.2969 -0.4847  0.4538
  594MPD2     N 8811   1.040   4.059  14.374 -0.2657 -0.3352  0.2959
  594MPD2    H5 8812   1.004   4.115  14.450 -1.2442  1.6375 -1.6088
  594MPD2    N1 8813   0.909   3.655  14.628  0.3653  0.4131 -0.6619
  594MPD2    H7 8814   0.871   3.715  14.701  0.1098  2.4103 -2.4317
  595TMC3    C1 8815   1.320   4.400  14.316 -0.1168 -0.3659  0.8752
  595TMC3    C2 8816   1.250   4.303  14.250  0.4937 -0.5132 -0.5019
  595TMC3    C3 8817   1.126   4.268  14.302  0.3785 -0.3365  0.5196
  595TMC3    C4 8818   1.281   4.455  14.434  0.3088  0.6113  0.7398
  595TMC3    C5 8819   1.157   4.424  14.472 -0.2512 -0.0865 -0.0853
  595TMC3    C6 8820   1.075   4.330  14.419  0.4366 -0.0424 -0.5938
  595TMC3     C 8821   1.461   4.390  14.321 -0.1437  0.3271 -0.0015
  595TMC3     O 8822   1.529   4.462  14.392  0.4213  0.3598 -0.4994
  595TMC3     H 8823   1.272   4.270  14.149  1.3848 -1.2450 -0.0663
  595TMC3    H1 8824   1.349   4.520  14.488  0.2892  0.2125  1.2407
  595TMC3    H2 8825   0.977   4.312  14.461  1.1350 -0.6442  0.8064
  595TMC3    C7 8826   1.109   4.503  14.592  0.3664 -0.0587 -0.5395
  595TMC3    C8 8827   1.097   4.130  14.264  1.7248  0.8332 -0.2737
  595TMC3    O1 8828   1.018   4.578  14.568  0.2914 -0.5290  0.4927
  595TMC3    O2 8829   1.164   4.083  14.169  0.4069  0.1355  0.1375
  596MPD2     C 8830   0.174   2.042  17.081  0.1234  0.1639  0.2402
  596MPD2    C1 8831   0.189   2.171  17.040 -0.2416  0.1274 -0.4013
  596MPD2    C2 8832   0.187   2.200  16.904 -0.2054 -0.4405 -0.8379
  596MPD2    C3 8833   0.159   2.108  16.809  0.1251 -0.1331  0.7567
  596MPD2    C4 8834   0.137   1.975  16.851  0.1344  0.0462  0.9555
  596MPD2    C5 8835   0.143   1.942  16.987 -0.2265  0.0639  0.5312
  596MPD2     H 8836   0.213   2.303  16.885 -0.1741 -0.6120 -1.6943
  596MPD2    H1 8837   0.119   1.893  16.783  0.7561  1.5821 -1.0611
  596MPD2    H2 8838   0.184   2.026  17.188 -0.4342  1.7894  0.5384
  596MPD2    H3 8839   0.130   1.839  17.019  0.8805  0.3839  2.0330
  596MPD2     N 8840   0.163   2.133  16.679 -0.2854 -0.1194  0.1048
  596MPD2    H5 8841   0.143   2.051  16.622  1.0834 -0.3566 -0.0392
  596MPD2    N1 8842   0.205   2.281  17.130  0.0856  0.2172  0.4426
  596MPD2    H7 8843   0.244   2.368  17.094  0.9834 -0.8329 -1.1139
  597TMC3    C1 8844   0.163   2.416  17.315 -0.1370  0.1312  0.2354
  597TMC3    C2 8845   0.226   2.518  17.245  0.2653  0.1394 -0.3489
  597TMC3    C3 8846   0.187   2.651  17.256 -0.2029  0.5218 -0.4441
  597TMC3    C4 8847   0.042   2.444  17.374  0.3854  0.5274  1.1733
  597TMC3    C5 8848   0.006   2.578  17.379  0.3323 -0.2967 -0.2677
  597TMC3    C6 8849   0.087   2.680  17.336 -0.1092 -0.4948 -0.1099
  597TMC3     C 8850   0.169   2.281  17.262  0.1069 -0.3505 -0.4226
  597TMC3     O 8851   0.127   2.195  17.332  0.2379 -0.1658  0.2438
  597TMC3     H 8852   0.322   2.512  17.197 -1.3983 -0.0851 -3.6172
  597TMC3    H1 8853   4.707   2.359  17.406 -1.2626  1.1177 -0.4126
  597TMC3    H2 8854   0.040   2.777  17.323  1.9115  0.6190  0.9190
  597TMC3    C7 8855   4.618   2.602  17.458 -0.2089  0.6489 -0.6683
  597TMC3    C8 8856   0.274   2.754  17.198  0.7253 -0.1402  0.2555
  597TMC3    O1 8857   4.532   2.519  17.463  0.0849  0.0226  0.3588
  597TMC3    O2 8858   0.337   2.721  17.096  0.2556  0.2150  0.2429
  598TMC3    C1 8859   3.253   3.740  15.053  0.1762  0.6678 -0.5492
  598TMC3    C2 8860   3.285   3.620  14.998 -0.2370 -0.0549 -0.2023
  598TMC3    C3 8861   3.307   3.625  14.861 -0.3216  0.3946 -0.1627
  598TMC3    C4 8862   3.253   3.864  14.986  0.3172  0.2761  0.1056
  598TMC3    C5 8863   3.291   3.862  14.857 -0.5229 -0.1756 -0.0081
  598TMC3    C6 8864   3.307   3.743  14.795 -0.2457 -0.7698  0.0349
  598TMC3     C 8865   3.207   3.727  15.186  0.2455  0.2873 -0.0310
  598TMC3     O 8866   3.168   3.621  15.229  0.3651 -0.6481  0.1871
  598TMC3     H 8867   3.268   3.527  15.050 -1.7802 -0.5958 -1.6679
  598TMC3    H1 8868   3.215   3.952  15.037  0.1227  1.6565 -2.4136
  598TMC3    H2 8869   3.347   3.740  14.694  0.3382  2.5371  0.1683
  598TMC3    C7 8870   3.254   3.968  14.764  0.2590  0.4826  0.3804
  598TMC3    C8 8871   3.286   3.503  14.791  0.5664  0.6428  0.8997
  598TMC3    O1 8872   3.220   3.933  14.650  0.0037 -0.4587  0.3895
  598TMC3    O2 8873   3.299   3.404  14.859  0.4325 -0.7726 -0.0148
  599MPD2     C 8874   3.471   1.543  16.374  0.8583  0.9105  0.4347
  599MPD2    C1 8875   3.390   1.444  16.325  0.3740 -0.0765  0.1524
  599MPD2    C2 8876   3.252   1.462  16.322 -0.0549 -0.3297 -0.6493
  599MPD2    C3 8877   3.198   1.588  16.367  0.0953 -0.1385 -0.0799
  599MPD2    C4 8878   3.280   1.685  16.418 -0.4458 -0.0233  0.0137
  599MPD2    C5 8879   3.420   1.658  16.415 -0.3070 -0.7587  0.8082
  599MPD2     H 8880   3.186   1.382  16.293 -0.5550  0.2001 -0.9866
  599MPD2    H1 8881   3.251   1.780  16.460 -0.8373  0.1311 -0.6127
  599MPD2    H2 8882   3.579   1.544  16.375  0.8701 -0.9682  0.0715
  599MPD2    H3 8883   3.495   1.726  16.454  0.7961 -1.4247 -0.1608
  599MPD2     N 8884   3.058   1.617  16.362 -0.2289  0.1038 -0.1233
  599MPD2    H5 8885   3.027   1.704  16.404  1.6462  1.3210 -1.2332
  599MPD2    N1 8886   3.462   1.320  16.291  0.2572  0.3302 -0.3499
  599MPD2    H7 8887   3.561   1.317  16.313  0.9828  2.8399 -3.3919
  600TMC3    C1 8888   2.828   1.592  16.337  0.2580  0.6567 -0.0784
  600TMC3    C2 8889   2.737   1.495  16.363  0.1999  0.1501 -0.0296
  600TMC3    C3 8890   2.620   1.532  16.431  0.2849 -0.3200 -0.6266
  600TMC3    C4 8891   2.804   1.719  16.366  0.0848 -0.4674 -0.3914
  600TMC3    C5 8892   2.689   1.754  16.434  0.8212 -0.1344 -0.0273
  600TMC3    C6 8893   2.602   1.660  16.468  0.1307  0.9719 -0.7234
  600TMC3     C 8894   2.963   1.533  16.319  0.4559  0.6206 -0.2995
  600TMC3     O 8895   2.962   1.414  16.287 -0.5595 -0.0982 -0.5046
  600TMC3     H 8896   2.751   1.389  16.345 -0.7828  0.0148  0.0232
  600TMC3    H1 8897   2.878   1.794  16.340 -0.1137 -0.8640 -2.0903
  600TMC3    H2 8898   2.503   1.694  16.497 -0.7575 -1.4857 -0.8635
  600TMC3    C7 8899   2.652   1.888  16.463  0.0272 -0.9312 -0.6792
  600TMC3    C8 8900   2.509   1.441  16.447  0.0433 -0.2366  0.5420
  600TMC3    O1 8901   2.534   1.902  16.501 -0.3221  0.1662  0.3538
  600TMC3    O2 8902   2.430   1.476  16.532  0.3428 -0.4585  0.9360
  601MPD2     C 8903   0.048   4.254   0.861  0.1408 -0.4583  1.1442
  601MPD2    C1 8904   0.059   4.244   0.720 -0.2039 -0.2254 -0.6202
  601MPD2    C2 8905   0.098   4.126   0.666  0.4961 -0.2754  0.2886
  601MPD2    C3 8906   0.138   4.014   0.745  0.3236  0.3617  0.4798
  601MPD2    C4 8907   0.122   4.025   0.881 -0.0445  0.5374  0.5056
  601MPD2    C5 8908   0.081   4.145   0.936 -0.6135  0.1614  0.4136
  601MPD2     H 8909   0.098   4.115   0.558  2.1409 -2.0718  0.4652
  601MPD2    H1 8910   0.127   3.946   0.956 -3.2581  1.7702  2.0097
  601MPD2    H2 8911   0.017   4.344   0.913  0.4549 -0.5595  1.5126
  601MPD2    H3 8912   0.076   4.146   1.044  3.2716  2.5391  0.5718
  601MPD2     N 8913   0.191   3.895   0.691 -0.7499  0.9258 -0.2892
  601MPD2    H5 8914   0.201   3.827   0.766  1.4420  0.2211 -1.2205
  601MPD2    N1 8915   0.026   4.354   0.636 -0.0292  0.2345  0.0230
  601MPD2    H7 8916   0.021   4.340   0.536 -0.2001 -1.3969  0.2591
  602TMC3    C1 8917   0.011   4.566   0.557 -0.2873  0.5840 -0.3628
  602TMC3    C2 8918   0.124   4.636   0.519 -0.0797  0.2833 -0.0052
  602TMC3    C3 8919   0.139   4.669   0.388 -0.3160  0.9770 -0.8906
  602TMC3    C4 8920   4.632   4.522   0.478  0.5798  0.2496  0.9716
  602TMC3    C5 8921   4.648   4.561   0.349 -0.2399  0.7655  0.2204
  602TMC3    C6 8922   0.036   4.635   0.303 -0.2378 -0.8170  0.2615
  602TMC3     C 8923   0.032   4.482   0.677 -0.0985 -0.1331 -0.6052
  602TMC3     O 8924   0.065   4.530   0.788  0.0755 -0.5815  0.4057
  602TMC3     H 8925   0.202   4.657   0.591 -1.2982 -1.3412  1.7610
  602TMC3    H1 8926   4.547   4.468   0.517  0.5000  0.5549  1.2157
  602TMC3    H2 8927   0.045   4.644   0.196 -1.3299 -0.4495  0.2025
  602TMC3    C7 8928   4.547   4.524   0.262 -0.1645  0.0431  0.2834
  602TMC3    C8 8929   0.242   0.029   0.335 -0.7821 -0.4837  0.4283
  602TMC3    O1 8930   4.497   4.413   0.274 -0.0305  0.2807  0.6131
  602TMC3    O2 8931   0.359   0.025   0.377 -0.0817 -0.3578 -0.0237
  603TMC3    C1 8932   3.464   4.587  11.115 -0.4989  0.9433  0.4000
  603TMC3    C2 8933   3.413   4.599  11.244  0.4991  0.0128  0.3747
  603TMC3    C3 8934   3.370   4.485  11.300  0.6675 -0.1990 -0.1573
  603TMC3    C4 8935   3.465   4.466  11.052  0.3888  0.2037 -0.6115
  603TMC3    C5 8936   3.406   4.361  11.112 -0.3279 -0.1751 -0.0806
  603TMC3    C6 8937   3.369   4.363  11.241 -0.4899 -0.3213 -0.1182
  603TMC3     C 8938   3.515   4.705  11.046 -0.3120  0.1357 -0.1210
  603TMC3     O 8939   3.527   4.692  10.925  0.1900  0.6935  0.4417
  603TMC3     H 8940   3.430   4.685  11.308 -0.8246  2.1347 -2.1432
  603TMC3    H1 8941   3.493   4.460  10.947  2.4759  1.8606 -0.1423
  603TMC3    H2 8942   3.343   4.276  11.300  0.8522 -0.0806  0.8515
  603TMC3    C7 8943   3.414   4.235  11.042  1.0640  0.2974  0.0467
  603TMC3    C8 8944   3.304   4.504  11.423  0.0838  0.1896 -0.5107
  603TMC3    O1 8945   3.427   4.133  11.105 -0.3226 -0.0133 -0.0372
  603TMC3    O2 8946   3.296   4.413  11.504 -0.2377 -0.1239 -0.4585
  604MPD2     C 8947   3.652   3.268  16.503  0.1121  0.4805 -0.8286
  604MPD2    C1 8948   3.651   3.391  16.455  0.1436  0.1078  0.2262
  604MPD2    C2 8949   3.720   3.418  16.335 -0.1206  0.0303 -0.4065
  604MPD2    C3 8950   3.783   3.320  16.264 -0.6139 -0.1151 -0.0663
  604MPD2    C4 8951   3.777   3.189  16.306  0.3590  0.4741  0.7591
  604MPD2    C5 8952   3.711   3.165  16.426 -0.2663  1.1150  0.6377
  604MPD2     H 8953   3.707   3.516  16.291 -1.0089 -1.2357 -2.9248
  604MPD2    H1 8954   3.824   3.104  16.258 -2.0153 -0.6775  0.4861
  604MPD2    H2 8955   3.601   3.235  16.592 -1.4489  1.9044 -1.2023
  604MPD2    H3 8956   3.698   3.061  16.455  1.9202  0.3331 -1.2271
  604MPD2     N 8957   3.849   3.362  16.147  0.1259  0.1699  0.0743
  604MPD2    H5 8958   3.872   3.460  16.132 -1.8289  0.9995  2.4350
  604MPD2    N1 8959   3.574   3.481  16.538  0.4590 -0.8448 -0.1153
  604MPD2    H7 8960   3.546   3.438  16.625 -0.6106 -1.5352 -0.8030
  605TMC3    C1 8961   3.482   3.687  16.606  0.4487  0.4830  0.2281
  605TMC3    C2 8962   3.538   3.681  16.729 -0.0936 -0.3526  0.5357
  605TMC3    C3 8963   3.563   3.795  16.800  0.4184  0.3401  0.2836
  605TMC3    C4 8964   3.447   3.812  16.557  0.4725 -0.0219  0.0015
  605TMC3    C5 8965   3.460   3.921  16.633  0.5869  0.9643  0.1183
  605TMC3    C6 8966   3.521   3.922  16.756 -0.1248 -0.5202  0.2576
  605TMC3     C 8967   3.537   3.606  16.502 -0.4669 -0.1173 -0.2279
  605TMC3     O 8968   3.548   3.659  16.392  0.0330  0.1288 -0.4136
  605TMC3     H 8969   3.573   3.586  16.768  0.7951 -0.3678 -0.3067
  605TMC3    H1 8970   3.405   3.819  16.458  0.1380  0.0824  0.1516
  605TMC3    H2 8971   3.544   4.014  16.808 -0.6211  0.7313 -1.7416
  605TMC3    C7 8972   3.383   4.033  16.581  0.7613  0.1401  0.5852
  605TMC3    C8 8973   3.656   3.781  16.905 -0.1373  0.3331  0.0216
  605TMC3    O1 8974   3.330   4.033  16.469 -0.6347 -0.5997 -0.8351
  605TMC3    O2 8975   3.638   3.684  16.980  0.1110 -0.3954 -0.2008
  606TMC3    C1 8976   0.498   2.014  17.065 -0.1159  0.2710 -0.3525
  606TMC3    C2 8977   0.505   2.054  17.195  0.3758  0.2363 -0.1094
  606TMC3    C3 8978   0.467   1.956  17.286  0.2602 -0.4442  0.3389
  606TMC3    C4 8979   0.461   1.886  17.023 -0.4635 -0.3328 -0.1321
  606TMC3    C5 8980   0.429   1.800  17.119  0.2555 -0.7939  0.1807
  606TMC3    C6 8981   0.422   1.834  17.253 -0.0116  0.7087 -0.3583
  606TMC3     C 8982   0.528   2.115  16.972  0.0320  0.2160 -0.2451
  606TMC3     O 8983   0.520   2.229  17.010  0.7193  0.5116 -0.1691
  606TMC3     H 8984   0.520   2.160  17.216  0.0608  0.7225 -2.3559
  606TMC3    H1 8985   0.443   1.859  16.919  0.7797  1.4859 -0.8275
  606TMC3    H2 8986   0.401   1.764  17.332  0.6740 -0.6885 -1.4162
  606TMC3    C7 8987   0.360   1.681  17.073 -0.3601  0.2031  0.6726
  606TMC3    C8 8988   0.461   2.006  17.420 -0.3974  1.3273  0.2655
  606TMC3    O1 8989   0.367   1.657  16.955  0.2526 -0.2049 -0.1383
  606TMC3    O2 8990   0.526   2.108  17.440  0.0725 -0.6715  0.2060
  607MPD2     C 8991   2.077   0.219  11.919  0.6445  0.1770 -0.6489
  607MPD2    C1 8992   2.178   0.309  11.945 -0.0581 -0.5457  0.5844
  607MPD2    C2 8993   2.208   0.339  12.077  0.9920 -0.6614 -0.3193
  607MPD2    C3 8994   2.147   0.275  12.181 -0.2703 -0.6754 -0.1336
  607MPD2    C4 8995   2.050   0.181  12.156  0.1544 -0.0787  0.3840
  607MPD2    C5 8996   2.013   0.153  12.021  0.1481  0.3158  1.2012
  607MPD2     H 8997   2.287   0.407  12.108  0.0308 -0.6730  2.1346
  607MPD2    H1 8998   2.005   0.121  12.234  0.0450 -0.1421  0.2731
  607MPD2    H2 8999   2.038   0.190  11.822 -0.1614 -0.2401 -0.2030
  607MPD2    H3 9000   1.941   0.077  11.996 -1.5397  2.0109  0.9250
  607MPD2     N 9001   2.194   0.315  12.301 -0.0027 -0.5108  0.0440
  607MPD2    H5 9002   2.252   0.397  12.296  0.5780 -0.9739 -0.7921
  607MPD2    N1 9003   2.257   0.372  11.849  0.0877  0.5172 -0.6794
  607MPD2    H7 9004   2.326   0.433  11.893  0.0818  0.5061 -0.6549
  608TMC3    C1 9005   2.358   0.461  11.662  0.0552 -0.9846 -0.4007
  608TMC3    C2 9006   2.394   0.563  11.740  0.7008 -0.2121 -0.2329
  608TMC3    C3 9007   2.494   0.643  11.688  0.1353 -0.9046  0.1229
  608TMC3    C4 9008   2.409   0.428  11.540 -0.3643 -0.7412  0.2214
  608TMC3    C5 9009   2.502   0.516  11.488 -0.0409  0.3540 -0.4980
  608TMC3    C6 9010   2.554   0.618  11.571  0.5666  0.0768  0.5384
  608TMC3     C 9011   2.261   0.362  11.713 -0.5942  0.4469  0.1689
  608TMC3     O 9012   2.205   0.282  11.637  0.5628  0.3713 -0.1894
  608TMC3     H 9013   2.337   0.594  11.827 -0.4854 -1.5326 -0.5477
  608TMC3    H1 9014   2.371   0.342  11.485 -0.7563  0.3816 -1.2665
  608TMC3    H2 9015   2.638   0.677  11.537  2.3097 -1.0792  2.8090
  608TMC3    C7 9016   2.583   0.482  11.367 -0.0413  0.5375 -0.2266
  608TMC3    C8 9017   2.575   0.707  11.786  0.7964  0.4434  0.0884
  608TMC3    O1 9018   2.688   0.542  11.353 -0.7679 -0.2470 -0.4146
  608TMC3    O2 9019   2.666   0.779  11.749 -0.3252  0.4628 -0.2696
  609TMC3    C1 9020   1.005   4.556   9.808  0.0156  0.3150 -0.7398
  609TMC3    C2 9021   1.066   4.673   9.826 -1.0595  0.6782  0.3447
  609TMC3    C3 9022   1.201   4.677   9.835  0.3823  0.1213 -0.0477
  609TMC3    C4 9023   1.069   4.438   9.804 -0.1219  0.0045  0.3890
  609TMC3    C5 9024   1.205   4.440   9.827  0.4739  0.9616 -0.3280
  609TMC3    C6 9025   1.271   4.558   9.847  0.3037  0.7634  0.3055
  609TMC3     C 9026   0.858   4.547   9.801 -0.3708  0.1134  0.0477
  609TMC3     O 9027   0.803   4.437   9.825  0.4935 -0.1194 -0.5079
  609TMC3     H 9028   1.017   0.043   9.818 -1.2354  0.5407 -0.2675
  609TMC3    H1 9029   1.014   4.345   9.802 -2.9352  1.7165 -1.3354
  609TMC3    H2 9030   1.378   4.560   9.866  0.6410  1.3908 -1.5824
  609TMC3    C7 9031   1.290   4.317   9.830  0.4290  0.5744  0.7846
  609TMC3    C8 9032   1.281   0.072   9.835  0.6965 -1.3785  0.0695
  609TMC3    O1 9033   1.401   4.323   9.883 -0.2548  0.0924 -0.3429
  609TMC3    O2 9034   1.401   0.075   9.856 -0.2493 -0.6432  0.7416
  610TMC3    C1 9035   2.857   0.124  12.951  0.2978 -0.3810 -0.2059
  610TMC3    C2 9036   2.878   0.212  12.845  0.6395  0.5419  0.3371
  610TMC3    C3 9037   2.995   0.202  12.775  0.7481  0.2171  0.5067
  610TMC3    C4 9038   2.950   0.016  12.976  0.1934  0.3373  0.1929
  610TMC3    C5 9039   3.063   0.012  12.899  0.5288  0.4864  0.2194
  610TMC3    C6 9040   3.086   0.103  12.794 -0.0240 -0.2034  0.3274
  610TMC3     C 9041   2.739   0.129  13.034  0.0172 -0.5670 -0.2882
  610TMC3     O 9042   2.728   0.032  13.108  0.1999 -0.5425 -0.0770
  610TMC3     H 9043   2.807   0.292  12.828 -0.1257 -0.3608 -0.7416
  610TMC3    H1 9044   2.939   4.684  13.067  1.8924 -1.3947 -0.7117
  610TMC3    H2 9045   3.178   0.107  12.737  0.4364 -1.7384  0.9846
  610TMC3    C7 9046   3.137   4.613  12.910 -0.0693 -0.1325  0.6278
  610TMC3    C8 9047   3.038   0.319  12.702  0.7154  0.8185 -0.9339
  610TMC3    O1 9048   3.102   4.529  12.992  0.1936 -0.1376  0.9079
  610TMC3    O2 9049   3.159   0.328  12.690 -0.1637 -0.2371 -0.3647
  611MPD2     C 9050   2.565   3.859  10.679 -0.4188  0.2169  1.1993
  611MPD2    C1 9051   2.557   3.989  10.636 -0.2479  0.7907  0.2872
  611MPD2    C2 9052   2.598   4.019  10.507  0.1973 -0.5782  0.6108
  611MPD2    C3 9053   2.676   3.922  10.445 -0.2603  0.0193 -0.3645
  611MPD2    C4 9054   2.680   3.794  10.481 -0.2834  0.6581 -0.3363
  611MPD2    C5 9055   2.619   3.760  10.596 -0.0049 -0.5012 -0.3582
  611MPD2     H 9056   2.596   4.114  10.455  1.2570 -0.7290  0.3077
  611MPD2    H1 9057   2.745   3.717  10.441  0.0701  1.1995 -0.8033
  611MPD2    H2 9058   2.554   3.831  10.783 -0.5696  2.6862  1.8504
  611MPD2    H3 9059   2.642   3.657  10.620  0.6672 -0.2352  0.1457
  611MPD2     N 9060   2.757   3.952  10.332  0.2793  0.0993  0.4123
  611MPD2    H5 9061   2.793   3.867  10.288 -0.1497 -0.0060  0.2703
  611MPD2    N1 9062   2.498   4.083  10.720 -0.1032  0.0795 -0.4530
  611MPD2    H7 9063   2.457   4.048  10.806  1.2464  1.3661  0.7110
  612TMC3    C1 9064   2.936   4.049  10.223  0.2028 -0.4511 -0.8018
  612TMC3    C2 9065   3.030   4.041  10.320 -0.2621 -0.3369 -0.3099
  612TMC3    C3 9066   3.150   3.982  10.287  0.3036  0.3799  0.9584
  612TMC3    C4 9067   2.935   3.970  10.112 -0.0744  0.0127  0.6272
  612TMC3    C5 9068   3.052   3.905  10.085  0.2312 -0.2416  0.4951
  612TMC3    C6 9069   3.164   3.919  10.167  0.6381  0.0076 -0.1624
  612TMC3     C 9070   2.814   4.073  10.298 -0.3332  0.1441  0.5075
  612TMC3     O 9071   2.788   4.185  10.341 -0.2399 -0.2403  0.0375
  612TMC3     H 9072   3.021   4.101  10.410 -0.4744 -1.8444  0.6711
  612TMC3    H1 9073   2.842   3.958  10.057  2.0612  0.5019 -3.1280
  612TMC3    H2 9074   3.250   3.857  10.146 -0.4123 -2.1238  1.9966
  612TMC3    C7 9075   3.063   3.810   9.975  0.1943 -0.0695 -0.7021
  612TMC3    C8 9076   3.254   3.950  10.385 -0.4814  0.5063 -0.4070
  612TMC3    O1 9077   3.152   3.725   9.986  0.0750 -0.0850  0.6745
  612TMC3    O2 9078   3.323   3.855  10.355  0.0497  0.1338 -0.1944
  613MPD2     C 9079   1.845   3.647  15.925 -0.6867 -0.4302 -0.2801
  613MPD2    C1 9080   1.800   3.527  15.973 -0.5781  0.4418  0.4672
  613MPD2    C2 9081   1.889   3.419  15.986 -0.3332  0.6237 -0.8650
  613MPD2    C3 9082   2.007   3.429  15.924  0.0585  0.3577  0.4345
  613MPD2    C4 9083   2.048   3.544  15.860 -1.2732  0.2408 -0.0191
  613MPD2    C5 9084   1.967   3.655  15.868  0.3962 -0.1693  0.0335
  613MPD2     H 9085   1.851   3.326  16.027 -1.4073  1.6775  0.5324
  613MPD2    H1 9086   2.145   3.547  15.811 -0.4644 -2.1062  1.4286
  613MPD2    H2 9087   1.782   3.735  15.919 -0.6316 -0.4955 -1.7152
  613MPD2    H3 9088   2.011   3.747  15.833 -0.3508  0.7192  1.4679
  613MPD2     N 9089   2.097   3.321  15.921  0.7864  0.6099 -0.1031
  613MPD2    H5 9090   2.168   3.327  15.848  0.7062  0.5672 -0.1831
  613MPD2    N1 9091   1.661   3.526  16.011  0.1853  0.5613 -0.3618
  613MPD2    H7 9092   1.617   3.617  16.020  0.4207  0.4404  1.8529
  614TMC3    C1 9093   1.585   3.294  15.982  0.5874  0.7569 -0.1228
  614TMC3    C2 9094   1.646   3.277  15.863 -0.2848 -0.6338  0.0276
  614TMC3    C3 9095   1.694   3.148  15.837  0.7185  0.0021 -0.5659
  614TMC3    C4 9096   1.548   3.186  16.058  0.3002 -0.2847  0.4962
  614TMC3    C5 9097   1.589   3.059  16.027 -0.1832  0.4698  0.4200
  614TMC3    C6 9098   1.665   3.041  15.915 -0.0009 -0.7870 -0.0659
  614TMC3     C 9099   1.578   3.425  16.048  0.0505  0.1148  0.6448
  614TMC3     O 9100   1.483   3.446  16.123 -0.2964 -0.1576 -0.3833
  614TMC3     H 9101   1.666   3.371  15.813 -0.5111 -1.2498 -1.2271
  614TMC3    H1 9102   1.510   3.216  16.155 -1.0145  0.0370 -0.1196
  614TMC3    H2 9103   1.706   2.944  15.889  2.3037  0.1362  0.1087
  614TMC3    C7 9104   1.489   2.962  16.062  0.1680 -1.0942  0.2428
  614TMC3    C8 9105   1.792   3.129  15.735 -0.4582 -0.1397 -0.8508
  614TMC3    O1 9106   1.420   2.986  16.164  0.7546 -0.6578 -0.8126
  614TMC3    O2 9107   1.836   3.015  15.733  0.7722  0.1866 -0.3899
  615MPD2     C 9108   1.021   3.797  16.470  0.5292 -0.8660 -0.8312
  615MPD2    C1 9109   0.908   3.789  16.540  0.4175 -0.1560  0.0751
  615MPD2    C2 9110   0.828   3.687  16.504 -0.3256 -0.0605 -0.1894
  615MPD2    C3 9111   0.853   3.598  16.404 -0.2396  0.5657  0.6276
  615MPD2    C4 9112   0.969   3.601  16.337 -0.1023 -0.4308  0.3841
  615MPD2    C5 9113   1.055   3.704  16.376 -0.3467  0.2212 -0.2811
  615MPD2     H 9114   0.733   3.685  16.556  0.7505  1.3448  1.7983
  615MPD2    H1 9115   0.999   3.538  16.255 -0.4831 -0.3152  0.1546
  615MPD2    H2 9116   1.097   3.873  16.485 -0.5991 -0.0044  0.4753
  615MPD2    H3 9117   1.143   3.722  16.315  1.4200  1.3113  2.6020
  615MPD2     N 9118   0.764   3.500  16.354  0.1529 -0.6013  0.8105
  615MPD2    H5 9119   0.805   3.444  16.280 -0.5384  0.5203 -0.4092
  615MPD2    N1 9120   0.873   3.880  16.646  0.1799  0.2189  0.4124
  615MPD2    H7 9121   0.787   3.857  16.695 -0.8386 -0.2689 -1.6098
  616TMC3    C1 9122   0.888   4.091  16.778 -0.8107  0.3362 -0.5401
  616TMC3    C2 9123   0.972   4.160  16.862  0.0563  0.6428 -0.1419
  616TMC3    C3 9124   0.925   4.215  16.975  0.0981  0.3558  0.1991
  616TMC3    C4 9125   0.751   4.091  16.806  0.1338  0.0094 -0.1853
  616TMC3    C5 9126   0.708   4.145  16.926 -0.0972  0.9984 -0.0188
  616TMC3    C6 9127   0.797   4.191  17.017 -0.2188  0.1589 -0.2023
  616TMC3     C 9128   0.949   3.993  16.688 -0.2464 -0.6410  0.0238
  616TMC3     O 9129   1.057   4.029  16.648  0.1337  0.3671 -0.2112
  616TMC3     H 9130   1.077   4.151  16.840 -0.2036 -3.5215  0.3578
  616TMC3    H1 9131   0.681   4.044  16.737  0.9179  0.4157 -1.2548
  616TMC3    H2 9132   0.764   4.234  17.111 -2.2650  1.2914 -1.4523
  616TMC3    C7 9133   0.571   4.144  16.966 -0.2851 -0.4571  0.3911
  616TMC3    C8 9134   1.012   4.283  17.074  0.1394  0.3328  0.3296
  616TMC3    O1 9135   0.548   4.197  17.070 -0.2867  0.1302 -0.2322
  616TMC3    O2 9136   0.966   4.315  17.181 -0.1889 -0.6892 -0.2611
  617MPD2     C 9137   3.595   2.048  13.897  0.1481 -0.5372  0.0996
  617MPD2    C1 9138   3.621   2.043  14.035  0.3034  0.4883 -0.1399
  617MPD2    C2 9139   3.530   2.004  14.130 -0.3444 -0.5881 -0.4742
  617MPD2    C3 9140   3.392   1.988  14.087  0.4059 -0.3594  0.4921
  617MPD2    C4 9141   3.363   2.001  13.953 -0.4259  0.0140  0.1337
  617MPD2    C5 9142   3.464   2.027  13.864 -0.0832 -0.3734 -0.0670
  617MPD2     H 9143   3.561   1.986  14.232  0.6046  0.7282 -0.5331
  617MPD2    H1 9144   3.264   1.989  13.909 -1.1527 -0.2966  1.8638
  617MPD2    H2 9145   3.674   2.071  13.827 -1.0898 -0.4160 -1.2651
  617MPD2    H3 9146   3.442   2.040  13.759  1.8036 -0.7152 -0.4914
  617MPD2     N 9147   3.288   1.946  14.175  0.2657 -0.1089 -0.2628
  617MPD2    H5 9148   3.206   1.913  14.124  0.4631 -0.4078 -0.3869
  617MPD2    N1 9149   3.755   2.066  14.071  0.3316 -0.0700 -0.4277
  617MPD2    H7 9150   3.822   2.044  13.998 -0.9885 -1.5554 -1.1902
  618TMC3    C1 9151   3.949   2.086  14.209  0.2199  0.6867  0.1765
  618TMC3    C2 9152   4.001   1.977  14.162  0.0696  0.5344  0.1825
  618TMC3    C3 9153   4.136   1.988  14.156 -0.7210  0.2676 -0.0140
  618TMC3    C4 9154   4.011   2.206  14.215 -0.5721 -0.1063 -0.5616
  618TMC3    C5 9155   4.141   2.214  14.192  0.0897 -0.3541  0.1642
  618TMC3    C6 9156   4.214   2.100  14.176  0.7903  0.0823  0.2727
  618TMC3     C 9157   3.802   2.093  14.197 -0.4213 -0.3197  0.3256
  618TMC3     O 9158   3.738   2.149  14.287 -0.3236 -0.1345  0.4341
  618TMC3     H 9159   3.938   1.893  14.136  1.3012  0.4963 -2.7008
  618TMC3    H1 9160   3.953   2.289  14.254  1.4706  0.8190  0.5235
  618TMC3    H2 9161   4.319   2.102  14.149  1.1531 -1.1326  1.6359
  618TMC3    C7 9162   4.190   2.341  14.161  0.4119  0.3343  0.2051
  618TMC3    C8 9163   4.189   1.889  14.058  0.4244 -0.9957  0.1478
  618TMC3    O1 9164   4.176   2.422  14.253 -0.3106 -0.2838  0.2419
  618TMC3    O2 9165   4.112   1.810  14.004  0.3280 -0.5481 -0.1988
  619MPD2     C 9166   0.563   3.235  13.488 -0.0965 -0.2224  0.5021
  619MPD2    C1 9167   0.457   3.276  13.563  0.4468 -0.3857 -0.0189
  619MPD2    C2 9168   0.350   3.199  13.579  0.0513  0.3495  0.5239
  619MPD2    C3 9169   0.336   3.079  13.517  0.0990  0.5399  0.0657
  619MPD2    C4 9170   0.439   3.029  13.442 -0.1399  0.0927  0.5500
  619MPD2    C5 9171   0.556   3.107  13.432 -0.0734 -0.6855 -0.1171
  619MPD2     H 9172   0.265   3.228  13.639  0.8165  0.4750  1.5602
  619MPD2    H1 9173   0.441   2.941  13.378 -0.4357 -0.9895  2.0273
  619MPD2    H2 9174   0.648   3.299  13.466  0.1485 -0.3753  0.9918
  619MPD2    H3 9175   0.617   3.080  13.347 -1.5712 -0.5842 -1.2054
  619MPD2     N 9176   0.206   3.021  13.520  0.1372 -0.3374 -0.1233
  619MPD2    H5 9177   0.131   3.077  13.559  1.1266  0.5591  0.4774
  619MPD2    N1 9178   0.443   3.405  13.613  0.0145  0.1382  0.3233
  619MPD2    H7 9179   0.367   3.427  13.676  0.3123 -0.1100  0.7668
  620TMC3    C1 9180   0.481   3.627  13.647  0.0529  0.5371  0.3283
  620TMC3    C2 9181   0.355   3.652  13.601  0.3373  0.0789  0.6797
  620TMC3    C3 9182   0.298   3.769  13.634 -0.5025 -0.6540  0.4143
  620TMC3    C4 9183   0.552   3.711  13.728 -0.1803  0.0464 -1.0493
  620TMC3    C5 9184   0.493   3.835  13.765 -0.6252  0.2080  0.1193
  620TMC3    C6 9185   0.369   3.857  13.715 -0.6105  0.1957  0.2456
  620TMC3     C 9186   0.540   3.502  13.621  0.9009  0.4007  0.0314
  620TMC3     O 9187   0.660   3.490  13.608  0.1534 -0.4691 -0.3603
  620TMC3     H 9188   0.292   3.579  13.552  1.3700 -0.8107  0.6849
  620TMC3    H1 9189   0.645   3.680  13.774 -0.1822  0.1664 -0.9638
  620TMC3    H2 9190   0.321   3.950  13.741 -1.4615  0.0431 -0.7841
  620TMC3    C7 9191   0.486   3.871  13.905 -0.8251 -0.8777 -0.1718
  620TMC3    C8 9192   0.173   3.736  13.697 -0.0501 -0.0968  0.9590
  620TMC3    O1 9193   0.426   3.792  13.981 -0.1193  0.4688 -0.8095
  620TMC3    O2 9194   0.161   3.772  13.812 -0.4594  0.3648  0.0362
  621MPD2     C 9195   0.455   3.376  10.247 -0.7803  0.3813  0.0850
  621MPD2    C1 9196   0.513   3.321  10.363  0.2105 -0.0973  0.3046
  621MPD2    C2 9197   0.604   3.402  10.427 -0.2155 -0.0164 -0.0323
  621MPD2    C3 9198   0.644   3.525  10.381 -0.1034 -0.5430 -0.7903
  621MPD2    C4 9199   0.596   3.566  10.261  0.3714  0.3510 -0.0173
  621MPD2    C5 9200   0.491   3.498  10.205 -0.2495 -0.8197  0.2083
  621MPD2     H 9201   0.648   3.366  10.519 -1.0541 -0.5837  0.1535
  621MPD2    H1 9202   0.631   3.658  10.215  2.2990  0.6144  1.9534
  621MPD2    H2 9203   0.376   3.334  10.186  1.0653  1.3712 -2.9885
  621MPD2    H3 9204   0.458   3.540  10.111 -0.0343 -0.3678  0.3357
  621MPD2     N 9205   0.746   3.588  10.458 -0.7507  0.1978  0.0099
  621MPD2    H5 9206   0.765   3.540  10.545  1.3711  2.0548  0.5725
  621MPD2    N1 9207   0.470   3.201  10.413 -0.1894  0.0186  0.4028
  621MPD2    H7 9208   0.517   3.170  10.498 -1.3636  1.1709  1.4736
  622TMC3    C1 9209   0.353   2.998  10.421  0.2349 -0.5922 -0.5187
  622TMC3    C2 9210   0.365   2.998  10.560  0.2872  0.1776 -0.5850
  622TMC3    C3 9211   0.370   2.884  10.630  0.3483 -0.2010 -0.4447
  622TMC3    C4 9212   0.339   2.875  10.358 -0.8850  0.2481  0.0892
  622TMC3    C5 9213   0.330   2.765  10.438 -0.5973  1.2545  1.0464
  622TMC3    C6 9214   0.343   2.768  10.574  0.0469 -0.0151 -0.2023
  622TMC3     C 9215   0.382   3.116  10.348 -0.0053 -0.0571  0.4872
  622TMC3     O 9216   0.339   3.119  10.233 -0.2941  0.2586 -0.2910
  622TMC3     H 9217   0.398   3.085  10.616 -2.4196  0.5019  0.5349
  622TMC3    H1 9218   0.316   2.885  10.252 -1.7380 -2.5961  0.0159
  622TMC3    H2 9219   0.328   2.681  10.638  2.5338 -1.1611 -1.1899
  622TMC3    C7 9220   0.264   2.650  10.380  1.0868 -0.2602 -0.1633
  622TMC3    C8 9221   0.328   2.884  10.766 -0.1644  0.0384  0.0293
  622TMC3    O1 9222   0.187   2.579  10.439  0.2255 -0.3220 -0.3501
  622TMC3    O2 9223   0.393   2.826  10.851  0.2531  0.3531 -0.0702
  623MPD2     C 9224   4.045   3.404  16.435  0.1505  0.3644  0.6959
  623MPD2    C1 9225   4.033   3.516  16.524 -0.8488  0.0661 -0.6135
  623MPD2    C2 9226   4.052   3.498  16.656 -0.1278 -0.5672 -0.6984
  623MPD2    C3 9227   4.071   3.376  16.716  0.4922  0.2031  0.1460
  623MPD2    C4 9228   4.072   3.269  16.629 -0.1383  0.2419  0.1138
  623MPD2    C5 9229   4.066   3.279  16.496 -0.1732 -0.3706 -1.1451
  623MPD2     H 9230   4.061   3.578  16.729 -0.2908 -0.3632 -0.9013
  623MPD2    H1 9231   4.083   3.166  16.659 -0.7720  0.0293 -0.3758
  623MPD2    H2 9232   4.039   3.413  16.327 -1.5459 -1.4879  0.6233
  623MPD2    H3 9233   4.070   3.190  16.434 -2.6585 -1.3925  0.1682
  623MPD2     N 9234   4.092   3.370  16.856  0.1266  0.2279  0.2264
  623MPD2    H5 9235   4.096   3.454  16.913 -0.3591 -0.1714  0.8494
  623MPD2    N1 9236   4.000   3.650  16.481 -0.3725 -0.2238 -0.1194
  623MPD2    H7 9237   4.001   3.721  16.553  1.8722 -1.2858  0.9170
  624TMC3    C1 9238   4.326   3.393  17.169  0.4229 -0.2086 -0.0331
  624TMC3    C2 9239   4.239   3.466  17.250  0.7914 -0.2017 -0.0872
  624TMC3    C3 9240   4.103   3.433  17.228 -0.2608  0.5287  0.2465
  624TMC3    C4 9241   4.286   3.305  17.069 -0.2545 -0.4111  0.0976
  624TMC3    C5 9242   4.154   3.270  17.060  0.1943  0.0742  0.1606
  624TMC3    C6 9243   4.069   3.338  17.138 -0.0735 -0.6850  0.1781
  624TMC3     C 9244   4.462   3.443  17.174 -0.1256  0.1933 -0.5046
  624TMC3     O 9245   4.503   3.513  17.269 -0.2448  0.0635  0.8915
  624TMC3     H 9246   4.277   3.532  17.328 -1.5853 -0.9000  1.6553
  624TMC3    H1 9247   4.359   3.239  17.023 -0.3932  0.3839 -1.2523
  624TMC3    H2 9248   3.964   3.330  17.113 -0.3385  1.6586  0.5688
  624TMC3    C7 9249   4.114   3.255  16.925  0.9973  0.2861  0.5683
  624TMC3    C8 9250   4.012   3.552  17.221 -0.2255 -1.0819  0.0822
  624TMC3    O1 9251   4.104   3.137  16.882 -0.3908 -0.2592  0.0099
  624TMC3    O2 9252   3.899   3.510  17.206  0.8516  0.9210  0.2276
  625MPD2     C 9253   3.998   0.132   0.628  0.8699  0.0069 -0.1981
  625MPD2    C1 9254   4.045   0.245   0.698 -0.3842 -0.4275  0.0984
  625MPD2    C2 9255   4.081   0.219   0.828  0.1068 -0.2080  0.6596
  625MPD2    C3 9256   4.073   0.092   0.887  0.2975 -0.1812  0.9264
  625MPD2    C4 9257   4.024   4.713   0.815  0.4613  0.4002 -0.5553
  625MPD2    C5 9258   3.980   0.012   0.689 -0.0232  0.6923 -0.8609
  625MPD2     H 9259   4.110   0.301   0.893  0.1832  0.3785 -0.1160
  625MPD2    H1 9260   4.035   4.609   0.844 -1.0941  0.9432  2.0257
  625MPD2    H2 9261   3.956   0.135   0.528  0.7010  2.4972 -0.0396
  625MPD2    H3 9262   3.924   4.661   0.638 -1.2715 -0.3667  2.1783
  625MPD2     N 9263   4.136   0.088   1.015  0.1034  0.1276 -0.6539
  625MPD2    H5 9264   4.171   0.175   1.054  1.0017 -1.2660  1.6415
  625MPD2    N1 9265   4.060   0.374   0.637 -0.0928 -0.6800  0.0431
  625MPD2    H7 9266   4.106   0.443   0.695 -1.5967 -0.5838  1.1085
  626TMC3    C1 9267   4.048   0.557   0.474  0.3147  0.2876  0.0114
  626TMC3    C2 9268   4.019   0.604   0.347 -0.4118 -0.7104  0.2834
  626TMC3    C3 9269   4.044   0.739   0.324  0.0921 -0.3884 -0.0072
  626TMC3    C4 9270   4.091   0.640   0.575  0.4667 -0.1671 -0.4956
  626TMC3    C5 9271   4.113   0.773   0.546 -0.3741  0.5168  0.8039
  626TMC3    C6 9272   4.087   0.823   0.421 -0.2296 -0.0779 -0.8494
  626TMC3     C 9273   4.021   0.413   0.506 -0.3499  0.7494  0.0797
  626TMC3     O 9274   3.964   0.347   0.422  0.3668  0.2596  0.0700
  626TMC3     H 9275   3.971   0.539   0.276  0.9362 -1.7312  0.3204
  626TMC3    H1 9276   4.102   0.606   0.677 -0.1871  1.2586  0.0597
  626TMC3    H2 9277   4.106   0.926   0.393  0.5963  0.1274  0.4857
  626TMC3    C7 9278   4.188   0.856   0.640 -0.1460 -0.0250 -0.0819
  626TMC3    C8 9279   4.014   0.786   0.193 -0.0683  0.6334 -0.0079
  626TMC3    O1 9280   4.251   0.941   0.582 -0.2978 -0.1835  0.2678
  626TMC3    O2 9281   4.053   0.719   0.105 -0.1115 -0.2262  0.0449
  627MPD2     C 9282   3.499   0.714  14.682 -0.2070 -0.2218  0.4519
  627MPD2    C1 9283   3.450   0.710  14.807  0.8638  0.1198 -0.1641
  627MPD2    C2 9284   3.328   0.644  14.838 -0.5915 -0.4756  0.4524
  627MPD2    C3 9285   3.255   0.588  14.738 -0.0727  0.4213  0.1732
  627MPD2    C4 9286   3.300   0.605  14.605  0.0161 -0.1837  0.1203
  627MPD2    C5 9287   3.421   0.659  14.583 -0.0185 -0.3665  0.2011
  627MPD2     H 9288   3.298   0.638  14.942  0.2070  1.2993  0.7885
  627MPD2    H1 9289   3.246   0.573  14.517 -0.9945  0.7469  0.3934
  627MPD2    H2 9290   3.585   0.772  14.648 -0.3326 -0.4787 -0.2910
  627MPD2    H3 9291   3.441   0.675  14.477  0.9130 -1.1507  0.2622
  627MPD2     N 9292   3.134   0.523  14.772 -0.3874 -0.0058  0.0344
  627MPD2    H5 9293   3.109   0.528  14.870  1.0135 -1.9338  0.4847
  627MPD2    N1 9294   3.509   0.780  14.915 -0.7947  0.1914 -0.0932
  627MPD2    H7 9295   3.473   0.763  15.008  0.8512 -0.0890  0.4887
  628TMC3    C1 9296   3.640   0.940  15.031 -0.4607  0.3373  0.2716
  628TMC3    C2 9297   3.733   0.881  15.112 -0.0627 -0.3554  0.5294
  628TMC3    C3 9298   3.840   0.965  15.144 -0.2237 -0.2388  0.4797
  628TMC3    C4 9299   3.657   1.071  14.993 -0.7013  0.0790 -0.7713
  628TMC3    C5 9300   3.760   1.151  15.025 -0.7339 -0.1265 -0.4082
  628TMC3    C6 9301   3.852   1.098  15.106  0.0646 -0.2301 -0.0824
  628TMC3     C 9302   3.616   0.862  14.910 -0.1259 -0.2043  1.1304
  628TMC3     O 9303   3.694   0.891  14.820 -0.1521 -0.6573 -0.6267
  628TMC3     H 9304   3.724   0.778  15.146  0.0171 -0.7321 -0.5758
  628TMC3    H1 9305   3.595   1.108  14.912 -1.7483 -2.5226 -1.1699
  628TMC3    H2 9306   3.943   1.155  15.095 -0.1127  0.6384  3.2273
  628TMC3    C7 9307   3.810   1.245  14.929  0.0340 -0.1736 -0.2184
  628TMC3    C8 9308   3.959   0.903  15.205 -0.5012  0.2107 -0.3362
  628TMC3    O1 9309   3.931   1.249  14.901 -0.2947 -0.9745  0.7036
  628TMC3    O2 9310   3.950   0.784  15.220  0.0838 -0.0553  0.2059
  629MPD2     C 9311   1.469   4.393  17.274 -0.3771 -0.1880 -0.2793
  629MPD2    C1 9312   1.475   4.410  17.139  0.0607  0.0395  0.8691
  629MPD2    C2 9313   1.358   4.392  17.064 -0.6055  0.0960 -0.0769
  629MPD2    C3 9314   1.245   4.349  17.121 -0.3198 -0.5516 -0.6061
  629MPD2    C4 9315   1.244   4.332  17.262  0.1485 -0.4380  0.5928
  629MPD2    C5 9316   1.351   4.367  17.338  0.3706 -0.8263 -0.3769
  629MPD2     H 9317   1.343   4.413  16.958 -2.9180 -2.3181 -0.2338
  629MPD2    H1 9318   1.161   4.294  17.320 -0.0929 -0.7856  0.0156
  629MPD2    H2 9319   1.548   4.414  17.346 -2.1375  0.4194  1.4685
  629MPD2    H3 9320   1.353   4.358  17.446  0.2237  1.9825 -0.1394
  629MPD2     N 9321   1.140   4.308  17.028 -0.2644 -0.3735 -0.2216
  629MPD2    H5 9322   1.163   4.289  16.931  0.3423 -4.0521  0.6644
  629MPD2    N1 9323   1.587   4.488  17.105 -0.0097 -0.1461  0.3793
  629MPD2    H7 9324   1.650   4.522  17.177  1.5973 -2.5668  0.1410
  630TMC3    C1 9325   1.733   4.595  16.966 -0.3432 -0.0211  0.5823
  630TMC3    C2 9326   1.769   4.681  17.068 -0.5820  0.3365 -0.0355
  630TMC3    C3 9327   1.903   4.714  17.068 -0.5475  0.3034  0.2023
  630TMC3    C4 9328   1.819   4.562  16.860 -0.5858 -0.5942 -0.4745
  630TMC3    C5 9329   1.953   4.593  16.875  0.5783  0.6555  0.6955
  630TMC3    C6 9330   1.992   4.668  16.977 -0.3566  0.0069  0.4215
  630TMC3     C 9331   1.616   4.519  16.975  0.3459  0.0663 -0.6959
  630TMC3     O 9332   1.550   4.496  16.873 -0.4130 -0.0825  0.0231
  630TMC3     H 9333   1.699   4.708  17.147 -0.2753  0.7239  0.1035
  630TMC3    H1 9334   1.793   4.484  16.790  0.8866  0.9522 -2.7477
  630TMC3    H2 9335   2.096   4.696  16.986  0.3744 -2.2050 -1.2732
  630TMC3    C7 9336   2.030   4.473  16.887 -0.4840  0.1737  0.3447
  630TMC3    C8 9337   1.955   0.089  17.160 -0.7407  1.2520 -0.5059
  630TMC3    O1 9338   2.085   4.473  16.998  0.2835  0.4781  0.9476
  630TMC3    O2 9339   2.067   0.124  17.137 -0.4954  0.0590 -0.0357
  631MPD2     C 9340   4.673   3.682  15.952 -0.1562 -0.0404  0.8866
  631MPD2    C1 9341   0.065   3.689  15.888 -0.5346  0.0552 -0.2080
  631MPD2    C2 9342   0.157   3.587  15.921 -0.3338 -0.2029 -0.1904
  631MPD2    C3 9343   0.128   3.495  16.011  0.7914 -0.4367 -0.3099
  631MPD2    C4 9344   0.007   3.493  16.077  0.1755 -0.0747 -0.1876
  631MPD2    C5 9345   4.637   3.587  16.043  0.5399 -1.3330  0.1943
  631MPD2     H 9346   0.257   3.580  15.880 -0.0878  0.3981  0.2968
  631MPD2    H1 9347   4.707   3.418  16.151  0.3401 -1.1272 -1.1961
  631MPD2    H2 9348   4.587   3.744  15.929 -0.5224 -1.5908 -1.9634
  631MPD2    H3 9349   4.539   3.596  16.089  0.6694  2.8543 -0.3305
  631MPD2     N 9350   0.239   3.414  16.039  0.5938  0.1594 -0.2343
  631MPD2    H5 9351   0.318   3.432  15.978  0.9536  1.6166  0.6537
  631MPD2    N1 9352   0.086   3.793  15.798  0.4455  0.6659 -0.3929
  631MPD2    H7 9353   0.004   3.845  15.769  0.1145  0.2861 -0.1311
  632TMC3    C1 9354   0.176   3.965  15.676 -0.2003  0.7686  0.1380
  632TMC3    C2 9355   0.059   4.033  15.707 -0.7521  0.0596  0.6068
  632TMC3    C3 9356   0.026   4.139  15.619  0.5171 -0.4592  0.8007
  632TMC3    C4 9357   0.244   3.992  15.560 -0.7303  0.9124  0.3096
  632TMC3    C5 9358   0.201   4.092  15.480  0.7441 -0.2371 -0.7687
  632TMC3    C6 9359   0.096   4.174  15.512 -0.1428  0.0315  0.2055
  632TMC3     C 9360   0.203   3.841  15.744 -0.4831 -0.3243 -0.2509
  632TMC3     O 9361   0.318   3.808  15.771  0.5306  0.6729 -0.1065
  632TMC3     H 9362   4.719   4.013  15.791  1.0905 -0.7642  1.8566
  632TMC3    H1 9363   0.335   3.934  15.560 -1.5678 -0.4032  1.1180
  632TMC3    H2 9364   0.057   4.253  15.448 -0.3019 -0.2746 -0.0744
  632TMC3    C7 9365   0.284   4.133  15.364 -0.0864  0.3912  0.0974
  632TMC3    C8 9366   4.651   4.227  15.670 -0.2788 -0.2477 -0.8998
  632TMC3    O1 9367   0.217   4.167  15.272  0.1325 -0.5566  0.0849
  632TMC3    O2 9368   4.569   4.166  15.737  0.5033  0.0134  0.4232
  633MPD2     C 9369   4.164   1.883  17.647 -0.2442 -0.1846 -0.4139
  633MPD2    C1 9370   4.242   1.841  17.542  0.6799  0.2899  0.1927
  633MPD2    C2 9371   4.319   1.730  17.562 -0.7506 -0.0138  0.0339
  633MPD2    C3 9372   4.330   1.664  17.689  0.6413 -0.6470  0.6884
  633MPD2    C4 9373   4.245   1.700   0.082 -0.9813 -1.0916  0.3875
  633MPD2    C5 9374   4.168   1.810   0.061  0.2060 -0.1533  0.3691
  633MPD2     H 9375   4.375   1.695  17.476  0.9546  2.3269  0.2181
  633MPD2    H1 9376   4.231   1.658   0.181 -2.8949 -3.5047 -0.9178
  633MPD2    H2 9377   4.090   1.962  17.644  0.8109  0.7545 -1.6591
  633MPD2    H3 9378   4.099   1.846   0.137 -2.0836 -1.5048 -1.0424
  633MPD2     N 9379   4.401   1.542  17.699  0.6828 -0.5459 -0.3947
  633MPD2    H5 9380   4.376   1.469   0.060  1.0017 -0.5167 -0.2406
  633MPD2    N1 9381   4.236   1.900  17.412 -0.2574  1.0679 -0.0961
  633MPD2    H7 9382   4.294   1.859  17.339  1.2846 -0.5749  2.0844
  634TMC3    C1 9383   4.173   2.050  17.241 -0.9344 -0.2346  0.0305
  634TMC3    C2 9384   4.195   1.943  17.159  0.0653  0.0459 -0.0611
  634TMC3    C3 9385   4.215   1.974  17.025 -0.5674  0.4881 -0.6798
  634TMC3    C4 9386   4.172   2.182  17.205 -0.7423 -0.1257  0.3926
  634TMC3    C5 9387   4.222   2.205  17.083 -0.4222 -0.2802  0.5440
  634TMC3    C6 9388   4.253   2.102  16.992  0.2448  0.0851 -0.3531
  634TMC3     C 9389   4.171   2.018  17.379 -0.2587 -0.0643 -0.2445
  634TMC3     O 9390   4.111   2.098  17.453  0.5073 -0.0106 -0.0050
  634TMC3     H 9391   4.163   1.842  17.185 -1.1177  0.5600  0.4942
  634TMC3    H1 9392   4.151   2.253  17.283  1.9238  2.1582 -0.9788
  634TMC3    H2 9393   4.296   2.138  16.900  0.6257  0.4169 -0.0469
  634TMC3    C7 9394   4.229   2.345  17.040  0.4462 -0.2550  0.8610
  634TMC3    C8 9395   4.241   1.868  16.934  0.0593  0.4648 -0.3603
  634TMC3    O1 9396   4.217   2.376  16.921  0.6283 -0.3413 -0.5034
  634TMC3    O2 9397   4.297   1.767  16.978  0.1076 -0.4367 -0.2315
  635TMC3    C1 9398   0.547   3.108  17.485 -0.1848  0.6900 -0.1756
  635TMC3    C2 9399   0.631   3.093  17.385  0.2910 -0.1301 -0.1394
  635TMC3    C3 9400   0.634   2.961  17.337  0.1032  0.8031 -0.9618
  635TMC3    C4 9401   0.468   3.013  17.541  0.3985  0.3666  0.3126
  635TMC3    C5 9402   0.483   2.881  17.492 -0.1304 -0.1402  0.3599
  635TMC3    C6 9403   0.567   2.854  17.388  0.2258  0.0269  0.3399
  635TMC3     C 9404   0.501   3.238  17.536  0.3745 -0.3736 -0.4807
  635TMC3     O 9405   0.394   3.249  17.592  0.2816 -0.4016  0.7445
  635TMC3     H 9406   0.689   3.167  17.331  1.0525  0.5237  1.5831
  635TMC3    H1 9407   0.411   3.029  17.633  0.9935  1.7726  0.4474
  635TMC3    H2 9408   0.597   2.750  17.376 -0.2564 -0.1478  0.6445
  635TMC3    C7 9409   0.399   2.773  17.546  0.4865  0.5436 -0.0367
  635TMC3    C8 9410   0.729   2.940  17.224 -0.3109 -0.1970 -1.5366
  635TMC3    O1 9411   0.428   2.657  17.507 -0.2675  0.6142 -0.1537
  635TMC3    O2 9412   0.812   3.021  17.190 -0.7095  0.7493  0.3307
  636MPD2     C 9413   1.591   2.488  15.949 -0.1825  0.4655 -0.2726
  636MPD2    C1 9414   1.608   2.576  16.047  0.2236  0.7161 -0.6182
  636MPD2    C2 9415   1.716   2.660  16.047 -0.1764 -0.5757 -0.2470
  636MPD2    C3 9416   1.796   2.670  15.932  0.1789  0.0118 -0.1551
  636MPD2    C4 9417   1.762   2.600  15.826 -1.0835  0.1178  0.1339
  636MPD2    C5 9418   1.664   2.505  15.839  0.3411  0.2358  0.4717
  636MPD2     H 9419   1.721   2.733  16.127  0.6145  1.5896 -2.2763
  636MPD2    H1 9420   1.822   2.594  15.736  0.9498  0.8595  1.4287
  636MPD2    H2 9421   1.501   2.428  15.940  0.1633  0.3516 -2.9364
  636MPD2    H3 9422   1.639   2.440  15.755  1.4513 -0.5121  0.7201
  636MPD2     N 9423   1.909   2.755  15.938 -0.2287 -1.1311 -0.1073
  636MPD2    H5 9424   1.919   2.808  16.024 -0.7314  1.6727 -1.7644
  636MPD2    N1 9425   1.527   2.581  16.161 -0.7855 -0.3531 -0.2332
  636MPD2    H7 9426   1.545   2.656  16.227  1.4385  0.8202 -2.1978
  637TMC3    C1 9427   2.111   2.866  15.871 -0.0348 -0.4135 -0.3547
  637TMC3    C2 9428   2.071   2.970  15.944 -0.0228 -0.8713 -0.1921
  637TMC3    C3 9429   2.137   3.089  15.920 -0.3060 -0.1463  0.6004
  637TMC3    C4 9430   2.195   2.875  15.763  0.0226  0.1016 -0.5818
  637TMC3    C5 9431   2.243   2.998  15.731  0.7121 -0.1524 -0.0674
  637TMC3    C6 9432   2.212   3.107  15.809  0.3418  0.8200  0.5633
  637TMC3     C 9433   2.015   2.759  15.849  0.0019 -0.1756  0.4695
  637TMC3     O 9434   2.034   2.693  15.750 -0.4722 -0.0783 -0.2824
  637TMC3     H 9435   2.003   2.954  16.027  0.8032  0.4597  0.7609
  637TMC3    H1 9436   2.229   2.793  15.701  1.2872 -0.4273  0.8163
  637TMC3    H2 9437   2.251   3.203  15.778 -0.0003  0.9273  0.4683
  637TMC3    C7 9438   2.291   2.998  15.591 -0.0694 -0.6373  0.5159
  637TMC3    C8 9439   2.081   3.200  15.996  0.3886  0.2316  0.4049
  637TMC3    O1 9440   2.359   2.903  15.561 -0.3745 -0.2189  0.0760
  637TMC3    O2 9441   2.003   3.175  16.087  0.3312 -0.4057 -0.0947
  638MPD2     C 9442   0.982   1.397  14.731 -0.2042  0.5282  0.4320
  638MPD2    C1 9443   0.935   1.271  14.705 -0.9301  0.0245  0.2164
  638MPD2    C2 9444   0.832   1.221  14.783  0.5049 -0.1004  0.2447
  638MPD2    C3 9445   0.775   1.290  14.891  0.3821 -0.2861  0.4617
  638MPD2    C4 9446   0.822   1.419  14.916  0.3696  0.1792 -1.0104
  638MPD2    C5 9447   0.921   1.469  14.828  0.4579 -0.3041 -0.7900
  638MPD2     H 9448   0.784   1.125  14.771  0.3745 -0.2138  1.6268
  638MPD2    H1 9449   0.790   1.480  14.999  0.8970  1.9078 -2.0747
  638MPD2    H2 9450   1.059   1.435  14.666  0.8140 -1.7893  0.2858
  638MPD2    H3 9451   0.961   1.569  14.842 -1.7007  0.7173 -1.9256
  638MPD2     N 9452   0.689   1.221  14.980  0.5835 -0.0143 -0.2903
  638MPD2    H5 9453   0.670   1.124  14.961  0.6231  0.0002 -0.4036
  638MPD2    N1 9454   1.010   1.191  14.606  0.0617 -0.2365 -0.0696
  638MPD2    H7 9455   1.092   1.238  14.568  0.0776  0.4780  0.8383
  639TMC3    C1 9456   0.560   1.179  15.171 -0.0998 -0.9054 -0.6487
  639TMC3    C2 9457   0.494   1.067  15.119  0.8698  0.8190  0.8709
  639TMC3    C3 9458   0.451   0.973  15.210 -0.3986 -0.1749 -0.2227
  639TMC3    C4 9459   0.591   1.192  15.307 -0.0240 -0.2301  0.1989
  639TMC3    C5 9460   0.547   1.089  15.388 -0.4853 -0.3793  0.6427
  639TMC3    C6 9461   0.476   0.980  15.345 -0.0032  0.6407 -0.9793
  639TMC3     C 9462   0.631   1.278  15.095 -0.2025 -0.8389  0.1808
  639TMC3     O 9463   0.645   1.392  15.135 -0.3828 -0.1288 -0.2467
  639TMC3     H 9464   0.470   1.060  15.014  0.1346  0.3799  1.0635
  639TMC3    H1 9465   0.651   1.275  15.342  2.0727 -2.0074  0.7933
  639TMC3    H2 9466   0.436   0.915  15.422 -0.7624  0.3360 -1.6305
  639TMC3    C7 9467   0.638   1.065  15.506 -0.3825 -0.2292 -0.8901
  639TMC3    C8 9468   0.383   0.857  15.159 -0.1325 -0.0721  0.2490
  639TMC3    O1 9469   0.697   1.168  15.543 -0.5364 -0.1685  0.1766
  639TMC3    O2 9470   0.388   0.835  15.036 -0.2389 -0.1560 -0.6209
  640MPD2     C 9471   1.007   4.571  10.219  0.7180  0.1914 -1.0640
  640MPD2    C1 9472   1.071   4.693  10.196  0.2693 -0.4132 -0.2237
  640MPD2    C2 9473   1.003   0.076  10.136  0.5772  0.1282 -0.1406
  640MPD2    C3 9474   0.868   0.064  10.114 -0.1843 -0.5821 -0.1733
  640MPD2    C4 9475   0.803   4.671  10.156  0.2512 -0.0639 -0.1578
  640MPD2    C5 9476   0.872   4.570  10.209 -0.0363 -0.6632 -0.5254
  640MPD2     H 9477   1.054   0.168  10.110  3.0098 -1.4231 -0.7729
  640MPD2    H1 9478   0.700   4.652  10.128 -0.1258 -0.0950  1.2996
  640MPD2    H2 9479   1.047   4.487  10.274  0.4941  0.7734 -0.0120
  640MPD2    H3 9480   0.818   4.478  10.226  0.9775 -1.2297 -0.3892
  640MPD2     N 9481   0.786   0.156  10.047 -0.0638  0.1038 -0.8828
  640MPD2    H5 9482   0.687   0.135  10.054  0.1784 -0.8980 -0.4988
  640MPD2    N1 9483   1.216   4.694  10.217 -0.4403  0.1628  0.0770
  640MPD2    H7 9484   1.255   4.600  10.221 -2.1914 -0.5112  1.4103
  641TMC3    C1 9485   1.434   0.058  10.211 -0.1612  0.1237 -0.2779
  641TMC3    C2 9486   1.484   4.652  10.214 -0.6172 -0.5109  1.4492
  641TMC3    C3 9487   1.595   4.634  10.153  0.3457  0.1115 -0.5028
  641TMC3    C4 9488   1.501   0.162  10.164  0.2844 -0.1284  0.3322
  641TMC3    C5 9489   1.623   0.134  10.108 -0.2552  0.0925 -0.5877
  641TMC3    C6 9490   1.658   0.005  10.082 -0.5000  0.2020 -0.0495
  641TMC3     C 9491   1.296   0.080  10.219 -0.7792  0.2363  0.8155
  641TMC3     O 9492   1.255   0.194  10.228  0.3188 -0.1265 -1.1098
  641TMC3     H 9493   1.437   4.567  10.262 -0.1784 -0.5402  1.8272
  641TMC3    H1 9494   1.458   0.261  10.160  2.3693  0.7538 -0.2051
  641TMC3    H2 9495   1.747   4.714  10.024 -0.7048 -0.0324 -0.2934
  641TMC3    C7 9496   1.703   0.240  10.060  0.3464  0.2628 -0.3175
  641TMC3    C8 9497   1.670   4.517  10.171  0.0570 -0.0857  0.4648
  641TMC3    O1 9498   1.642   0.333  10.013  0.1800  0.4239 -0.5701
  641TMC3    O2 9499   1.717   4.477  10.063  0.0033 -0.4027 -0.4570
  642TMC3    C1 9500   2.386   1.549  12.304  0.8473 -0.7733  0.5842
  642TMC3    C2 9501   2.520   1.552  12.303  0.3518  0.3396 -0.7468
  642TMC3    C3 9502   2.580   1.435  12.339  0.4496 -0.0478  0.5079
  642TMC3    C4 9503   2.309   1.438  12.329 -0.2687 -0.0199  0.5545
  642TMC3    C5 9504   2.377   1.324  12.362 -0.2394 -0.6233 -0.3766
  642TMC3    C6 9505   2.511   1.313  12.356 -0.0314  0.9292  0.0737
  642TMC3     C 9506   2.315   1.675  12.310  0.2508 -0.2928  0.0045
  642TMC3     O 9507   2.348   1.762  12.231 -0.7823 -0.2367  0.5899
  642TMC3     H 9508   2.581   1.640  12.289 -1.1943  1.3955 -0.8761
  642TMC3    H1 9509   2.201   1.434  12.321 -0.1079 -0.3447 -1.3587
  642TMC3    H2 9510   2.559   1.218  12.373 -1.5715 -0.2325 -1.9871
  642TMC3    C7 9511   2.302   1.206  12.400 -0.3056  0.2649 -0.7679
  642TMC3    C8 9512   2.716   1.431  12.388 -0.8711  0.5982  0.3575
  642TMC3    O1 9513   2.364   1.100  12.390 -0.3563 -0.5250  0.1048
  642TMC3    O2 9514   2.758   1.316  12.399  0.2952  0.7041 -0.3558
  643TMC3    C1 9515   1.387   0.296   0.912 -1.0965 -0.0784 -0.4501
  643TMC3    C2 9516   1.272   0.341   0.859  0.0518 -0.0385  0.2119
  643TMC3    C3 9517   1.268   0.459   0.787  0.3997  0.1396 -0.3664
  643TMC3    C4 9518   1.505   0.364   0.905  0.5412 -0.1174 -0.4768
  643TMC3    C5 9519   1.502   0.482   0.836 -0.2522  0.4883 -0.3803
  643TMC3    C6 9520   1.385   0.530   0.779 -0.3792  0.0074 -0.2432
  643TMC3     C 9521   1.391   0.219   1.033 -0.4286 -0.2570 -0.5944
  643TMC3     O 9522   1.487   0.140   1.041  0.1136 -0.2819 -0.4442
  643TMC3     H 9523   1.182   0.282   0.865 -0.4426  0.6839 -0.0539
  643TMC3    H1 9524   1.585   0.342   0.974 -1.5596 -1.2661  1.5872
  643TMC3    H2 9525   1.382   0.636   0.754  1.9448  0.5747  1.7616
  643TMC3    C7 9526   1.616   0.574   0.843 -0.2009  0.2158  0.6320
  643TMC3    C8 9527   1.147   0.515   0.733  0.3613 -1.1964 -0.4021
  643TMC3    O1 9528   1.600   0.685   0.793 -0.7482 -0.0755 -0.0086
  643TMC3    O2 9529   1.048   0.452   0.770 -0.2272 -0.3134  0.7999
  644MPD2     C 9530   1.709   0.544  10.256 -0.4753 -0.2843  0.5813
  644MPD2    C1 9531   1.830   0.587  10.208  0.1064  0.0662  0.5327
  644MPD2    C2 9532   1.843   0.701  10.125 -0.0561 -0.3015 -0.6105
  644MPD2    C3 9533   1.721   0.752  10.072 -0.5625 -0.6265  0.0038
  644MPD2    C4 9534   1.602   0.709  10.122 -0.3522 -0.6982 -0.3640
  644MPD2    C5 9535   1.594   0.616  10.223  0.5057 -0.6693  0.0142
  644MPD2     H 9536   1.936   0.738  10.084 -0.5850  2.3424  0.5786
  644MPD2    H1 9537   1.508   0.758  10.100 -0.2680  0.6294  2.1336
  644MPD2    H2 9538   1.705   0.461  10.325 -0.3513 -0.3954  0.4575
  644MPD2    H3 9539   1.502   0.586  10.272 -0.2546 -2.3807 -2.5125
  644MPD2     N 9540   1.729   0.855   9.969 -0.7794 -0.1607 -0.2457
  644MPD2    H5 9541   1.825   0.884   9.954 -0.6037 -0.4258  0.3668
  644MPD2    N1 9542   1.947   0.510  10.250 -0.3676  0.5806  0.4728
  644MPD2    H7 9543   1.936   0.433  10.315 -0.3761 -0.2532 -0.5015
  645TMC3    C1 9544   1.678   1.012   9.814 -1.1280  0.1772 -0.6917
  645TMC3    C2 9545   1.602   1.044   9.705  0.1985  1.0438  1.3837
  645TMC3    C3 9546   1.630   1.162   9.641 -0.2490  0.1653 -0.5572
  645TMC3    C4 9547   1.787   1.085   9.855 -0.1754 -0.0482 -0.3051
  645TMC3    C5 9548   1.804   1.202   9.789 -0.0259 -0.1786  0.1202
  645TMC3    C6 9549   1.727   1.247   9.688  0.1771  0.1710 -0.0367
  645TMC3     C 9550   1.629   0.900   9.897  0.2673  0.5476  0.2357
  645TMC3     O 9551   1.512   0.873   9.896  0.0064  0.0566  0.7411
  645TMC3     H 9552   1.522   0.975   9.681  0.3506  0.8027  1.5729
  645TMC3    H1 9553   1.830   1.084   9.955 -2.1974  0.8446  0.5845
  645TMC3    H2 9554   1.739   1.345   9.643 -0.9249 -0.5871 -2.0102
  645TMC3    C7 9555   1.910   1.288   9.833 -0.0922  0.9342  0.0501
  645TMC3    C8 9556   1.518   1.231   9.557  0.0417  0.2037  0.5552
  645TMC3    O1 9557   1.882   1.403   9.829  0.6909  0.1222  0.1173
  645TMC3    O2 9558   1.518   1.353   9.567  0.0835 -0.4739 -0.2735
  646MPD2     C 9559   0.859   4.459  14.910  0.4225  0.0414  0.1765
  646MPD2    C1 9560   0.821   4.528  15.022  0.0943 -0.0231  0.4880
  646MPD2    C2 9561   0.729   4.628  14.999 -0.0690  0.8282  0.1578
  646MPD2    C3 9562   0.676   4.665  14.873  0.5898  0.0739  0.8163
  646MPD2    C4 9563   0.722   4.588  14.764  0.2554 -0.1876  0.5325
  646MPD2    C5 9564   0.809   4.484  14.784  0.4884 -0.0860 -0.2564
  646MPD2     H 9565   0.680   4.671  15.085 -2.4565  0.5664 -1.0704
  646MPD2    H1 9566   0.695   4.606  14.661 -0.4367  1.4969  1.0146
  646MPD2    H2 9567   0.933   4.380  14.910 -0.0625 -0.4274 -2.4533
  646MPD2    H3 9568   0.842   4.426  14.698 -1.0445  1.4184 -1.8595
  646MPD2     N 9569   0.573   0.034  14.852 -0.0744 -0.9377 -0.4224
  646MPD2    H5 9570   0.533   0.060  14.942  1.6933 -0.2037  0.1628
  646MPD2    N1 9571   0.876   4.490  15.144  0.0489  0.3421 -0.4353
  646MPD2    H7 9572   0.941   4.413  15.134 -0.7109 -0.1908 -1.2362
  647TMC3    C1 9573   0.913   4.468  15.378  0.1312  0.3372  0.4146
  647TMC3    C2 9574   0.854   4.449  15.500  0.1198 -0.1837  0.6769
  647TMC3    C3 9575   0.951   4.435  15.601  0.5026  0.0055  0.3451
  647TMC3    C4 9576   1.047   4.463  15.351 -1.2323  0.5573  0.2459
  647TMC3    C5 9577   1.132   4.431  15.455 -0.8599 -0.0501 -0.4432
  647TMC3    C6 9578   1.084   4.418  15.583 -0.0020  0.1886  0.7135
  647TMC3     C 9579   0.828   4.524  15.269  0.5926 -0.5285  0.6910
  647TMC3     O 9580   0.720   4.566  15.309  0.2062 -0.3875  0.2409
  647TMC3     H 9581   0.746   4.444  15.506 -0.0832 -0.0002 -2.3714
  647TMC3    H1 9582   1.096   4.491  15.259  0.2496 -0.2314  0.7890
  647TMC3    H2 9583   1.160   4.427  15.660  0.7387 -1.1505  0.1473
  647TMC3    C7 9584   1.275   4.398  15.439 -0.4859  0.3207  0.1150
  647TMC3    C8 9585   0.917   4.335  15.701 -0.1894  0.3841 -0.6442
  647TMC3    O1 9586   1.328   4.301  15.491 -0.3920 -0.6693 -0.1519
  647TMC3    O2 9587   1.004   4.298  15.777  0.3096  0.2158  0.5530
  648TMC3    C1 9588   0.184   2.253  16.473  0.5496 -0.0499 -0.0039
  648TMC3    C2 9589   0.243   2.141  16.426 -0.1634  0.2823  0.1754
  648TMC3    C3 9590   0.267   2.140  16.297 -0.0270  0.0424 -0.2064
  648TMC3    C4 9591   0.148   2.357  16.395  0.4197  0.8545  0.7673
  648TMC3    C5 9592   0.176   2.352  16.259  0.0101 -0.0419  0.3919
  648TMC3    C6 9593   0.244   2.243  16.209  0.6603 -0.1858 -0.1678
  648TMC3     C 9594   0.169   2.257  16.616  0.5080  0.2724  0.5196
  648TMC3     O 9595   0.189   2.366  16.659 -0.0639 -0.3279 -0.3026
  648TMC3     H 9596   0.286   2.070  16.496 -0.8586 -0.4041 -0.0999
  648TMC3    H1 9597   0.086   2.433  16.441  0.1900  0.0607  1.7633
  648TMC3    H2 9598   0.267   2.234  16.103  2.0120  0.4669  0.0805
  648TMC3    C7 9599   0.098   2.439  16.167  0.0204  0.3307 -0.2690
  648TMC3    C8 9600   0.376   2.051  16.253  0.7683  1.3551 -0.4670
  648TMC3    O1 9601   0.119   2.440  16.046  0.4645 -0.8869  0.4080
  648TMC3    O2 9602   0.453   2.090  16.162 -0.1984  0.2431 -0.0274
  649TMC3    C1 9603   3.565   3.201  12.888  0.1770  0.6766  0.5470
  649TMC3    C2 9604   3.671   3.188  12.809 -0.2022  0.1980 -0.4866
  649TMC3    C3 9605   3.769   3.103  12.858  0.1678  0.5826  0.2239
  649TMC3    C4 9606   3.539   3.131  13.001 -0.3543  0.6581 -0.0597
  649TMC3    C5 9607   3.633   3.043  13.041  0.8641 -0.8180 -0.9097
  649TMC3    C6 9608   3.752   3.024  12.971  0.8407  0.7443 -0.8039
  649TMC3     C 9609   3.451   3.298  12.849  0.3153  0.0819  0.4940
  649TMC3     O 9610   3.355   3.306  12.930  0.3708 -0.2799  0.3814
  649TMC3     H 9611   3.697   3.263  12.735  1.3822 -0.5120 -0.6516
  649TMC3    H1 9612   3.465   3.174  13.067 -0.3097  0.7616 -0.0765
  649TMC3    H2 9613   3.836   2.975  13.018  2.5135  1.0020 -3.4744
  649TMC3    C7 9614   3.631   2.992  13.179  0.5660 -0.6485 -0.0379
  649TMC3    C8 9615   3.901   3.105  12.804  0.2112  0.4892  0.3663
  649TMC3    O1 9616   3.564   3.046  13.263  0.3030  0.2792 -0.3385
  649TMC3    O2 9617   3.983   3.040  12.868  0.2229 -0.3992 -0.3242
  650TMC3    C1 9618   1.653   0.376  12.929  0.5817 -0.2062 -0.2742
  650TMC3    C2 9619   1.655   0.509  12.950  0.0395  0.5967 -0.0822
  650TMC3    C3 9620   1.551   0.582  12.892 -0.3828 -0.8785 -0.0365
  650TMC3    C4 9621   1.560   0.312  12.850  0.3271 -0.0080 -1.0626
  650TMC3    C5 9622   1.461   0.384  12.800  0.2820 -0.1026  0.8401
  650TMC3    C6 9623   1.455   0.520  12.820  0.5175 -0.2356  0.7723
  650TMC3     C 9624   1.759   0.287  12.995 -0.1667 -0.0129 -0.3304
  650TMC3     O 9625   1.856   0.345  13.043 -0.1566  0.3232  0.3915
  650TMC3     H 9626   1.735   0.561  13.002 -0.0115  0.8421 -0.2539
  650TMC3    H1 9627   1.555   0.207  12.824  0.2326 -0.3532  0.3822
  650TMC3    H2 9628   1.371   0.583  12.793 -0.5151 -1.4824  1.0642
  650TMC3    C7 9629   1.345   0.325  12.732 -0.3769  0.4780 -0.6325
  650TMC3    C8 9630   1.570   0.730  12.884  0.9339  0.3221  0.0942
  650TMC3    O1 9631   1.306   0.219  12.771 -0.2601 -0.3291  0.3497
  650TMC3    O2 9632   1.636   0.796  12.961 -0.4262 -0.1626  0.4978
  651MPD2     C 9633   1.080   1.700  11.465  0.0483 -0.2697 -0.1218
  651MPD2    C1 9634   1.009   1.784  11.386 -0.4346 -0.0704 -0.2507
  651MPD2    C2 9635   1.078   1.883  11.313  0.3741 -0.0570  0.3783
  651MPD2    C3 9636   1.213   1.901  11.322  0.0919 -0.2518 -0.5547
  651MPD2    C4 9637   1.281   1.813  11.405 -0.7989 -0.2058  0.4117
  651MPD2    C5 9638   1.214   1.716  11.473  0.5265  0.6470 -0.2505
  651MPD2     H 9639   1.016   1.952  11.257  0.7830 -0.7400 -0.9138
  651MPD2    H1 9640   1.389   1.801  11.408 -0.6742  0.4647 -1.2301
  651MPD2    H2 9641   1.036   1.619  11.520  0.1107  2.2005  3.5507
  651MPD2    H3 9642   1.276   1.642  11.521 -0.9010 -1.2636 -1.3539
  651MPD2     N 9643   1.270   1.994  11.237  0.7286  0.5279  0.1296
  651MPD2    H5 9644   1.212   2.038  11.167 -1.1662 -0.8439  0.8478
  651MPD2    N1 9645   0.864   1.780  11.386  0.2660 -0.0507 -0.0293
  651MPD2    H7 9646   0.824   1.856  11.332  1.1084  1.0016  0.8226
  652TMC3    C1 9647   1.615   2.195  10.988 -0.3127 -0.0189  0.1561
  652TMC3    C2 9648   1.575   2.112  11.090 -0.0867 -0.1315  0.5259
  652TMC3    C3 9649   1.437   2.096  11.102 -0.2545  0.5553  0.6237
  652TMC3    C4 9650   1.530   2.238  10.894 -0.3113 -0.0263  0.4619
  652TMC3    C5 9651   1.398   2.218  10.916 -0.1399  0.2262 -1.1380
  652TMC3    C6 9652   1.345   2.147  11.019  0.4852 -0.9445 -0.0829
  652TMC3     C 9653   1.753   2.237  10.999  0.4899  0.1908  0.4278
  652TMC3     O 9654   1.817   2.208  11.099 -0.3965  0.1618  0.8475
  652TMC3     H 9655   1.641   2.086  11.172 -0.9129  3.4891  2.3373
  652TMC3    H1 9656   1.568   2.309  10.821  0.5142 -1.9097 -0.9450
  652TMC3    H2 9657   1.239   2.127  11.028  0.1207  0.1478 -1.8227
  652TMC3    C7 9658   1.302   2.309  10.862  0.4742 -0.6005  0.2925
  652TMC3    C8 9659   1.405   2.022  11.225 -1.0854  0.1534  0.0729
  652TMC3    O1 9660   1.327   2.356  10.751  0.1825 -0.1103  0.3007
  652TMC3    O2 9661   1.498   2.000  11.302 -0.1963 -0.4315  0.4347
  653MPD2     C 9662   3.837   2.099   0.034 -0.1380 -0.1125 -0.6957
  653MPD2    C1 9663   3.757   2.198  17.697  0.8756  0.7122  1.4381
  653MPD2    C2 9664   3.662   2.176  17.592 -0.4277 -0.1284  0.6056
  653MPD2    C3 9665   3.651   2.050  17.536 -0.2647  0.5052  0.9563
  653MPD2    C4 9666   3.739   1.950  17.579 -0.3179  0.2279  0.9371
  653MPD2    C5 9667   3.827   1.982  17.676 -0.4527  0.5598  0.7998
  653MPD2     H 9668   3.600   2.256  17.553 -0.9813  0.2043  2.1470
  653MPD2    H1 9669   3.734   1.851  17.537  3.3061  1.3067 -2.0096
  653MPD2    H2 9670   3.912   2.108   0.113 -0.3518 -0.8307 -0.4124
  653MPD2    H3 9671   3.902   1.913   0.008 -1.6280  1.0919  4.1421
  653MPD2     N 9672   3.566   2.037  17.424  0.2269  0.9207  0.2430
  653MPD2    H5 9673   3.515   2.122  17.404  2.2995  1.9687 -0.6534
  653MPD2    N1 9674   3.762   2.331   0.039  0.2326 -0.3645 -0.4401
  653MPD2    H7 9675   3.696   2.400   0.005  0.0140  0.9588  2.7033
  654TMC3    C1 9676   3.504   1.946  17.205 -0.1216 -0.0900  0.5796
  654TMC3    C2 9677   3.402   2.042  17.197  0.5357  0.2873  0.5448
  654TMC3    C3 9678   3.349   2.057  17.067 -0.5147  0.0531 -0.0958
  654TMC3    C4 9679   3.551   1.874  17.094  0.5482 -0.0619 -0.7686
  654TMC3    C5 9680   3.490   1.892  16.972  0.0485 -0.2277 -0.2290
  654TMC3    C6 9681   3.379   1.976  16.954 -0.4147  0.1762  0.1435
  654TMC3     C 9682   3.589   1.938  17.324  0.1157 -0.0346  0.1738
  654TMC3     O 9683   3.675   1.853  17.316  0.4730 -0.1727  0.2741
  654TMC3     H 9684   3.381   2.113  17.276 -0.9481 -0.8806  1.2021
  654TMC3    H1 9685   3.618   1.790  17.106  1.9747  1.3625  1.2501
  654TMC3    H2 9686   3.341   2.002  16.856  0.4860 -0.0652 -0.2733
  654TMC3    C7 9687   3.523   1.809  16.862 -0.1994  0.3122 -0.1796
  654TMC3    C8 9688   3.225   2.134  17.071  0.7057 -0.1167  0.6816
  654TMC3    O1 9689   3.480   1.848  16.752  0.8068 -0.4053 -0.3648
  654TMC3    O2 9690   3.216   2.218  17.161 -0.6135 -0.0938 -0.1857
  655MPD2     C 9691   0.594   2.456  16.162  0.5528  0.0474 -0.5654
  655MPD2    C1 9692   0.478   2.498  16.102 -0.2990  0.4084  0.4625
  655MPD2    C2 9693   0.447   2.455  15.973 -0.4446  0.4441 -0.0326
  655MPD2    C3 9694   0.522   2.355  15.918  0.0569  0.3314  0.4594
  655MPD2    C4 9695   0.633   2.306  15.980 -0.5644 -0.1964 -0.0084
  655MPD2    C5 9696   0.665   2.357  16.099  0.9631 -0.4236 -0.5236
  655MPD2     H 9697   0.359   2.493  15.922 -0.6119  0.2017  0.0749
  655MPD2    H1 9698   0.701   2.237  15.931 -0.4475  0.1101 -0.2834
  655MPD2    H2 9699   0.622   2.484  16.263  0.4449  0.8652 -0.7594
  655MPD2    H3 9700   0.759   2.325  16.142 -0.2500 -0.9282  1.7256
  655MPD2     N 9701   0.501   2.308  15.788  0.2157 -0.3078  0.4596
  655MPD2    H5 9702   0.571   2.248  15.745 -0.8992  0.2146 -2.0786
  655MPD2    N1 9703   0.385   2.591  16.163 -0.5279 -0.2551 -0.0684
  655MPD2    H7 9704   0.302   2.606  16.107  0.4724  1.8805 -0.9730
  656TMC3    C1 9705   0.296   2.745  16.306 -0.5895  0.8186 -0.1397
  656TMC3    C2 9706   0.236   2.749  16.427 -0.1698  0.6389  0.5006
  656TMC3    C3 9707   0.125   2.822  16.439  0.5062  0.5456 -0.1024
  656TMC3    C4 9708   0.263   2.823  16.202  0.2316  0.1783  0.4300
  656TMC3    C5 9709   0.156   2.909  16.218  0.6308 -0.4166  0.1118
  656TMC3    C6 9710   0.081   2.905  16.332  0.1332 -0.7030 -0.6234
  656TMC3     C 9711   0.400   2.648  16.283  0.3768 -0.1943  0.4876
  656TMC3     O 9712   0.468   2.604  16.381 -0.2508  0.0385  0.0999
  656TMC3     H 9713   0.275   2.698  16.514 -1.8759 -0.0821  0.8373
  656TMC3    H1 9714   0.316   2.831  16.108  2.0827 -0.0545  1.4475
  656TMC3    H2 9715   4.719   2.967  16.338 -0.9622 -2.3484  0.3329
  656TMC3    C7 9716   0.130   2.995  16.104  0.1784  0.1485  0.2374
  656TMC3    C8 9717   0.027   2.798  16.541 -0.2692  0.2393  0.2988
  656TMC3    O1 9718   0.216   2.990  16.022 -0.4304  0.4445 -0.1130
  656TMC3    O2 9719   4.643   2.846  16.522 -0.6657 -0.5015 -0.1916
  657TMC3    C1 9720   4.146   1.845  15.568 -0.2431  0.6655 -0.4924
  657TMC3    C2 9721   4.215   1.889  15.681  0.2319  0.3329 -0.2673
  657TMC3    C3 9722   4.158   1.996  15.753  0.2299 -0.1405  0.5258
  657TMC3    C4 9723   4.024   1.896  15.527  0.1980 -0.2090 -0.2865
  657TMC3    C5 9724   3.969   1.982  15.619  0.2666  0.7037 -0.0045
  657TMC3    C6 9725   4.033   2.043  15.722 -0.1140  0.1631  0.5900
  657TMC3     C 9726   4.192   1.729  15.491  0.1371  0.3905  0.0922
  657TMC3     O 9727   4.099   1.677  15.433  0.0260  0.2472 -0.0983
  657TMC3     H 9728   4.300   1.829  15.710 -1.1796 -1.4742  0.0719
  657TMC3    H1 9729   3.976   1.867  15.434  0.2151  0.6143 -0.5581
  657TMC3    H2 9730   3.988   2.121  15.783 -1.2355  1.7188 -2.2235
  657TMC3    C7 9731   3.831   2.025  15.594 -0.2699  0.4944  0.1315
  657TMC3    C8 9732   4.227   2.062  15.860 -0.4491  0.1221 -0.4324
  657TMC3    O1 9733   3.799   2.134  15.634 -0.2708  0.1723 -0.4896
  657TMC3    O2 9734   4.312   1.999  15.919 -0.1336  0.3234 -0.3805
  658MPD2     C 9735   0.921   2.138  15.239 -0.4116 -0.8608 -0.0031
  658MPD2    C1 9736   0.786   2.164  15.213  0.3351  0.0896 -0.6429
  658MPD2    C2 9737   0.760   2.225  15.082  0.1410  0.3672  0.1385
  658MPD2    C3 9738   0.856   2.237  14.986 -0.0128  0.7671 -0.2787
  658MPD2    C4 9739   0.982   2.199  15.012  0.5393  0.0726 -0.3897
  658MPD2    C5 9740   1.009   2.152  15.141 -0.2559  0.1194 -0.5572
  658MPD2     H 9741   0.660   2.264  15.066  0.0641 -0.2994 -0.9573
  658MPD2    H1 9742   1.062   2.203  14.938  0.0450 -0.5770 -0.9608
  658MPD2    H2 9743   0.958   2.107  15.336  0.0852  1.7081  0.6294
  658MPD2    H3 9744   1.111   2.118  15.157 -0.3329  0.7463  1.2621
  658MPD2     N 9745   0.822   2.300  14.863 -0.3263 -0.4809  0.4691
  658MPD2    H5 9746   0.728   2.339  14.861 -0.5812 -1.1376 -0.3918
  658MPD2    N1 9747   0.696   2.153  15.320 -0.1476  0.2477  0.1442
  658MPD2    H7 9748   0.724   2.117  15.411  0.2116 -0.5966 -0.3105
  659TMC3    C1 9749   0.480   2.115  15.421  0.0453  0.0941  0.1648
  659TMC3    C2 9750   0.499   2.187  15.537  0.6119 -0.1658 -0.4001
  659TMC3    C3 9751   0.384   2.245  15.595 -0.6488  0.1457  0.1737
  659TMC3    C4 9752   0.352   2.086  15.387 -0.0125 -0.4106  0.7099
  659TMC3    C5 9753   0.241   2.132  15.448 -0.5617 -0.5585 -0.3197
  659TMC3    C6 9754   0.260   2.221  15.546  0.0430  0.8254 -0.4080
  659TMC3     C 9755   0.557   2.153  15.302  0.2310  0.6220 -0.4208
  659TMC3     O 9756   0.484   2.184  15.208 -0.3514  0.2743  0.9665
  659TMC3     H 9757   0.599   2.211  15.569  0.6351 -0.0456 -0.5607
  659TMC3    H1 9758   0.350   2.032  15.293  2.5983  0.5342  0.1288
  659TMC3    H2 9759   0.171   2.256  15.596  0.5089  0.0310  0.9844
  659TMC3    C7 9760   0.107   2.116  15.392 -0.5186 -0.2889 -0.0426
  659TMC3    C8 9761   0.387   2.331  15.715 -0.0457 -1.3248 -0.3972
  659TMC3    O1 9762   0.021   2.185  15.444 -0.1175 -0.2455  0.7318
  659TMC3    O2 9763   0.284   2.388  15.738 -0.1236  0.0802 -0.8084
  660MPD2     C 9764   3.754   1.283  13.001  0.2372 -0.1786 -0.6902
  660MPD2    C1 9765   3.628   1.309  12.943  0.1042  0.0563  0.4425
  660MPD2    C2 9766   3.514   1.254  13.006  0.6501 -0.8738  0.3487
  660MPD2    C3 9767   3.522   1.181  13.121  0.4277 -0.3536  0.6317
  660MPD2    C4 9768   3.644   1.161  13.180  0.1396  0.7330  0.5131
  660MPD2    C5 9769   3.760   1.213  13.124  0.0934  0.4143  0.4889
  660MPD2     H 9770   3.420   1.251  12.953  1.4463  0.4128 -1.1108
  660MPD2    H1 9771   3.653   1.114  13.277  0.2651  0.1630  0.2209
  660MPD2    H2 9772   3.848   1.312  12.955 -0.4368 -0.6485 -2.3752
  660MPD2    H3 9773   3.851   1.194  13.180 -0.4088 -2.3299  0.3916
  660MPD2     N 9774   3.410   1.109  13.178 -0.8632 -0.0138  0.1643
  660MPD2    H5 9775   3.421   1.048  13.258 -0.9248  0.4658  0.5338
  660MPD2    N1 9776   3.628   1.367  12.815 -0.2835 -0.3862 -0.7290
  660MPD2    H7 9777   3.719   1.387  12.775  0.0494  1.6126  1.0183
  661TMC3    C1 9778   3.519   1.454  12.621  0.8321 -0.3282  0.3332
  661TMC3    C2 9779   3.626   1.411  12.536 -0.0734 -0.4660  0.2086
  661TMC3    C3 9780   3.614   1.443  12.402  0.4910  0.2591  0.7066
  661TMC3    C4 9781   3.417   1.529  12.577  0.4257  0.6404 -0.7089
  661TMC3    C5 9782   3.407   1.532  12.439  0.6723 -0.2118 -0.0234
  661TMC3    C6 9783   3.498   1.494  12.348  0.1713  0.2463  0.0398
  661TMC3     C 9784   3.514   1.403  12.754 -1.0267  0.0453  0.1752
  661TMC3     O 9785   3.401   1.411  12.795 -0.0415 -0.1553 -0.2985
  661TMC3     H 9786   3.718   1.376  12.580 -0.3276 -0.4517  0.7512
  661TMC3    H1 9787   3.354   1.580  12.648 -0.6554  0.4351 -1.5254
  661TMC3    H2 9788   3.480   1.499  12.242 -0.5177 -0.2354  0.1369
  661TMC3    C7 9789   3.289   1.607  12.399 -0.2152  0.0932  0.2635
  661TMC3    C8 9790   3.728   1.418  12.312  0.4440  0.3130 -0.0661
  661TMC3    O1 9791   3.260   1.708  12.464  0.7887 -0.1386  0.8772
  661TMC3    O2 9792   3.813   1.334  12.345  0.3806 -0.0795  0.6272
  662MPD2     C 9793   3.873   0.635  17.480  0.1920  0.3581 -0.0790
  662MPD2    C1 9794   3.846   0.561  17.594  0.2944  0.3275 -0.8003
  662MPD2    C2 9795   3.757   0.617  17.685  0.8680 -0.4089  0.2045
  662MPD2    C3 9796   3.700   0.739  17.669 -0.0273 -0.0655  0.1569
  662MPD2    C4 9797   3.711   0.803  17.548  0.2130 -0.7014  0.2434
  662MPD2    C5 9798   3.803   0.752  17.458 -0.1156 -0.8984 -0.0880
  662MPD2     H 9799   3.737   0.556   0.067  2.6301 -3.2407 -1.3476
  662MPD2    H1 9800   3.654   0.891  17.521 -1.0043 -0.7387  2.6480
  662MPD2    H2 9801   3.954   0.606  17.415  0.3123 -1.3374  0.8414
  662MPD2    H3 9802   3.811   0.786  17.356  2.2211 -0.5602  0.2002
  662MPD2     N 9803   3.615   0.789   0.062  0.8339  0.2780  0.2703
  662MPD2    H5 9804   3.550   0.859   0.028 -0.9135 -2.1471 -1.3365
  662MPD2    N1 9805   3.897   0.431  17.627 -0.2781 -0.5123  0.6050
  662MPD2    H7 9806   3.871   0.392   0.011 -3.5066 -0.4161 -0.2893
  663TMC3    C1 9807   3.994   0.222  17.570  0.4359  0.0083  0.2776
  663TMC3    C2 9808   4.000   0.193  17.706 -0.3451  0.5853 -0.0577
  663TMC3    C3 9809   4.065   0.078   0.049 -0.3084  0.5067 -0.6724
  663TMC3    C4 9810   4.042   0.137  17.479  0.0544 -0.1927  0.6207
  663TMC3    C5 9811   4.118   0.034  17.528  0.0770  0.1324  1.0070
  663TMC3    C6 9812   4.135   0.008  17.659 -0.0362 -0.1572  0.2627
  663TMC3     C 9813   3.959   0.356  17.530 -0.5436 -0.4086  0.5301
  663TMC3     O 9814   3.959   0.372  17.409  0.0111  0.2732  0.1522
  663TMC3     H 9815   4.005   0.273   0.074 -4.0658  1.6292 -0.9209
  663TMC3    H1 9816   4.043   0.155  17.372  1.0735  2.4098  1.0785
  663TMC3    H2 9817   4.187   4.644  17.691 -2.5187 -1.7392 -0.1404
  663TMC3    C7 9818   4.106   4.641  17.446 -0.3890 -0.0312 -0.7677
  663TMC3    C8 9819   3.997   4.714   0.132  0.7598  0.2624  0.0824
  663TMC3    O1 9820   4.125   4.652  17.327  0.7714  0.3326 -0.4593
  663TMC3    O2 9821   4.026   4.600   0.113 -0.3906 -0.3216  0.4416
  664MPD2     C 9822   1.466   3.676  17.560 -0.8208  0.7385  0.3464
  664MPD2    C1 9823   1.468   3.776  17.653 -0.0604 -0.4310  0.0224
  664MPD2    C2 9824   1.427   3.743   0.071 -0.5249  0.2298 -0.5926
  664MPD2    C3 9825   1.382   3.614   0.107 -0.0607 -0.2830  0.3631
  664MPD2    C4 9826   1.384   3.519   0.007 -0.5075  0.1075  0.1501
  664MPD2    C5 9827   1.432   3.547  17.584  0.4629  0.6345  0.3702
  664MPD2     H 9828   1.436   3.823   0.144  1.1172 -2.0509  1.7136
  664MPD2    H1 9829   1.361   3.415   0.030  0.7958 -0.7461 -2.3129
  664MPD2    H2 9830   1.490   3.703  17.457  0.2341 -0.4272  0.2801
  664MPD2    H3 9831   1.431   3.478  17.501 -1.0720  0.8483  0.2116
  664MPD2     N 9832   1.329   3.596   0.236 -0.3848  0.0657 -0.3258
  664MPD2    H5 9833   1.321   3.681   0.290 -0.0446  1.4772 -2.4897
  664MPD2    N1 9834   1.507   3.911  17.632 -0.2713 -0.0555 -0.0269
  664MPD2    H7 9835   1.519   3.970   0.007  0.4425  0.1390 -0.2793
  665TMC3    C1 9836   1.220   3.501   0.427 -0.6292 -0.1374 -0.8202
  665TMC3    C2 9837   1.220   3.379   0.494 -0.1249  0.8180 -0.1005
  665TMC3    C3 9838   1.156   3.371   0.613  0.0433  0.0654 -0.1257
  665TMC3    C4 9839   1.176   3.620   0.482 -0.5100  1.0708 -0.3274
  665TMC3    C5 9840   1.115   3.602   0.603  0.1544 -0.1272  0.4266
  665TMC3    C6 9841   1.098   3.482   0.659 -0.1988  0.3454  0.1087
  665TMC3     C 9842   1.274   3.488   0.290 -0.7383  0.0474 -0.9892
  665TMC3     O 9843   1.258   3.384   0.231 -0.6619 -0.0101 -0.0170
  665TMC3     H 9844   1.257   3.292   0.440 -3.4441 -0.4920 -0.2955
  665TMC3    H1 9845   1.185   3.719   0.438 -0.7377 -0.3785 -3.6108
  665TMC3    H2 9846   1.027   3.479   0.741  0.7218 -0.1530  0.8840
  665TMC3    C7 9847   1.041   3.718   0.659  0.0182 -0.1203 -0.1137
  665TMC3    C8 9848   1.088   3.244   0.649 -0.4715  0.0842  0.2001
  665TMC3    O1 9849   1.032   3.819   0.583  0.0216  0.1262  0.6766
  665TMC3    O2 9850   0.994   3.255   0.729 -0.2279  0.1989 -0.1604
  666TMC3    C1 9851   0.899   3.749  10.531  0.0575 -0.1664 -0.7376
  666TMC3    C2 9852   0.966   3.650  10.596  0.0539  0.7671  0.0396
  666TMC3    C3 9853   1.073   3.684  10.674  0.2381 -0.4063 -0.9013
  666TMC3    C4 9854   0.947   3.873  10.527  0.0886 -0.8246 -0.0271
  666TMC3    C5 9855   1.048   3.905  10.605  0.2287 -1.1380  0.0977
  666TMC3    C6 9856   1.104   3.814  10.686  0.2339  0.0222 -0.0951
  666TMC3     C 9857   0.807   3.708  10.428  0.3102  0.0607 -0.1247
  666TMC3     O 9858   0.777   3.796  10.353  0.1395 -0.4006 -0.3498
  666TMC3     H 9859   0.932   3.548  10.604 -1.1010  1.2276  1.0983
  666TMC3    H1 9860   0.898   3.946  10.462 -1.7767 -1.8373  0.2501
  666TMC3    H2 9861   1.176   3.858  10.754 -0.4410  0.4268  0.3588
  666TMC3    C7 9862   1.041   4.037  10.659 -0.4976 -0.2770 -1.0577
  666TMC3    C8 9863   1.135   3.580  10.757 -0.2248 -0.8172  0.7976
  666TMC3    O1 9864   1.035   4.051  10.782  0.1947 -0.2598  0.0066
  666TMC3    O2 9865   1.078   3.472  10.781  0.1477 -0.6451 -0.4538
  667MPD2     C 9866   2.906   3.807  14.720 -0.1658 -0.2158 -0.4778
  667MPD2    C1 9867   2.865   3.755  14.844  0.2510  0.2664  0.0651
  667MPD2    C2 9868   2.824   3.620  14.858  0.3323  0.2196  0.7203
  667MPD2    C3 9869   2.824   3.540  14.748  0.1410  0.3229  0.0643
  667MPD2    C4 9870   2.872   3.587  14.630 -0.1342 -0.3435  0.4889
  667MPD2    C5 9871   2.909   3.717  14.615  0.0894 -0.4143 -0.1946
  667MPD2     H 9872   2.790   3.583  14.954 -0.2372 -2.8612 -0.6619
  667MPD2    H1 9873   2.882   3.522  14.544  0.3162  2.1359 -1.3164
  667MPD2    H2 9874   2.960   3.901  14.714 -1.1818  0.3635 -0.6157
  667MPD2    H3 9875   2.949   3.755  14.522 -0.9763  0.2806 -0.3821
  667MPD2     N 9876   2.777   3.406  14.749 -0.3585  0.2700  0.4356
  667MPD2    H5 9877   2.793   3.353  14.664  1.5488 -0.1830  1.0782
  667MPD2    N1 9878   2.872   3.836  14.964 -0.1966 -0.2333 -0.8453
  667MPD2    H7 9879   2.867   3.774  15.044  3.3568 -2.2651 -2.1699
  668TMC3    C1 9880   2.912   4.026  15.099 -0.2504  0.1101 -1.0928
  668TMC3    C2 9881   2.976   4.147  15.108 -0.2148  0.0784 -1.2050
  668TMC3    C3 9882   2.987   4.212  15.225  0.3847  0.0029  0.8394
  668TMC3    C4 9883   2.842   3.976  15.205  0.0984 -0.3825 -0.3756
  668TMC3    C5 9884   2.847   4.045  15.320 -0.2481  0.5777  0.0173
  668TMC3    C6 9885   2.932   4.155  15.339 -1.0815  0.0288  0.0306
  668TMC3     C 9886   2.922   3.964  14.971  0.2370  0.2014  0.2826
  668TMC3     O 9887   2.936   4.044  14.880  0.1163  0.6224 -0.0529
  668TMC3     H 9888   3.017   4.195  15.019 -0.9486  0.6218 -1.2494
  668TMC3    H1 9889   2.796   3.879  15.194 -1.4422  0.3117 -0.1155
  668TMC3    H2 9890   2.942   4.195  15.439  0.1384 -2.3260  0.8524
  668TMC3    C7 9891   2.758   4.011  15.432  0.2267  0.4436  0.1730
  668TMC3    C8 9892   3.055   4.338  15.242 -0.4214  1.1387 -0.6253
  668TMC3    O1 9893   2.753   4.082  15.531  0.6252 -0.8251  0.3759
  668TMC3    O2 9894   3.116   4.332  15.348  0.4434  0.1410  0.2309
  669TMC3    C1 9895   0.747   3.277  14.862  0.4730 -0.2510  0.1596
  669TMC3    C2 9896   0.628   3.333  14.890 -0.8492  0.5067  0.5367
  669TMC3    C3 9897   0.610   3.460  14.847  0.3498  0.0347 -0.2774
  669TMC3    C4 9898   0.849   3.346  14.804  0.6148 -0.3383 -0.1365
  669TMC3    C5 9899   0.828   3.474  14.770 -0.2279  0.8145  0.1160
  669TMC3    C6 9900   0.714   3.535  14.791  0.6469  0.5933 -0.0551
  669TMC3     C 9901   0.778   3.165  14.943 -0.5767  0.0430  0.6651
  669TMC3     O 9902   0.692   3.086  14.971  0.0357 -0.1390  0.6062
  669TMC3     H 9903   0.546   3.270  14.924 -1.8306  0.7952 -1.2865
  669TMC3    H1 9904   0.943   3.295  14.785  0.7923 -1.5253  3.9185
  669TMC3    H2 9905   0.701   3.639  14.765 -0.5333  0.9896  2.1290
  669TMC3    C7 9906   0.908   3.520  14.654 -0.3121  0.0566 -0.0994
  669TMC3    C8 9907   0.472   3.492  14.804  0.1784  0.1495  0.5208
  669TMC3    O1 9908   0.965   3.434  14.586 -0.4193 -0.0916  0.5664
  669TMC3    O2 9909   0.388   3.406  14.820 -0.5237 -0.0997  0.3648
  670MPD2     C 9910   3.385   1.578  13.894 -0.0090  0.5946 -0.5166
  670MPD2    C1 9911   3.518   1.583  13.935  0.6378  0.2648  0.4090
  670MPD2    C2 9912   3.553   1.529  14.060 -0.4399 -0.6158 -0.3836
  670MPD2    C3 9913   3.448   1.481  14.137  0.4779  0.3230  0.5584
  670MPD2    C4 9914   3.316   1.483  14.094  0.0801  0.4161 -0.4869
  670MPD2    C5 9915   3.286   1.532  13.969 -0.2701 -0.4790  0.4212
  670MPD2     H 9916   3.651   1.538  14.105 -0.0506 -0.4555 -1.2642
  670MPD2    H1 9917   3.234   1.456  14.160  1.4173 -0.3427  0.8752
  670MPD2    H2 9918   3.349   1.615  13.799  0.5925  1.6450 -0.3336
  670MPD2    H3 9919   3.185   1.514  13.935 -1.2393  2.9545  1.5608
  670MPD2     N 9920   3.485   1.428  14.267  0.6932  0.1013  0.1008
  670MPD2    H5 9921   3.578   1.442  14.305  0.8342 -0.7004  0.0299
  670MPD2    N1 9922   3.615   1.640  13.858 -0.0609 -0.1322  0.0144
  670MPD2    H7 9923   3.711   1.643  13.893 -0.4072  0.9833  0.8547
  671TMC3    C1 9924   3.462   1.297  14.465  0.0301 -0.5646 -0.1144
  671TMC3    C2 9925   3.592   1.250  14.445 -0.4575 -0.4005 -0.1896
  671TMC3    C3 9926   3.631   1.149  14.529 -0.4911  0.4858  0.8233
  671TMC3    C4 9927   3.375   1.226  14.543 -0.4528 -0.1363  0.1407
  671TMC3    C5 9928   3.421   1.120  14.617  0.3440  0.2343  0.4494
  671TMC3    C6 9929   3.552   1.075  14.618 -0.1665  0.1003 -0.7613
  671TMC3     C 9930   3.402   1.353  14.347  0.5668  0.1885  0.6041
  671TMC3     O 9931   3.294   1.310  14.318 -0.1196 -0.0120  0.5403
  671TMC3     H 9932   3.661   1.305  14.382  0.1635 -1.1443 -0.1599
  671TMC3    H1 9933   3.269   1.248  14.540 -0.2573  1.1776  2.7369
  671TMC3    H2 9934   3.584   0.977  14.651  0.1996 -0.0615 -1.5863
  671TMC3    C7 9935   3.328   1.015  14.612 -0.6667  0.3676  0.2083
  671TMC3    C8 9936   3.768   1.104  14.492  0.0424 -0.3957 -0.4163
  671TMC3    O1 9937   3.226   1.011  14.682 -0.0223 -0.1012 -1.0365
  671TMC3    O2 9938   3.782   1.108  14.370 -1.1029 -0.0320  0.3584
  672MPD2     C 9939   2.490   2.002   1.645  0.2839  0.5726  0.7094
  672MPD2    C1 9940   2.550   1.971   1.522 -0.3229  0.0912 -0.6213
  672MPD2    C2 9941   2.650   2.050   1.479 -0.5935  0.6118 -0.3841
  672MPD2    C3 9942   2.706   2.156   1.558  0.2758  0.5230  0.5194
  672MPD2    C4 9943   2.654   2.179   1.681 -0.2924  0.4872  0.2178
  672MPD2    C5 9944   2.549   2.097   1.721 -0.6438  0.9258 -0.2431
  672MPD2     H 9945   2.680   2.029   1.377 -0.1696 -0.7837  0.0368
  672MPD2    H1 9946   2.680   2.254   1.756 -0.5160 -1.2710  2.0577
  672MPD2    H2 9947   2.415   1.932   1.680 -0.5601 -0.0063 -2.2532
  672MPD2    H3 9948   2.513   2.116   1.822  2.5396 -0.7593  1.2199
  672MPD2     N 9949   2.809   2.218   1.498  0.3820 -0.2099  0.6255
  672MPD2    H5 9950   2.820   2.198   1.400 -0.8998 -1.0077  0.6444
  672MPD2    N1 9951   2.503   1.871   1.440  0.0267 -0.0834 -0.6413
  672MPD2    H7 9952   2.548   1.870   1.349  0.1639  1.0360 -0.5889
  673TMC3    C1 9953   2.456   1.667   1.360 -0.6386  0.5590  0.3718
  673TMC3    C2 9954   2.472   1.535   1.397  0.5319  0.4042  0.0475
  673TMC3    C3 9955   2.551   1.455   1.326 -0.3032  0.4359 -0.4490
  673TMC3    C4 9956   2.524   1.713   1.249  0.5364 -0.2607 -0.0424
  673TMC3    C5 9957   2.604   1.623   1.176 -0.2193 -0.2104 -0.1462
  673TMC3    C6 9958   2.622   1.495   1.216 -0.1451  0.0642  0.2249
  673TMC3     C 9959   2.440   1.751   1.471 -0.2702  0.5607 -0.5122
  673TMC3     O 9960   2.378   1.728   1.571 -0.3940  0.2199  0.1300
  673TMC3     H 9961   2.425   1.504   1.489 -0.5450  0.2357 -0.5560
  673TMC3    H1 9962   2.518   1.812   1.206 -0.3632 -0.6628 -0.8387
  673TMC3    H2 9963   2.692   1.433   1.161  0.0383  0.4394  0.0342
  673TMC3    C7 9964   2.703   1.678   1.083 -0.3540  0.2046  0.2651
  673TMC3    C8 9965   2.597   1.327   1.388 -0.1726  0.5966  0.1094
  673TMC3    O1 9966   2.797   1.603   1.056  0.3133 -0.0815  0.1827
  673TMC3    O2 9967   2.513   1.251   1.434  0.1266 -0.2258  0.2257
  674MPD2     C 9968   3.602   2.037   0.970  0.7405 -0.6817 -0.7152
  674MPD2    C1 9969   3.578   1.908   1.001 -0.1145  0.4454  0.2840
  674MPD2    C2 9970   3.486   1.838   0.927 -0.0370  0.3044 -0.8149
  674MPD2    C3 9971   3.420   1.893   0.822  0.3407  0.7943 -0.4922
  674MPD2    C4 9972   3.446   2.020   0.792  0.1768  0.2613 -0.2724
  674MPD2    C5 9973   3.546   2.088   0.863 -0.0383 -0.2527  0.0945
  674MPD2     H 9974   3.456   1.738   0.958 -1.5074  1.2033  0.6450
  674MPD2    H1 9975   3.398   2.068   0.707  1.5206  0.4607 -0.9190
  674MPD2    H2 9976   3.669   2.101   1.027  1.7792 -1.9676 -0.4907
  674MPD2    H3 9977   3.577   2.187   0.833 -0.0129 -0.6071 -1.0739
  674MPD2     N 9978   3.323   1.809   0.754  0.6559  0.1595  0.1675
  674MPD2    H5 9979   3.309   1.713   0.786 -1.1173  0.7726  1.2082
  674MPD2    N1 9980   3.642   1.846   1.109  0.3829  0.1405  0.3674
  674MPD2    H7 9981   3.639   1.744   1.108 -1.2951  0.2051 -1.2640
  675TMC3    C1 9982   3.687   1.825   1.338  0.3843 -0.1992 -0.1885
  675TMC3    C2 9983   3.632   1.699   1.334 -0.1239 -0.6010 -0.7338
  675TMC3    C3 9984   3.656   1.610   1.430  0.1738  0.4835  0.2949
  675TMC3    C4 9985   3.772   1.855   1.437 -0.1000 -0.3467  0.5727
  675TMC3    C5 9986   3.817   1.754   1.519  0.0099 -0.0136 -0.3119
  675TMC3    C6 9987   3.758   1.624   1.517 -0.1537 -0.4670  0.2695
  675TMC3     C 9988   3.682   1.916   1.221  0.7337  0.3368  0.6347
  675TMC3     O 9989   3.694   2.037   1.242  0.3960  0.2815  0.0856
  675TMC3     H 9990   3.559   1.684   1.255  0.2098 -2.1403 -0.7511
  675TMC3    H1 9991   3.823   1.949   1.425  0.4790 -0.8985 -1.3204
  675TMC3    H2 9992   3.803   1.547   1.578  1.2173 -0.2413 -0.4654
  675TMC3    C7 9993   3.883   1.793   1.643  0.2965  0.0137  0.6447
  675TMC3    C8 9994   3.583   1.488   1.418 -0.0711  0.6460  0.1475
  675TMC3    O1 9995   3.891   1.709   1.733  0.6459 -0.1296  0.4861
  675TMC3    O2 9996   3.474   1.492   1.359 -0.5878  0.2513  0.4253
  676MPD2     C 9997   1.566   0.242  11.504 -0.3916  0.6116  0.4671
  676MPD2    C1 9998   1.495   0.166  11.592  0.0418 -0.4450  0.6071
  676MPD2    C2 9999   1.474   0.037  11.560 -0.5568 -0.4526  0.0955
  676MPD2    C310000   1.543   4.702  11.455  0.3232 -0.2419 -0.8330
  676MPD2    C410001   1.608   0.053  11.364 -0.0097 -0.7077  0.5150
  676MPD2    C510002   1.631   0.182  11.402 -1.0435 -0.1187  0.3005
  676MPD2     H10003   1.422   4.695  11.626  1.1849 -1.3913  0.5194
  676MPD2    H110004   1.663   0.003  11.285 -0.7543 -0.7903  0.0458
  676MPD2    H210005   1.593   0.345  11.527  1.0914  0.2131  0.5572
  676MPD2    H310006   1.699   0.236  11.336 -1.0377  1.1817  1.3809
  676MPD2     N10007   1.519   4.568  11.417 -0.5386 -0.1274 -0.5251
  676MPD2    H510008   1.553   4.536  11.327 -0.9888 -0.7935 -0.4587
  676MPD2    N110009   1.417   0.222  11.701 -0.3062 -0.1893  0.4394
  676MPD2    H710010   1.367   0.156  11.761  0.2173 -0.4783  0.5640
  677TMC3    C110011   1.361   0.375  11.876 -0.2101 -0.0839 -0.1098
  677TMC3    C210012   1.264   0.297  11.930  0.0354  0.3053  0.5571
  677TMC3    C310013   1.217   0.337  12.051  0.1048  0.1737  0.5576
  677TMC3    C410014   1.398   0.495  11.935  0.2439  0.5875  0.6556
  677TMC3    C510015   1.346   0.524  12.056  1.1110 -0.5382  0.2280
  677TMC3    C610016   1.249   0.449  12.116 -0.7321 -0.2274  0.0083
  677TMC3     C10017   1.439   0.341  11.763 -0.1248  0.3841 -0.6024
  677TMC3     O10018   1.536   0.418  11.748  0.0958 -0.1383  0.3653
  677TMC3     H10019   1.222   0.211  11.880  1.1860  0.4225 -0.6002
  677TMC3    H110020   1.478   0.557  11.897  1.6963 -0.7383  1.5751
  677TMC3    H210021   1.233   0.456  12.223  0.0529 -1.0135  0.1793
  677TMC3    C710022   1.396   0.640  12.128 -0.2697  0.4274  0.3529
  677TMC3    C810023   1.128   0.239  12.114 -0.5342 -0.2286  0.4230
  677TMC3    O110024   1.374   0.648  12.247  0.0112 -0.6866  0.4047
  677TMC3    O210025   1.017   0.234  12.061  0.4117 -0.1990 -0.1236
  678MPD2     C10026   2.153   4.671   1.330  0.0752 -0.3385 -0.3502
  678MPD2    C110027   2.162   4.545   1.276  0.1154 -0.2942 -0.0155
  678MPD2    C210028   2.046   4.468   1.262 -0.4000  0.0140 -0.0496
  678MPD2    C310029   1.921   4.525   1.283 -0.2738 -0.5760  0.0864
  678MPD2    C410030   1.911   4.654   1.329  0.2307  0.1359  0.5738
  678MPD2    C510031   2.025   4.724   1.355  0.5427  0.0935 -0.3968
  678MPD2     H10032   2.072   4.370   1.224 -1.3266 -0.3391  0.2198
  678MPD2    H110033   1.817   4.706   1.344  0.7797  1.1991  0.3254
  678MPD2    H210034   2.236   0.013   1.336 -0.0047 -0.2736 -0.0286
  678MPD2    H310035   2.020   0.099   1.392 -0.3689 -1.2865  3.2555
  678MPD2     N10036   1.809   4.447   1.257  0.7796 -0.5123  0.5087
  678MPD2    H510037   1.831   4.365   1.200  1.5230  1.8836 -2.6794
  678MPD2    N110038   2.285   4.490   1.231 -0.2808  0.4420  0.2268
  678MPD2    H710039   2.274   4.398   1.190 -1.3928  0.8083 -0.3082
  679TMC3    C110040   2.617   4.256   1.175 -0.2503 -0.3807 -0.0519
  679TMC3    C210041   2.501   4.334   1.187  0.4219 -0.1781 -0.5477
  679TMC3    C310042   2.519   4.464   1.228  0.3152  0.3824 -0.1241
  679TMC3    C410043   2.741   4.312   1.186 -1.0231 -0.2197 -0.1002
  679TMC3    C510044   2.756   4.444   1.215  0.2698 -0.3699  0.2227
  679TMC3    C610045   2.644   4.517   1.243 -0.0430 -0.5084  0.3308
  679TMC3     C10046   2.610   4.127   1.113  0.4278  0.7627  0.3105
  679TMC3     O10047   2.702   4.048   1.132 -0.2647  0.9688  0.0796
  679TMC3     H10048   2.406   4.282   1.194  0.4023 -0.3300 -1.9691
  679TMC3    H110049   2.836   4.262   1.168  1.6232  4.2262  1.3858
  679TMC3    H210050   2.654   4.624   1.260 -0.4316 -0.2758 -0.8938
  679TMC3    C710051   2.864   4.518   1.156 -0.8145  0.5843  0.4588
  679TMC3    C810052   2.406   4.545   1.261 -0.3022 -0.2556 -0.2142
  679TMC3    O110053   2.841   4.632   1.122 -1.0032  0.2113 -0.1064
  679TMC3    O210054   2.435   4.647   1.320 -0.0227 -0.0422 -0.1492
  680MPD2     C10055   4.093   3.411  13.815  0.3790  0.8079 -0.1735
  680MPD2    C110056   3.992   3.389  13.906  0.1306  0.1197 -0.3730
  680MPD2    C210057   3.922   3.496  13.957 -1.0907 -0.6240 -0.2162
  680MPD2    C310058   3.950   3.625  13.914 -0.1627 -0.3867  0.2634
  680MPD2    C410059   4.060   3.643  13.829  0.4807 -0.1413  0.4704
  680MPD2    C510060   4.124   3.538  13.771 -0.3531  0.1676 -0.1922
  680MPD2     H10061   3.841   3.476  14.026  1.4681 -0.7480  2.7728
  680MPD2    H110062   4.086   3.744  13.801  0.1335 -1.0596 -3.1578
  680MPD2    H210063   4.146   3.328  13.769  1.6320  1.6572 -0.2797
  680MPD2    H310064   4.196   3.563  13.693  0.0302  1.9740  0.7356
  680MPD2     N10065   3.893   3.746  13.968 -0.4635 -0.1154 -0.2293
  680MPD2    H510066   3.932   3.832  13.931 -2.6541  1.6538  1.5447
  680MPD2    N110067   3.951   3.260  13.944 -0.0259 -0.0233 -0.2202
  680MPD2    H710068   3.894   3.268  14.028 -0.2371 -0.9451 -0.2831
  681TMC3    C110069   3.906   3.025  13.941 -0.4490  0.1513  1.2091
  681TMC3    C210070   3.854   3.028  14.070  0.5470 -0.3936  0.5222
  681TMC3    C310071   3.766   2.921  14.097 -0.2402  0.1985 -0.0798
  681TMC3    C410072   3.882   2.922  13.856 -0.2492  0.0435  0.0990
  681TMC3    C510073   3.785   2.831  13.893 -0.0647 -0.2192 -0.2019
  681TMC3    C610074   3.733   2.819  14.019  0.4185  0.5348  0.0521
  681TMC3     C10075   3.978   3.143  13.879  0.4762 -0.4515  0.8865
  681TMC3     O10076   4.062   3.118  13.792 -0.5262 -0.3550  0.0946
  681TMC3     H10077   3.868   3.107  14.143 -1.0961 -0.8552  1.3443
  681TMC3    H110078   3.923   2.938  13.757  0.7990 -0.2326  0.4801
  681TMC3    H210079   3.675   2.733  14.051  2.7026  0.0189  2.8013
  681TMC3    C710080   3.717   2.756  13.790 -0.0984 -1.0237  0.3977
  681TMC3    C810081   3.705   2.907  14.228 -0.6953 -0.7124  0.0773
  681TMC3    O110082   3.661   2.653  13.822 -0.2286  0.0765 -0.3108
  681TMC3    O210083   3.625   2.817  14.250  0.4465 -0.1681 -0.2307
  682MPD2     C10084   0.936   0.326  11.517  0.4940 -0.2094 -0.5062
  682MPD2    C110085   0.891   0.199  11.505  0.3308 -0.2283  0.0202
  682MPD2    C210086   0.856   0.131  11.623  0.0358 -0.0761 -0.2400
  682MPD2    C310087   0.881   0.192  11.746  0.0232  0.2572 -0.2783
  682MPD2    C410088   0.935   0.318  11.758 -0.4170 -0.3915 -0.6274
  682MPD2    C510089   0.963   0.386  11.639  0.5979 -0.1473 -0.7638
  682MPD2     H10090   0.801   0.041  11.601  1.3548 -0.2545 -2.7704
  682MPD2    H110091   0.959   0.366  11.853  0.5207 -0.7898 -0.6600
  682MPD2    H210092   0.954   0.377  11.423 -1.1218 -0.3657 -0.8956
  682MPD2    H310093   1.006   0.486  11.650  1.7534 -0.7220  0.0057
  682MPD2     N10094   0.842   0.131  11.867 -0.1186  0.3530  0.3300
  682MPD2    H510095   0.887   0.184  11.942  0.8383  2.1432 -1.5040
  682MPD2    N110096   0.882   0.123  11.387 -0.6874  0.0434  0.0516
  682MPD2    H710097   0.842   0.030  11.386  2.4821 -1.2844 -1.4255
  683TMC3    C110098   0.704   4.695  12.242  0.5290  0.4848 -0.1160
  683TMC3    C210099   0.669   4.558  12.246  0.2349  0.7976  0.0055
  683TMC3    C310100   0.659   4.499  12.125 -0.6256 -0.6335 -0.0307
  683TMC3    C410101   0.748   0.028  12.122 -0.6229  0.1659  0.1686
  683TMC3    C510102   0.757   4.680  12.007 -0.0344 -0.4174  1.0805
  683TMC3    C610103   0.698   4.558  12.012  0.2216 -0.4382  0.6417
  683TMC3     C10104   0.705   0.053  12.364  0.0982  0.2279  0.4545
  683TMC3     O10105   0.707   0.171  12.349 -0.5801  0.0097 -0.8586
  683TMC3     H10106   0.644   4.507  12.338  1.4791 -0.9581 -0.6401
  683TMC3    H110107   0.790   0.128  12.115  2.5153 -1.3698 -2.7934
  683TMC3    H210108   0.713   4.492  11.928  2.0251 -0.2533  0.8056
  683TMC3    C710109   0.762   0.019  11.880 -0.3363  0.2613  0.3210
  683TMC3    C810110   0.611   4.360  12.119  0.6816  0.4806  0.2537
  683TMC3    O110111   0.681   4.703  11.798 -0.2127 -0.6786  0.1343
  683TMC3    O210112   0.627   4.293  12.219 -0.0475  0.0006 -0.7876
  684MPD2     C10113   3.758   4.316  16.719 -0.0616  0.3284 -0.2856
  684MPD2    C110114   3.780   4.320  16.582 -0.0903  0.0496  0.2435
  684MPD2    C210115   3.811   4.440  16.518 -1.1412  0.1127  0.6692
  684MPD2    C310116   3.817   4.558  16.594 -0.2231  0.1104  1.1106
  684MPD2    C410117   3.783   4.554  16.731 -0.0399 -0.1051 -0.1160
  684MPD2    C510118   3.750   4.432  16.788 -0.5900  0.0130 -0.1533
  684MPD2     H10119   3.845   4.435  16.415 -2.4247 -1.9659  0.3480
  684MPD2    H110120   3.800   4.639  16.796  1.0061 -0.1235 -0.3691
  684MPD2    H210121   3.740   4.230  16.783  0.5527 -2.2457 -3.5921
  684MPD2    H310122   3.730   4.433  16.894  1.4183 -0.7857  0.2377
  684MPD2     N10123   3.851   4.683  16.550 -0.3510  0.6497 -0.2593
  684MPD2    H510124   3.867   0.029  16.620 -0.2153  0.9900 -0.6467
  684MPD2    N110125   3.769   4.206  16.500  0.2360  0.2515  0.5390
  684MPD2    H710126   3.757   4.222  16.400  2.0441 -2.2101 -0.0933
  685TMC3    C110127   3.778   3.982  16.425 -1.0245  0.5957 -0.3127
  685TMC3    C210128   3.699   3.996  16.319  0.3372  0.3336 -0.4988
  685TMC3    C310129   3.732   3.923  16.212 -0.4000  0.2446 -0.0979
  685TMC3    C410130   3.870   3.884  16.436 -0.2170 -0.7213 -0.5084
  685TMC3    C510131   3.899   3.809  16.328  0.2392  0.1228  0.3042
  685TMC3    C610132   3.832   3.827  16.218  0.1577  0.5877  0.4672
  685TMC3     C10133   3.756   4.073  16.537 -0.0459 -0.6905 -0.4056
  685TMC3     O10134   3.758   4.027  16.648  0.5637  0.0391 -0.0739
  685TMC3     H10135   3.611   4.059  16.330  0.0407 -0.0737 -0.5292
  685TMC3    H110136   3.936   3.884  16.522 -1.6597 -2.3506  0.5900
  685TMC3    H210137   3.880   3.786  16.129 -1.0756 -0.9623  0.5134
  685TMC3    C710138   3.954   3.677  16.350 -0.3804 -0.3886 -0.0587
  685TMC3    C810139   3.627   3.900  16.111  0.1638 -0.5174  0.3065
  685TMC3    O110140   3.961   3.614  16.247 -0.4205 -0.3491  0.2567
  685TMC3    O210141   3.630   3.795  16.049  0.7391  0.6103  0.4309
  686MPD2     C10142   0.779   3.770  16.010  0.0031 -0.6355 -0.7049
  686MPD2    C110143   0.661   3.702  16.025  0.1855 -0.1217 -0.1807
  686MPD2    C210144   0.657   3.566  15.998  0.0778  0.3660  0.8691
  686MPD2    C310145   0.777   3.502  15.971 -0.3554  0.0776 -0.5582
  686MPD2    C410146   0.900   3.568  15.974 -0.3234  0.8946  0.0143
  686MPD2    C510147   0.897   3.707  15.988  0.5991 -0.2406  0.2486
  686MPD2     H10148   0.561   3.517  15.988 -0.7054  2.2947 -0.9666
  686MPD2    H110149   0.995   3.520  15.954 -0.9290 -0.2676 -0.0901
  686MPD2    H210150   0.767   3.878  16.018 -2.1659 -0.8092 -1.4525
  686MPD2    H310151   0.990   3.760  15.973 -1.1255  3.1460  1.4806
  686MPD2     N10152   0.769   3.367  15.917  0.0821 -0.6551  0.0922
  686MPD2    H510153   0.846   3.338  15.859 -1.2966 -0.0335 -2.0493
  686MPD2    N110154   0.542   3.771  16.056  0.2458 -0.0863  0.4648
  686MPD2    H710155   0.537   3.871  16.039 -2.4414 -0.3679 -0.3927
  687TMC3    C110156   0.604   3.280  16.077  0.3432  0.7371  0.0240
  687TMC3    C210157   0.463   3.265  16.069  0.7933 -0.0017 -0.3403
  687TMC3    C310158   0.388   3.289  16.183 -0.0976  0.3072 -0.5930
  687TMC3    C410159   0.668   3.319  16.192  0.0798  0.0120  0.2850
  687TMC3    C510160   0.589   3.352  16.302 -0.0572  0.1979 -0.3845
  687TMC3    C610161   0.452   3.340  16.295 -0.1929  0.4810 -0.1418
  687TMC3     C10162   0.668   3.270  15.949  0.2272 -0.4186 -0.3110
  687TMC3     O10163   0.638   3.174  15.879 -0.0309  0.3024  0.1050
  687TMC3     H10164   0.421   3.224  15.978 -1.4348  2.4291 -0.4021
  687TMC3    H110165   0.777   3.316  16.192  0.1504  2.5422 -0.4432
  687TMC3    H210166   0.389   3.367  16.379 -1.3376  1.4070 -1.3018
  687TMC3    C710167   0.632   3.470  16.376 -0.0436  0.1851 -0.4475
  687TMC3    C810168   0.247   3.332  16.157 -0.1058  0.2012 -0.3983
  687TMC3    O110169   0.560   3.526  16.463  0.5207  0.5142 -0.3321
  687TMC3    O210170   0.160   3.308  16.238 -0.1690  0.4219  0.3430
  688MPD2     C10171   4.364   2.924   0.056 -0.2362  0.1962 -0.4808
  688MPD2    C110172   4.321   2.805   0.002  0.4195 -0.5572 -0.3064
  688MPD2    C210173   4.407   2.731  17.628  0.4508  0.6561 -0.0584
  688MPD2    C310174   4.538   2.776  17.607 -0.0654  0.0126  0.2719
  688MPD2    C410175   4.579   2.889  17.675  0.3504  0.3147 -0.7706
  688MPD2    C510176   4.492   2.957   0.047  0.6854 -0.2152 -0.3792
  688MPD2     H10177   4.372   2.638  17.584  3.3966 -0.8791  0.8287
  688MPD2    H110178   4.675   2.937  17.665  0.6662 -0.4474 -1.4526
  688MPD2    H210179   4.295   2.970   0.125  0.8674  0.0855  0.6969
  688MPD2    H310180   4.530   3.045   0.097  0.4298 -0.8161  0.8694
  688MPD2     N10181   4.635   2.718  17.524  0.0066 -0.2178 -0.5760
  688MPD2    H510182   4.722   2.771  17.523 -0.8713  1.2604  0.8746
  688MPD2    N110183   4.186   2.758   0.019  0.5669 -0.0713  0.3072
  688MPD2    H710184   4.160   2.675  17.672  0.2482  1.3771 -1.7821
  689TMC3    C110185   3.968   2.738   0.111  0.6390  0.6993  0.0558
  689TMC3    C210186   3.848   2.801   0.143  0.9907 -0.2229 -0.0841
  689TMC3    C310187   3.734   2.719   0.167 -0.0044  0.3416  0.5609
  689TMC3    C410188   3.972   2.597   0.103 -0.1656  0.3344 -0.1040
  689TMC3    C510189   3.856   2.529   0.119  0.6679 -0.2200  0.4682
  689TMC3    C610190   3.738   2.581   0.160 -1.0899  0.1574 -0.6252
  689TMC3     C10191   4.084   2.821   0.090  0.0992 -0.3724 -0.2075
  689TMC3     O10192   4.080   2.938   0.127 -0.8929 -0.0695 -0.0797
  689TMC3     H10193   3.831   2.907   0.135  0.0816 -0.3433  0.3025
  689TMC3    H110194   4.064   2.544   0.082 -0.7080 -0.2946 -0.8928
  689TMC3    H210195   3.651   2.520   0.182  0.3062 -1.2562  0.9079
  689TMC3    C710196   3.869   2.385   0.108  0.1955 -0.1448 -1.1420
  689TMC3    C810197   3.616   2.783   0.207  0.6938 -0.1036 -0.8913
  689TMC3    O110198   3.968   2.326   0.156  0.0776 -0.0067 -0.0401
  689TMC3    O210199   3.548   2.728   0.290 -0.1928 -0.5662 -0.6105
  690MPD2     C10200   2.046   4.473  16.122 -0.1864  0.1336  0.2472
  690MPD2    C110201   2.067   4.586  16.033  0.4352  0.3914  0.1199
  690MPD2    C210202   2.197   4.642  16.018 -0.0252  0.1116 -0.2450
  690MPD2    C310203   2.302   4.597  16.100 -0.4624  0.0067 -0.0495
  690MPD2    C410204   2.270   4.493  16.184 -0.2522  0.6161  0.0392
  690MPD2    C510205   2.151   4.432  16.196 -0.0402  0.0113  0.0907
  690MPD2     H10206   2.202   4.724  15.947  1.0776  0.0331 -0.2629
  690MPD2    H110207   2.353   4.450  16.239 -0.4535  0.3617  0.1447
  690MPD2    H210208   1.955   4.415  16.136 -0.2592 -0.4063 -2.5183
  690MPD2    H310209   2.147   4.338  16.250 -0.7532 -0.7385 -1.2710
  690MPD2     N10210   2.432   4.646  16.080  0.0053  0.0419  0.4343
  690MPD2    H510211   2.443   4.718  16.009  1.3105 -3.6323 -3.1068
  690MPD2    N110212   1.965   4.628  15.953  0.3517 -0.1783  0.1464
  690MPD2    H710213   1.990   4.673  15.866  1.3312 -1.5822 -0.2988
  691TMC3    C110214   1.759   4.601  15.843 -0.2912 -0.2204  0.3528
  691TMC3    C210215   1.624   4.617  15.868 -0.0372  0.6254  0.1146
  691TMC3    C310216   1.537   4.537  15.796  0.1640 -0.7376  0.2537
  691TMC3    C410217   1.804   4.511  15.751  0.5572 -0.2979  0.1824
  691TMC3    C510218   1.720   4.436  15.678 -0.1287  0.4781  0.2384
  691TMC3    C610219   1.580   4.451  15.697 -0.6224 -0.8471  0.0126
  691TMC3     C10220   1.835   4.583  15.962 -0.5126  0.9357 -0.0285
  691TMC3     O10221   1.769   4.532  16.054  0.0345  0.1545 -0.2893
  691TMC3     H10222   1.594   4.663  15.962 -0.9859 -1.8992  1.0337
  691TMC3    H110223   1.911   4.501  15.743  0.4806 -1.0031  0.0520
  691TMC3    H210224   1.505   4.400  15.637 -0.7276 -0.3198 -0.3036
  691TMC3    C710225   1.773   4.299  15.656 -0.7713 -0.2990 -0.1201
  691TMC3    C810226   1.397   4.529  15.831  0.7936  0.1798 -0.1629
  691TMC3    O110227   1.893   4.286  15.640 -0.4418  0.4567 -0.0620
  691TMC3    O210228   1.334   4.430  15.794 -0.6799  0.0860  0.6014
  692TMC3    C110229   3.505   1.113  16.220 -0.1509  0.6582 -0.1049
  692TMC3    C210230   3.618   1.136  16.291 -0.6794 -0.6203 -0.4554
  692TMC3    C310231   3.737   1.079  16.259  0.2985 -0.1965 -0.2666
  692TMC3    C410232   3.498   1.032  16.114  0.1415 -1.1001 -0.8315
  692TMC3    C510233   3.617   0.974  16.079  0.3023 -0.7883  0.0555
  692TMC3    C610234   3.731   0.995  16.157  0.0328  0.3279 -1.1428
  692TMC3     C10235   3.409   1.215  16.223  0.3712 -0.0395  0.7194
  692TMC3     O10236   3.305   1.205  16.160  0.4477  0.2225 -0.7131
  692TMC3     H10237   3.615   1.179  16.391  1.7464 -2.0098  0.2298
  692TMC3    H110238   3.406   1.006  16.062  0.0619  2.1361 -2.3303
  692TMC3    H210239   3.827   0.985  16.108 -0.1403  0.1041 -1.4374
  692TMC3    C710240   3.630   0.871  15.982 -0.2681  0.2950  0.1156
  692TMC3    C810241   3.814   1.022  16.371 -0.0984 -0.2274 -0.5067
  692TMC3    O110242   3.545   0.873  15.889  0.3469 -0.1139 -0.2655
  692TMC3    O210243   3.863   0.912  16.346 -0.9339  0.0792 -0.3104
  693MPD2     C10244   2.322   4.348  11.352 -0.1845  0.1343  0.4341
  693MPD2    C110245   2.327   4.225  11.283 -0.0987 -0.6841  0.2840
  693MPD2    C210246   2.442   4.199  11.208  1.0279  0.5306 -0.3130
  693MPD2    C310247   2.546   4.287  11.195 -0.2955 -0.1611  0.1512
  693MPD2    C410248   2.535   4.408  11.261  0.3871  0.0437 -0.3092
  693MPD2    C510249   2.421   4.443  11.330  0.1165  0.0746  1.2317
  693MPD2     H10250   2.460   4.102  11.163  1.2620  0.2671  0.3477
  693MPD2    H110251   2.614   4.482  11.261  1.0334 -0.6620 -0.0527
  693MPD2    H210252   2.239   4.376  11.415 -1.5843 -0.7731 -1.0054
  693MPD2    H310253   2.419   4.531  11.393 -0.6202 -0.4257  1.9122
  693MPD2     N10254   2.670   4.264  11.131 -0.0555 -0.2195 -0.0176
  693MPD2    H510255   2.743   4.328  11.161 -0.6864  0.3914  0.2180
  693MPD2    N110256   2.217   4.135  11.287 -0.1856  0.6242 -0.2821
  693MPD2    H710257   2.152   4.149  11.364 -1.4132  2.1880 -1.5948
  694TMC3    C110258   2.128   3.923  11.261 -0.0966 -0.0253 -0.2028
  694TMC3    C210259   2.053   3.851  11.172 -0.4166 -0.7197  0.1022
  694TMC3    C310260   2.010   3.729  11.213  0.1987 -0.0145  0.0534
  694TMC3    C410261   2.173   3.875  11.379  0.5934  0.4703 -0.6515
  694TMC3    C510262   2.138   3.745  11.404 -0.0147  0.3681  0.3799
  694TMC3    C610263   2.054   3.672  11.324  0.2510 -0.4779 -0.2755
  694TMC3     C10264   2.201   4.034  11.200  0.7527 -0.2053 -0.0293
  694TMC3     O10265   2.242   4.017  11.087 -0.4917 -0.2533 -0.2305
  694TMC3     H10266   1.997   3.902  11.095 -1.7682 -0.0717  1.5238
  694TMC3    H110267   2.241   3.934  11.440 -2.7465  2.0920  1.4892
  694TMC3    H210268   2.018   3.575  11.356  1.4136 -1.1641 -1.0891
  694TMC3    C710269   2.210   3.685  11.516  0.1471  0.2326  0.2958
  694TMC3    C810270   1.920   3.656  11.127 -0.3169 -0.0708 -0.2195
  694TMC3    O110271   2.240   3.762  11.607  0.0661 -0.0812  0.3480
  694TMC3    O210272   1.867   3.552  11.168 -0.0552  0.2308  0.5288
  695MPD2     C10273   3.930   0.919  13.595  1.0624  0.4535  0.4127
  695MPD2    C110274   3.881   0.858  13.705  0.1384 -0.1485 -0.0991
  695MPD2    C210275   3.746   0.864  13.728 -0.1869 -0.2227  0.2083
  695MPD2    C310276   3.654   0.929  13.645 -0.0617 -0.3861 -1.1331
  695MPD2    C410277   3.705   0.992  13.531  0.6588  0.1529  0.0804
  695MPD2    C510278   3.839   0.988  13.514 -0.4954 -0.7960 -0.6113
  695MPD2     H10279   3.707   0.805  13.810  0.7601 -0.5345  0.4367
  695MPD2    H110280   3.648   1.052  13.461  1.5239 -0.4513 -1.1265
  695MPD2    H210281   4.036   0.938  13.582  1.1983  1.8830  3.6373
  695MPD2    H310282   3.884   1.054  13.441  1.5579 -0.0542  1.3119
  695MPD2     N10283   3.518   0.906  13.674 -0.3838 -0.2499 -0.3376
  695MPD2    H510284   3.491   0.841  13.747 -2.6454  1.5695  0.4668
  695MPD2    N110285   3.967   0.791  13.794 -0.1575  0.2496 -0.4567
  695MPD2    H710286   3.925   0.758  13.880 -0.5691 -2.1716 -1.5846
  696TMC3    C110287   3.288   0.939  13.662  0.9632 -0.2208 -0.2925
  696TMC3    C210288   3.272   0.851  13.760  0.7587  0.1264 -0.5151
  696TMC3    C310289   3.167   0.864  13.847 -0.2205 -0.5246 -0.0454
  696TMC3    C410290   3.190   1.035  13.645 -0.1626  0.0528 -0.5176
  696TMC3    C510291   3.082   1.041  13.727 -0.1034  0.2343 -0.5765
  696TMC3    C610292   3.076   0.959  13.837  0.3608 -0.4067 -0.0495
  696TMC3     C10293   3.421   0.975  13.611  0.3953  0.0799  0.6372
  696TMC3     O10294   3.426   1.047  13.514 -0.3867 -0.1955 -0.3610
  696TMC3     H10295   3.344   0.771  13.773  0.7977  0.2814  0.2325
  696TMC3    H110296   3.207   1.119  13.579  2.8663 -0.3701 -0.2854
  696TMC3    H210297   2.994   0.969  13.908  0.3764 -1.1962  0.0772
  696TMC3    C710298   3.014   1.171  13.731 -0.2981 -0.1280  0.3104
  696TMC3    C810299   3.214   0.847  13.984 -0.3164  0.1349 -0.1017
  696TMC3    O110300   3.001   1.235  13.626  0.3338  0.0402  0.1912
  696TMC3    O210301   3.328   0.877  14.000 -0.1886  0.4948 -0.5420
  697MPD2     C10302   2.962   2.598  16.134 -0.1403 -0.1428 -0.0519
  697MPD2    C110303   2.928   2.564  16.004  0.0292 -0.2566  0.3717
  697MPD2    C210304   2.925   2.668  15.908 -0.1764  0.2889  0.1369
  697MPD2    C310305   2.959   2.801  15.938  0.1599 -0.5248  0.1104
  697MPD2    C410306   2.994   2.833  16.071  0.3695  0.6196 -0.1814
  697MPD2    C510307   2.988   2.730  16.164  0.0456  0.5359  0.0313
  697MPD2     H10308   2.886   2.641  15.811 -1.4585 -0.8089  0.9590
  697MPD2    H110309   3.009   2.934  16.109  0.7001 -0.2015  1.8627
  697MPD2    H210310   2.972   2.524  16.212  2.5679  0.4746  0.2058
  697MPD2    H310311   3.017   2.756  16.266  2.4158  0.6199 -0.6734
  697MPD2     N10312   2.953   2.899  15.837 -0.1197 -0.3608  0.5988
  697MPD2    H510313   2.958   2.861  15.743  0.8243 -0.5018  0.7008
  697MPD2    N110314   2.904   2.431  15.964  0.7293  0.1506 -0.5537
  697MPD2    H710315   2.887   2.410  15.867 -5.5529  0.8960  0.3835
  698TMC3    C110316   3.003   3.116  15.742  1.0319 -0.0153 -0.6239
  698TMC3    C210317   3.063   3.241  15.767  0.0678 -0.2794  0.0373
  698TMC3    C310318   3.118   3.302  15.666 -0.5592  0.2127 -0.4896
  698TMC3    C410319   3.001   3.060  15.610 -0.3303  0.5125 -0.1041
  698TMC3    C510320   3.070   3.123  15.510 -0.5998  0.7661 -0.2834
  698TMC3    C610321   3.127   3.246  15.536  0.0240 -1.0657 -0.4208
  698TMC3     C10322   2.969   3.037  15.860 -0.3440 -0.1885  0.2381
  698TMC3     O10323   2.958   3.090  15.967  0.5689 -0.7690 -0.4571
  698TMC3     H10324   3.066   3.280  15.868  1.2305 -0.1486 -0.0584
  698TMC3    H110325   2.955   2.964  15.593  0.4614  0.1521 -0.1970
  698TMC3    H210326   3.165   3.296  15.447 -1.5382  2.2853  0.7939
  698TMC3    C710327   3.059   3.072  15.374 -0.3733 -0.1184  0.1051
  698TMC3    C810328   3.173   3.436  15.690  0.0353 -0.3746 -0.0703
  698TMC3    O110329   2.953   3.023  15.334 -0.1295 -0.1703  0.3242
  698TMC3    O210330   3.116   3.510  15.771  0.4680  0.2423  0.5774
  699TMC3    C110331   3.195   1.019  13.189 -0.4071  0.5399  0.9078
  699TMC3    C210332   3.256   0.907  13.241 -0.5342 -0.3593 -0.9915
  699TMC3    C310333   3.171   0.805  13.278  0.5917 -0.2114 -0.2536
  699TMC3    C410334   3.062   1.045  13.194  0.2857  0.7938 -0.7008
  699TMC3    C510335   2.981   0.944  13.233  0.2275 -0.1516  0.9271
  699TMC3    C610336   3.036   0.824  13.280  0.1700 -0.0781 -0.5334
  699TMC3     C10337   3.286   1.113  13.127  0.4981 -0.6014 -0.3619
  699TMC3     O10338   3.239   1.191  13.046  0.5963  0.0648 -0.3764
  699TMC3     H10339   3.361   0.887  13.222 -0.0457  0.4223  0.8887
  699TMC3    H110340   3.026   1.138  13.151 -2.2624  0.9647  1.7468
  699TMC3    H210341   2.965   0.755  13.323  0.7344  0.0722  0.6408
  699TMC3    C710342   2.868   0.987  13.312 -0.1530 -0.3422 -0.4018
  699TMC3    C810343   3.215   0.699  13.367  0.2173  0.6012 -0.0171
  699TMC3    O110344   2.871   0.963  13.432 -0.3922 -0.1631  0.4894
  699TMC3    O210345   3.120   0.645  13.424 -0.2068 -0.3005  0.1535
  700TMC3    C110346   1.888   3.563  17.030  0.2250 -0.0331 -0.3901
  700TMC3    C210347   1.870   3.432  17.020 -0.6616 -0.2540  0.1605
  700TMC3    C310348   1.840   3.356  17.131 -0.6182 -0.0217  0.1058
  700TMC3    C410349   1.879   3.625  17.150 -0.1804  0.1863 -1.0325
  700TMC3    C510350   1.852   3.546  17.259 -0.2510 -0.2156 -0.1167
  700TMC3    C610351   1.825   3.410  17.250  0.7105  0.2751  0.3595
  700TMC3     C10352   1.944   3.651  16.922  0.1193  0.6578 -0.4590
  700TMC3     O10353   1.889   3.645  16.814 -0.6333 -0.1617  0.3025
  700TMC3     H10354   1.886   3.381  16.926 -1.7310  0.4067 -0.3731
  700TMC3    H110355   1.893   3.732  17.162  0.0819  0.1711 -1.2065
  700TMC3    H210356   1.799   3.360  17.342  0.3083 -0.3152 -0.0674
  700TMC3    C710357   1.902   3.576  17.386  0.1711 -0.8189 -0.7259
  700TMC3    C810358   1.892   3.220  17.125 -0.4195 -0.0999 -0.1652
  700TMC3    O110359   1.965   3.489  17.441 -0.5920 -0.2065  0.6345
  700TMC3    O210360   1.995   3.219  17.062 -0.2547 -0.5975 -0.3505
  701TMC3    C110361   2.248   1.661  15.739 -0.3381  0.6412  0.2945
  701TMC3    C210362   2.285   1.612  15.619  0.2120  0.3690 -1.0040
  701TMC3    C310363   2.405   1.651  15.569 -0.3136  0.0242  0.0930
  701TMC3    C410364   2.322   1.744  15.806 -0.6256  0.2189 -0.7731
  701TMC3    C510365   2.442   1.801  15.753 -0.8744  0.0598  0.4792
  701TMC3    C610366   2.479   1.756  15.627  0.1599  0.1806 -0.3441
  701TMC3     C10367   2.115   1.643  15.783 -0.1939 -0.6296  0.4510
  701TMC3     O10368   2.056   1.738  15.838  0.1059 -0.4622 -0.0073
  701TMC3     H10369   2.216   1.545  15.568 -2.5160  3.8590 -1.8420
  701TMC3    H110370   2.275   1.786  15.894 -0.5854  1.0081 -1.1298
  701TMC3    H210371   2.572   1.785  15.580 -0.3933  0.3433 -1.3325
  701TMC3    C710372   2.483   1.936  15.794  0.6572  0.0909  0.1589
  701TMC3    C810373   2.449   1.605  15.436 -0.9669 -0.5284  0.2124
  701TMC3    O110374   2.574   1.995  15.735 -0.1153  0.0601  0.0626
  701TMC3    O210375   2.553   1.649  15.386  0.6145  0.5091 -0.0039
  702MPD2     C10376   1.654   4.017  10.951 -0.4473  0.1488  0.5424
  702MPD2    C110377   1.690   4.131  11.023  0.7020 -0.7534  0.4154
  702MPD2    C210378   1.817   4.177  11.013  0.0106  0.4341  0.8182
  702MPD2    C310379   1.904   4.118  10.923  0.5775  0.3092  0.6996
  702MPD2    C410380   1.864   4.023  10.838 -0.0318 -0.3050  0.9466
  702MPD2    C510381   1.738   3.973  10.857 -0.2695 -0.4454 -0.1168
  702MPD2     H10382   1.849   4.251  11.086 -1.3477 -0.3094  2.1511
  702MPD2    H110383   1.931   3.965  10.775 -0.8093 -0.8699  0.6357
  702MPD2    H210384   1.556   3.971  10.936  0.8009 -2.9838  1.8832
  702MPD2    H310385   1.704   3.891  10.795  2.0804 -0.2126 -1.7445
  702MPD2     N10386   2.033   4.171  10.902  0.9322  0.1745 -0.1122
  702MPD2    H510387   2.088   4.133  10.825  0.0897 -0.2515 -0.5048
  702MPD2    N110388   1.602   4.191  11.115  0.2811 -0.2645  0.3672
  702MPD2    H710389   1.636   4.277  11.156 -2.2266  1.0402 -0.3022
  703TMC3    C110390   2.224   4.311  10.919 -0.4647  0.1980 -0.0142
  703TMC3    C210391   2.255   4.450  10.938 -0.6864 -0.2509 -1.0102
  703TMC3    C310392   2.347   4.507  10.863  0.3214 -0.1072 -0.1712
  703TMC3    C410393   2.295   4.224  10.842 -0.1166 -0.4984  0.9921
  703TMC3    C510394   2.395   4.292  10.778  0.6589  0.1837 -0.2596
  703TMC3    C610395   2.411   4.427  10.775  0.7960  0.4274 -0.9128
  703TMC3     C10396   2.095   4.268  10.974  0.1333 -0.3293  0.3565
  703TMC3     O10397   2.062   4.328  11.078  0.6023 -0.0303 -0.1100
  703TMC3     H10398   2.199   4.501  11.016  2.3042  0.8477  0.4327
  703TMC3    H110399   2.259   4.123  10.835  3.2890 -1.6375  0.1169
  703TMC3    H210400   2.479   4.469  10.702  0.4239 -1.0655 -2.1275
  703TMC3    C710401   2.496   4.218  10.696  0.1361 -0.3165 -0.4535
  703TMC3    C810402   2.331   4.643  10.829 -0.5339  0.1240  0.2763
  703TMC3    O110403   2.566   4.285  10.620 -0.3873 -0.0460  0.5543
  703TMC3    O210404   2.408   4.694  10.751  0.0315  0.9221  0.1110
  704TMC3    C110405   3.910   2.531  12.337  0.1887  0.5413  0.2879
  704TMC3    C210406   4.041   2.534  12.325  0.3053  0.4722  0.8334
  704TMC3    C310407   4.117   2.469  12.423 -0.0497 -0.1676 -0.6227
  704TMC3    C410408   3.844   2.467  12.437  0.0757  0.7585  0.4646
  704TMC3    C510409   3.917   2.395  12.529  0.0780 -0.3140 -0.1716
  704TMC3    C610410   4.059   2.392  12.519  0.0357 -0.2217 -0.0709
  704TMC3     C10411   3.831   2.603  12.242 -0.2813  0.1771 -0.3563
  704TMC3     O10412   3.718   2.637  12.284  0.3635  0.2898 -0.0841
  704TMC3     H10413   4.092   2.593  12.250  0.1977  0.4193  0.7172
  704TMC3    H110414   3.736   2.463  12.428  0.0645  1.8109  0.1681
  704TMC3    H210415   4.115   2.347  12.601 -0.0698 -0.1102  0.0621
  704TMC3    C710416   3.849   2.308  12.621 -0.0245 -0.1394  0.2892
  704TMC3    C810417   4.259   2.442  12.390 -0.3039  1.0769  0.0364
  704TMC3    O110418   3.727   2.321  12.630 -0.4123 -0.1817 -0.2722
  704TMC3    O210419   4.276   2.417  12.274  0.0012 -0.0501 -0.3017
  705MPD2     C10420   4.385   0.566  17.038 -0.4805  0.0184 -0.0607
  705MPD2    C110421   4.294   0.567  16.935  0.4507  0.0964 -0.7221
  705MPD2    C210422   4.159   0.539  16.962  0.0636  0.6210 -0.1360
  705MPD2    C310423   4.115   0.511  17.085 -0.3342 -0.2676  0.1406
  705MPD2    C410424   4.209   0.497  17.183  0.0277 -0.4296 -0.4137
  705MPD2    C510425   4.344   0.517  17.158  0.0116 -0.5234 -0.3897
  705MPD2     H10426   4.095   0.545  16.875 -0.4999 -0.5223  0.1930
  705MPD2    H110427   4.181   0.455  17.279  1.7396 -1.3237 -0.3036
  705MPD2    H210428   4.489   0.589  17.016  0.4529 -3.5788  0.5478
  705MPD2    H310429   4.404   0.505  17.247 -0.0444  0.7952 -0.1823
  705MPD2     N10430   3.976   0.491  17.114  0.3290  0.2341 -0.5212
  705MPD2    H510431   3.954   0.461  17.209  0.3165 -1.2123 -0.9829
  705MPD2    N110432   4.328   0.613  16.804  0.4073 -0.2547 -0.2194
  705MPD2    H710433   4.249   0.608  16.741 -1.8734  1.5601  2.5144
  706TMC3    C110434   4.556   0.623  16.398  0.1178  0.4749 -0.5709
  706TMC3    C210435   4.464   0.702  16.333  0.1602 -0.5457 -0.2996
  706TMC3    C310436   4.366   0.749  16.416  0.3411  0.1403 -0.3962
  706TMC3    C410437   4.551   0.599  16.536  0.0194  0.2426 -0.0291
  706TMC3    C510438   4.456   0.651  16.609 -0.1989  0.4346  0.8824
  706TMC3    C610439   4.362   0.730  16.550  0.3169 -0.2630  0.0103
  706TMC3     C10440   4.668   0.567  16.329 -0.3906  0.0999  0.0415
  706TMC3     O10441   0.050   0.552  16.384  0.3537  0.4090  0.1388
  706TMC3     H10442   4.469   0.717  16.226 -0.4956 -2.0735 -0.5343
  706TMC3    H110443   4.619   0.525  16.577  0.1140  2.7695  4.3598
  706TMC3    H210444   4.287   0.784  16.607 -1.1615 -0.8974 -1.2995
  706TMC3    C710445   4.457   0.623  16.753 -0.2800  0.1544 -0.0192
  706TMC3    C810446   4.292   0.851  16.357 -0.5767  0.2616 -0.4019
  706TMC3    O110447   4.564   0.608  16.810  0.1271  0.4698  0.0489
  706TMC3    O210448   4.283   0.845  16.233  0.1528  0.2069 -1.2694
  707TMC3    C110449   4.528   3.543   1.224  0.1829 -0.2217 -0.3021
  707TMC3    C210450   4.532   3.413   1.190 -0.1752 -0.3149 -0.5296
  707TMC3    C310451   4.422   3.342   1.224  0.6280  0.4173  0.6082
  707TMC3    C410452   4.422   3.603   1.284  0.5872  0.4316 -0.2623
  707TMC3    C510453   4.315   3.523   1.323  0.2546  0.0818 -0.6112
  707TMC3    C610454   4.313   3.386   1.296 -0.3852  0.1656 -0.6181
  707TMC3     C10455   4.652   3.614   1.205  1.0237 -1.4514 -0.1795
  707TMC3     O10456   4.722   3.576   1.115 -0.1190 -0.1234  0.0290
  707TMC3     H10457   4.609   3.368   1.128  0.0800  0.6563 -0.9087
  707TMC3    H110458   4.417   3.710   1.300  0.4870  0.7544 -2.4572
  707TMC3    H210459   4.235   3.316   1.322 -0.6136  0.1645 -1.3153
  707TMC3    C710460   4.196   3.587   1.375 -0.0716  0.2670  0.2176
  707TMC3    C810461   4.449   3.197   1.224 -0.1479 -0.3246  0.3742
  707TMC3    O110462   4.215   3.680   1.448 -0.0133  0.0001  0.1484
  707TMC3    O210463   4.359   3.125   1.274 -0.3156 -0.9010 -0.2514
  708MPD2     C10464   2.059   3.502  13.705 -0.6633  0.4333  0.3419
  708MPD2    C110465   2.010   3.602  13.791 -0.0298 -0.2390  0.5878
  708MPD2    C210466   2.020   3.579  13.927  0.9316  0.7330 -0.0108
  708MPD2    C310467   2.059   3.454  13.977  0.4666 -0.1307  0.5515
  708MPD2    C410468   2.093   3.356  13.888 -0.0191  0.4024  0.1210
  708MPD2    C510469   2.099   3.380  13.753  0.4986 -0.3402  0.1263
  708MPD2     H10470   1.996   3.649  14.007 -1.4799  2.1174 -1.9266
  708MPD2    H110471   2.109   3.252  13.917 -0.6674  1.2753  3.6894
  708MPD2    H210472   2.041   3.511  13.599 -0.8635  0.5564  0.3867
  708MPD2    H310473   2.123   3.303  13.681  0.2361  0.6597 -1.0244
  708MPD2     N10474   2.039   3.430  14.114 -0.0785  0.7224 -0.6402
  708MPD2    H510475   1.998   3.497  14.178  0.1876  1.1354 -0.8999
  708MPD2    N110476   1.935   3.706  13.734 -0.2497 -0.4910  0.3533
  708MPD2    H710477   1.940   3.699  13.633  1.5563  1.8589  0.2890
  709TMC3    C110478   1.749   3.847  13.718  0.3126 -0.4141 -0.5751
  709TMC3    C210479   1.702   3.775  13.609  0.0758  0.0077  0.0985
  709TMC3    C310480   1.570   3.778  13.586  0.5262  0.1124 -0.3746
  709TMC3    C410481   1.660   3.916  13.792 -0.3231  0.3577  0.7980
  709TMC3    C510482   1.523   3.912  13.771 -0.2074  0.8544 -0.4214
  709TMC3    C610483   1.474   3.843  13.663  0.0375  0.7211 -0.0211
  709TMC3     C10484   1.847   3.785  13.803  0.0692  0.2734  0.3502
  709TMC3     O10485   1.818   3.783  13.921  0.3543  0.3027 -0.0472
  709TMC3     H10486   1.770   3.709  13.557 -0.5774 -1.2483  0.8239
  709TMC3    H110487   1.703   3.985  13.864  1.1101  0.0211  0.2713
  709TMC3    H210488   1.371   3.861  13.637  0.9248  2.3612 -2.3796
  709TMC3    C710489   1.453   3.888  13.900  0.0200 -0.5979  0.0955
  709TMC3    C810490   1.519   3.717  13.473  0.2345  0.4991 -0.1510
  709TMC3    O110491   1.332   3.882  13.894  0.7654  0.8058  0.3847
  709TMC3    O210492   1.403   3.674  13.476  0.2136 -0.0797 -0.0041
  710TMC3    C110493   3.274   0.404   0.683 -0.3745  0.2906  0.6624
  710TMC3    C210494   3.393   0.371   0.615  0.8337  0.4331 -0.6708
  710TMC3    C310495   3.453   0.255   0.649  0.1196 -0.2733 -0.4119
  710TMC3    C410496   3.214   0.314   0.765 -0.0261  0.0703  0.0769
  710TMC3    C510497   3.281   0.196   0.786 -0.8849 -0.2316 -0.5229
  710TMC3    C610498   3.400   0.166   0.731 -0.6893  0.3257  0.6768
  710TMC3     C10499   3.208   0.524   0.653 -0.6561 -1.0846  0.8565
  710TMC3     O10500   3.259   0.590   0.563 -0.1088  0.2841  0.0051
  710TMC3     H10501   3.418   0.444   0.539  0.3645  2.4211  1.0946
  710TMC3    H110502   3.126   0.341   0.822  0.0498 -0.4496  0.4397
  710TMC3    H210503   3.470   0.091   0.766 -1.7205  0.3002  2.6763
  710TMC3    C710504   3.213   0.103   0.878 -0.2428  0.6286  0.3382
  710TMC3    C810505   3.556   0.217   0.558 -0.1053  0.4355 -0.3403
  710TMC3    O110506   3.092   0.118   0.889 -0.0404 -0.3946 -0.0794
  710TMC3    O210507   3.605   0.311   0.493 -0.0087 -0.4286 -0.1709
  711TMC3    C110508   2.796   1.448  15.465  0.0615  0.8768 -0.3641
  711TMC3    C210509   2.838   1.511  15.579 -0.0568 -0.8979  0.8333
  711TMC3    C310510   2.938   1.603  15.571 -0.4360 -0.1708  0.2741
  711TMC3    C410511   2.867   1.475  15.344  0.4596 -0.4058 -0.5061
  711TMC3    C510512   2.976   1.559  15.341 -0.2519 -1.1995 -0.1616
  711TMC3    C610513   2.996   1.632  15.458  0.2066 -0.0858  0.0290
  711TMC3     C10514   2.708   1.336  15.462 -0.5205 -0.5290  0.0952
  711TMC3     O10515   2.724   1.256  15.375  0.3452 -0.2976 -0.2875
  711TMC3     H10516   2.790   1.490  15.674 -0.3358 -0.2508  0.8384
  711TMC3    H110517   2.839   1.428  15.250  1.7550  0.8742 -1.5503
  711TMC3    H210518   3.070   1.711  15.456  0.7990 -0.6517 -0.3255
  711TMC3    C710519   3.100   1.488  15.311 -0.7123  0.2187  0.4179
  711TMC3    C810520   3.008   1.651  15.695 -0.0696 -0.5470 -0.4455
  711TMC3    O110521   3.191   1.504  15.392  0.5344  0.3068 -0.7444
  711TMC3    O210522   2.940   1.673  15.798 -0.3366 -0.3160  0.2631
  712MPD2     C10523   4.463   2.155  13.323 -0.4069 -0.4377  0.5039
  712MPD2    C110524   4.368   2.244  13.371 -0.0275 -0.1935  0.2783
  712MPD2    C210525   4.416   2.373  13.398  0.3780  0.0732 -0.5423
  712MPD2    C310526   4.537   2.419  13.359  0.0753  0.0693  0.3906
  712MPD2    C410527   4.625   2.333  13.292  0.2418 -0.5921  0.3123
  712MPD2    C510528   4.582   2.200  13.281  0.1208  0.7971 -0.2247
  712MPD2     H10529   4.345   2.440  13.444  0.9894  0.2218  0.1961
  712MPD2    H110530   4.719   2.373  13.257  0.7513  0.2845  2.6384
  712MPD2    H210531   4.437   2.051  13.306 -2.6857  0.2687 -0.3145
  712MPD2    H310532   4.658   2.135  13.239  1.0874  1.3511  0.6620
  712MPD2     N10533   4.570   2.559  13.365  0.0731  0.5659  0.4346
  712MPD2    H510534   4.662   2.591  13.338  0.1272 -0.1546 -0.2343
  712MPD2    N110535   4.230   2.207  13.392 -0.3903 -0.2951  0.4874
  712MPD2    H710536   4.176   2.276  13.443  0.8020  1.3515 -0.4836
  713TMC3    C110537   4.558   2.779  13.435 -1.1191 -0.1355 -0.0612
  713TMC3    C210538   4.696   2.782  13.440 -0.7969  0.2498  0.0184
  713TMC3    C310539   0.026   2.901  13.434 -0.0143 -0.1928  0.6299
  713TMC3    C410540   4.482   2.894  13.432 -0.1843  0.4238 -0.6217
  713TMC3    C510541   4.545   3.015  13.447 -0.0943 -0.0170  0.3788
  713TMC3    C610542   4.677   3.021  13.436 -0.4054 -0.2716  0.0188
  713TMC3     C10543   4.484   2.659  13.404  0.2836  0.4804  0.4827
  713TMC3     O10544   4.361   2.661  13.400  0.0298 -0.0073 -0.0188
  713TMC3     H10545   0.034   2.696  13.456  0.2947  0.8334 -1.2225
  713TMC3    H110546   4.375   2.883  13.445 -0.0119  1.6828  1.8525
  713TMC3    H210547   0.004   3.115  13.438  0.4008 -0.7406  0.8665
  713TMC3    C710548   4.489   3.138  13.387 -0.2033  0.3319 -0.1095
  713TMC3    C810549   0.165   2.906  13.453 -0.3496  0.2059  0.3421
  713TMC3    O110550   4.568   3.202  13.322 -0.3258  0.3678  0.1081
  713TMC3    O210551   0.230   2.814  13.412 -0.3127 -0.0580  0.3307
  714MPD2     C10552   0.724   2.039   1.595 -0.2924 -0.9192  0.6046
  714MPD2    C110553   0.658   1.945   1.531  0.0104  0.0455 -0.3658
  714MPD2    C210554   0.530   1.967   1.485 -0.4767 -0.5084  0.1081
  714MPD2    C310555   0.475   2.094   1.497  0.4870  0.0927 -0.6365
  714MPD2    C410556   0.540   2.197   1.567 -0.3337  0.7385  0.5766
  714MPD2    C510557   0.667   2.162   1.618  0.4338  0.3903  0.6166
  714MPD2     H10558   0.476   1.900   1.419  0.2365 -4.0099  3.0472
  714MPD2    H110559   0.500   2.295   1.592  1.2902  1.5111  0.0882
  714MPD2    H210560   0.824   2.018   1.633 -0.6683 -1.2784  1.3924
  714MPD2    H310561   0.716   2.241   1.674  0.8896 -0.5865  1.5922
  714MPD2     N10562   0.346   2.107   1.434  0.6899  0.4671 -0.0571
  714MPD2    H510563   0.302   2.029   1.386  1.4655  0.5096 -0.8285
  714MPD2    N110564   0.733   1.820   1.524  0.4415  0.4235 -0.3195
  714MPD2    H710565   0.812   1.815   1.587 -0.6417 -1.1952  0.8937
  715TMC3    C110566   0.809   1.619   1.463 -0.7979 -0.2439 -0.3473
  715TMC3    C210567   0.770   1.494   1.474 -0.2273 -0.3419 -0.6014
  715TMC3    C310568   0.862   1.396   1.483  0.3618  0.4436  0.4210
  715TMC3    C410569   0.931   1.659   1.446 -0.0608  0.1684 -0.3251
  715TMC3    C510570   1.026   1.560   1.461  0.5559  1.4117 -0.1182
  715TMC3    C610571   0.996   1.428   1.488  0.4290 -0.5724  0.3806
  715TMC3     C10572   0.696   1.708   1.454  0.3089 -0.2594  0.0065
  715TMC3     O10573   0.622   1.697   1.360 -0.0398 -0.4216  0.2800
  715TMC3     H10574   0.663   1.478   1.477 -0.1505 -0.4540  1.2496
  715TMC3    H110575   0.953   1.758   1.408  1.1457  0.6417  1.5917
  715TMC3    H210576   1.072   1.357   1.521 -0.6768 -0.8635  2.2999
  715TMC3    C710577   1.161   1.608   1.492  0.3604 -0.1692 -0.0209
  715TMC3    C810578   0.820   1.257   1.494 -0.2919  0.1379 -0.0175
  715TMC3    O110579   1.253   1.529   1.491 -0.1318 -0.1755  0.4390
  715TMC3    O210580   0.901   1.176   1.521  0.2368 -0.1185  0.1922
  716MPD2     C10581   1.725   4.344  10.491  0.2754  0.4946  0.3566
  716MPD2    C110582   1.723   4.363  10.355  0.7295  0.0166  0.5778
  716MPD2    C210583   1.754   4.251  10.274  0.0916 -0.4789  0.1252
  716MPD2    C310584   1.787   4.129  10.329 -0.1546  0.2690 -0.2867
  716MPD2    C410585   1.777   4.116  10.465 -0.1172  0.3404  0.1153
  716MPD2    C510586   1.754   4.222  10.541 -0.1722  0.2303  0.0061
  716MPD2     H10587   1.754   4.274  10.168 -1.5607  0.4303  0.3232
  716MPD2    H110588   1.802   4.019  10.507 -1.2943  0.9875  2.3300
  716MPD2    H210589   1.709   4.433  10.551  1.6882 -0.0829  1.5973
  716MPD2    H310590   1.755   4.210  10.649  1.4466  0.6685  0.0348
  716MPD2     N10591   1.824   4.023  10.241  0.1098 -0.1430  0.4842
  716MPD2    H510592   1.841   4.036  10.142  0.4172 -3.7233  0.0700
  716MPD2    N110593   1.673   4.487  10.305  0.6482 -0.6550  0.2165
  716MPD2    H710594   1.624   4.549  10.368 -0.3494 -0.5574 -0.6497
  717TMC3    C110595   1.846   3.804  10.162  0.6520 -0.1419 -0.5618
  717TMC3    C210596   1.765   3.839  10.059  0.6135 -0.2705  1.1636
  717TMC3    C310597   1.736   3.743   9.962 -0.0980 -0.4557  0.4891
  717TMC3    C410598   1.885   3.674  10.180  0.6377  0.2148  0.2665
  717TMC3    C510599   1.857   3.585  10.080 -0.0180 -0.3561  0.0639
  717TMC3    C610600   1.803   3.624   9.962  0.1485 -0.4074 -0.0225
  717TMC3     C10601   1.844   3.897  10.280 -0.6070  0.2824 -0.9291
  717TMC3     O10602   1.858   3.845  10.390  0.6324 -0.1704  0.2996
  717TMC3     H10603   1.720   3.937  10.055  0.4275 -0.4892 -1.7231
  717TMC3    H110604   1.938   3.643  10.269 -1.6415 -0.7259  1.3059
  717TMC3    H210605   1.792   3.564   9.872 -0.7304  2.1494 -1.6233
  717TMC3    C710606   1.891   3.453  10.108 -0.9575  0.2136 -0.0296
  717TMC3    C810607   1.601   3.739   9.912  0.2362  0.7010  0.5450
  717TMC3    O110608   1.965   3.439  10.204  0.2030 -0.4202  0.3524
  717TMC3    O210609   1.569   3.631   9.866 -0.4514  0.1548 -0.6647
  718MPD2     C10610   1.400   3.005  13.435 -0.4552  0.0830  0.1681
  718MPD2    C110611   1.422   2.982  13.299  0.0814  0.0785  0.7587
  718MPD2    C210612   1.316   2.949  13.220 -0.4745  0.4171 -0.5719
  718MPD2    C310613   1.185   2.943  13.262 -0.6219 -0.7048  0.7435
  718MPD2    C410614   1.164   2.959  13.399 -0.0533  0.3247 -0.5785
  718MPD2    C510615   1.268   2.994  13.480  0.4966  0.3148 -0.0830
  718MPD2     H10616   1.351   2.915  13.123  1.4682 -2.0291  0.9626
  718MPD2    H110617   1.063   2.958  13.438 -0.6496  0.5237 -2.0956
  718MPD2    H210618   1.484   3.043  13.492 -0.9088 -0.4167  1.1536
  718MPD2    H310619   1.236   3.017  13.581 -1.4973 -1.0759 -0.3916
  718MPD2     N10620   1.098   2.900  13.161  0.6034  0.0575 -0.0645
  718MPD2    H510621   1.129   2.900  13.065 -0.3493  1.4316 -0.3629
  718MPD2    N110622   1.536   2.983  13.223  0.4899 -0.5732  0.1112
  718MPD2    H710623   1.522   2.952  13.127 -1.5377 -1.8517  0.8169
  719TMC3    C110624   1.750   2.997  13.153  0.1263  0.1256 -0.5305
  719TMC3    C210625   1.712   2.903  13.056 -0.0768 -0.7983  0.4377
  719TMC3    C310626   1.745   2.914  12.928  0.8046 -0.1977 -0.0276
  719TMC3    C410627   1.831   3.101  13.111 -0.4426  0.2269 -0.2155
  719TMC3    C510628   1.858   3.111  12.978  0.1709 -0.2986  0.2034
  719TMC3    C610629   1.824   3.017  12.888 -0.5031 -0.3204  0.3044
  719TMC3     C10630   1.658   3.018  13.261 -0.4088  0.1562  0.5066
  719TMC3     O10631   1.683   3.086  13.360  0.1942 -0.0008 -0.8783
  719TMC3     H10632   1.642   2.823  13.076 -1.1357  0.3809  1.4250
  719TMC3    H110633   1.846   3.187  13.177 -1.6739  0.0097  0.3421
  719TMC3    H210634   1.853   3.032  12.784  1.7133 -3.1822  0.5205
  719TMC3    C710635   1.930   3.222  12.921  0.6601  0.9211 -0.0634
  719TMC3    C810636   1.629   2.886  12.852 -0.6189 -0.1027  0.5138
  719TMC3    O110637   1.977   3.199  12.810 -0.3209  0.7786  0.0013
  719TMC3    O210638   1.532   2.926  12.917 -0.7582 -0.4639 -0.1242
  720MPD2     C10639   4.440   4.468  14.455 -0.5012 -0.1597 -0.3395
  720MPD2    C110640   4.525   4.480  14.339 -1.0626 -0.6539 -0.6011
  720MPD2    C210641   4.658   4.442  14.347  0.3218 -0.5103 -0.3661
  720MPD2    C310642   4.721   4.399  14.463  0.6214  0.1648 -0.0817
  720MPD2    C410643   4.638   4.391  14.573 -0.3442  0.2948  0.1721
  720MPD2    C510644   4.506   4.423  14.566  0.4913 -0.1977  0.0488
  720MPD2     H10645   4.725   4.449  14.262  1.4563  1.6698  0.7141
  720MPD2    H110646   4.664   4.350  14.670  2.4820  0.3739 -0.5541
  720MPD2    H210647   4.334   4.493  14.457 -0.5437 -0.5881  2.1634
  720MPD2    H310648   4.450   4.398  14.656  0.1229 -1.7240 -0.6225
  720MPD2     N10649   0.128   4.350  14.467  0.8330  0.3512  0.3430
  720MPD2    H510650   0.183   4.353  14.382  0.0063 -3.7674 -0.3317
  720MPD2    N110651   4.473   4.503  14.209  0.3167 -0.2830  0.0118
  720MPD2    H710652   4.541   4.489  14.135 -1.7931 -3.7313 -1.2269
  721TMC3    C110653   0.336   4.287  14.558  0.6875  0.2480  0.0689
  721TMC3    C210654   0.402   4.229  14.663  0.7248  0.1276  0.1450
  721TMC3    C310655   0.533   4.212  14.667  1.1265  0.0235  0.2793
  721TMC3    C410656   0.403   4.342  14.451 -0.1027 -0.3244  0.5493
  721TMC3    C510657   0.538   4.310  14.454 -0.3108  0.6086  0.2659
  721TMC3    C610658   0.605   4.254  14.559 -0.8873 -0.4313  0.5642
  721TMC3     C10659   0.191   4.291  14.571 -0.0663 -0.2614 -0.2117
  721TMC3     O10660   0.148   4.272  14.684  0.2745  0.0001 -0.3687
  721TMC3     H10661   0.340   4.204  14.748  3.1660 -0.3858  1.7876
  721TMC3    H110662   0.356   4.385  14.363  0.8801  0.4126  0.3793
  721TMC3    H210663   0.713   4.257  14.562 -0.7528 -3.2422 -0.9241
  721TMC3    C710664   0.624   4.363  14.344 -0.0437  0.3539  0.2102
  721TMC3    C810665   0.603   4.180  14.788  0.4218 -0.1203  0.3230
  721TMC3    O110666   0.743   4.333  14.345 -0.2079  0.6281 -0.0925
  721TMC3    O210667   0.710   4.128  14.771  0.0838 -0.0415  0.4171
  722MPD2     C10668   3.456   3.141  14.034  0.1286 -0.1916 -0.4941
  722MPD2    C110669   3.388   3.226  13.953 -0.6777 -0.0964  0.3480
  722MPD2    C210670   3.248   3.217  13.940  0.3173 -0.5209 -0.0566
  722MPD2    C310671   3.180   3.124  14.013  0.4013  0.1249  0.4286
  722MPD2    C410672   3.253   3.039  14.094 -0.7766 -0.3695 -0.3765
  722MPD2    C510673   3.384   3.035  14.090 -0.2576 -0.0199  0.3669
  722MPD2     H10674   3.180   3.278  13.881 -2.3794 -1.2344  2.3802
  722MPD2    H110675   3.209   2.971  14.166  0.0217  0.0327  0.4873
  722MPD2    H210676   3.560   3.147  14.064  0.8621 -1.7084 -2.7500
  722MPD2    H310677   3.440   2.976  14.162  0.0674  1.5490  1.4063
  722MPD2     N10678   3.038   3.112  13.996 -0.2828 -0.1523 -0.4013
  722MPD2    H510679   3.014   3.173  13.918 -1.3335  0.9972  0.8128
  722MPD2    N110680   3.445   3.327  13.866  0.5912 -0.4298 -0.1404
  722MPD2    H710681   3.380   3.384  13.812  0.6740 -1.1817 -1.0287
  723TMC3    C110682   2.844   2.988  13.965  0.0929 -0.2248  0.0275
  723TMC3    C210683   2.800   2.860  13.961 -0.0272  0.0419  0.6749
  723TMC3    C310684   2.715   2.819  13.853 -0.2815 -0.1071  0.1508
  723TMC3    C410685   2.790   3.086  13.880  0.1665 -0.4782 -0.3862
  723TMC3    C510686   2.700   3.042  13.779  0.7936  0.1193  0.0245
  723TMC3    C610687   2.658   2.914  13.769  0.0719 -0.0549 -0.4082
  723TMC3     C10688   2.962   3.016  14.055  1.1233 -0.4158 -0.6638
  723TMC3     O10689   2.990   2.927  14.132  0.1757  0.3740 -0.3135
  723TMC3     H10690   2.835   2.783  14.030  0.4740  0.8409  1.3217
  723TMC3    H110691   2.818   3.190  13.889  2.0669 -0.8070 -2.4157
  723TMC3    H210692   2.585   2.897  13.690 -0.7441 -1.0010  0.5461
  723TMC3    C710693   2.644   3.139  13.687 -0.0530  1.1411 -0.2041
  723TMC3    C810694   2.687   2.679  13.828  0.8174  0.2561  0.4312
  723TMC3    O110695   2.624   3.101  13.573 -0.3765  0.4998  0.2168
  723TMC3    O210696   2.691   2.605  13.926 -0.5312 -0.5314  0.0017
  724TMC3    C110697   3.624   1.162  10.490  0.1899 -0.7809  0.9298
  724TMC3    C210698   3.558   1.152  10.371 -0.4127 -0.3985 -0.4140
  724TMC3    C310699   3.587   1.249  10.280  0.5991 -0.7118 -0.0629
  724TMC3    C410700   3.710   1.266  10.517  0.7933  0.4961  0.1830
  724TMC3    C510701   3.757   1.342  10.413  0.2591  0.2717  0.8935
  724TMC3    C610702   3.697   1.329  10.285 -0.1363 -0.4233 -0.3698
  724TMC3     C10703   3.613   1.053  10.588  0.4198  0.1295 -0.1777
  724TMC3     O10704   3.666   1.063  10.700  0.1933 -0.3890  0.1337
  724TMC3     H10705   3.466   1.096  10.358 -1.0149  0.9901 -2.0616
  724TMC3    H110706   3.773   1.248  10.603  0.6497 -1.7831 -0.2010
  724TMC3    H210707   3.736   1.371  10.193  1.1528  2.3695  1.4271
  724TMC3    C710708   3.849   1.457  10.429 -0.5392 -0.3958  0.1770
  724TMC3    C810709   3.496   1.275  10.172  0.2548  0.2063  0.2784
  724TMC3    O110710   3.883   1.514  10.328  0.0153 -0.0359  0.4453
  724TMC3    O210711   3.418   1.183  10.150 -0.1314  0.6022  0.0481
  725TMC3    C110712   0.239   0.405  13.457  0.8377 -0.0459 -0.3008
  725TMC3    C210713   0.161   0.480  13.377 -0.0139  0.4528  0.1350
  725TMC3    C310714   0.084   0.413  13.288  0.5383  0.6488 -0.4982
  725TMC3    C410715   0.230   0.268  13.467  0.3015 -0.4606  0.1263
  725TMC3    C510716   0.153   0.203  13.381 -0.6778 -0.6911  0.0592
  725TMC3    C610717   0.072   0.278  13.296 -0.2741 -0.2192  0.3516
  725TMC3     C10718   0.367   0.464  13.486  0.0774  0.9853  0.2445
  725TMC3     O10719   0.366   0.582  13.533 -0.2879 -0.6727 -0.3276
  725TMC3     H10720   0.191   0.583  13.359  0.9652  0.3251  1.0246
  725TMC3    H110721   0.279   0.209  13.544 -1.7113 -1.5087  0.6062
  725TMC3    H210722   4.721   0.226  13.240  0.8845 -0.1412 -1.3120
  725TMC3    C710723   0.131   0.063  13.386  0.5739 -0.1584  0.5826
  725TMC3    C810724   0.036   0.491  13.179  0.1792  0.1062 -0.1095
  725TMC3    O110725   0.098   0.011  13.278  0.5506 -0.0824  0.2149
  725TMC3    O210726   4.715   0.600  13.206 -0.0896 -0.6299 -0.4568
  726MPD2     C10727   2.911   1.235  10.448 -0.6614 -0.6751  0.4941
  726MPD2    C110728   2.897   1.302  10.573  0.3973  0.5359 -0.4238
  726MPD2    C210729   2.865   1.234  10.683 -0.6404 -0.0583 -0.1610
  726MPD2    C310730   2.816   1.108  10.686  0.7385 -0.2159 -0.1750
  726MPD2    C410731   2.818   1.044  10.558 -0.2795  0.1386 -0.1617
  726MPD2    C510732   2.866   1.108  10.446  0.8574 -0.3352  0.3827
  726MPD2     H10733   2.868   1.298  10.772  0.4910  0.9228 -0.8961
  726MPD2    H110734   2.792   0.939  10.559  1.6462 -0.3259 -0.8575
  726MPD2    H210735   2.956   1.278  10.360 -0.6952 -2.7817 -0.5426
  726MPD2    H310736   2.857   1.062  10.348 -1.6604  0.7746  0.0697
  726MPD2     N10737   2.771   1.031  10.801  0.2059 -0.5225 -0.1131
  726MPD2    H510738   2.741   0.937  10.777 -1.7104  0.4493 -1.4460
  726MPD2    N110739   2.901   1.444  10.574 -0.3302  0.3271  0.1615
  726MPD2    H710740   2.893   1.480  10.669  0.0719  0.2855  0.2077
  727TMC3    C110741   2.851   1.659  10.500  0.4785  0.0651 -0.7115
  727TMC3    C210742   2.958   1.724  10.557 -0.2212 -0.3908  0.2772
  727TMC3    C310743   2.959   1.859  10.549  0.1509  0.0162 -0.4450
  727TMC3    C410744   2.754   1.719  10.423  0.2267  0.2427 -0.0844
  727TMC3    C510745   2.754   1.858  10.423  0.4596 -0.5663 -0.2758
  727TMC3    C610746   2.861   1.929  10.489  0.9757  0.0752 -0.6067
  727TMC3     C10747   2.870   1.520  10.471  0.0421 -0.0231  0.0748
  727TMC3     O10748   2.845   1.495  10.353  0.0843 -0.5378  0.1933
  727TMC3     H10749   3.039   1.675  10.611 -1.6867 -0.5428  2.3518
  727TMC3    H110750   2.672   1.653  10.397  0.4054 -0.0413  0.0693
  727TMC3    H210751   2.870   2.037  10.480  1.3865 -0.0251 -1.3764
  727TMC3    C710752   2.641   1.919  10.355 -0.1679  0.6523  0.7486
  727TMC3    C810753   3.050   1.936  10.631  0.1067  0.0886 -0.4264
  727TMC3    O110754   2.562   1.840  10.303  0.3909  0.3189 -0.2847
  727TMC3    O210755   3.160   1.891  10.652 -0.2067  0.3514  0.3775
  728TMC3    C110756   2.659   4.682  16.097 -0.1569  0.3964 -0.2398
  728TMC3    C210757   2.758   4.722  16.179  0.3210  0.3567  0.9533
  728TMC3    C310758   2.878   0.032  16.123  0.1215  0.3496  0.1155
  728TMC3    C410759   2.672   4.686  15.962 -0.7133  0.0618 -0.6429
  728TMC3    C510760   2.794   0.003  15.903  0.4641 -0.9363  0.7238
  728TMC3    C610761   2.901   0.039  15.990  0.1373  0.1037 -0.6494
  728TMC3     C10762   2.545   4.620  16.154  0.6449 -0.5785  0.0657
  728TMC3     O10763   2.568   4.561  16.258 -0.4389 -0.6522  0.0724
  728TMC3     H10764   2.754   4.703  16.286  2.0544 -0.8712  0.8081
  728TMC3    H110765   2.597   4.635  15.904 -0.2838 -3.0364  1.5052
  728TMC3    H210766   3.000   0.064  15.952 -0.2883  1.6723 -0.7419
  728TMC3    C710767   2.826   4.717  15.758 -0.3958 -0.3629  0.8628
  728TMC3    C810768   2.977   0.082  16.212  0.2158  0.5802 -0.0900
  728TMC3    O110769   2.945   4.718  15.723  0.1076  0.1665 -0.2723
  728TMC3    O210770   2.986   0.030  16.321 -0.1711 -0.2439 -0.0647
  729MPD2     C10771   4.297   1.452  17.049  1.1083  1.1668  0.4035
  729MPD2    C110772   4.405   1.368  17.046  0.4811  0.3603 -0.3572
  729MPD2    C210773   4.439   1.297  17.155  0.3344 -0.9141  0.3220
  729MPD2    C310774   4.360   1.312  17.275  1.0279 -0.3273 -0.1177
  729MPD2    C410775   4.247   1.392  17.262  0.0347 -0.3022  0.4327
  729MPD2    C510776   4.214   1.457  17.151 -0.1832  0.2650  0.1256
  729MPD2     H10777   4.530   1.238  17.150  1.7123  0.8756  3.8264
  729MPD2    H110778   4.179   1.383  17.346 -1.9004  0.6127 -1.0235
  729MPD2    H210779   4.271   1.515  16.964  0.3992  0.1349 -0.1361
  729MPD2    H310780   4.128   1.520  17.130 -1.2806 -0.8999  1.1961
  729MPD2     N10781   4.402   1.251  17.399 -1.3268 -0.5279 -0.5833
  729MPD2    H510782   4.337   1.262  17.477 -2.0496 -1.7882 -1.0090
  729MPD2    N110783   4.464   1.348  16.919 -0.1845  0.5309 -0.2585
  729MPD2    H710784   4.414   1.396  16.845 -0.1168 -1.6133 -1.7068
  730TMC3    C110785   4.543   1.174  17.566  0.2041 -0.3637 -0.2332
  730TMC3    C210786   4.676   1.149  17.576  0.1714 -0.4889  0.4629
  730TMC3    C310787   0.031   1.252  17.607  0.4426  0.7349 -0.1779
  730TMC3    C410788   4.491   1.286  17.621 -0.4424  0.4210  0.3306
  730TMC3    C510789   4.569   1.388  17.659  0.5157 -0.2437  0.4371
  730TMC3    C610790   4.707   1.369  17.660 -0.3573 -0.0048  0.1580
  730TMC3     C10791   4.516   1.178  17.426  0.0014 -0.0485  0.9570
  730TMC3     O10792   4.606   1.141  17.345 -0.1746 -0.3087  0.1736
  730TMC3     H10793   4.726   1.062  17.533 -1.5040 -1.4190  0.4132
  730TMC3    H110794   4.384   1.296  17.633 -0.5169 -1.1864  1.0107
  730TMC3    H210795   0.052   1.449  17.677  1.1746 -1.2937 -0.1949
  730TMC3    C710796   4.523   1.526  17.645  0.7288 -0.2729  0.9134
  730TMC3    C810797   0.147   1.272  17.529  0.8917  0.0409  0.1300
  730TMC3    O110798   4.599   1.616  17.609  0.0225  0.3008 -0.0856
  730TMC3    O210799   0.251   1.323  17.576  0.1947 -0.7814  0.3434
  731MPD2     C10800   4.407   0.188  12.893  0.1847  0.0947 -0.4447
  731MPD2    C110801   4.335   0.100  12.817 -0.5772 -0.3901  0.1962
  731MPD2    C210802   4.270   4.717  12.878  1.0674  0.4845 -0.0460
  731MPD2    C310803   4.280   4.706  13.018 -0.6581  0.1225 -0.6722
  731MPD2    C410804   4.364   0.067  13.089  0.0658  0.1373 -0.0524
  731MPD2    C510805   4.434   0.168  13.026 -0.1562 -0.0093 -0.8086
  731MPD2     H10806   4.201   4.651  12.826  0.3676  1.2866 -0.1403
  731MPD2    H110807   4.389   0.052  13.194  2.1517  1.9590 -0.2963
  731MPD2    H210808   4.463   0.269  12.848 -0.1223  0.0655 -0.8806
  731MPD2    H310809   4.506   0.227  13.083 -0.7368 -2.1287  2.1206
  731MPD2     N10810   4.205   4.598  13.080  0.0760  0.0925  0.0426
  731MPD2    H510811   4.173   4.522  13.021 -3.1068 -0.1832  2.1119
  731MPD2    N110812   4.333   0.123  12.678 -0.0665 -0.3540 -0.3642
  731MPD2    H710813   4.404   0.192  12.652 -1.1686  1.0681  0.3893
  732TMC3    C110814   4.339   0.050  12.451  0.1495  0.1581  0.0150
  732TMC3    C210815   4.276   0.004  12.342 -0.1469  0.5939  0.8526
  732TMC3    C310816   4.346   0.009  12.222 -0.1708 -0.0521 -0.0396
  732TMC3    C410817   4.470   0.088  12.442 -0.0455  0.1186  0.2417
  732TMC3    C510818   4.531   0.098  12.322 -0.3062  0.5288 -0.4075
  732TMC3    C610819   4.476   0.061  12.206 -0.4120 -0.5445 -0.2034
  732TMC3     C10820   4.285   0.037  12.583 -0.2297 -0.1134 -0.2506
  732TMC3     O10821   4.180   4.702  12.593 -0.0809 -0.1036 -0.6210
  732TMC3     H10822   4.170   4.706  12.345  0.0497 -0.0863  2.1078
  732TMC3    H110823   4.525   0.119  12.531 -0.8786  2.3719 -0.0407
  732TMC3    H210824   4.536   0.040  12.118  0.3775  0.9386 -0.0080
  732TMC3    C710825   4.673   0.062  12.326  0.2511 -0.0765  0.6774
  732TMC3    C810826   4.308   4.648  12.108 -0.0974 -0.4995  0.2210
  732TMC3    O110827   0.025   0.129  12.263  0.0996 -0.0081 -1.0102
  732TMC3    O210828   4.363   4.671  12.003 -0.1214  0.1062 -0.4817
  733TMC3    C110829   0.753   2.735  12.921 -0.6290 -0.3978  0.1406
  733TMC3    C210830   0.796   2.776  13.043 -0.6102 -0.3984 -0.1836
  733TMC3    C310831   0.929   2.775  13.068  0.1869 -0.3134  0.6329
  733TMC3    C410832   0.845   2.684  12.833 -0.0101 -0.1249  0.0041
  733TMC3    C510833   0.981   2.682  12.864  0.0613 -0.1359 -0.1529
  733TMC3    C610834   1.034   2.726  12.979 -0.2096  0.1716  0.4001
  733TMC3     C10835   0.604   2.703  12.901 -0.0700  0.1258 -0.8035
  733TMC3     O10836   0.537   2.781  12.962 -0.3662  0.1532 -0.0921
  733TMC3     H10837   0.726   2.812  13.118 -0.2857  0.3882 -0.2534
  733TMC3    H110838   0.809   2.650  12.736 -1.1709 -2.0833  1.1221
  733TMC3    H210839   1.140   2.742  12.996 -0.3733  0.3748  1.2274
  733TMC3    C710840   1.066   2.637  12.764  0.4842  0.8849 -0.0591
  733TMC3    C810841   0.968   2.857  13.178 -0.9188 -0.1497  0.0104
  733TMC3    O110842   1.044   2.532  12.707 -0.0188 -0.4653  0.4225
  733TMC3    O210843   0.898   2.871  13.278 -0.1303 -0.0388  0.4228
  734MPD2     C10844   2.638   0.848  12.292  0.4107  0.2470  0.1246
  734MPD2    C110845   2.566   0.727  12.281 -0.9714  0.5214 -0.3532
  734MPD2    C210846   2.541   0.671  12.156 -0.4729 -0.2963 -0.5432
  734MPD2    C310847   2.582   0.741  12.039  0.8634  0.7484 -0.0888
  734MPD2    C410848   2.665   0.848  12.056  0.8474 -0.9491 -0.2280
  734MPD2    C510849   2.694   0.902  12.177  0.2073  1.5138 -0.0011
  734MPD2     H10850   2.479   0.583  12.141  0.2616 -1.0222  0.7512
  734MPD2    H110851   2.710   0.894  11.969 -0.0294  0.1953 -0.0778
  734MPD2    H210852   2.651   0.893  12.390  0.5360 -1.0584  0.7120
  734MPD2    H310853   2.744   0.998  12.182  1.0898  1.0556 -0.0533
  734MPD2     N10854   2.536   0.684  11.919 -0.0292  0.1634 -0.3718
  734MPD2    H510855   2.459   0.618  11.930 -0.2136  0.3179 -0.7319
  734MPD2    N110856   2.513   0.670  12.398 -0.0508 -0.0991  0.2531
  734MPD2    H710857   2.547   0.700  12.488  0.1069 -0.3613  0.2809
  735TMC3    C110858   2.375   0.521  12.521 -0.0724 -0.5936 -1.2539
  735TMC3    C210859   2.258   0.456  12.496  0.6234  1.2138  0.4972
  735TMC3    C310860   2.230   0.329  12.530 -0.3315  0.3759  0.0394
  735TMC3    C410861   2.474   0.451  12.578  0.2077  0.1097 -0.3638
  735TMC3    C510862   2.461   0.318  12.601 -0.8692 -0.1603  0.3826
  735TMC3    C610863   2.340   0.256  12.578  0.0635 -0.0114  0.3390
  735TMC3     C10864   2.413   0.580  12.396 -0.3907  0.2294  0.6272
  735TMC3     O10865   2.333   0.560  12.304 -0.1585 -0.2565  0.1912
  735TMC3     H10866   2.175   0.503  12.445  0.4125  2.3992  1.9325
  735TMC3    H110867   2.571   0.499  12.577  0.3464 -0.1240  0.8287
  735TMC3    H210868   2.316   0.153  12.603  1.3710  0.2338  2.6123
  735TMC3    C710869   2.586   0.236  12.635  0.9690  0.5831  0.2221
  735TMC3    C810870   2.170   0.258  12.419 -0.0903  0.2535  0.9274
  735TMC3    O110871   2.688   0.269  12.584  0.5503  0.8022 -0.0582
  735TMC3    O210872   2.125   0.147  12.442  0.1830  0.3760 -0.0948
  736MPD2     C10873   2.599   4.625  12.763 -0.6979  0.5082 -1.0266
  736MPD2    C110874   2.636   0.003  12.683 -0.6757 -0.0283  0.8280
  736MPD2    C210875   2.754   4.712  12.599 -0.7918  0.4728 -0.4729
  736MPD2    C310876   2.835   4.603  12.618  0.3467 -0.2922 -0.0048
  736MPD2    C410877   2.803   4.510  12.711 -0.4504 -0.0571 -0.7330
  736MPD2    C510878   2.680   4.518  12.773  0.5798  0.1121 -0.4436
  736MPD2     H10879   2.774   0.067  12.530  0.4763 -0.9320 -1.7393
  736MPD2    H110880   2.876   4.433  12.734  1.4547  1.7726 -0.6561
  736MPD2    H210881   2.510   4.632  12.824  1.9465  0.4888  2.8238
  736MPD2    H310882   2.660   4.449  12.855  0.0220  2.4204  1.3508
  736MPD2     N10883   2.948   4.584  12.529  0.0745  0.8585 -0.3705
  736MPD2    H510884   3.001   4.499  12.516 -2.0248 -0.3073 -1.2382
  736MPD2    N110885   2.551   0.113  12.693 -0.0938  0.0991  0.7831
  736MPD2    H710886   2.457   0.108  12.730 -0.5213 -1.2498 -0.4827
  737TMC3    C110887   3.109   4.631  12.358 -0.4862 -0.4038 -0.2393
  737TMC3    C210888   3.150   4.724  12.264  0.0506  0.3749 -0.4037
  737TMC3    C310889   3.215   4.677  12.153 -0.2335 -0.0546 -0.0496
  737TMC3    C410890   3.145   4.508  12.357  0.2254 -0.2817 -0.2157
  737TMC3    C510891   3.209   4.468  12.241 -0.6072 -0.2586  0.3869
  737TMC3    C610892   3.240   4.544  12.136 -0.0671 -0.2756  0.2004
  737TMC3     C10893   3.005   4.685  12.448  0.5109 -0.4120 -0.8140
  737TMC3     O10894   2.995   0.083  12.455  0.1134  0.3486  0.0845
  737TMC3     H10895   3.125   0.103  12.265 -1.6230 -0.0246  0.8410
  737TMC3    H110896   3.117   4.436  12.434 -0.0401  1.1600  1.0450
  737TMC3    H210897   3.272   4.514  12.037 -4.0679 -2.3908 -0.4596
  737TMC3    C710898   3.267   4.335  12.246 -0.1073  0.1440  0.3765
  737TMC3    C810899   3.180   0.026  12.035 -0.0397  0.4321  0.5784
  737TMC3    O110900   3.250   4.261  12.344 -0.0175 -0.4972  0.0814
  737TMC3    O210901   3.112   0.126  12.044 -0.2867  0.1415  0.1107
  738MPD2     C10902   3.317   3.690  15.654  0.5694  0.5804 -0.2057
  738MPD2    C110903   3.353   3.578  15.591 -0.0056  0.3164 -0.2166
  738MPD2    C210904   3.457   3.586  15.494 -0.3283 -0.2339 -0.0631
  738MPD2    C310905   3.529   3.699  15.470  0.3889  0.5359 -0.8401
  738MPD2    C410906   3.490   3.808  15.545  0.3673  0.1943  0.3935
  738MPD2    C510907   3.396   3.801  15.640 -0.1021 -0.2719 -0.2774
  738MPD2     H10908   3.481   3.493  15.444  0.1953 -0.4109  0.5130
  738MPD2    H110909   3.534   3.906  15.537  2.2406 -0.6907 -0.0764
  738MPD2    H210910   3.232   3.692  15.721  0.5276 -2.3918 -0.1375
  738MPD2    H310911   3.368   3.892  15.692 -0.2061 -1.6335  2.0567
  738MPD2     N10912   3.632   3.704  15.380  0.0147 -0.4933 -0.0477
  738MPD2    H510913   3.684   3.623  15.349  1.1250  1.1444 -2.5879
  738MPD2    N110914   3.289   3.454  15.617  0.2886  0.0729  0.0266
  738MPD2    H710915   3.314   3.370  15.566  1.8335 -0.5448  1.8232
  739TMC3    C110916   3.781   3.802  15.234 -0.0388  0.2441  0.1153
  739TMC3    C210917   3.786   3.881  15.117 -0.1259 -0.1474 -0.1387
  739TMC3    C310918   3.908   3.913  15.072 -0.4080 -0.0104 -0.4096
  739TMC3    C410919   3.892   3.747  15.294  0.3273 -0.0121 -0.5532
  739TMC3    C510920   4.014   3.774  15.238  0.1562  0.6096  0.3257
  739TMC3    C610921   4.022   3.855  15.122  0.3076 -0.0029  0.8894
  739TMC3     C10922   3.666   3.821  15.320  0.3660  0.2920  0.2456
  739TMC3     O10923   3.602   3.928  15.301  0.4231 -0.3481 -0.0392
  739TMC3     H10924   3.694   3.925  15.081 -0.2088 -1.9466 -2.1101
  739TMC3    H110925   3.893   3.691  15.387  0.7168  1.7600  0.5103
  739TMC3    H210926   4.110   3.864  15.059 -0.5263  0.4266 -0.2334
  739TMC3    C710927   4.134   3.746  15.313 -0.1420 -0.0300  0.6517
  739TMC3    C810928   3.913   3.970  14.938  0.1297  0.8211 -1.0593
  739TMC3    O110929   4.125   3.688  15.420 -0.2897  0.1286  0.4438
  739TMC3    O210930   3.819   3.947  14.864 -0.7090 -0.3456 -0.3117
  740TMC3    C110931   4.520   0.217  14.526  0.0844  0.3460  0.9178
  740TMC3    C210932   4.545   0.131  14.626  0.0944 -0.6362 -0.0818
  740TMC3    C310933   4.648   0.045  14.605  0.4379 -0.2730 -0.4918
  740TMC3    C410934   4.591   0.219  14.411  0.2959  0.7876 -0.1358
  740TMC3    C510935   4.674   0.117  14.378 -0.5731  0.4008  0.5503
  740TMC3    C610936   4.705   0.032  14.484 -0.3363 -0.1464 -0.3995
  740TMC3     C10937   4.448   0.338  14.556 -0.2253  0.0502 -0.3816
  740TMC3     O10938   4.491   0.449  14.528 -0.4186 -0.0162 -0.2321
  740TMC3     H10939   4.501   0.144  14.724  0.1299  0.7786 -0.2446
  740TMC3    H110940   4.583   0.298  14.338 -1.1262  2.0466  1.3811
  740TMC3    H210941   0.050   4.681  14.456  0.8541  1.0349 -0.6722
  740TMC3    C710942   4.695   0.066  14.247 -0.3813 -0.0155  0.4890
  740TMC3    C810943   4.700   4.692  14.718 -0.3239 -0.2784 -0.2004
  740TMC3    O110944   0.040   4.695  14.240 -0.4499  0.3193 -0.0384
  740TMC3    O210945   4.629   4.704  14.817 -0.4284  0.3128  0.0503
  741TMC3    C110946   3.673   4.536  14.359 -0.0967  0.9055 -0.5396
  741TMC3    C210947   3.593   4.448  14.293  0.6601 -0.2152 -0.5068
  741TMC3    C310948   3.569   4.332  14.364  0.3697  0.4588 -0.2366
  741TMC3    C410949   3.742   4.508  14.476 -0.4405  0.5067 -0.0511
  741TMC3    C510950   3.724   4.384  14.535 -1.1568  0.5295 -0.2486
  741TMC3    C610951   3.631   4.296  14.483 -0.1180  0.1694  0.8040
  741TMC3     C10952   3.718   4.650  14.283 -0.0181  0.8855 -0.4266
  741TMC3     O10953   3.778   0.014  14.341 -0.1220  0.2197 -0.1607
  741TMC3     H10954   3.535   4.478  14.207  2.2089  1.7506 -0.8832
  741TMC3    H110955   3.814   4.581  14.511  0.7526 -0.0246 -1.4079
  741TMC3    H210956   3.611   4.201  14.530 -1.5445  0.7701  1.4047
  741TMC3    C710957   3.726   4.386  14.680  0.4383 -0.0773 -0.7173
  741TMC3    C810958   3.471   4.231  14.315  0.3410  0.1518 -0.2931
  741TMC3    O110959   3.662   4.298  14.733 -0.0522  0.5116  0.0442
  741TMC3    O210960   3.433   4.149  14.395 -0.0661  0.1201 -0.4008
  742TMC3    C110961   3.430   2.902  15.613  0.8410 -0.0907 -0.3524
  742TMC3    C210962   3.362   2.846  15.505 -0.4048  0.0062 -0.6534
  742TMC3    C310963   3.437   2.788  15.408 -0.7501  0.3599 -0.1608
  742TMC3    C410964   3.561   2.886  15.623 -0.1266  1.0170  0.0706
  742TMC3    C510965   3.629   2.803  15.533 -0.5777  0.0545 -0.3633
  742TMC3    C610966   3.568   2.749  15.423  0.3346  0.5034  0.0110
  742TMC3     C10967   3.357   2.964  15.719  0.1817 -0.2672 -0.0402
  742TMC3     O10968   3.243   2.927  15.737 -0.2608  0.1473  0.2751
  742TMC3     H10969   3.261   2.885  15.490 -0.3089  0.6058  0.2082
  742TMC3    H110970   3.597   2.888  15.725 -0.7425 -1.7999  0.3278
  742TMC3    H210971   3.616   2.666  15.372 -0.6295 -2.3419  3.6621
  742TMC3    C710972   3.753   2.738  15.573  0.6859 -0.1413 -0.5204
  742TMC3    C810973   3.371   2.715  15.300 -0.4030 -0.0923 -0.5743
  742TMC3    O110974   3.770   2.618  15.534  0.6243  0.1201  0.1004
  742TMC3    O210975   3.443   2.677  15.211 -0.0209  0.2506  0.9108
  743MPD2     C10976   0.571   2.200   1.089 -0.1838 -0.2784  0.7044
  743MPD2    C110977   0.660   2.308   1.075  0.4761 -0.1348 -0.5604
  743MPD2    C210978   0.790   2.293   1.122 -0.2002 -0.8912  0.8734
  743MPD2    C310979   0.840   2.174   1.177  0.8237  0.2185  0.1658
  743MPD2    C410980   0.753   2.069   1.187  0.0309  0.4400 -0.5345
  743MPD2    C510981   0.624   2.085   1.145  0.2044 -0.2772 -0.3902
  743MPD2     H10982   0.858   2.376   1.107 -0.4906 -0.6858  0.6957
  743MPD2    H110983   0.788   1.983   1.243 -0.0594  1.1793  0.6544
  743MPD2    H210984   0.466   2.207   1.064 -0.3853 -0.2118  1.5776
  743MPD2    H310985   0.562   1.997   1.162 -1.8606  1.1904 -0.3199
  743MPD2     N10986   0.973   2.168   1.210  0.5487  0.6413  0.5187
  743MPD2    H510987   1.027   2.247   1.176 -0.6297  0.5584 -1.5169
  743MPD2    N110988   0.613   2.430   1.026  0.3579  0.0514  0.3698
  743MPD2    H710989   0.686   2.498   1.006  0.3451 -0.7321 -2.2660
  744TMC3    C110990   0.484   2.605   0.964  0.7441 -0.6896 -0.6505
  744TMC3    C210991   0.382   2.683   1.007 -0.0042 -0.1403 -0.0040
  744TMC3    C310992   0.390   2.821   0.986 -0.0302 -0.4240 -0.1614
  744TMC3    C410993   0.587   2.668   0.894 -0.7617  0.1959 -0.1339
  744TMC3    C510994   0.592   2.802   0.877 -0.2197 -0.6566  0.0452
  744TMC3    C610995   0.496   2.881   0.917  0.0137  0.3866 -0.3144
  744TMC3     C10996   0.483   2.468   1.001 -0.6864  0.4361 -0.3321
  744TMC3     O10997   0.378   2.417   1.038  0.0052  0.0786  0.4819
  744TMC3     H10998   0.293   2.639   1.049 -0.8591  1.0535 -0.5566
  744TMC3    H110999   0.666   2.598   0.867  0.6137  0.9436  1.8931
  744TMC3    H211000   0.492   2.988   0.905  2.1631  0.2102 -2.5061
  744TMC3    C711001   0.724   2.864   0.841 -0.6218  1.0327  0.7048
  744TMC3    C811002   0.282   2.904   1.037 -1.0917 -0.0248  0.5985
  744TMC3    O111003   0.737   2.982   0.876  0.3067  0.0049  0.0124
  744TMC3    O211004   0.279   3.017   0.991 -0.4712 -1.0725 -0.2752
  745TMC3    C111005   4.021   2.126  13.353 -0.3176  0.3910  0.1062
  745TMC3    C211006   3.980   2.177  13.475  0.1553 -0.1849  0.5933
  745TMC3    C311007   3.849   2.210  13.491  0.3336 -0.2347 -0.3918
  745TMC3    C411008   3.937   2.112  13.251 -0.1230  0.4534  0.2745
  745TMC3    C511009   3.806   2.159  13.263  0.6062  0.9266  0.2505
  745TMC3    C611010   3.760   2.205  13.388  0.1776  0.0511 -0.0624
  745TMC3     C11011   4.160   2.103  13.337  0.1626 -0.8917  0.3655
  745TMC3     O11012   4.194   2.010  13.269 -0.1014 -0.2246  0.1660
  745TMC3     H11013   4.049   2.188  13.558 -0.7561  2.0839  1.0640
  745TMC3    H111014   3.966   2.071  13.155  1.2067  3.5872 -0.6520
  745TMC3    H211015   3.658   2.240  13.394  0.3003  0.2210  1.1145
  745TMC3    C711016   3.773   2.244  13.148 -0.0039  0.1655 -0.5529
  745TMC3    C811017   3.798   2.276  13.611  0.3557 -0.1959  0.1811
  745TMC3    O111018   3.663   2.295  13.139 -0.3559 -0.2869  0.5329
  745TMC3    O211019   3.675   2.294  13.622 -0.0677 -0.3323  0.1524
  746TMC3    C111020   1.406   4.356  11.429 -1.1725 -0.1615 -0.0116
  746TMC3    C211021   1.459   4.317  11.307 -0.2728  0.3741  1.2463
  746TMC3    C311022   1.405   4.207  11.244  0.1304  0.3134  0.6116
  746TMC3    C411023   1.300   4.295  11.489 -0.4362 -0.6184 -0.5546
  746TMC3    C511024   1.252   4.187  11.422 -0.0284  0.4738 -0.2940
  746TMC3    C611025   1.296   4.144  11.300  0.2533 -0.0060 -0.5833
  746TMC3     C11026   1.463   4.469  11.493  0.6110  0.9606  0.3684
  746TMC3     O11027   1.442   4.477  11.615 -0.2759  0.4723  0.0594
  746TMC3     H11028   1.548   4.364  11.268 -0.8823 -0.6955 -1.3939
  746TMC3    H111029   1.261   4.332  11.583  1.7224 -2.7148  1.1700
  746TMC3    H211030   1.252   4.054  11.257  0.7769 -0.5618  0.0296
  746TMC3    C711031   1.131   4.124  11.478  0.5405 -0.8104  0.5718
  746TMC3    C811032   1.479   4.139  11.145 -0.1950 -0.3846 -0.4175
  746TMC3    O111033   1.067   4.047  11.405 -0.3141  0.1203 -0.3454
  746TMC3    O211034   1.424   4.035  11.115  0.1290 -0.2879  0.1135
  747TMC3    C111035   3.946   3.948  11.505 -0.6267 -0.1864  0.2458
  747TMC3    C211036   3.833   3.911  11.577  0.4018 -0.3527 -0.0260
  747TMC3    C311037   3.777   4.012  11.654  0.2346 -0.4664 -0.7853
  747TMC3    C411038   3.994   4.074  11.502 -0.3765 -0.1873  0.0208
  747TMC3    C511039   3.946   4.173  11.586 -0.4986 -0.2065 -0.1426
  747TMC3    C611040   3.838   4.141  11.661  0.5214  0.0774  0.7169
  747TMC3     C11041   4.034   3.850  11.440 -0.6688  0.0863 -0.0362
  747TMC3     O11042   4.153   3.866  11.458  0.2870 -0.2824 -0.5112
  747TMC3     H11043   3.799   3.808  11.581  0.3035 -0.3322 -0.3178
  747TMC3    H111044   4.090   4.089  11.454 -0.7696 -0.4239 -0.8402
  747TMC3    H211045   3.793   4.223  11.717 -0.3757 -1.2260  1.9255
  747TMC3    C711046   4.003   4.302  11.601  0.1984  0.2929 -0.3461
  747TMC3    C811047   3.698   3.968  11.769  0.1248  0.4185  0.4712
  747TMC3    O111048   3.973   4.362  11.703  0.2680  0.3359 -0.2305
  747TMC3    O211049   3.719   3.851  11.807  0.8701 -0.1513 -0.8959
  748MPD2     C11050   4.161   4.726   1.678  0.1325  0.1265 -0.0728
  748MPD2    C111051   4.210   0.116   1.732 -0.0397 -0.6277  0.0830
  748MPD2    C211052   4.352   0.125   1.736 -0.0465 -0.3734  0.2030
  748MPD2    C311053   4.431   0.014   1.724  0.4916 -0.3518 -0.2335
  748MPD2    C411054   4.367   4.618   1.706 -0.6263 -0.1956  0.2781
  748MPD2    C511055   4.234   4.611   1.673  0.0793 -0.4579  0.0995
  748MPD2     H11056   4.406   0.211   1.775 -1.5022  1.5461 -2.0139
  748MPD2    H111057   4.417   4.522   1.706 -1.2232 -0.5051  1.7769
  748MPD2    H211058   4.054   4.710   1.664  0.4725 -1.2056 -1.1983
  748MPD2    H311059   4.185   4.515   1.664 -0.5556 -0.4015  3.1032
  748MPD2     N11060   4.569   0.022   1.729 -0.0031 -0.2054 -0.0087
  748MPD2    H511061   4.604   0.118   1.733 -0.7630 -0.0462  2.6722
  748MPD2    N111062   4.121   0.223   1.749 -0.0686  0.6591  0.7825
  748MPD2    H711063   4.023   0.202   1.730 -0.6978  1.1685  3.4969
  749TMC3    C111064   0.065   4.690   1.746  0.5476  0.1332  0.2823
  749TMC3    C211065   0.146   4.612   1.823 -0.6891 -0.0663  0.3599
  749TMC3    C311066   0.282   4.619   1.798  0.0106  0.2062 -0.6599
  749TMC3    C411067   0.108   0.042   1.636  1.0327  0.2227  0.2748
  749TMC3    C511068   0.245   0.047   1.626 -0.1714 -0.3625 -0.0939
  749TMC3    C611069   0.336   4.697   1.705 -0.0516 -0.0584  0.9172
  749TMC3     C11070   4.657   4.645   1.737 -0.0623  0.1256 -0.3776
  749TMC3     O11071   4.632   4.528   1.755 -0.3974 -0.0601 -0.0910
  749TMC3     H11072   0.108   4.539   1.893  1.3186 -1.3763  0.0726
  749TMC3    H111073   0.050   0.108   1.573  1.5670  0.7658  0.3508
  749TMC3    H211074   0.443   4.714   1.697 -0.2038  0.7590  0.6758
  749TMC3    C711075   0.302   0.145   1.533 -0.1411 -0.2044  0.0870
  749TMC3    C811076   0.362   4.525   1.884 -0.0857 -0.2793 -0.5286
  749TMC3    O111077   0.238   0.240   1.496  0.2167  0.0236 -0.9282
  749TMC3    O211078   0.325   4.512   2.002  0.0731  0.1267 -0.0218
  750MPD2     C11079   2.020   1.539  11.515  0.8347 -0.0021  0.4572
  750MPD2    C111080   1.895   1.514  11.564  0.3604 -0.1017 -0.2134
  750MPD2    C211081   1.800   1.447  11.485 -0.1392  0.0180 -0.5608
  750MPD2    C311082   1.836   1.411  11.351 -0.2880 -0.9944  0.5813
  750MPD2    C411083   1.966   1.437  11.311 -0.7403  1.0220  0.2085
  750MPD2    C511084   2.056   1.504  11.389 -0.0462 -0.4744 -0.1074
  750MPD2     H11085   1.699   1.431  11.520 -0.9367 -0.5640 -3.1738
  750MPD2    H111086   2.001   1.408  11.212 -0.3064 -2.4577  1.3660
  750MPD2    H211087   2.087   1.602  11.572  1.2048  0.5874 -0.6377
  750MPD2    H311088   2.155   1.526  11.352  1.5315 -3.8467  2.1407
  750MPD2     N11089   1.753   1.356  11.256  0.4438  0.0645 -0.2234
  750MPD2    H511090   1.792   1.321  11.169  1.0467 -0.9209  0.4424
  750MPD2    N111091   1.858   1.579  11.682 -0.6382  0.2690 -0.1397
  750MPD2    H711092   1.930   1.628  11.734 -1.1271 -0.6053  1.3977
  751TMC3    C111093   1.566   1.261  11.166  0.0766  0.1689  0.6575
  751TMC3    C211094   1.458   1.174  11.187  0.1787 -0.2445 -0.6755
  751TMC3    C311095   1.427   1.089  11.084  0.2310 -0.0136 -0.2441
  751TMC3    C411096   1.623   1.278  11.046 -0.1983  0.4715 -0.6231
  751TMC3    C511097   1.587   1.193  10.945  0.5123  0.0643 -0.0995
  751TMC3    C611098   1.496   1.094  10.966  0.6116  0.7440  0.0501
  751TMC3     C11099   1.619   1.330  11.277 -0.1039  0.2720  0.9312
  751TMC3     O11100   1.548   1.344  11.378  0.4164 -0.3226 -0.2928
  751TMC3     H11101   1.416   1.155  11.285 -0.1968  3.3950 -0.1567
  751TMC3    H111102   1.692   1.358  11.024  0.7801 -0.0333  0.6054
  751TMC3    H211103   1.469   1.029  10.883  3.1084  0.0739 -0.2477
  751TMC3    C711104   1.662   1.191  10.827 -0.2794 -0.2978  0.3846
  751TMC3    C811105   1.390   0.953  11.118  0.7308 -0.1978  0.6758
  751TMC3    O111106   1.716   1.300  10.804  0.3166 -0.2691 -0.0276
  751TMC3    O211107   1.483   0.878  11.086  0.7714 -0.6130 -0.7149
  752TMC3    C111108   0.640   1.236  17.125 -0.0785 -0.1503  0.3020
  752TMC3    C211109   0.587   1.134  17.195 -0.1565  0.3176  0.1716
  752TMC3    C311110   0.542   1.155  17.318 -0.2887 -0.3473  0.4535
  752TMC3    C411111   0.651   1.353  17.190 -0.4134 -0.2726 -0.0471
  752TMC3    C511112   0.605   1.371  17.320 -0.2019 -0.5275  0.2747
  752TMC3    C611113   0.540   1.270  17.389 -0.4543 -0.2237  0.3146
  752TMC3     C11114   0.609   1.239  16.982  0.4971 -0.5742 -0.1392
  752TMC3     O11115   0.541   1.144  16.945 -0.2814  0.3589 -0.1563
  752TMC3     H11116   0.562   1.041  17.145 -0.4924 -0.9749  2.7186
  752TMC3    H111117   0.671   1.450  17.148  1.6817 -0.3843  0.7027
  752TMC3    H211118   0.515   1.284  17.494 -1.7297 -0.1429 -0.0055
  752TMC3    C711119   0.617   1.502  17.375 -0.0421  0.3200 -0.2528
  752TMC3    C811120   0.520   1.025  17.390  0.0268 -0.3312  1.0288
  752TMC3    O111121   0.714   1.565  17.333 -1.0652 -0.2521 -0.2095
  752TMC3    O211122   0.552   0.925  17.331  0.1338  0.4499  0.1289
  753TMC3    C111123   2.255   2.444  13.896  0.5360 -0.4388  0.0728
  753TMC3    C211124   2.339   2.422  14.003  0.0873  0.4164  0.0454
  753TMC3    C311125   2.345   2.292  14.054  0.0249 -0.7016  0.6755
  753TMC3    C411126   2.204   2.333  13.831  0.0703 -0.2661 -0.0096
  753TMC3    C511127   2.219   2.207  13.876  0.3593 -0.2299  0.7647
  753TMC3    C611128   2.290   2.181  13.990  0.8722  1.3561  0.2142
  753TMC3     C11129   2.275   2.554  13.806 -0.6968 -0.6379  0.1670
  753TMC3     O11130   2.259   2.534  13.683  0.2181 -0.2872  0.7387
  753TMC3     H11131   2.386   2.506  14.053 -0.7289  3.4752 -4.3179
  753TMC3    H111132   2.144   2.339  13.741  2.1530 -0.4126 -1.4014
  753TMC3    H211133   2.309   2.084  14.034 -1.3323  0.6061 -0.5100
  753TMC3    C711134   2.183   2.097  13.786  0.5460  0.6086  0.4473
  753TMC3    C811135   2.425   2.258  14.166 -0.1233 -0.1297  0.2047
  753TMC3    O111136   2.127   2.131  13.685  0.3738  0.1666 -0.2987
  753TMC3    O211137   2.395   2.158  14.233 -0.4280  0.5161 -0.3460
  754MPD2     C11138   1.537   1.396  13.298 -0.5041  0.6188  0.0435
  754MPD2    C111139   1.535   1.260  13.286  0.1465 -0.1634 -0.2001
  754MPD2    C211140   1.404   1.208  13.250  0.6513 -0.5524 -0.8555
  754MPD2    C311141   1.290   1.292  13.249  0.4145  0.0029 -0.3503
  754MPD2    C411142   1.307   1.431  13.255  0.0349  1.2082  0.8305
  754MPD2    C511143   1.431   1.476  13.286 -0.2268  0.3780 -0.4972
  754MPD2     H11144   1.393   1.100  13.237  0.3680 -0.9295  2.4756
  754MPD2    H111145   1.226   1.502  13.246  0.2773  1.5206  1.1399
  754MPD2    H211146   1.637   1.436  13.306  1.0492 -2.9278 -1.3972
  754MPD2    H311147   1.445   1.584  13.290 -2.3515  0.7194 -1.8413
  754MPD2     N11148   1.157   1.245  13.242 -0.1738 -0.5971  0.3113
  754MPD2    H511149   1.081   1.312  13.234  1.7783  1.4918 -0.9145
  754MPD2    N111150   1.658   1.195  13.290  0.0994 -0.5372 -0.4126
  754MPD2    H711151   1.732   1.263  13.298 -0.3050 -0.2207  0.5528
  755MPD2     C11152   0.558   1.769  13.534 -0.3492 -0.0570  0.8122
  755MPD2    C111153   0.535   1.659  13.602  0.0006  0.1743  0.2116
  755MPD2    C211154   0.577   1.546  13.543 -0.0534 -0.5375 -0.4888
  755MPD2    C311155   0.656   1.541  13.427 -0.3464 -0.3652  0.2437
  755MPD2    C411156   0.684   1.662  13.365  0.0376  0.4281 -0.4218
  755MPD2    C511157   0.628   1.775  13.415  0.0419 -0.0439  0.6224
  755MPD2     H11158   0.539   1.454  13.586 -0.3814 -0.3237 -0.3185
  755MPD2    H111159   0.755   1.681  13.286  1.1148  1.4051  0.7802
  755MPD2    H211160   0.527   1.869  13.562  1.7135  1.0362 -0.7731
  755MPD2    H311161   0.638   1.870  13.363 -0.5887 -0.8096 -0.8900
  755MPD2     N11162   0.716   1.423  13.377 -0.3799 -0.4146  0.2443
  755MPD2    H511163   0.774   1.431  13.295  1.3967  0.4150  1.5763
  755MPD2    N111164   0.470   1.654  13.734 -0.2260  0.0213  0.4382
  755MPD2    H711165   0.444   1.567  13.778  0.8457 -0.8450 -0.6420
  756MPD2     C11166   1.120   2.054   9.775 -0.0613 -0.3623  0.4222
  756MPD2    C111167   1.147   1.987   9.891 -0.0032 -0.0037  0.1381
  756MPD2    C211168   1.146   1.847   9.899  0.6838 -0.6203 -0.6508
  756MPD2    C311169   1.125   1.775   9.785 -0.6291  0.5479 -0.2271
  756MPD2    C411170   1.121   1.848   9.669  0.1446 -0.5159  0.4357
  756MPD2    C511171   1.108   1.983   9.662  0.2500  0.4758  0.4840
  756MPD2     H11172   1.154   1.802   9.997 -1.7467  2.6707  1.0153
  756MPD2    H111173   1.117   1.800   9.572  2.9534  0.2013 -0.0548
  756MPD2    H211174   1.103   2.160   9.766  1.1020 -0.0466  1.9060
  756MPD2    H311175   1.111   2.034   9.566  1.7044  0.8013  0.6930
  756MPD2     N11176   1.115   1.631   9.789  0.1502  0.3532  0.6620
  756MPD2    H511177   1.132   1.580   9.875 -1.4446  0.5635  1.0828
  756MPD2    N111178   1.164   2.061  10.014  0.2679  0.3909 -0.2295
  756MPD2    H711179   1.153   2.015  10.104 -0.2373  0.5702 -0.1943
  757MPD2     C11180   0.212   1.174   9.766 -0.0830 -0.0304 -0.5211
  757MPD2    C111181   0.291   1.089   9.842 -0.7017  0.4540 -0.0156
  757MPD2    C211182   0.425   1.114   9.835 -0.2145  0.2574 -0.8506
  757MPD2    C311183   0.478   1.214   9.750  1.0044 -0.5672  0.1396
  757MPD2    C411184   0.400   1.277   9.655  0.4508  0.0768 -0.5870
  757MPD2    C511185   0.264   1.249   9.666 -0.6567  0.6326 -0.5083
  757MPD2     H11186   0.500   1.064   9.895 -0.9471 -1.4596 -1.3798
  757MPD2    H111187   0.435   1.344   9.577 -0.3753 -1.9628 -2.7065
  757MPD2    H211188   0.104   1.175   9.773  0.0369  1.4163  1.0860
  757MPD2    H311189   0.191   1.307   9.611 -0.7855  0.0378 -0.9702
  757MPD2     N11190   0.619   1.221   9.765 -0.1228  0.6713 -0.3438
  757MPD2    H511191   0.668   1.170   9.838 -1.9206  2.8199  2.3919
  757MPD2    N111192   0.228   0.988   9.921  0.1856 -0.3862 -0.2766
  757MPD2    H711193   0.128   0.989   9.937  0.1344  0.4739 -0.6612
  758MPD2     C11194   1.398   1.080  16.471  0.1805  0.7222 -0.1231
  758MPD2    C111195   1.392   1.006  16.584 -0.5285 -0.1137 -0.2541
  758MPD2    C211196   1.372   1.063  16.711  0.0423 -0.1121 -0.2287
  758MPD2    C311197   1.357   1.202  16.721 -0.1812  0.5622 -0.0152
  758MPD2    C411198   1.347   1.271  16.601  0.5379 -0.8052 -0.2958
  758MPD2    C511199   1.385   1.211  16.486  0.8372 -0.1174 -0.5499
  758MPD2     H11200   1.358   0.999  16.798  0.3468 -0.1243 -0.1901
  758MPD2    H111201   1.325   1.377  16.590 -0.7568 -1.0702 -0.3362
  758MPD2    H211202   1.426   1.049  16.371  1.3431  0.5747  0.2426
  758MPD2    H311203   1.395   1.276  16.400 -2.9674  0.4714 -0.5662
  758MPD2     N11204   1.327   1.268  16.847 -0.5701  0.3863  0.2989
  758MPD2    H511205   1.316   1.369  16.850 -0.1573  0.4146  0.6982
  758MPD2    N111206   1.404   0.867  16.564 -0.4943 -0.4275  0.6784
  758MPD2    H711207   1.442   0.834  16.476 -3.9183  1.6007 -1.5601
  759MPD2     C11208   0.141   3.938  10.593 -0.0727  0.2285  0.1779
  759MPD2    C111209   0.032   3.900  10.516 -0.4183  0.7911  0.3941
  759MPD2    C211210   0.019   3.961  10.393 -0.2566  0.0667  0.1161
  759MPD2    C311211   0.104   4.058  10.344  0.5743 -0.1885  0.2456
  759MPD2    C411212   0.205   4.099  10.433 -0.3020 -0.0756 -0.2407
  759MPD2    C511213   0.230   4.035  10.550 -0.2474  0.3274 -0.7831
  759MPD2     H11214   4.664   3.940  10.325 -0.7112  2.8851 -0.1979
  759MPD2    H111215   0.278   4.174  10.404 -0.6954  0.7255  0.8149
  759MPD2    H211216   0.160   3.899  10.692 -3.7208 -0.0471  0.7631
  759MPD2    H311217   0.306   4.075  10.617 -2.1830 -1.8415  2.6674
  759MPD2     N11218   0.075   4.121  10.219 -0.0086 -0.3506  0.1546
  759MPD2    H511219   0.006   4.071  10.164 -0.1964 -0.4877  0.5154
  759MPD2    N111220   4.657   3.813  10.564  0.2908 -0.3124  0.1055
  759MPD2    H711221   4.577   3.793  10.504  0.2416  1.2693 -0.3701
  760MPD2     C11222   0.208   0.596  11.553  0.1227 -0.1021  0.3035
  760MPD2    C111223   0.274   0.670  11.647 -0.0826  0.3658 -0.2697
  760MPD2    C211224   0.296   0.625  11.773  1.1099  0.3362 -0.3558
  760MPD2    C311225   0.228   0.519  11.824  0.3959 -0.1187 -0.0832
  760MPD2    C411226   0.144   0.454  11.733  0.7670  0.1008 -0.1675
  760MPD2    C511227   0.131   0.491  11.602 -0.8428 -0.0091  0.6043
  760MPD2     H11228   0.358   0.684  11.840  1.8356 -0.0849 -0.6502
  760MPD2    H111229   0.087   0.371  11.773  0.1086 -0.1667 -1.6999
  760MPD2    H211230   0.195   0.621  11.448 -0.7035  0.3153  0.5012
  760MPD2    H311231   0.072   0.439  11.528 -0.5715  0.2698  0.1952
  760MPD2     N11232   0.224   0.476  11.959 -0.5943  0.2189  0.0900
  760MPD2    H511233   0.179   0.387  11.978  0.6455 -0.6781 -1.1564
  760MPD2    N111234   0.344   0.785  11.607  0.4708 -0.9194  0.3194
  760MPD2    H711235   0.396   0.817  11.688 -0.9786  1.0604  0.4777
  761MPD2     C11236   1.170   0.573  11.384  0.0566  0.4547  0.2371
  761MPD2    C111237   1.261   0.575  11.278 -0.2139 -0.8735  0.1901
  761MPD2    C211238   1.299   0.698  11.215  0.2329 -0.1842 -0.1381
  761MPD2    C311239   1.256   0.814  11.271 -0.2618 -0.7702  0.0484
  761MPD2    C411240   1.166   0.811  11.377 -0.9047 -0.1340 -0.9184
  761MPD2    C511241   1.128   0.692  11.434 -0.0387  0.8650 -1.0745
  761MPD2     H11242   1.365   0.695  11.129  1.3568  1.8875  0.6483
  761MPD2    H111243   1.128   0.897  11.431 -0.5077  0.0521 -0.9363
  761MPD2    H211244   1.140   0.477  11.426 -0.6028  1.0273  1.0579
  761MPD2    H311245   1.073   0.706  11.526  3.1495 -0.2345  0.9920
  761MPD2     N11246   1.298   0.937  11.215  0.2059 -0.2759 -0.6194
  761MPD2    H511247   1.256   1.017  11.262 -0.0246  0.4180 -1.9962
  761MPD2    N111248   1.314   0.451  11.230 -0.3005 -0.0573  0.1061
  761MPD2    H711249   1.282   0.371  11.284 -2.9174  0.2074 -1.0476
  762MPD2     C11250   1.977   0.279  10.789  0.1112  0.4207  0.0418
  762MPD2    C111251   1.925   0.171  10.856  0.1392 -0.1698 -0.0978
  762MPD2    C211252   1.999   0.061  10.868  0.0641  0.3307 -0.9722
  762MPD2    C311253   2.132   0.064  10.825  0.0518 -0.4734 -0.3841
  762MPD2    C411254   2.189   0.174  10.771  0.1792 -0.0641 -0.1611
  762MPD2    C511255   2.110   0.279  10.749  0.1612 -0.0588  0.3670
  762MPD2     H11256   1.968   4.699  10.924 -0.6316  2.5284  2.1184
  762MPD2    H111257   2.291   0.163  10.737 -0.1708 -0.3980 -1.1133
  762MPD2    H211258   1.913   0.363  10.765  0.3939  0.2599 -1.2524
  762MPD2    H311259   2.144   0.365  10.692  0.6005 -0.5027 -0.0427
  762MPD2     N11260   2.201   4.675  10.853 -0.0209  0.9319  0.3225
  762MPD2    H511261   2.154   4.601  10.904 -1.5660  1.3198 -0.5487
  762MPD2    N111262   1.795   0.181  10.910 -0.0728  0.6002 -0.2243
  762MPD2    H711263   1.751   0.270  10.890  2.0367  1.9143  0.9841
  763MPD2     C11264   3.622   0.599  16.354  0.5833  0.4791 -0.3185
  763MPD2    C111265   3.516   0.679  16.310  0.6191  0.1546  0.0784
  763MPD2    C211266   3.489   0.791  16.386 -0.2385  1.3109 -0.0153
  763MPD2    C311267   3.542   0.808  16.512  0.7854  0.1261  0.4644
  763MPD2    C411268   3.646   0.732  16.552  0.9046  0.6675  0.0404
  763MPD2    C511269   3.692   0.635  16.465 -0.6185  0.0074 -0.3717
  763MPD2     H11270   3.413   0.859  16.350 -0.2926  0.8080 -0.8692
  763MPD2    H111271   3.697   0.745  16.647 -0.4612  3.5960  0.3413
  763MPD2    H211272   3.663   0.513  16.302  0.4966 -0.4173  1.0866
  763MPD2    H311273   3.780   0.577  16.493  0.0344  0.6086 -1.1715
  763MPD2     N11274   3.503   0.916  16.591 -0.5785  0.3566 -0.1307
  763MPD2    H511275   3.551   0.923  16.680  2.4593 -0.5203 -1.7220
  763MPD2    N111276   3.434   0.647  16.198 -0.4733  0.0626 -0.4039
  763MPD2    H711277   3.369   0.721  16.172 -2.4400 -1.9315 -1.1220
  764MPD2     C11278   0.839   3.129  17.672  0.5296  0.1477  0.1634
  764MPD2    C111279   0.867   2.998  17.630  0.0543 -0.1440  0.6923
  764MPD2    C211280   0.785   2.898  17.676  0.0275 -0.2786 -0.4130
  764MPD2    C311281   0.685   2.917   0.068  0.9982  0.3928 -0.5298
  764MPD2    C411282   0.660   3.047   0.107  0.0779  0.2097 -0.2348
  764MPD2    C511283   0.740   3.156   0.058 -0.2158 -0.4438  0.0644
  764MPD2     H11284   0.806   2.800  17.636  0.4995 -0.6553  0.7290
  764MPD2    H111285   0.575   3.077   0.167  1.7096 -0.4531  2.4114
  764MPD2    H211286   0.892   3.218  17.642  0.0036  0.0604 -1.0026
  764MPD2    H311287   0.716   3.260   0.075  0.3380  0.1602 -2.9424
  764MPD2     N11288   0.615   2.806   0.122  0.3475  0.3553  0.2240
  764MPD2    H511289   0.642   2.716   0.083 -1.5871  0.5950 -1.6964
  764MPD2    N111290   0.966   2.976  17.525 -0.1967  0.1834 -0.0730
  764MPD2    H711291   0.966   2.886  17.478  0.8042  0.5010 -0.6907
  765MPD2     C11292   0.950   0.007  15.973  0.0725  0.3601  0.8709
  765MPD2    C111293   1.047   0.105  15.994  0.2847  0.1812  0.2531
  765MPD2    C211294   1.185   0.076  15.975  0.2916  0.5101 -0.4564
  765MPD2    C311295   1.215   4.673  15.931 -0.4303 -0.2882  0.4983
  765MPD2    C411296   1.115   4.580  15.909 -0.0878 -0.9654 -0.8850
  765MPD2    C511297   0.984   4.605  15.941  0.0035  0.1979 -0.6729
  765MPD2     H11298   1.270   0.142  15.987  1.1871 -0.6240 -0.6240
  765MPD2    H111299   1.136   4.485  15.863  1.5638 -1.1142  0.1545
  765MPD2    H211300   0.845   0.032  15.983  0.0634 -0.0656  1.8580
  765MPD2    H311301   0.907   4.530  15.928  1.3016 -1.7371  2.7193
  765MPD2     N11302   1.347   4.640  15.899 -0.1055  0.5382 -0.4436
  765MPD2    H511303   1.421   4.704  15.925  0.3559 -1.2449  2.6047
  765MPD2    N111304   0.997   0.237  16.027  0.6345 -1.0157  0.2667
  765MPD2    H711305   0.898   0.254  16.012  0.5897 -0.3441  1.3778
  766MPD2     C11306   0.463   0.634  15.772  0.9862 -0.0963  0.2962
  766MPD2    C111307   0.570   0.551  15.775 -0.1239 -0.6295 -0.6087
  766MPD2    C211308   0.594   0.483  15.657 -0.5333  0.3409  0.4247
  766MPD2    C311309   0.538   0.508  15.531  0.0088 -0.2782 -0.1699
  766MPD2    C411310   0.427   0.592  15.533  0.2979 -0.5639 -0.8246
  766MPD2    C511311   0.394   0.653  15.652 -0.0769 -0.5013 -0.0635
  766MPD2     H11312   0.679   0.416  15.662 -1.5472 -1.0144 -0.5795
  766MPD2    H111313   0.371   0.617  15.444  0.2108 -0.4539 -0.7387
  766MPD2    H211314   0.426   0.690  15.857  0.6212  0.3519 -0.1588
  766MPD2    H311315   0.321   0.732  15.644 -2.8334 -2.8096  2.2942
  766MPD2     N11316   0.579   0.458  15.407 -0.6190  0.0324  0.8388
  766MPD2    H511317   0.534   0.494  15.323  0.1151  0.7619  0.7618
  766MPD2    N111318   0.652   0.521  15.888  0.1128 -0.4408  0.6747
  766MPD2    H711319   0.737   0.467  15.872  0.5489  1.3578 -3.1472
  767MPD2     C11320   0.129   0.642  15.308 -0.4244 -0.5082 -0.0466
  767MPD2    C111321   0.233   0.668  15.223  0.0603  0.3594  0.9134
  767MPD2    C211322   0.272   0.581  15.123  0.2334  0.0431 -0.0005
  767MPD2    C311323   0.184   0.480  15.090  0.6161 -0.0691 -0.2069
  767MPD2    C411324   0.072   0.458  15.161 -0.3801  0.6995 -0.0482
  767MPD2    C511325   0.041   0.541  15.271 -1.2299  0.8401 -0.3170
  767MPD2     H11326   0.362   0.588  15.062 -0.8968  0.0586 -1.6530
  767MPD2    H111327   0.008   0.372  15.142 -0.2125  0.7921 -1.0384
  767MPD2    H211328   0.090   0.704  15.389  1.4406 -1.0280  1.2557
  767MPD2    H311329   4.683   0.523  15.336  0.2762 -0.7729  1.1990
  767MPD2     N11330   0.225   0.389  14.985  0.6510 -0.7180 -0.4357
  767MPD2    H511331   0.315   0.405  14.941  0.8072 -1.6773 -0.4657
  767MPD2    N111332   0.312   0.786  15.254  0.6578 -0.2613  0.2569
  767MPD2    H711333   0.298   0.834  15.342 -1.6981 -0.1080 -0.2007
  768MPD2     C11334   0.868   3.511  11.260  0.4627 -0.5564  0.5986
  768MPD2    C111335   0.846   3.548  11.390  0.5099  0.3400 -0.0633
  768MPD2    C211336   0.951   3.555  11.484 -0.1240  0.6525  0.7297
  768MPD2    C311337   1.079   3.499  11.451  0.3755 -0.0232 -0.1508
  768MPD2    C411338   1.099   3.456  11.322 -0.0540  0.7159 -0.1076
  768MPD2    C511339   1.000   3.476  11.229  0.5290  0.3224  0.1869
  768MPD2     H11340   0.938   3.599  11.582 -0.6109  0.7500  0.6223
  768MPD2    H111341   1.194   3.412  11.294 -0.6497 -1.1268  0.7591
  768MPD2    H211342   0.787   3.497  11.189 -0.2075 -1.0191  1.4475
  768MPD2    H311343   1.019   3.442  11.128 -0.5096 -0.4436  0.2550
  768MPD2     N11344   1.172   3.488  11.554  0.3342  0.2698  0.5778
  768MPD2    H511345   1.163   3.543  11.639 -0.4498  0.4470  0.3830
  768MPD2    N111346   0.718   3.593  11.425 -0.0553 -0.7036  0.1855
  768MPD2    H711347   0.706   3.608  11.524  0.4991  0.4370  0.0858
  769MPD2     C11348   2.423   1.222  15.085 -0.4258 -0.3566  0.4685
  769MPD2    C111349   2.310   1.215  15.161 -0.2181  0.0470 -0.2432
  769MPD2    C211350   2.302   1.312  15.260  0.0898 -0.2927 -0.3387
  769MPD2    C311351   2.394   1.409  15.284 -0.1551  0.5048  0.0863
  769MPD2    C411352   2.494   1.423  15.194 -0.1000  0.0679 -0.3742
  769MPD2    C511353   2.509   1.330  15.099 -0.1681 -0.1360  0.3073
  769MPD2     H11354   2.214   1.323  15.323  0.5433 -0.7739  0.3723
  769MPD2    H111355   2.570   1.500  15.203  1.9824 -1.9589 -0.5311
  769MPD2    H211356   2.448   1.147  15.010  2.2333  0.3078  0.6998
  769MPD2    H311357   2.587   1.346  15.025  0.4814  0.9914  1.2412
  769MPD2     N11358   2.368   1.499  15.390  0.3994  0.3181  0.6955
  769MPD2    H511359   2.283   1.476  15.440  1.9903  1.4401  3.9350
  769MPD2    N111360   2.224   1.103  15.139  0.1971  0.2017 -0.3868
  769MPD2    H711361   2.243   1.037  15.064  2.1803  1.4185 -0.9594
  770MPD2     C11362   1.203   0.811  15.422  0.0894 -0.7343  0.3500
  770MPD2    C111363   1.260   0.700  15.361 -0.3279 -0.5514 -0.3841
  770MPD2    C211364   1.376   0.714  15.299  0.2245  0.7427  0.9745
  770MPD2    C311365   1.439   0.834  15.282  0.0096  0.7660  0.1832
  770MPD2    C411366   1.376   0.941  15.334 -0.6186 -0.0768 -0.0213
  770MPD2    C511367   1.259   0.933  15.403  0.1609  0.3398 -0.2939
  770MPD2     H11368   1.428   0.633  15.248  1.3866  0.4313  2.6552
  770MPD2    H111369   1.425   1.038  15.344 -1.0009  0.0257  0.8542
  770MPD2    H211370   1.112   0.813  15.481 -1.2568 -1.4444 -1.7256
  770MPD2    H311371   1.219   1.024  15.446  2.0757  1.4453 -0.8219
  770MPD2     N11372   1.581   0.832  15.242 -0.7918  0.2803  0.5928
  770MPD2    H511373   1.621   0.746  15.209 -0.2635  0.8930 -0.3620
  770MPD2    N111374   1.194   0.580  15.387 -0.5812 -0.3204  0.8296
  770MPD2    H711375   1.113   0.589  15.447 -0.3179 -1.4321  1.3473
  771MPD2     C11376   3.042   4.265  13.691 -0.0126  0.1427  0.0217
  771MPD2    C111377   2.956   4.355  13.753 -0.1893  0.1155  0.1708
  771MPD2    C211378   2.854   4.314  13.832  0.7595  0.1108  0.8362
  771MPD2    C311379   2.817   4.184  13.825 -0.5108  1.1910  0.3702
  771MPD2    C411380   2.888   4.089  13.752 -0.4488  0.5380 -0.3422
  771MPD2    C511381   2.998   4.130  13.682  0.5172  0.4564  0.0287
  771MPD2     H11382   2.791   4.378  13.893  0.3242  0.9218 -0.4838
  771MPD2    H111383   2.865   3.985  13.731  2.2764 -0.3234  0.9838
  771MPD2    H211384   3.127   4.302  13.634 -1.1330  1.0018 -1.0701
  771MPD2    H311385   3.061   4.055  13.634  1.3209  0.4313  1.1369
  771MPD2     N11386   2.700   4.149  13.886  0.5953  0.1092  0.0124
  771MPD2    H511387   2.652   4.217  13.945 -2.0511 -1.6193 -0.1415
  771MPD2    N111388   2.988   4.492  13.767  0.1276 -0.0202  0.4727
  771MPD2    H711389   2.913   4.547  13.806 -0.3360 -1.2970  1.3653
  772MPD2     C11390   2.801   0.183  14.296  0.1774  0.2421  0.3293
  772MPD2    C111391   2.785   0.092  14.193  0.4456 -1.0823  0.2457
  772MPD2    C211392   2.663   0.031  14.182 -0.9929  0.0484  0.2800
  772MPD2    C311393   2.561   0.062  14.275  0.1061 -0.5256 -1.1976
  772MPD2    C411394   2.578   0.153  14.380  0.9370 -0.7388 -0.4142
  772MPD2    C511395   2.701   0.214  14.390  0.5565  0.5240 -0.0841
  772MPD2     H11396   2.648   4.681  14.106 -1.6801 -0.7834  1.2468
  772MPD2    H111397   2.499   0.158  14.454  1.6876  0.6099  0.2951
  772MPD2    H211398   2.898   0.225  14.317  0.5219 -0.5170  0.2464
  772MPD2    H311399   2.719   0.291  14.464 -1.2810 -0.5622  1.5178
  772MPD2     N11400   2.438   4.726  14.277 -0.6289 -0.3477  0.7776
  772MPD2    H511401   2.375   0.034  14.349 -0.1857  0.1618  0.9194
  772MPD2    N111402   2.892   0.063  14.107 -0.2463 -0.3664 -0.0348
  772MPD2    H711403   2.868   4.714  14.043  3.0684 -0.9946 -0.5385
  773MPD2     C11404   1.734   1.357   0.393  0.5834 -0.0785 -0.0866
  773MPD2    C111405   1.631   1.288   0.463 -1.0095 -0.2439 -0.5522
  773MPD2    C211406   1.656   1.245   0.590  0.0425  0.7366 -0.1641
  773MPD2    C311407   1.781   1.249   0.650  0.3240 -0.4628 -0.2308
  773MPD2    C411408   1.887   1.304   0.577 -0.2591  0.0929  0.3901
  773MPD2    C511409   1.854   1.362   0.456 -0.1865  0.4999  0.6983
  773MPD2     H11410   1.578   1.191   0.642  1.5425 -1.4513 -0.2136
  773MPD2    H111411   1.989   1.309   0.614 -0.5151 -0.2189  1.1499
  773MPD2    H211412   1.736   1.388   0.289 -0.3136 -0.5406 -0.2432
  773MPD2    H311413   1.939   1.411   0.410  1.1173 -1.2450  1.2666
  773MPD2     N11414   1.814   1.159   0.757  0.0674  0.7431  0.0356
  773MPD2    H511415   1.736   1.101   0.787  1.0567 -1.4110 -1.5608
  773MPD2    N111416   1.500   1.279   0.407 -0.0581  0.0967  0.7248
  773MPD2    H711417   1.430   1.226   0.457 -0.6944  0.7273  0.5037
  774MPD2     C11418   1.624   0.100  13.406 -0.1898 -0.2903 -0.0238
  774MPD2    C111419   1.503   0.143  13.449 -0.5092  0.4269 -0.0482
  774MPD2    C211420   1.467   0.271  13.428  0.5606 -0.5997 -0.2253
  774MPD2    C311421   1.556   0.363  13.385  0.6350  0.1317  0.4435
  774MPD2    C411422   1.678   0.318  13.350 -0.2669  0.3196  0.0485
  774MPD2    C511423   1.712   0.182  13.352  0.1419 -0.7263  0.4521
  774MPD2     H11424   1.370   0.307  13.462 -0.4238 -1.5933 -1.9394
  774MPD2    H111425   1.753   0.389  13.317 -0.5460  1.5196  2.0261
  774MPD2    H211426   1.649   4.721  13.414 -0.2571 -0.3755 -0.9247
  774MPD2    H311427   1.807   0.141  13.320  0.4807  1.9978 -2.0304
  774MPD2     N11428   1.521   0.503  13.385  0.1466  0.6437  0.5353
  774MPD2    H511429   1.424   0.517  13.411 -0.0002  0.7129 -0.0565
  774MPD2    N111430   1.416   0.039  13.499  0.3735 -0.2362 -0.7641
  774MPD2    H711431   1.463   4.680  13.528 -1.2476 -0.8008  0.2146
  775MPD2     C11432   2.487   1.416  16.040 -0.1049  0.0709  0.3837
  775MPD2    C111433   2.445   1.539  16.090  0.3209 -0.0195  0.8584
  775MPD2    C211434   2.532   1.651  16.075  0.7524  0.9006  0.4716
  775MPD2    C311435   2.659   1.633  16.024  0.4813 -0.2864  0.2693
  775MPD2    C411436   2.695   1.505  15.974 -0.2635  0.7359  0.5727
  775MPD2    C511437   2.613   1.394  15.991  0.6431 -0.3094  0.1571
  775MPD2     H11438   2.502   1.754  16.093 -0.3122  0.7241 -0.2713
  775MPD2    H111439   2.789   1.473  15.929  1.1376 -0.0312  4.0537
  775MPD2    H211440   2.422   1.330  16.038  0.2265 -0.1422 -1.8699
  775MPD2    H311441   2.639   1.295  15.957 -0.2442 -0.8911  1.1630
  775MPD2     N11442   2.744   1.742  15.984 -0.8982 -0.0169 -0.7405
  775MPD2    H511443   2.824   1.718  15.927  0.1162  0.9090  0.2836
  775MPD2    N111444   2.313   1.545  16.148  0.6306 -0.1418  0.2967
  775MPD2    H711445   2.252   1.464  16.135 -0.2271  0.6522 -0.6468
  776MPD2     C11446   2.180   2.003  12.048 -0.3187  0.4255  0.3464
  776MPD2    C111447   2.071   2.046  11.982 -0.0640  0.4321  0.0964
  776MPD2    C211448   2.080   2.157  11.897  0.3259  0.5154 -0.3153
  776MPD2    C311449   2.196   2.229  11.880  0.3859  0.9155 -0.2099
  776MPD2    C411450   2.306   2.181  11.954  0.7972  0.7043 -0.0402
  776MPD2    C511451   2.299   2.069  12.029  0.8484 -0.0348 -0.6009
  776MPD2     H11452   1.990   2.186  11.845  1.2838  3.5778 -0.2332
  776MPD2    H111453   2.400   2.235  11.948  0.2804  1.5931 -0.2501
  776MPD2    H211454   2.179   1.923  12.122 -2.0575  0.0162 -0.1158
  776MPD2    H311455   2.385   2.037  12.088  0.3526 -1.9511 -0.8941
  776MPD2     N11456   2.217   2.336  11.790 -0.1647  0.2078  0.0731
  776MPD2    H511457   2.316   2.359  11.783 -0.3897  0.8581 -1.0907
  776MPD2    N111458   1.957   1.970  12.009 -0.0050 -0.0385 -0.6250
  776MPD2    H711459   1.981   1.890  12.067  0.6523  0.2998 -0.4264
  777MPD2     C11460   0.857   4.019   0.992  0.5290  0.5026  0.3643
  777MPD2    C111461   0.948   3.944   1.063 -0.1961  0.2216  0.1660
  777MPD2    C211462   1.008   3.838   1.002  0.4550 -0.1131  0.3576
  777MPD2    C311463   0.978   3.817   0.872  0.2121 -0.4980  0.4142
  777MPD2    C411464   0.883   3.887   0.802  0.7029  0.1246  0.0944
  777MPD2    C511465   0.830   3.986   0.862  0.2975  0.2450 -0.7886
  777MPD2     H11466   1.077   3.777   1.059 -0.0685  0.2951  1.4235
  777MPD2    H111467   0.852   3.870   0.700  0.6753  1.5490 -0.1313
  777MPD2    H211468   0.822   4.112   1.035  0.9469  0.3740  0.9745
  777MPD2    H311469   0.772   4.050   0.797 -0.8883  0.4342  0.4520
  777MPD2     N11470   1.048   3.718   0.800  0.2389  1.0674 -0.5523
  777MPD2    H511471   1.118   3.661   0.847  0.3043  1.4323 -0.2084
  777MPD2    N111472   0.973   3.983   1.190  0.1210  0.1591 -0.8908
  777MPD2    H711473   0.926   4.064   1.228  0.0453  0.9844 -2.7961
  778MPD2     C11474   3.135   4.630  15.256  0.1418  0.2280  0.5065
  778MPD2    C111475   3.088   4.567  15.137  0.8339  0.0119 -0.2751
  778MPD2    C211476   3.092   4.631  15.016  0.0529 -0.3636 -0.1600
  778MPD2    C311477   3.138   0.032  15.005 -0.5742 -0.3073  0.2062
  778MPD2    C411478   3.170   0.095  15.122  0.0776 -0.8274 -0.4529
  778MPD2    C511479   3.166   0.038  15.246  0.5422  0.0152 -0.1932
  778MPD2     H11480   3.059   4.569  14.933 -0.1690  0.3925 -0.6402
  778MPD2    H111481   3.176   0.203  15.114  0.8990 -0.8584 -0.2651
  778MPD2    H211482   3.152   4.576  15.348  1.5779  0.2620  0.2681
  778MPD2    H311483   3.209   0.085  15.333 -0.1303  1.8933 -0.8712
  778MPD2     N11484   3.156   0.089  14.876 -0.9489 -1.0850  0.4776
  778MPD2    H511485   3.138   0.029  14.796 -1.3942 -1.3451  0.7740
  778MPD2    N111486   3.051   4.429  15.133 -0.7756 -0.8481 -0.1665
  778MPD2    H711487   2.996   4.401  15.052 -1.3170  0.2696 -0.1782
  779MPD2     C11488   2.554   3.268  14.230  0.0436  0.3666 -0.4686
  779MPD2    C111489   2.663   3.293  14.309 -0.1497 -0.6714  0.0865
  779MPD2    C211490   2.705   3.424  14.330  0.5833  0.0461  0.0736
  779MPD2    C311491   2.628   3.528  14.284  0.4939  0.5071 -0.1802
  779MPD2    C411492   2.510   3.499  14.217  0.6794  0.7580  0.1766
  779MPD2    C511493   2.471   3.373  14.187 -0.5938  0.0198  0.3433
  779MPD2     H11494   2.807   3.445  14.362  0.2616 -0.2461  1.2756
  779MPD2    H111495   2.449   3.580  14.178 -1.0513 -1.6350 -2.1042
  779MPD2    H211496   2.510   3.171  14.209 -0.7332  1.0614 -2.0933
  779MPD2    H311497   2.378   3.352  14.136 -0.2354 -0.4161 -0.1276
  779MPD2     N11498   2.675   3.663  14.302  0.4465 -0.4578  0.0118
  779MPD2    H511499   2.771   3.683  14.329 -0.0785  0.0732  1.4673
  779MPD2    N111500   2.718   3.183  14.374  0.9164 -0.4659 -0.5459
  779MPD2    H711501   2.658   3.101  14.366 -0.7228  0.5600  1.1688
  780MPD2     C11502   0.730   2.505   0.431  0.1020  0.2898  0.1726
  780MPD2    C111503   0.765   2.423   0.320 -0.0789  0.5289  0.6847
  780MPD2    C211504   0.845   2.472   0.217  0.3178  0.3668 -0.0459
  780MPD2    C311505   0.896   2.596   0.229  0.4543  0.4798  0.5790
  780MPD2    C411506   0.864   2.678   0.334 -0.7511 -0.3933 -0.6607
  780MPD2    C511507   0.781   2.633   0.431  0.2951 -0.2179 -0.0493
  780MPD2     H11508   0.891   2.414   0.138 -0.9117  1.0834 -1.2762
  780MPD2    H111509   0.909   2.775   0.352  0.3684 -0.4052 -3.3463
  780MPD2    H211510   0.661   2.469   0.507  2.5621  0.1315  2.3342
  780MPD2    H311511   0.763   2.699   0.515 -1.0099  0.9667 -1.2747
  780MPD2     N11512   0.987   2.629   0.122 -0.1141  0.1005 -0.0873
  780MPD2    H511513   1.004   2.565   0.045  0.9104  2.3639 -1.7554
  780MPD2    N111514   0.706   2.293   0.327  0.5649  0.2986  0.3967
  780MPD2    H711515   0.662   2.261   0.413  0.7396 -0.7889  0.0857
  781MPD2     C11516   3.721   4.640  12.375 -0.0391  0.2021 -0.4684
  781MPD2    C111517   3.795   0.016  12.430 -0.1233 -0.6942  0.0086
  781MPD2    C211518   3.885   0.094  12.348 -0.7528 -0.2505  0.7270
  781MPD2    C311519   3.900   0.056  12.217  0.3179 -0.3686  0.2952
  781MPD2    C411520   3.835   4.671  12.167 -0.5421 -0.1425  0.9784
  781MPD2    C511521   3.734   4.609  12.246 -0.1171 -0.3893 -0.2399
  781MPD2     H11522   3.932   0.184  12.386  0.3630 -0.6233  0.2295
  781MPD2    H111523   3.862   4.629  12.071 -0.7945  0.3199  0.7029
  781MPD2    H211524   3.652   4.584  12.438  0.3685 -1.1723 -1.2293
  781MPD2    H311525   3.674   4.536  12.192  0.0110 -1.4538  1.0644
  781MPD2     N11526   3.990   0.114  12.118 -0.4846  0.0127 -0.7471
  781MPD2    H511527   3.998   0.064  12.030  2.7294  0.6514 -0.8146
  781MPD2    N111528   3.783   0.053  12.567  0.0027 -0.6106  0.3212
  781MPD2    H711529   3.861   0.104  12.607  0.1383 -1.5115  1.2311
  782MPD2     C11530   2.167   1.065  10.762 -0.1688 -0.0974  0.3100
  782MPD2    C111531   2.294   1.088  10.711 -0.5153 -0.3959 -0.2384
  782MPD2    C211532   2.396   1.015  10.770 -0.0937  0.0378  0.2642
  782MPD2    C311533   2.378   0.935  10.880  0.7969 -0.2722  0.2000
  782MPD2    C411534   2.250   0.921  10.930  0.2512 -0.5436 -0.1078
  782MPD2    C511535   2.146   0.986  10.870  0.3514 -0.0290 -0.3775
  782MPD2     H11536   2.499   1.015  10.736  0.5017  1.1301  2.0693
  782MPD2    H111537   2.229   0.865  11.020  1.1244 -1.5757 -0.5557
  782MPD2    H211538   2.081   1.106  10.710 -0.8129 -0.5733  0.9941
  782MPD2    H311539   2.049   0.979  10.918  1.6189 -1.5052  1.9521
  782MPD2     N11540   2.491   0.879  10.932  0.7065 -0.0013  0.0463
  782MPD2    H511541   2.575   0.927  10.902  0.1167  0.0157 -1.6049
  782MPD2    N111542   2.329   1.172  10.599 -0.2842  0.1189  0.4452
  782MPD2    H711543   2.420   1.160  10.556  1.1672 -0.5104  3.6787
  783MPD2     C11544   1.668   0.941  10.546  0.9259 -0.0302  0.1925
  783MPD2    C111545   1.712   1.048  10.625  0.4848  0.0376 -0.1916
  783MPD2    C211546   1.818   1.121  10.567  0.6520 -0.4582 -0.4785
  783MPD2    C311547   1.867   1.087  10.441 -0.2716  0.5362 -0.6007
  783MPD2    C411548   1.806   0.991  10.368 -0.3234  0.3653  0.8114
  783MPD2    C511549   1.707   0.916  10.420 -0.1527 -0.1446  0.2373
  783MPD2     H11550   1.858   1.203  10.626  0.3997 -0.2453 -0.6054
  783MPD2    H111551   1.842   0.960  10.271 -0.3738  1.2338  0.5148
  783MPD2    H211552   1.591   0.876  10.585 -0.0887  1.7946  1.2122
  783MPD2    H311553   1.651   0.841  10.365 -0.3776  0.0180  0.2475
  783MPD2     N11554   1.984   1.156  10.387  0.8386  0.0462 -0.4635
  783MPD2    H511555   2.020   1.230  10.447 -1.8251 -1.1214  2.5150
  783MPD2    N111556   1.653   1.074  10.752  0.3074  0.2292 -0.0042
  783MPD2    H711557   1.591   1.000  10.784  0.5693  0.1045  0.2114
  784MPD2     C11558   2.970   1.118   1.662 -0.1730  0.4402  0.3008
  784MPD2    C111559   3.013   1.232   1.599  0.2827  0.3928  0.7521
  784MPD2    C211560   2.929   1.301   1.512  0.4446 -0.1485  0.4115
  784MPD2    C311561   2.807   1.254   1.480 -0.3759  0.2889  0.0970
  784MPD2    C411562   2.757   1.153   1.557 -0.5696 -0.4624  0.4295
  784MPD2    C511563   2.836   1.085   1.645  0.3818 -0.2609 -0.3175
  784MPD2     H11564   2.963   1.385   1.452  0.4787 -1.2255 -1.0656
  784MPD2    H111565   2.656   1.115   1.546  0.2086 -2.0256 -1.3497
  784MPD2    H211566   3.026   1.051   1.726  1.8869  1.4513 -0.4566
  784MPD2    H311567   2.801   0.991   1.687  2.2718 -2.1985 -3.0322
  784MPD2     N11568   2.735   1.334   1.393  0.1019 -0.1238 -0.4457
  784MPD2    H511569   2.775   1.415   1.346  2.0414  1.7916  4.5064
  784MPD2    N111570   3.136   1.294   1.620 -0.1794 -0.8352  0.2996
  784MPD2    H711571   3.151   1.379   1.566 -2.3606  0.2597  1.4250
  785MPD2     C11572   3.940   3.600  10.332  0.4495  0.2449 -0.2870
  785MPD2    C111573   3.890   3.685  10.431  0.0720  0.1110 -0.5688
  785MPD2    C211574   3.809   3.789  10.390 -0.3852 -0.1651  0.0369
  785MPD2    C311575   3.781   3.813  10.254  0.3472  0.7183 -0.2335
  785MPD2    C411576   3.833   3.724  10.156  0.3530  0.6946  0.5626
  785MPD2    C511577   3.915   3.622  10.198 -0.3057 -0.1303 -0.0711
  785MPD2     H11578   3.755   3.847  10.463 -1.3760 -0.1394 -0.7131
  785MPD2    H111579   3.830   3.730  10.048 -0.5815 -2.5779  0.4027
  785MPD2    H211580   4.010   3.527  10.370 -1.3250 -0.6045  1.3629
  785MPD2    H311581   3.971   3.556  10.134 -0.6628 -0.2394 -0.2710
  785MPD2     N11582   3.697   3.919  10.221 -0.0401  0.0661  0.4085
  785MPD2    H511583   3.662   3.984  10.292 -1.2077 -0.7052  0.5399
  785MPD2    N111584   3.934   3.660  10.568  0.2369  0.2823 -0.6790
  785MPD2    H711585   3.985   3.579  10.603  1.1814  0.6072 -1.2856
  786MPD2     C11586   2.973   2.598  15.008  0.8019 -0.5207 -0.3470
  786MPD2    C111587   3.101   2.571  14.994 -0.1457 -0.5715  0.9178
  786MPD2    C211588   3.190   2.603  15.092 -0.0139 -0.1807  0.1737
  786MPD2    C311589   3.148   2.663  15.212  0.1780  0.0555  0.5448
  786MPD2    C411590   3.008   2.678  15.228 -0.1526  0.1758 -0.1845
  786MPD2    C511591   2.925   2.651  15.126 -0.0643  0.6269 -0.5302
  786MPD2     H11592   3.296   2.591  15.072  0.0315  0.9223 -0.1972
  786MPD2    H111593   2.968   2.742  15.305 -1.0196 -0.0724 -0.4343
  786MPD2    H211594   2.897   2.570  14.935  0.8095  1.4510 -1.0946
  786MPD2    H311595   2.820   2.672  15.145 -0.7411 -1.9140 -1.4729
  786MPD2     N11596   3.238   2.711  15.315  0.1619 -0.3805 -0.5972
  786MPD2    H511597   3.197   2.745  15.402  0.2131 -0.5721 -0.4993
  786MPD2    N111598   3.154   2.511  14.878 -0.2817 -0.0428 -0.3632
  786MPD2    H711599   3.253   2.492  14.870 -0.5037 -1.3948  0.1346
  787MPD2     C11600   3.134   1.762  14.890 -0.1788 -0.2160  0.0738
  787MPD2    C111601   3.238   1.854  14.878 -0.0937  0.0317 -0.4641
  787MPD2    C211602   3.358   1.828  14.936 -0.0701  0.0335 -0.1371
  787MPD2    C311603   3.376   1.709  14.988  0.6294 -0.3764  0.1562
  787MPD2    C411604   3.273   1.617  15.013  0.2589 -0.6663 -0.0529
  787MPD2    C511605   3.151   1.647  14.969 -0.1346 -0.3786  0.0942
  787MPD2     H11606   3.446   1.890  14.921 -0.6394  1.1150  1.0284
  787MPD2    H111607   3.294   1.526  15.069  0.3878 -1.1167 -0.8445
  787MPD2    H211608   3.032   1.791  14.869  0.2097  0.3998 -0.9535
  787MPD2    H311609   3.077   1.572  14.992 -0.8480  0.3712  0.2341
  787MPD2     N11610   3.505   1.690  15.043  0.2483  0.0881  0.3596
  787MPD2    H511611   3.563   1.773  15.036 -0.7654  0.9049  1.8506
  787MPD2    N111612   3.210   1.971  14.809 -0.0182 -0.1451 -0.3853
  787MPD2    H711613   3.112   1.985  14.786 -0.6737 -2.7509  0.8589
  788MPD2     C11614   4.588   0.582   1.430  0.0904  0.4293 -0.2185
  788MPD2    C111615   4.528   0.517   1.323 -0.3913  1.0893 -0.1410
  788MPD2    C211616   4.519   0.584   1.206  0.5763  0.0749  0.4222
  788MPD2    C311617   4.578   0.707   1.182  0.4324 -0.6056  0.7252
  788MPD2    C411618   4.650   0.770   1.281  0.0160  0.0318  0.5689
  788MPD2    C511619   4.638   0.710   1.409  0.5590  0.1991  0.2262
  788MPD2     H11620   4.470   0.533   1.124  0.8571  0.5618 -0.0448
  788MPD2    H111621   4.713   0.858   1.276 -1.1374  0.9365  2.0444
  788MPD2    H211622   4.591   0.551   1.534  1.4742  3.7340  0.7222
  788MPD2    H311623   4.672   0.763   1.498  0.4313 -0.7066  0.8084
  788MPD2     N11624   4.595   0.763   1.054  0.0301  0.2918  0.2347
  788MPD2    H511625   4.679   0.820   1.045  0.6910 -1.0316 -1.9429
  788MPD2    N111626   4.473   0.387   1.350  0.2448 -0.0184  0.4459
  788MPD2    H711627   4.504   0.334   1.431 -0.1262  0.1819  0.7232
  789MPD2     C11628   1.067   0.552  16.708 -0.0210  0.1833 -0.3953
  789MPD2    C111629   0.988   0.495  16.810 -0.2212  0.0464 -0.2168
  789MPD2    C211630   0.877   0.563  16.854  0.9147 -0.0804  0.4197
  789MPD2    C311631   0.844   0.684  16.798 -0.3895 -0.3470 -0.4987
  789MPD2    C411632   0.923   0.737  16.697  0.3644 -0.0718  0.1055
  789MPD2    C511633   1.039   0.673  16.659 -0.1674 -0.3497  0.7490
  789MPD2     H11634   0.823   0.516  16.936  3.2120 -1.3997  1.1998
  789MPD2    H111635   0.910   0.839  16.664  0.5936 -0.3699 -0.9142
  789MPD2    H211636   1.163   0.506  16.689  0.0124  0.2731 -0.4417
  789MPD2    H311637   1.099   0.715  16.579 -0.5511 -0.7444  0.2583
  789MPD2     N11638   0.733   0.762  16.844  0.1932 -0.5737 -0.2027
  789MPD2    H511639   0.708   0.843  16.787 -1.0212  0.9737  2.5382
  789MPD2    N111640   1.016   0.378  16.875 -0.5125  0.1271 -0.3671
  789MPD2    H711641   0.954   0.358  16.953  1.1036  0.3407  0.9625
  790MPD2     C11642   1.842   2.091  14.002  0.0316  0.2138  0.1653
  790MPD2    C111643   1.815   1.988  13.915 -0.0596  0.1491 -0.5092
  790MPD2    C211644   1.776   2.022  13.789  0.6212 -0.4816 -0.0873
  790MPD2    C311645   1.758   2.160  13.753 -0.2197 -0.5588  0.2078
  790MPD2    C411646   1.777   2.255  13.848  0.3112  0.4723  0.4679
  790MPD2    C511647   1.810   2.223  13.976  0.4769  0.5403  0.3166
  790MPD2     H11648   1.755   1.949  13.712  0.7482 -1.0894  0.4518
  790MPD2    H111649   1.776   2.361  13.828 -1.9115  0.6665  1.6141
  790MPD2    H211650   1.873   2.069  14.104  1.8721  2.1767  0.0437
  790MPD2    H311651   1.831   2.305  14.044 -2.4193  1.2328  0.4087
  790MPD2     N11652   1.707   2.190  13.629  0.2271 -0.4980  0.3108
  790MPD2    H511653   1.689   2.115  13.563  0.4982 -0.2518 -0.0441
  790MPD2    N111654   1.843   1.855  13.960  0.1354 -0.3205 -0.0647
  790MPD2    H711655   1.882   1.842  14.053  0.4661 -0.7180 -0.2585
  791MPD2     C11656   1.031   2.402  13.111  1.0098 -0.4005 -0.0156
  791MPD2    C111657   1.095   2.290  13.169  0.0659 -0.6066  0.0222
  791MPD2    C211658   1.049   2.163  13.134 -0.1770 -0.0071  0.0034
  791MPD2    C311659   0.936   2.144  13.059 -0.0908  0.5003 -0.0256
  791MPD2    C411660   0.869   2.261  13.016 -0.1731  0.3905 -0.2486
  791MPD2    C511661   0.920   2.386  13.035 -0.0720 -0.0440  0.3261
  791MPD2     H11662   1.093   2.079  13.187  1.8445  0.6066 -0.6784
  791MPD2    H111663   0.785   2.259  12.947 -1.4320 -1.1791  1.3353
  791MPD2    H211664   1.069   2.502  13.127 -1.5161  0.2099  2.1958
  791MPD2    H311665   0.866   2.470  12.995  0.2247 -0.8093 -1.6756
  791MPD2     N11666   0.880   2.017  13.033  0.4665  0.6877 -0.9632
  791MPD2    H511667   0.923   1.942  13.087 -1.3732  0.8135  0.7010
  791MPD2    N111668   1.213   2.319  13.242  0.5386 -0.2510  0.1449
  791MPD2    H711669   1.245   2.415  13.235 -1.2098  0.3768  0.8528
  792MPD2     C11670   2.192   2.015  11.588  0.6551 -0.3595  0.6726
  792MPD2    C111671   2.220   2.034  11.456  0.2049 -0.6619  0.6890
  792MPD2    C211672   2.130   1.992  11.363  0.5434 -0.4021  0.2490
  792MPD2    C311673   2.023   1.907  11.404 -0.0937 -0.0792 -0.2143
  792MPD2    C411674   1.988   1.905  11.537 -0.1316  1.2584 -0.0642
  792MPD2    C511675   2.075   1.957  11.627 -0.0291  0.3728 -0.1915
  792MPD2     H11676   2.146   2.005  11.257  0.2736  0.3353  0.3009
  792MPD2    H111677   1.917   1.833  11.577 -1.5703  1.1679 -2.8104
  792MPD2    H211678   2.243   2.059  11.673  0.0930  0.9895  0.3225
  792MPD2    H311679   2.064   1.935  11.732 -0.2598 -0.6439 -0.4264
  792MPD2     N11680   1.945   1.839  11.307  0.1920 -0.0940 -0.3152
  792MPD2    H511681   1.855   1.801  11.334  0.3166 -0.6276 -0.6438
  792MPD2    N111682   2.327   2.125  11.428 -0.0749  0.5224 -0.2337
  792MPD2    H711683   2.388   2.140  11.508  0.1438  0.3635 -0.3718
  793MPD2     C11684   1.181   1.905  10.735  0.0960  0.4650 -0.2202
  793MPD2    C111685   1.302   1.943  10.683  0.0745 -0.2616 -0.3109
  793MPD2    C211686   1.412   1.910  10.759  0.1304 -0.3253 -0.2802
  793MPD2    C311687   1.402   1.841  10.876  0.0777 -0.1399  0.1327
  793MPD2    C411688   1.275   1.804  10.930 -0.3584 -0.4676  0.3533
  793MPD2    C511689   1.166   1.836  10.853  0.3854  0.2850 -0.0951
  793MPD2     H11690   1.509   1.934  10.717 -1.3919  2.1350 -2.4282
  793MPD2    H111691   1.254   1.753  11.023  1.7398  0.8717  1.5539
  793MPD2    H211692   1.094   1.913  10.669  1.2363  3.1851 -1.4194
  793MPD2    H311693   1.073   1.784  10.874 -0.2752  0.4203 -2.6740
  793MPD2     N11694   1.525   1.815  10.940 -0.1464 -0.1703  0.2764
  793MPD2    H511695   1.609   1.846  10.893  0.5773 -1.8209  0.4996
  793MPD2    N111696   1.316   2.022  10.563 -0.7405 -0.2464  0.7605
  793MPD2    H711697   1.409   2.060  10.550 -2.1187  2.1678 -2.0269
  794MPD2     C11698   0.990   1.699  17.577  0.0978  0.6364 -0.1123
  794MPD2    C111699   1.110   1.636  17.553 -0.4095  0.1160  0.6944
  794MPD2    C211700   1.196   1.691  17.456 -0.0406 -0.1662 -0.1860
  794MPD2    C311701   1.158   1.798  17.378 -0.8862 -0.3672  0.2000
  794MPD2    C411702   1.038   1.856  17.407  0.0832  0.2294 -0.0360
  794MPD2    C511703   0.953   1.815  17.508 -0.6573  0.2316 -0.0688
  794MPD2     H11704   1.297   1.651  17.445 -0.1643  0.3032 -2.8613
  794MPD2    H111705   0.998   1.939  17.349 -2.0974 -1.5542 -1.1104
  794MPD2    H211706   0.918   1.674  17.654  0.6745 -1.9335 -0.4184
  794MPD2    H311707   0.867   1.865  17.551  0.3955 -0.3399  2.7562
  794MPD2     N11708   1.244   1.870  17.293  0.4734 -0.0528 -0.1602
  794MPD2    H511709   1.220   1.966  17.269  1.0146  0.8263  2.8263
  794MPD2    N111710   1.167   1.529  17.634 -0.4423 -0.4086  0.5089
  794MPD2    H711711   1.258   1.490  17.614  0.0918  1.0237  0.0987
  795MPD2     C11712   4.141   3.518  13.363  0.3302 -0.2840  0.5628
  795MPD2    C111713   4.092   3.412  13.443  0.7893 -0.9675  0.2131
  795MPD2    C211714   4.163   3.294  13.467  0.4351  0.0750 -0.3673
  795MPD2    C311715   4.283   3.272  13.401 -0.3657 -0.2498  0.3243
  795MPD2    C411716   4.337   3.380  13.326 -0.1217  0.6936 -0.1983
  795MPD2    C511717   4.266   3.500  13.308 -0.2510  0.0943 -0.0531
  795MPD2     H11718   4.133   3.219  13.540  0.3685  0.2994 -0.1627
  795MPD2    H111719   4.420   3.377  13.257  0.0990  0.1376  0.0948
  795MPD2    H211720   4.094   3.612  13.338  1.7969  0.2228 -0.2956
  795MPD2    H311721   4.312   3.570  13.240 -1.1662  1.6779  0.9636
  795MPD2     N11722   4.361   3.160  13.440 -0.5638  0.0235  0.1525
  795MPD2    H511723   4.337   3.103  13.521  1.2779  1.5041  1.7584
  795MPD2    N111724   3.970   3.427  13.513  0.0210  0.1733 -0.9979
  795MPD2    H711725   3.946   3.344  13.567 -1.5228  1.4763  0.3067
  796MPD2     C11726   3.785   0.385  15.895  0.5948  0.2656 -0.7252
  796MPD2    C111727   3.849   0.433  16.007  0.1025  0.5555 -0.4857
  796MPD2    C211728   3.820   0.564  16.047  0.2457  0.0058  0.4451
  796MPD2    C311729   3.735   0.643  15.969 -0.5522 -0.7751 -0.0492
  796MPD2    C411730   3.673   0.599  15.852 -0.5028  0.0106  0.1875
  796MPD2    C511731   3.700   0.469  15.828  0.9421  0.3536 -0.1004
  796MPD2     H11732   3.853   0.603  16.142 -0.0538  0.4621  0.3600
  796MPD2    H111733   3.606   0.665  15.798  0.6280  1.2349  0.2572
  796MPD2    H211734   3.800   0.289  15.848 -1.4052 -1.5484  2.3496
  796MPD2    H311735   3.657   0.419  15.741 -0.2658  0.7212  0.2924
  796MPD2     N11736   3.719   0.774  16.020 -0.9052 -0.1279  0.0355
  796MPD2    H511737   3.779   0.795  16.099 -0.3996 -0.4339 -0.2646
  796MPD2    N111738   3.928   0.346  16.081  0.1094 -0.5260  0.4174
  796MPD2    H711739   3.925   0.246  16.064  2.8452 -0.6634  0.8002
  797MPD2     C11740   4.437   4.483  17.693 -0.3485 -0.0798  0.9677
  797MPD2    C111741   4.491   4.604   0.032 -0.2409 -0.1319  0.2600
  797MPD2    C211742   4.509   4.712  17.655  0.3419 -0.7251  0.3227
  797MPD2    C311743   4.469   4.711  17.523 -0.1637 -0.2012 -0.0512
  797MPD2    C411744   4.421   4.592  17.476 -0.4146  0.0681  0.5103
  797MPD2    C511745   4.411   4.483  17.557 -0.2023 -0.1998  0.2373
  797MPD2     H11746   4.568   0.067  17.696 -1.2794  0.2812  0.6447
  797MPD2    H111747   4.380   4.580  17.376  0.0105  2.5587  0.0210
  797MPD2    H211748   4.431   4.398   0.054  0.5059 -1.3441 -0.5485
  797MPD2    H311749   4.375   4.391  17.512  2.5398 -1.0596 -0.1894
  797MPD2     N11750   4.479   0.092  17.436 -0.2601  0.2769 -0.3991
  797MPD2    H511751   4.435   0.082  17.346 -0.1880  0.8524 -0.4941
  797MPD2    N111752   4.529   4.619   0.171  0.3891  0.0481  0.1404
  797MPD2    H711753   4.558   4.716   0.185  0.8900 -0.0657 -0.1113
  798MPD2     C11754   0.343   0.346  17.666  0.3889  0.5057 -0.1819
  798MPD2    C111755   0.201   0.321  17.660  0.0110 -0.3084  0.3250
  798MPD2    C211756   0.150   0.240   0.054  0.9314  0.0491 -0.5513
  798MPD2    C311757   0.235   0.193   0.150 -0.4053  0.0576 -0.9120
  798MPD2    C411758   0.373   0.214   0.143  0.4970  0.0701  0.1372
  798MPD2    C511759   0.427   0.299   0.052 -0.3397 -0.5201  0.4766
  798MPD2     H11760   0.047   0.207   0.055  0.8636  0.2554 -0.8492
  798MPD2    H111761   0.447   0.177   0.213 -0.2554  1.3470  1.6069
  798MPD2    H211762   0.390   0.400  17.584 -1.2024  0.7004 -0.9576
  798MPD2    H311763   0.534   0.316   0.045 -0.4502 -0.1234 -0.1890
  798MPD2     N11764   0.180   0.110   0.246  0.1801  0.2912  0.2085
  798MPD2    H511765   0.083   0.087   0.228 -0.3815  2.3351  0.6376
  798MPD2    N111766   0.112   0.360  17.559  0.3609 -0.2672 -0.4786
  798MPD2    H711767   0.017   0.329  17.573  0.9784 -0.8577  2.4705
  799MPD2     C11768   3.818   1.444  14.700  0.1089  0.0182 -0.4012
  799MPD2    C111769   3.702   1.405  14.770  0.1922 -0.7647  0.3083
  799MPD2    C211770   3.582   1.459  14.736  0.1518  0.0203  0.1458
  799MPD2    C311771   3.578   1.546  14.632 -0.0564 -0.3027  0.0435
  799MPD2    C411772   3.685   1.581  14.564  0.6586 -0.0459  0.1966
  799MPD2    C511773   3.809   1.535  14.602  0.1068 -1.0938  0.1298
  799MPD2     H11774   3.496   1.418  14.788 -0.3537 -2.3168 -2.4899
  799MPD2    H111775   3.687   1.664  14.494 -1.0239  1.1899  1.6152
  799MPD2    H211776   3.915   1.406  14.732  0.5941  2.1764  0.6599
  799MPD2    H311777   3.897   1.573  14.553 -1.0536 -0.6724 -1.6158
  799MPD2     N11778   3.467   1.624  14.599  0.8743  0.1006  0.4525
  799MPD2    H511779   3.486   1.705  14.540  0.2552  0.6312  0.9870
  799MPD2    N111780   3.702   1.319  14.879 -0.1557 -0.4498  0.5211
  799MPD2    H711781   3.610   1.304  14.919  0.2741  2.0403  2.4849
  800MPD2     C11782   3.817   2.488  14.075 -0.4583 -0.2476 -0.4495
  800MPD2    C111783   3.933   2.524  14.005  0.4825  0.0212 -0.1330
  800MPD2    C211784   3.953   2.489  13.873  0.1247 -0.0602  0.0211
  800MPD2    C311785   3.860   2.402  13.814 -0.1966  0.0969  0.3991
  800MPD2    C411786   3.748   2.367  13.887  0.1680 -0.0697  0.1717
  800MPD2    C511787   3.721   2.416  14.014 -0.0059 -0.0399  0.0764
  800MPD2     H11788   4.036   2.525  13.814  1.2754 -1.3781  0.8527
  800MPD2    H111789   3.680   2.288  13.855 -0.3756  0.1214  0.8524
  800MPD2    H211790   3.806   2.532  14.174 -1.8080  0.9195 -1.1252
  800MPD2    H311791   3.648   2.370  14.080  0.6185 -1.6369 -0.3377
  800MPD2     N11792   3.895   2.336  13.689  0.3292 -0.2739  0.4836
  800MPD2    H511793   3.990   2.347  13.656  0.2949  1.2141  0.8861
  800MPD2    N111794   4.017   2.609  14.075 -0.9341 -0.3870 -0.8931
  800MPD2    H711795   3.998   2.630  14.173 -0.2304  1.1509 -1.0830
  801MPD2     C11796   4.276   3.443  14.119  0.0790  0.0444  1.0345
  801MPD2    C111797   4.188   3.362  14.183 -0.5076 -0.5046 -0.5849
  801MPD2    C211798   4.092   3.416  14.262  0.3055 -0.2158  0.1132
  801MPD2    C311799   4.084   3.554  14.280 -1.0828 -0.3720 -0.2310
  801MPD2    C411800   4.180   3.633  14.218 -0.1730 -0.4195 -0.2205
  801MPD2    C511801   4.272   3.577  14.135 -0.5085  0.2761  0.3048
  801MPD2     H11802   4.026   3.343  14.308  0.9148  0.2219  1.6622
  801MPD2    H111803   4.184   3.741  14.228  0.0830 -0.1540 -3.1002
  801MPD2    H211804   4.339   3.405  14.040 -0.5266  1.6585 -0.2332
  801MPD2    H311805   4.346   3.631  14.077  1.7788 -0.1303  2.8601
  801MPD2     N11806   4.007   3.623  14.374 -0.4209 -0.4061  0.2279
  801MPD2    H511807   4.038   3.715  14.402  0.7305 -0.9725  0.8285
  801MPD2    N111808   4.201   3.218  14.178  0.2960  0.1304 -0.0217
  801MPD2    H711809   4.147   3.172  14.251  1.2177  0.2229  0.7120
  802MPD2     C11810   2.658   2.639  17.579 -0.4033  0.3183  0.0190
  802MPD2    C111811   2.675   2.773  17.540 -0.1883 -0.0129 -0.3200
  802MPD2    C211812   2.788   2.805  17.466  0.5644  0.3233 -0.2500
  802MPD2    C311813   2.879   2.706  17.419 -0.0133 -0.3381  0.4797
  802MPD2    C411814   2.849   2.579  17.456 -0.2708 -0.0242 -0.4288
  802MPD2    C511815   2.737   2.547  17.529  0.1357 -0.3822  0.2965
  802MPD2     H11816   2.787   2.906  17.428  2.3730  1.0226  1.5473
  802MPD2    H111817   2.911   2.495  17.426  0.7908  0.6357 -0.0810
  802MPD2    H211818   2.561   2.601  17.608 -0.7759  2.1740  1.1895
  802MPD2    H311819   2.716   2.447  17.567  0.1170 -0.0734  1.0975
  802MPD2     N11820   2.982   2.738  17.332  0.7685 -0.0330  0.3774
  802MPD2    H511821   2.993   2.836  17.308 -0.9433  0.0111 -0.2262
  802MPD2    N111822   2.583   2.874  17.565  0.9371 -0.6432  0.2804
  802MPD2    H711823   2.592   2.962  17.515 -0.5321 -0.7963 -0.2598
  803MPD2     C11824   0.189   1.649  12.267  0.0413 -0.0154  0.1311
  803MPD2    C111825   0.113   1.754  12.311 -0.4412 -0.2705  0.1865
  803MPD2    C211826   0.022   1.741  12.421  0.2179 -0.0404  0.1195
  803MPD2    C311827   0.007   1.622  12.486  1.0161 -0.5430  0.3573
  803MPD2    C411828   0.077   1.512  12.438 -0.7930 -0.0118 -0.5252
  803MPD2    C511829   0.163   1.531  12.331 -0.0833  0.3245 -0.3059
  803MPD2     H11830   4.686   1.828  12.440 -0.3610  0.3479 -3.5294
  803MPD2    H111831   0.081   1.413  12.484 -0.6471  2.3940  4.6485
  803MPD2    H211832   0.268   1.649  12.193 -1.3201 -0.5838 -1.3260
  803MPD2    H311833   0.222   1.446  12.300 -2.0878 -1.5041  0.8289
  803MPD2     N11834   4.630   1.593  12.582  0.4972 -0.6040  0.4178
  803MPD2    H511835   4.634   1.499  12.619  0.1788  0.4531  3.1565
  803MPD2    N111836   0.131   1.878  12.252  0.1294 -0.6158 -1.0773
  803MPD2    H711837   0.064   1.949  12.280  0.6278 -0.2615 -0.7945
  804MPD2     C11838   3.933   2.946  17.218 -0.0839 -0.1661  0.0384
  804MPD2    C111839   3.876   2.953  17.344 -0.8208 -0.6176  0.0007
  804MPD2    C211840   3.949   2.998  17.453 -0.4638  0.2728 -0.1632
  804MPD2    C311841   4.082   3.036  17.431 -0.4918  0.3715  0.3362
  804MPD2    C411842   4.137   3.014  17.315  0.3929 -0.2935  0.0869
  804MPD2    C511843   4.069   2.974  17.207  0.2984 -0.4060  0.1187
  804MPD2     H11844   3.915   3.007  17.555  0.4387 -0.3039  0.1952
  804MPD2    H111845   4.241   3.028  17.291  0.1537 -0.2305 -0.9312
  804MPD2    H211846   3.879   2.918  17.128  2.5806 -0.5452 -1.4789
  804MPD2    H311847   4.126   2.954  17.118  0.1965 -1.7619  0.3606
  804MPD2     N11848   4.148   3.109  17.528 -0.1863 -0.7480 -0.2727
  804MPD2    H511849   4.099   3.121  17.616  3.3237 -1.9195  1.8546
  804MPD2    N111850   3.747   2.903  17.355 -0.3372 -0.7482  0.1601
  804MPD2    H711851   3.706   2.858  17.274 -1.8799 -0.8342  0.9822
  805MPD2     C11852   3.208   1.648  15.911  0.3657 -0.5769 -0.0101
  805MPD2    C111853   3.233   1.619  15.780  0.1043  0.6325 -0.0806
  805MPD2    C211854   3.364   1.560  15.754 -0.3870  0.6138  0.3073
  805MPD2    C311855   3.458   1.526  15.853 -0.2557 -0.1247 -0.5111
  805MPD2    C411856   3.416   1.549  15.984  0.1165 -0.5560  0.1399
  805MPD2    C511857   3.303   1.617  16.008 -0.0257  0.3130  0.0307
  805MPD2     H11858   3.392   1.547  15.650  1.3516 -3.4310  1.3174
  805MPD2    H111859   3.486   1.527  16.064  0.5132  2.1057  0.5332
  805MPD2    H211860   3.115   1.694  15.944  0.7938  0.6747 -0.5438
  805MPD2    H311861   3.274   1.649  16.107 -0.1842 -2.2255  0.7909
  805MPD2     N11862   3.583   1.481  15.813 -0.4511 -0.3019  0.3752
  805MPD2    H511863   3.605   1.494  15.715 -0.9885 -2.3047 -0.0137
  805MPD2    N111864   3.141   1.633  15.672  0.0889  0.4531 -0.7133
  805MPD2    H711865   3.166   1.597  15.580 -0.8125  2.1959 -1.6573
  806MPD2     C11866   3.563   0.977   1.477 -0.5610 -1.0181  0.3942
  806MPD2    C111867   3.700   1.019   1.494  0.5652  0.3018  0.1721
  806MPD2    C211868   3.724   1.153   1.486 -0.6025 -0.2036  0.1892
  806MPD2    C311869   3.618   1.247   1.468 -0.3776 -0.5875  0.5672
  806MPD2    C411870   3.484   1.201   1.451 -0.2453 -0.2082  0.2544
  806MPD2    C511871   3.464   1.065   1.469  0.3732 -0.9576  0.7936
  806MPD2     H11872   3.819   1.203   1.500 -0.1050 -0.5435 -2.0874
  806MPD2    H111873   3.399   1.268   1.442 -2.5329 -3.2131 -0.6152
  806MPD2    H211874   3.530   0.875   1.491  1.6529 -2.0485 -1.8423
  806MPD2    H311875   3.360   1.034   1.469  0.2353 -0.5079 -2.6568
  806MPD2     N11876   3.660   1.384   1.468 -0.1352  0.2727  0.2840
  806MPD2    H511877   3.761   1.388   1.478 -0.1195 -0.1296  0.2999
  806MPD2    N111878   3.806   0.928   1.520  0.1778  0.0456  0.1760
  806MPD2    H711879   3.779   0.830   1.528 -0.6608  0.2779  0.2129
  807MPD2     C11880   3.940   0.208   1.434  1.6178  0.6800 -0.1917
  807MPD2    C111881   3.868   0.324   1.428 -0.2403 -0.0741  0.7673
  807MPD2    C211882   3.732   0.312   1.419 -0.2531 -0.4691 -0.2340
  807MPD2    C311883   3.665   0.198   1.429  0.7883  1.0267 -0.8216
  807MPD2    C411884   3.739   0.082   1.462 -0.6166 -0.7781  0.3256
  807MPD2    C511885   3.876   0.092   1.456  0.6072  0.4860  0.7139
  807MPD2     H11886   3.670   0.400   1.402  0.7600  0.4618  0.8241
  807MPD2    H111887   3.689   4.715   1.485  1.2649 -1.5813  1.0674
  807MPD2    H211888   4.048   0.202   1.431  1.4246 -1.4378 -2.1631
  807MPD2    H311889   3.943   0.007   1.463  0.8849  0.4198 -2.7302
  807MPD2     N11890   3.525   0.202   1.430  0.4779  0.1905 -0.2171
  807MPD2    H511891   3.482   0.293   1.442 -2.4663 -0.9529 -2.0654
  807MPD2    N111892   3.930   0.452   1.432 -0.1293 -0.2782  0.8262
  807MPD2    H711893   3.871   0.532   1.411 -1.3961 -0.4715  3.6278
  808MPD2     C11894   3.656   2.537  10.188  0.1722  0.2487 -0.2359
  808MPD2    C111895   3.654   2.531  10.048 -0.1524  0.3651  0.7320
  808MPD2    C211896   3.720   2.635   9.982 -0.4526 -0.1676  0.0283
  808MPD2    C311897   3.792   2.733  10.051 -0.9613  0.2737  0.5898
  808MPD2    C411898   3.787   2.739  10.188 -0.4917 -0.4218 -0.7036
  808MPD2    C511899   3.728   2.635  10.256  0.1898  0.4239  0.8913
  808MPD2     H11900   3.714   2.643   9.874  0.0583 -1.4923 -0.1017
  808MPD2    H111901   3.821   2.824  10.246 -1.9942 -0.4325  0.2047
  808MPD2    H211902   3.618   2.458  10.251  0.5103 -0.3618 -0.8029
  808MPD2    H311903   3.733   2.624  10.364  0.6599 -2.1530  0.5972
  808MPD2     N11904   3.869   2.831   9.986  0.1033  0.3626  0.0917
  808MPD2    H511905   3.909   2.905  10.042 -0.5626  0.5124  0.3670
  808MPD2    N111906   3.596   2.427   9.967  0.3184 -0.3043  0.1453
  808MPD2    H711907   3.610   2.438   9.867 -1.9964 -0.1775 -0.1596
  809MPD2     C11908   4.564   2.752   9.256 -0.6502  0.2156  0.9512
  809MPD2    C111909   4.612   2.768   9.385  0.2292 -0.2602  0.3489
  809MPD2    C211910   4.521   2.818   9.475  0.1410 -0.0306  0.4618
  809MPD2    C311911   4.400   2.857   9.434 -0.0932  0.1402  0.6843
  809MPD2    C411912   4.360   2.840   9.308  0.3766 -0.2708  0.4110
  809MPD2    C511913   4.447   2.792   9.221 -0.0969 -0.0604  0.2992
  809MPD2     H11914   4.548   2.822   9.580  0.7343 -0.8084  0.3407
  809MPD2    H111915   4.262   2.870   9.273  0.1242 -0.6384  0.7976
  809MPD2    H211916   4.630   2.711   9.179 -1.0151 -1.8532  1.7257
  809MPD2    H311917   4.412   2.771   9.121  1.6839  0.8323 -0.5164
  809MPD2     N11918   4.293   2.899   9.521 -0.0527 -0.5404 -0.8591
  809MPD2    H511919   4.203   2.908   9.475 -2.1494 -2.0722  2.9481
  809MPD2    N111920   0.020   2.745   9.420 -0.0998  0.3546  0.3992
  809MPD2    H711921   0.053   2.765   9.514  1.3141  0.3504 -0.1088
  810MPD2     C11922   3.735   2.082  10.203 -0.2384  0.0438 -0.0129
  810MPD2    C111923   3.707   1.998  10.306  0.3600  0.3071  0.5038
  810MPD2    C211924   3.749   2.029  10.431  0.1651  0.2003 -0.0884
  810MPD2    C311925   3.802   2.154  10.458 -0.1918 -0.1399 -0.3599
  810MPD2    C411926   3.831   2.232  10.350 -0.4320 -0.1312 -0.3919
  810MPD2    C511927   3.791   2.200  10.226  0.1179 -0.1745 -0.5069
  810MPD2     H11928   3.742   1.970  10.522 -1.6098 -2.2888 -1.8361
  810MPD2    H111929   3.860   2.335  10.371 -3.0002  0.9692 -2.2703
  810MPD2    H211930   3.701   2.054  10.104 -0.1942  1.6818 -0.4776
  810MPD2    H311931   3.808   2.270  10.145 -2.3503  0.3743 -0.5546
  810MPD2     N11932   3.823   2.204  10.589 -0.1096  0.4770  0.2967
  810MPD2    H511933   3.851   2.301  10.588  1.0548  0.1653  2.0241
  810MPD2    N111934   3.617   1.888  10.281 -0.4402  0.0090 -0.1952
  810MPD2    H711935   3.571   1.881  10.191 -0.0552 -1.6365 -0.2680
  811MPD2     C11936   2.826   1.707  10.038 -0.7362 -0.5021  0.1537
  811MPD2    C111937   2.920   1.793  10.080 -0.2534  0.0579 -1.2096
  811MPD2    C211938   2.895   1.930  10.059 -0.3529 -0.2739 -0.5862
  811MPD2    C311939   2.788   1.977   9.990 -0.0408  0.0926 -0.2969
  811MPD2    C411940   2.692   1.881   9.944 -0.1546 -0.2283  0.2663
  811MPD2    C511941   2.713   1.748   9.974  1.2117  0.4225  0.2266
  811MPD2     H11942   2.973   2.001  10.081  1.7154 -3.3573  2.1426
  811MPD2    H111943   2.600   1.902   9.890 -0.0962 -0.4471  0.0835
  811MPD2    H211944   2.835   1.602  10.064  1.5882 -0.4702 -0.4801
  811MPD2    H311945   2.637   1.672   9.954 -1.6385  2.8560  1.7832
  811MPD2     N11946   2.778   2.123   9.978 -0.6374  0.1742 -0.8266
  811MPD2    H511947   2.848   2.173  10.033  2.0040 -2.0735 -2.1178
  811MPD2    N111948   3.030   1.740  10.141 -0.1967 -0.8731  0.2084
  811MPD2    H711949   3.034   1.639  10.155 -0.1266 -0.7711  0.9454
  812MPD2     C11950   2.736   2.314  12.372  0.7225 -0.7129  0.7305
  812MPD2    C111951   2.677   2.327  12.498 -0.1500  0.8579  0.1348
  812MPD2    C211952   2.631   2.218  12.571 -0.4233  0.0358 -0.3402
  812MPD2    C311953   2.660   2.090  12.528  0.1558  0.4795  0.6170
  812MPD2    C411954   2.739   2.074  12.417 -0.1618 -0.2481  0.2197
  812MPD2    C511955   2.765   2.185  12.343  0.9543 -0.0446  0.2105
  812MPD2     H11956   2.567   2.221  12.658 -0.2865  1.1973 -0.2868
  812MPD2    H111957   2.770   1.978  12.376  0.3723  0.2479 -0.5343
  812MPD2    H211958   2.754   2.399  12.308  2.6336  0.2116  2.4733
  812MPD2    H311959   2.810   2.169  12.245 -0.1694 -2.6239  0.1010
  812MPD2     N11960   2.598   1.981  12.602 -0.0508  0.4244  0.1508
  812MPD2    H511961   2.534   1.999  12.678  0.0629  0.2978  0.2763
  812MPD2    N111962   2.644   2.458  12.524 -0.2592  0.0281 -0.1638
  812MPD2    H711963   2.686   2.532  12.469 -1.1880  2.1952  2.0619
  813MPD2     C11964   1.313   3.887  12.716  1.0622 -0.2773 -0.3515
  813MPD2    C111965   1.384   3.984  12.787  0.4630 -0.7463 -0.4868
  813MPD2    C211966   1.361   3.996  12.922 -0.2288  0.2042 -0.7012
  813MPD2    C311967   1.271   3.917  12.991 -0.9694  0.2953 -0.2373
  813MPD2    C411968   1.196   3.824  12.925 -0.3402  0.0527 -0.2493
  813MPD2    C511969   1.225   3.808  12.788  0.0289  0.3515 -0.2029
  813MPD2     H11970   1.423   4.066  12.977  0.8157 -1.3104  0.0201
  813MPD2    H111971   1.136   3.753  12.981  0.1173 -1.9953 -2.3250
  813MPD2    H211972   1.315   3.880  12.608 -1.9199  3.8420 -0.6621
  813MPD2    H311973   1.159   3.740  12.736  0.4148  1.5441 -2.2533
  813MPD2     N11974   1.278   3.928  13.138 -0.0371 -0.1839  0.0394
  813MPD2    H511975   1.345   4.001  13.163 -2.4274  2.0345 -0.0653
  813MPD2    N111976   1.480   4.069  12.722  0.5366  0.0531 -0.0286
  813MPD2    H711977   1.503   4.147  12.783 -1.4776 -1.4470  2.6656
  814MPD2     C11978   1.825   1.036  12.461  0.8007 -0.3385  0.6555
  814MPD2    C111979   1.932   0.968  12.404  0.1092 -0.5471  0.5082
  814MPD2    C211980   2.060   1.028  12.398 -0.7540  0.1954 -0.6864
  814MPD2    C311981   2.068   1.159  12.456  0.3393 -0.2032  0.0594
  814MPD2    C411982   1.962   1.212  12.525  0.0812 -0.4399 -0.3799
  814MPD2    C511983   1.839   1.153  12.522  0.2823 -0.0504 -0.1010
  814MPD2     H11984   2.143   0.982  12.346  1.5051  1.6612  1.6285
  814MPD2    H111985   1.950   1.309  12.573  0.0633 -0.9154  0.5766
  814MPD2    H211986   1.727   0.990  12.463  0.5759  0.1585  0.9489
  814MPD2    H311987   1.753   1.206  12.562 -0.0674  0.4064 -1.4629
  814MPD2     N11988   2.179   1.239  12.446 -0.3358 -0.1955  0.2346
  814MPD2    H511989   2.164   1.335  12.475 -1.9784 -0.3424 -0.1328
  814MPD2    N111990   1.915   0.847  12.341  0.5485  0.2734  0.0361
  814MPD2    H711991   1.996   0.807  12.295  0.8168  0.0004  0.7598
  815MPD2     C11992   2.745   4.120  11.886  0.3707  0.4208  0.2293
  815MPD2    C111993   2.739   3.980  11.877  0.2007  0.4085  0.2147
  815MPD2    C211994   2.651   3.923  11.965 -0.2223  0.1890  0.4672
  815MPD2    C311995   2.578   3.993  12.060 -1.0539 -0.4975 -0.3845
  815MPD2    C411996   2.577   4.133  12.057 -0.1166 -0.2094 -0.4168
  815MPD2    C511997   2.660   4.192  11.966 -0.3617 -0.2946  0.3984
  815MPD2     H11998   2.635   3.816  11.965 -0.3651  0.2184 -0.9736
  815MPD2    H111999   2.514   4.192  12.124  0.2632 -2.3396  1.8215
  815MPD2    H212000   2.797   4.167  11.804  0.1508 -0.3940 -0.3719
  815MPD2    H312001   2.638   4.296  11.945 -1.1246 -0.6264 -0.4345
  815MPD2     N12002   2.491   3.911  12.140 -0.2857 -0.3418 -0.8262
  815MPD2    H512003   2.500   3.814  12.112 -0.7071 -0.2512 -1.2796
  815MPD2    N112004   2.824   3.902  11.790 -0.3785 -0.4145  0.7822
  815MPD2    H712005   2.884   3.954  11.727  1.3747 -1.7065  1.3541
  816MPD2     C12006   1.872   2.974  17.389  0.2408 -0.1593  0.5282
  816MPD2    C112007   1.924   3.024  17.275 -0.1720  0.8353 -0.9736
  816MPD2    C212008   2.045   2.968  17.228  0.2511  0.0224  0.2712
  816MPD2    C312009   2.114   2.868  17.299 -0.7785 -0.5366  0.4607
  816MPD2    C412010   2.051   2.813  17.410  0.9391  0.4072  0.3057
  816MPD2    C512011   1.931   2.866  17.449 -0.0444  0.5116 -0.0265
  816MPD2     H12012   2.107   3.018  17.155  0.7471 -2.3641 -0.9303
  816MPD2    H112013   2.081   2.725  17.465 -0.2155 -0.1154  0.0941
  816MPD2    H212014   1.783   3.014  17.436  1.1823 -0.3180  2.4188
  816MPD2    H312015   1.897   2.825  17.543  0.5084  1.7345  0.7019
  816MPD2     N12016   2.245   2.826  17.256  0.9308  0.1957 -0.8003
  816MPD2    H512017   2.276   2.881  17.176  0.8169  0.2469 -0.8082
  816MPD2    N112018   1.855   3.136  17.225 -0.5454 -0.2573 -0.1154
  816MPD2    H712019   1.772   3.172  17.272 -0.0263 -1.7724  1.9348
  817MPD2     C12020   2.047   4.365  10.605 -0.0955 -0.1242 -0.0517
  817MPD2    C112021   2.134   4.353  10.506  0.5498  0.8935  0.5420
  817MPD2    C212022   2.181   4.468  10.438  0.4947 -0.3006  0.1591
  817MPD2    C312023   2.124   4.595  10.466 -0.1224  0.2065  0.8053
  817MPD2    C412024   2.032   4.600  10.567 -0.3660  0.2239  0.1110
  817MPD2    C512025   2.002   4.489  10.641  0.2954 -0.4105 -0.1346
  817MPD2     H12026   2.259   4.446  10.366 -0.8412 -0.0603 -1.3636
  817MPD2    H112027   1.989   4.689  10.611 -0.0995 -0.4998  1.8378
  817MPD2    H212028   2.015   4.279  10.663 -1.4173  1.2728  1.2950
  817MPD2    H312029   1.933   4.486  10.724 -0.4243 -0.8403 -0.7482
  817MPD2     N12030   2.176   4.713  10.407 -0.0913 -0.1771 -0.2997
  817MPD2    H512031   2.257   4.699  10.347  1.5809 -3.3612  2.7416
  817MPD2    N112032   2.184   4.219  10.472 -0.1234 -0.0963 -0.0898
  817MPD2    H712033   2.249   4.217  10.394  1.0165  2.9838  0.7601
  818MPD2     C12034   1.158   4.535  10.648  0.5946 -0.0782 -0.5030
  818MPD2    C112035   1.076   4.465  10.732  0.7592 -0.3707  0.0555
  818MPD2    C212036   1.052   4.331  10.705 -0.0392  0.3808 -0.3537
  818MPD2    C312037   1.100   4.268  10.593  0.1799 -0.0831  0.5865
  818MPD2    C412038   1.164   4.343  10.496  0.8012 -0.2225 -0.1983
  818MPD2    C512039   1.199   4.471  10.528 -0.2264  0.0089  0.2654
  818MPD2     H12040   0.991   4.283  10.781  0.8202  0.3012  0.2798
  818MPD2    H112041   1.181   4.298  10.399 -0.6233  1.4451 -1.2034
  818MPD2    H212042   1.190   4.638  10.659  0.7214 -0.1781  0.0923
  818MPD2    H312043   1.255   4.529  10.456  0.2639 -1.2227 -0.3365
  818MPD2     N12044   1.074   4.132  10.565  0.0260  0.0576  0.1256
  818MPD2    H512045   1.111   4.090  10.481  1.5594  3.3466 -0.8556
  818MPD2    N112046   1.001   4.514  10.839 -0.1516  0.5883  0.3170
  818MPD2    H712047   0.956   4.451  10.903 -1.5691  0.4145 -0.8542
  819MPD2     C12048   4.139   1.362  15.615  0.6058  0.1960 -0.2537
  819MPD2    C112049   4.102   1.233  15.631  0.0814  0.6860  0.0282
  819MPD2    C212050   4.198   1.146  15.691  0.4368 -0.2808 -0.3555
  819MPD2    C312051   4.306   1.203  15.748  0.4114  0.3207 -0.4370
  819MPD2    C412052   4.340   1.336  15.720  1.0153 -0.3270 -0.0991
  819MPD2    C512053   4.254   1.416  15.661 -1.0165 -0.6738  0.2859
  819MPD2     H12054   4.175   1.043  15.711 -1.3739 -0.0284 -1.1297
  819MPD2    H112055   4.430   1.377  15.764 -0.4396  0.3439  2.2591
  819MPD2    H212056   4.070   1.425  15.559 -0.3671 -0.5352  0.1283
  819MPD2    H312057   4.276   1.522  15.651  0.4895 -1.3492 -3.4862
  819MPD2     N12058   4.386   1.121  15.823 -0.0302 -0.2553  0.7108
  819MPD2    H512059   4.360   1.023  15.817  0.9293 -0.4752  0.1726
  819MPD2    N112060   3.981   1.177  15.569  0.3280 -0.5996 -0.3959
  819MPD2    H712061   3.923   1.242  15.518 -0.8644 -0.3740  1.2467
  820MPD2     C12062   3.131   1.219  15.065  0.1178  0.1058 -0.5299
  820MPD2    C112063   3.160   1.286  15.180 -0.1923 -0.1467  0.4932
  820MPD2    C212064   3.261   1.241  15.254 -0.3751  0.4390 -0.4858
  820MPD2    C312065   3.323   1.121  15.227  0.3550  0.0658  0.9731
  820MPD2    C412066   3.285   1.042  15.123 -0.0877  0.0178  0.3305
  820MPD2    C512067   3.191   1.096  15.041 -0.1559  0.3237 -0.2502
  820MPD2     H12068   3.285   1.294  15.346 -2.8780  1.8736 -0.6801
  820MPD2    H112069   3.325   0.945  15.096 -0.2866 -0.3347  1.3051
  820MPD2    H212070   3.057   1.253  14.993  0.0166  0.2962 -0.3339
  820MPD2    H312071   3.154   1.043  14.953  0.6458  0.4017 -0.6320
  820MPD2     N12072   3.435   1.074  15.309  0.0756 -0.1141 -0.0450
  820MPD2    H512073   3.460   0.976  15.304 -1.6443 -0.5357 -0.3247
  820MPD2    N112074   3.091   1.409  15.199  0.5783  0.3045 -0.3414
  820MPD2    H712075   3.012   1.435  15.142 -0.3704 -1.9723 -0.0665
  821MPD2     C12076   3.827   2.482  12.959  0.0612  0.3851  0.2612
  821MPD2    C112077   3.925   2.396  13.006 -0.1853  0.0699 -0.2926
  821MPD2    C212078   4.058   2.439  12.998  1.2337 -0.7988 -0.5196
  821MPD2    C312079   4.088   2.567  12.948 -0.5331 -0.4719 -0.3812
  821MPD2    C412080   3.987   2.645  12.897  0.4028 -0.0742 -0.1297
  821MPD2    C512081   3.861   2.603  12.904  0.1918 -0.4394  0.7997
  821MPD2     H12082   4.134   2.377  13.045  1.5604 -2.1231 -2.7686
  821MPD2    H112083   4.011   2.742  12.855 -2.8599  1.5656  1.8071
  821MPD2    H212084   3.720   2.461  12.952  0.4711 -1.5157 -0.2762
  821MPD2    H312085   3.778   2.668  12.878  2.0649  1.9910  0.9442
  821MPD2     N12086   4.217   2.626  12.950 -0.0832 -0.0623 -0.4237
  821MPD2    H512087   4.239   2.718  12.913  1.5477 -1.2985 -2.5141
  821MPD2    N112088   3.898   2.282  13.093 -0.3093  0.1473  0.4109
  821MPD2    H712089   3.977   2.225  13.120 -0.4516 -0.5183 -0.5593
  822MPD2     C12090   4.656   2.677  16.064 -0.1877  0.7150  0.4963
  822MPD2    C112091   4.642   2.618  16.183  0.3488  0.2501 -0.1788
  822MPD2    C212092   4.542   2.671  16.268 -0.3508  0.3058  1.2030
  822MPD2    C312093   4.456   2.776  16.228  0.5971  0.0590  0.0589
  822MPD2    C412094   4.467   2.818  16.097  0.4967  0.1690 -0.1406
  822MPD2    C512095   4.569   2.775  16.021 -0.4404 -0.2265  0.4128
  822MPD2     H12096   4.549   2.638  16.371 -1.5631  0.5581  1.3717
  822MPD2    H112097   4.393   2.892  16.066  0.1169 -0.6661 -1.2145
  822MPD2    H212098   0.014   2.650  16.002 -0.1100 -0.7989  1.2643
  822MPD2    H312099   4.560   2.808  15.918  1.5030  0.0676  0.3513
  822MPD2     N12100   4.384   2.835  16.336  0.1261 -0.4655  0.3838
  822MPD2    H512101   4.395   2.791  16.427  1.7562 -0.1166  0.3601
  822MPD2    N112102   0.006   2.515  16.235  0.7666 -0.2769 -0.4008
  822MPD2    H712103   4.712   2.483  16.329 -0.2813 -3.1945 -1.6082
  823MPD2     C12104   4.397   2.816  17.137 -0.3825 -0.3896 -0.7262
  823MPD2    C112105   4.347   2.766  17.021  0.7107 -0.5907 -0.5215
  823MPD2    C212106   4.301   2.636  17.023  0.1836  0.1595 -0.0822
  823MPD2    C312107   4.295   2.567  17.142  0.5112 -0.1167 -0.1854
  823MPD2    C412108   4.329   2.635  17.259  0.4812  0.2695 -0.0298
  823MPD2    C512109   4.376   2.755  17.256 -0.2180 -0.3064  0.1732
  823MPD2     H12110   4.280   2.593  16.925 -0.9223  1.1044 -0.2546
  823MPD2    H112111   4.316   2.582  17.353  2.5072  0.9893  0.6642
  823MPD2    H212112   4.459   2.904  17.128 -0.7833 -0.0742 -0.4224
  823MPD2    H312113   4.401   2.805  17.349  2.3134 -1.4755  0.1030
  823MPD2     N12114   4.264   2.427  17.143 -0.0577 -0.1846 -0.3479
  823MPD2    H512115   4.283   2.388  17.235  0.1285  0.0668 -0.2798
  823MPD2    N112116   4.358   2.849  16.910 -0.5746 -1.2909 -0.6628
  823MPD2    H712117   4.421   2.928  16.919 -1.7626 -0.1858 -2.0781
  824MPD2     C12118   0.334   1.696  16.277 -0.0296 -0.5739 -0.2070
  824MPD2    C112119   0.403   1.807  16.244  0.5429 -0.5989 -0.0376
  824MPD2    C212120   0.519   1.803  16.165  0.1573 -0.6743 -0.0542
  824MPD2    C312121   0.575   1.680  16.142 -0.8979 -0.3856 -0.0487
  824MPD2    C412122   0.509   1.565  16.177 -0.0529 -0.5376 -0.1191
  824MPD2    C512123   0.389   1.577  16.243  0.6488  0.0163 -0.6585
  824MPD2     H12124   0.577   1.892  16.144  1.9765 -1.6385  0.8497
  824MPD2    H112125   0.556   1.467  16.168  1.9774  0.5194 -1.2355
  824MPD2    H212126   0.244   1.689  16.338  1.7138  0.3785  2.4618
  824MPD2    H312127   0.320   1.495  16.260  0.5275  0.6803  2.0191
  824MPD2     N12128   0.707   1.687  16.092 -0.1783  0.2510  1.0784
  824MPD2    H512129   0.751   1.776  16.067 -0.4688  0.2107  0.4342
  824MPD2    N112130   0.348   1.927  16.296 -0.0276  0.6991  0.0490
  824MPD2    H712131   0.262   1.913  16.347 -0.4323 -0.7208 -1.0329
  825MPD2     C12132   1.267   1.647  15.451  0.1119 -0.8906  0.8051
  825MPD2    C112133   1.196   1.731  15.534 -0.5491 -0.7199 -0.0090
  825MPD2    C212134   1.218   1.867  15.514  0.2707  0.2063  0.0225
  825MPD2    C312135   1.294   1.919  15.415  0.2368 -0.2010  0.6498
  825MPD2    C412136   1.355   1.831  15.325 -0.2659  0.1783  0.4740
  825MPD2    C512137   1.337   1.694  15.345 -0.9585  0.0775 -0.3166
  825MPD2     H12138   1.146   1.937  15.556  0.5802 -0.4624  1.6314
  825MPD2    H112139   1.407   1.861  15.235 -0.6141 -0.0444  0.1995
  825MPD2    H212140   1.273   1.540  15.465 -0.1263 -0.9064  0.7873
  825MPD2    H312141   1.384   1.620  15.280  1.1384 -0.3326  1.6975
  825MPD2     N12142   1.300   2.061  15.393 -0.2391 -0.2767  0.3773
  825MPD2    H512143   1.339   2.091  15.304  0.7687 -1.8864  0.2792
  825MPD2    N112144   1.116   1.678  15.641  0.3154  0.5089  0.1284
  825MPD2    H712145   1.120   1.577  15.657 -1.1220  0.4648  0.2572
  826MPD2     C12146   0.723   1.725  14.129 -0.0163  0.0757 -0.3400
  826MPD2    C112147   0.720   1.813  14.024 -0.2066 -0.0302  0.1634
  826MPD2    C212148   0.635   1.921  14.029 -0.7354 -0.2454  0.0045
  826MPD2    C312149   0.569   1.948  14.143  0.9793  0.1615 -0.4800
  826MPD2    C412150   0.579   1.863  14.257  0.1195  0.0902  0.1285
  826MPD2    C512151   0.652   1.750  14.246  0.5854  0.3203  0.3602
  826MPD2     H12152   0.628   1.988  13.944 -0.4635 -0.4860 -0.2097
  826MPD2    H112153   0.527   1.882  14.350 -1.3037 -0.0560 -0.6455
  826MPD2    H212154   0.781   1.633  14.126  1.9510  1.2305  1.3259
  826MPD2    H312155   0.654   1.685  14.333  0.5374 -1.9072 -1.3279
  826MPD2     N12156   0.490   2.065  14.166 -0.7868 -0.3212 -0.2812
  826MPD2    H512157   0.463   2.075  14.263  1.0401  1.9073  0.0073
  826MPD2    N112158   0.783   1.772  13.907 -1.1841  0.0099  0.1063
  826MPD2    H712159   0.846   1.693  13.904 -0.2999  0.7047  0.3595
  827MPD2     C12160   1.203   3.475  10.457  0.4858  0.8404 -0.3679
  827MPD2    C112161   1.191   3.338  10.492  0.5181  0.4639  0.8240
  827MPD2    C212162   1.115   3.260  10.406  0.0421 -0.0887 -0.4022
  827MPD2    C312163   1.022   3.316  10.322 -0.8859  0.2441 -0.6296
  827MPD2    C412164   1.023   3.456  10.302  0.3720 -0.5662  0.1866
  827MPD2    C512165   1.118   3.534  10.366  0.0788  1.0170  0.3777
  827MPD2     H12166   1.099   3.153  10.415 -0.8026 -0.3322 -4.4857
  827MPD2    H112167   0.952   3.501  10.234 -0.7563 -0.8138  1.1993
  827MPD2    H212168   1.273   3.540  10.509 -0.7488  0.3093  1.9600
  827MPD2    H312169   1.120   3.642  10.351  0.2123  1.0783  0.8665
  827MPD2     N12170   0.935   3.222  10.255  0.1111  0.7943 -0.6084
  827MPD2    H512171   0.928   3.126  10.289  0.4544  0.7726 -0.6031
  827MPD2    N112172   1.267   3.291  10.599  0.1904 -0.9311 -0.8106
  827MPD2    H712173   1.318   3.358  10.656  2.1205 -1.5349 -1.8252
  828MPD2     C12174   4.479   2.897  12.538 -0.2093 -0.3421 -0.7958
  828MPD2    C112175   4.430   2.844  12.415 -0.4398  0.3130  0.4912
  828MPD2    C212176   4.523   2.842  12.306 -0.7889  0.8174  0.5618
  828MPD2    C312177   4.655   2.831  12.337  0.1688 -0.0159 -0.1835
  828MPD2    C412178   4.700   2.868  12.467  0.0328  0.5475 -0.0668
  828MPD2    C512179   4.614   2.902  12.561 -0.8406 -0.1480  0.7246
  828MPD2     H12180   4.482   2.814  12.209 -0.6716 -2.2387  1.3985
  828MPD2    H112181   0.080   2.864  12.490  0.2849  2.2713 -0.9753
  828MPD2    H212182   4.423   2.907  12.630  1.1050 -2.0863  0.2030
  828MPD2    H312183   4.647   2.936  12.659  1.5284 -1.5808  0.4284
  828MPD2     N12184   0.031   2.786  12.241 -0.5406 -0.5837  0.0682
  828MPD2    H512185   0.124   2.768  12.276 -0.9014 -1.2427  0.6908
  828MPD2    N112186   4.286   2.836  12.392 -0.3639 -0.4087  0.1789
  828MPD2    H712187   4.250   2.825  12.298  1.2906 -1.5023 -0.3280
  829MPD2     C12188   4.033   3.114  11.671  0.9338  0.1488 -0.2192
  829MPD2    C112189   3.909   3.139  11.733  0.0183  0.2156 -0.2753
  829MPD2    C212190   3.898   3.111  11.870  0.1450 -0.3329  0.3903
  829MPD2    C312191   4.006   3.064  11.941 -0.5050  0.0465 -0.3336
  829MPD2    C412192   4.124   3.049  11.872 -0.1718 -0.1629  0.0506
  829MPD2    C512193   4.134   3.063  11.742  0.0555 -0.1209 -0.3184
  829MPD2     H12194   3.798   3.118  11.912 -0.0824 -1.3514  0.0172
  829MPD2    H112195   4.218   3.018  11.915  1.3922  0.3047 -3.0337
  829MPD2    H212196   4.044   3.117  11.563 -3.0239 -0.1218 -0.6249
  829MPD2    H312197   4.227   3.035  11.694  0.2467 -1.5156  0.8681
  829MPD2     N12198   4.000   3.025  12.078  0.0944  0.1262 -0.1449
  829MPD2    H512199   4.067   2.958  12.114 -0.8412 -1.3846 -1.2187
  829MPD2    N112200   3.802   3.181  11.656  0.8435 -0.8294  0.2187
  829MPD2    H712201   3.816   3.184  11.556  1.6695  0.9114  0.3753
  830MPD2     C12202   0.437   0.934  15.993  0.2461  0.2991  0.0902
  830MPD2    C112203   0.322   0.942  15.914  0.0109 -0.2259 -0.4795
  830MPD2    C212204   0.321   1.038  15.809 -0.2271 -0.0016 -0.2018
  830MPD2    C312205   0.423   1.135  15.794 -0.4986 -0.2224  0.0219
  830MPD2    C412206   0.527   1.128  15.883 -0.2210 -0.4671 -0.2345
  830MPD2    C512207   0.534   1.027  15.976 -0.2767 -0.4215 -0.2147
  830MPD2     H12208   0.226   1.056  15.760 -0.2447  0.1865 -0.1015
  830MPD2    H112209   0.604   1.204  15.891 -0.5615  0.4275 -5.3366
  830MPD2    H212210   0.446   0.874  16.083 -1.1851  1.5636  1.0758
  830MPD2    H312211   0.612   1.031  16.051  0.4102 -0.8148 -0.9075
  830MPD2     N12212   0.424   1.250  15.704 -0.5126  0.2042  0.1135
  830MPD2    H512213   0.499   1.319  15.709 -0.5884  0.1678  1.9460
  830MPD2    N112214   0.214   0.857  15.942  0.4084 -0.2468 -0.4339
  830MPD2    H712215   0.222   0.804  16.028  0.1713  1.4103  0.6181
  831MPD2     C12216   0.042   2.557  16.820  0.2034  0.1788  0.6786
  831MPD2    C112217   4.710   2.631  16.715 -0.7667  0.3081 -0.3393
  831MPD2    C212218   4.580   2.603  16.676  0.2097  0.9425 -0.3432
  831MPD2    C312219   4.507   2.511  16.744  0.1524 -0.1096  0.2765
  831MPD2    C412220   4.557   2.446  16.854  0.3801  0.3157  0.4953
  831MPD2    C512221   4.691   2.465  16.894 -0.2559 -0.2973  0.3681
  831MPD2     H12222   4.540   2.656  16.590 -0.7168  0.5062 -0.1769
  831MPD2    H112223   4.498   2.366  16.897 -0.1377  1.1289  1.2915
  831MPD2    H212224   0.137   2.589  16.862  0.2552 -0.9202  1.3929
  831MPD2    H312225   0.010   2.412  16.977 -0.6671  3.0009  2.6993
  831MPD2     N12226   4.369   2.479  16.710  0.1927 -0.4720 -0.4284
  831MPD2    H512227   4.319   2.414  16.771  1.3479 -2.1498 -1.2556
  831MPD2    N112228   0.069   2.715  16.643  0.7422  0.5857 -0.2320
  831MPD2    H712229   0.166   2.689  16.652  1.0478  1.3603 -1.4689
  832MPD2     C12230   3.145   3.756  17.512  0.0764 -0.3137  0.4723
  832MPD2    C112231   3.118   3.869  17.584  0.7422 -0.0246 -0.1739
  832MPD2    C212232   3.000   3.933  17.563 -0.0825  0.3061 -0.1436
  832MPD2    C312233   2.916   3.887  17.462  0.1588 -0.0532  0.5473
  832MPD2    C412234   2.937   3.762  17.418 -0.3365  0.4267  0.7620
  832MPD2    C512235   3.056   3.702  17.429 -0.3028  0.3960  0.6388
  832MPD2     H12236   2.978   4.030  17.604 -1.3487  0.1741 -0.5244
  832MPD2    H112237   2.861   3.710  17.360  0.5549  2.4360 -2.1946
  832MPD2    H212238   3.230   3.692  17.535  0.4211  0.0334  0.1756
  832MPD2    H312239   3.077   3.606  17.382 -1.5845  0.8695 -0.8959
  832MPD2     N12240   2.802   3.965  17.427 -0.5486  0.1390  0.3409
  832MPD2    H512241   2.752   3.923  17.349  0.6810 -0.7243  0.0124
  832MPD2    N112242   3.205   3.937  17.673 -0.4424 -0.0356  0.5771
  832MPD2    H712243   3.173   4.019   0.018 -0.2649  0.9804 -0.9494
  833MPD2     C12244   4.612   1.081  13.132 -0.6733 -0.1836 -0.0667
  833MPD2    C112245   4.650   1.069  13.005  0.1644  0.0035 -0.3502
  833MPD2    C212246   0.049   1.013  12.975  0.0058  0.1226 -0.2970
  833MPD2    C312247   0.120   0.945  13.067  0.1465 -0.4115 -0.1757
  833MPD2    C412248   0.085   0.963  13.198 -0.2497  0.4617 -0.2927
  833MPD2    C512249   4.687   1.021  13.228  0.3064 -0.3915 -0.5151
  833MPD2     H12250   0.087   1.002  12.874  2.1697  0.3322  0.4791
  833MPD2    H112251   0.140   0.930  13.286 -3.5677 -2.6974  0.6339
  833MPD2    H212252   4.514   1.116  13.160  0.2825  1.9490  0.5849
  833MPD2    H312253   4.656   1.038  13.330 -0.6802 -0.3996 -0.8117
  833MPD2     N12254   0.227   0.868  13.010  0.7332 -0.0367  0.5951
  833MPD2    H512255   0.233   0.876  12.909  2.3809  2.9392  0.9528
  833MPD2    N112256   4.576   1.102  12.893 -0.8170  0.0472 -0.3090
  833MPD2    H712257   4.618   1.066  12.808 -0.5674  1.5029 -0.7868
  834MPD2     C12258   0.606   4.641  12.696 -0.0434  0.6446  1.0267
  834MPD2    C112259   0.631   0.013  12.606  0.2058 -0.7973  0.3262
  834MPD2    C212260   0.602   0.145  12.638 -0.2824  0.4781 -0.4451
  834MPD2    C312261   0.557   0.176  12.767 -0.0024  0.0534 -0.7067
  834MPD2    C412262   0.520   0.066  12.850 -0.4244 -0.0698  0.3782
  834MPD2    C512263   0.546   4.662  12.813  0.3146 -0.8498 -0.5869
  834MPD2     H12264   0.625   0.225  12.569  0.5424 -0.7019 -1.5403
  834MPD2    H112265   0.481   0.085  12.949 -0.5071 -3.4977  0.9904
  834MPD2    H212266   0.632   4.540  12.668 -0.3711  0.7370  0.4081
  834MPD2    H312267   0.517   4.584  12.882 -2.2937  0.9024  0.3223
  834MPD2     N12268   0.510   0.309  12.783  0.1658  0.1362  0.3280
  834MPD2    H512269   0.535   0.366  12.703  0.2345  0.2792  0.4519
  834MPD2    N112270   0.681   4.702  12.480  0.2934 -0.1711  0.3100
  834MPD2    H712271   0.702   4.603  12.470 -0.4528 -0.4147  1.1515
  835MPD2     C12272   0.634   2.598  11.310  0.0259 -0.7242 -0.4833
  835MPD2    C112273   0.522   2.665  11.355 -0.3128  0.4866  0.3008
  835MPD2    C212274   0.534   2.735  11.468  0.0461 -0.2171  0.0252
  835MPD2    C312275   0.656   2.757  11.533  0.3253  0.0983  0.3941
  835MPD2    C412276   0.766   2.713  11.469  0.1185  0.1380  0.0212
  835MPD2    C512277   0.753   2.618  11.371  0.1396  0.5829 -0.8157
  835MPD2     H12278   0.445   2.769  11.518  0.0868  0.5610 -0.4382
  835MPD2    H112279   0.863   2.735  11.511 -1.0652  0.3535  2.6680
  835MPD2    H212280   0.631   2.532  11.224  0.9739  0.8983 -1.7583
  835MPD2    H312281   0.839   2.572  11.324  0.3134 -0.8075  0.8648
  835MPD2     N12282   0.680   2.834  11.653 -0.5802 -0.6490 -0.1181
  835MPD2    H512283   0.775   2.825  11.687 -1.5605  2.1689  3.4342
  835MPD2    N112284   0.406   2.657  11.276  0.0840  0.5936  0.5246
  835MPD2    H712285   0.423   2.595  11.197 -2.1692 -0.4307  0.8442
  836MPD2     C12286   0.370   3.521  11.859 -0.2485 -0.2716 -0.0531
  836MPD2    C112287   0.370   3.439  11.970  0.5256 -0.5302  0.1360
  836MPD2    C212288   0.295   3.455  12.084  0.4689 -0.8714 -0.5995
  836MPD2    C312289   0.217   3.568  12.090 -0.1058 -0.2557  0.8192
  836MPD2    C412290   0.219   3.653  11.982  0.2719  0.6532 -0.3071
  836MPD2    C512291   0.290   3.633  11.868 -0.2742 -0.3084  0.0032
  836MPD2     H12292   0.314   3.383  12.162  1.0876  2.1154  2.0260
  836MPD2    H112293   0.159   3.743  11.975  0.9139  1.1670  0.8111
  836MPD2    H212294   0.422   3.503  11.765  2.5467  2.5223  0.9437
  836MPD2    H312295   0.280   3.706  11.789 -0.8927 -0.0441  0.3250
  836MPD2     N12296   0.132   3.597  12.191 -0.2323 -0.3081 -0.1373
  836MPD2    H512297   0.068   3.676  12.189 -0.1298 -0.1617  1.7170
  836MPD2    N112298   0.460   3.334  11.961 -0.0923  0.2843  0.1322
  836MPD2    H712299   0.493   3.308  11.869  0.3933 -0.7394  0.5980
  837MPD2     C12300   3.006   2.809  10.243  0.8348  0.2766 -0.2708
  837MPD2    C112301   2.887   2.809  10.174  0.0404  0.4482 -0.1610
  837MPD2    C212302   2.835   2.934  10.149 -0.6470 -0.0179  0.4175
  837MPD2    C312303   2.897   3.050  10.182  0.2542  0.9796  0.4853
  837MPD2    C412304   3.019   3.044  10.241 -0.4688 -0.4106 -0.5691
  837MPD2    C512305   3.073   2.922  10.283 -0.3097  0.5521 -0.3276
  837MPD2     H12306   2.734   2.945  10.111  0.4746 -3.3742 -3.4886
  837MPD2    H112307   3.063   3.127  10.295 -0.7551 -0.8282  0.3106
  837MPD2    H212308   3.057   2.713  10.250  0.5658  0.2150  0.8043
  837MPD2    H312309   3.164   2.915  10.342 -1.3871 -3.4511  0.9058
  837MPD2     N12310   2.845   3.171  10.135  0.0283 -0.4008  0.0109
  837MPD2    H512311   2.762   3.176  10.077 -0.4041  0.5963  0.7158
  837MPD2    N112312   2.831   2.695  10.113  0.2731  0.0873 -0.2057
  837MPD2    H712313   2.750   2.699  10.052 -0.1076  0.3120  0.3138
  838MPD2     C12314   1.518   0.774  11.548 -0.6873  0.0658 -0.0362
  838MPD2    C112315   1.493   0.902  11.584 -0.4310 -0.2321  0.1381
  838MPD2    C212316   1.389   0.932  11.666 -0.7781  0.5371 -0.1700
  838MPD2    C312317   1.315   0.833  11.719 -0.1259 -0.0690 -0.6644
  838MPD2    C412318   1.343   0.699  11.689 -0.1463  0.0055 -0.2047
  838MPD2    C512319   1.452   0.673  11.609 -0.5018 -0.8200 -0.5281
  838MPD2     H12320   1.371   1.035  11.694 -1.0094  0.0919  1.3394
  838MPD2    H112321   1.289   0.610  11.721 -0.7523 -0.2542 -1.9310
  838MPD2    H212322   1.587   0.739  11.472 -0.9320 -0.8659  0.1708
  838MPD2    H312323   1.471   0.569  11.584 -0.1155 -0.8003 -0.3049
  838MPD2     N12324   1.210   0.875  11.800 -0.0343  0.2202  0.4819
  838MPD2    H512325   1.201   0.976  11.794  3.3803  0.4672 -0.4887
  838MPD2    N112326   1.550   1.017  11.530  0.2460  0.1470  0.2732
  838MPD2    H712327   1.523   1.104  11.575 -1.9289 -1.1801  1.5682
  839MPD2     C12328   1.497   0.921  12.199  0.4893 -0.1927  0.2000
  839MPD2    C112329   1.515   0.851  12.080 -0.1621 -0.1773  0.1395
  839MPD2    C212330   1.597   0.911  11.988  0.3876  0.7255  0.6529
  839MPD2    C312331   1.665   1.028  12.008 -0.5694 -0.4824 -0.3510
  839MPD2    C412332   1.654   1.098  12.126 -0.3301  0.3713 -1.0297
  839MPD2    C512333   1.585   1.028  12.223  0.5001  0.2421  0.2410
  839MPD2     H12334   1.598   0.858  11.894 -0.8744 -1.8798  2.1180
  839MPD2    H112335   1.706   1.191  12.148 -1.0239  1.0690 -2.2978
  839MPD2    H212336   1.443   0.870  12.278  1.1590  0.1018  0.8452
  839MPD2    H312337   1.576   1.066  12.325  1.9139  3.2396 -0.7422
  839MPD2     N12338   1.730   1.075  11.891 -0.8161 -0.1524  0.6678
  839MPD2    H512339   1.718   1.023  11.805  0.1660 -1.4011  1.2970
  839MPD2    N112340   1.456   0.730  12.042 -0.0711  0.2842  0.2434
  839MPD2    H712341   1.468   0.701  11.945  1.5585 -1.6903  1.0476
  840MPD2     C12342   1.840   3.478  10.646 -0.8084 -0.0408 -0.2608
  840MPD2    C112343   1.804   3.420  10.764  0.8222 -0.4513 -0.6690
  840MPD2    C212344   1.837   3.490  10.880  0.6260  0.1195 -0.7570
  840MPD2    C312345   1.911   3.610  10.878  0.1885  0.6240 -0.0480
  840MPD2    C412346   1.949   3.663  10.757 -0.7265  0.4780  0.5206
  840MPD2    C512347   1.916   3.587  10.645 -0.7955 -0.4189 -0.1875
  840MPD2     H12348   1.792   3.451  10.971  3.5149 -2.9005 -0.5931
  840MPD2    H112349   2.000   3.757  10.739 -0.7297  0.0542 -1.6535
  840MPD2    H212350   1.805   3.430  10.555 -0.6368  1.4423 -1.1091
  840MPD2    H312351   1.941   3.622  10.546 -0.2495 -1.3530 -0.3766
  840MPD2     N12352   1.941   3.690  10.992 -0.2166 -0.1240  0.4746
  840MPD2    H512353   1.999   3.772  10.975 -1.1390  0.2326 -0.8599
  840MPD2    N112354   1.728   3.308  10.766 -0.0119  0.3190  0.1198
  840MPD2    H712355   1.688   3.288  10.674 -0.9467  0.2596  0.5393
  841MPD2     C12356   1.895   3.114  14.800  0.1827  0.2991 -0.0335
  841MPD2    C112357   1.947   2.991  14.813  0.1744 -0.0020  1.0019
  841MPD2    C212358   2.080   2.975  14.782  0.2724  0.1084  0.5084
  841MPD2    C312359   2.159   3.083  14.740 -0.1113  0.3738 -0.5242
  841MPD2    C412360   2.114   3.213  14.747 -0.1377  0.3818  0.0264
  841MPD2    C512361   1.978   3.220  14.795  0.4879  0.0410  0.3304
  841MPD2     H12362   2.118   2.873  14.782  1.6938  0.6234 -1.8814
  841MPD2    H112363   2.170   3.306  14.744  0.4950  0.0093  0.0501
  841MPD2    H212364   1.792   3.143  14.817 -0.2604 -1.0131 -0.4392
  841MPD2    H312365   1.943   3.323  14.798 -0.6214 -0.2373 -2.5382
  841MPD2     N12366   2.295   3.053  14.695  1.2513 -0.1531  0.2321
  841MPD2    H512367   2.327   2.959  14.715  1.0269 -0.4319 -0.7412
  841MPD2    N112368   1.869   2.871  14.816  0.5596  0.5825  0.4816
  841MPD2    H712369   1.916   2.785  14.786  0.3138  0.5210  0.2695
  842MPD2     C12370   1.916   4.138  16.794  0.0876 -0.2952 -0.4204
  842MPD2    C112371   1.941   4.244  16.873 -0.0294  0.2695 -0.3153
  842MPD2    C212372   1.904   4.235  17.008  0.2075 -0.0130 -0.2021
  842MPD2    C312373   1.839   4.124  17.052  0.5480  0.1244  0.1110
  842MPD2    C412374   1.817   4.015  16.971 -0.2631  0.3913 -0.1069
  842MPD2    C512375   1.861   4.021  16.845  0.2611  0.2892 -0.4821
  842MPD2     H12376   1.911   4.333  17.054 -0.3657  0.7039 -1.6425
  842MPD2    H112377   1.772   3.921  17.002 -0.2227 -0.3656 -2.3240
  842MPD2    H212378   1.947   4.130  16.690 -0.5923  0.9234 -0.7199
  842MPD2    H312379   1.849   3.935  16.781 -0.9180 -0.1202  0.2816
  842MPD2     N12380   1.787   4.116  17.179  0.1337  0.0137 -0.1071
  842MPD2    H512381   1.742   4.030  17.211 -1.1481  0.2021 -1.4049
  842MPD2    N112382   1.992   4.360  16.819  0.5962 -0.1297  0.2212
  842MPD2    H712383   1.987   4.375  16.719  1.1802 -1.4031  0.0113
  843MPD2     C12384   4.046   4.037  17.676  0.6725  0.2280  0.6755
  843MPD2    C112385   3.987   4.034   0.094 -0.0389  0.1116  0.2508
  843MPD2    C212386   4.027   4.129   0.180 -0.2559  0.4122 -0.6761
  843MPD2    C312387   4.112   4.227   0.145 -0.4085  0.2698  0.0168
  843MPD2    C412388   4.164   4.232   0.023 -0.5611  0.1417  0.3822
  843MPD2    C512389   4.145   4.124  17.644 -0.4748 -0.2144  0.0848
  843MPD2     H12390   3.981   4.131   0.279  0.4991  2.3116 -0.3814
  843MPD2    H112391   4.234   4.311  17.702 -0.7563 -0.0970 -0.7826
  843MPD2    H212392   4.022   3.962  17.602 -1.4962  3.2977 -1.7217
  843MPD2    H312393   4.184   4.133  17.543 -0.2898  1.4938  0.3220
  843MPD2     N12394   4.174   4.318   0.235  0.0867  0.1808 -0.3000
  843MPD2    H512395   4.237   4.388   0.198  2.1768 -2.1361 -1.1790
  843MPD2    N112396   3.896   3.928   0.118  0.6262  0.1912 -0.5464
  843MPD2    H712397   3.897   3.854   0.049  2.8181  1.6963 -2.1078
  844MPD2     C12398   2.592   3.770  16.763 -0.3195  0.0951  0.1563
  844MPD2    C112399   2.680   3.670  16.735  0.3473  0.0895 -0.2831
  844MPD2    C212400   2.796   3.662  16.811 -0.0067  0.3290 -0.2690
  844MPD2    C312401   2.830   3.764  16.892  0.7725 -0.2227  0.5304
  844MPD2    C412402   2.742   3.870  16.912 -0.2499 -0.0622 -0.0568
  844MPD2    C512403   2.622   3.871  16.843  0.6568 -0.1538 -0.1299
  844MPD2     H12404   2.861   3.575  16.807  1.6909  1.6647 -1.9290
  844MPD2    H112405   2.772   3.959  16.966  0.6868  1.6623 -3.3574
  844MPD2    H212406   2.499   3.771  16.706 -0.9590  1.1488  1.2212
  844MPD2    H312407   2.559   3.959  16.838  1.5477  0.4392 -0.7545
  844MPD2     N12408   2.947   3.752  16.965  0.5558  0.1210  0.5356
  844MPD2    H512409   3.012   3.683  16.928 -0.8740 -1.2685  0.6493
  844MPD2    N112410   2.663   3.574  16.636  0.8075 -0.0821 -1.0766
  844MPD2    H712411   2.738   3.508  16.621 -0.2659 -1.5613  0.0909
  845MPD2     C12412   3.452   4.383  17.569  0.2299 -0.4488 -0.4525
  845MPD2    C112413   3.331   4.330  17.592  0.2351 -0.1059  0.4990
  845MPD2    C212414   3.294   4.218  17.522 -0.2565 -1.0267  0.4359
  845MPD2    C312415   3.378   4.162  17.424 -0.0544  0.1183 -0.2571
  845MPD2    C412416   3.498   4.218  17.398  0.5862  0.1554 -0.2287
  845MPD2    C512417   3.527   4.327  17.468  0.1805 -0.4449 -0.4132
  845MPD2     H12418   3.200   4.169  17.546  0.5162 -2.2805  0.8637
  845MPD2    H112419   3.564   4.187  17.317  1.4866  0.4390  0.4044
  845MPD2    H212420   3.496   4.465  17.624 -1.4442  1.4252 -1.8957
  845MPD2    H312421   3.624   4.373  17.451  0.4456  0.7319  4.3070
  845MPD2     N12422   3.337   4.043  17.358  0.0803 -0.0551  0.0032
  845MPD2    H512423   3.241   4.020  17.383  0.3722  0.5892  1.6974
  845MPD2    N112424   3.259   4.376  17.702  0.0734  0.1693 -0.6848
  845MPD2    H712425   3.291   4.467   0.029 -0.5247  0.9498 -2.2607
  846MPD2     C12426   4.619   0.088  13.739 -0.5840 -0.3694 -0.7383
  846MPD2    C112427   4.592   0.218  13.790  0.2761  0.2813 -0.0200
  846MPD2    C212428   4.596   0.226  13.926 -0.1172 -0.5938  0.0022
  846MPD2    C312429   4.628   0.123  14.015  0.3257  0.4878 -0.2321
  846MPD2    C412430   4.650   4.724  13.959  0.2807 -0.3466  0.1177
  846MPD2    C512431   4.645   4.712  13.827 -0.2526  0.8700 -0.2367
  846MPD2     H12432   4.562   0.319  13.971 -0.0517 -2.1177  3.2358
  846MPD2    H112433   4.672   4.644  14.029  0.2825 -1.1361 -0.7913
  846MPD2    H212434   4.617   0.065  13.633  0.9369 -0.3395 -0.7790
  846MPD2    H312435   4.658   4.609  13.797  0.6981  1.1226 -0.6776
  846MPD2     N12436   4.634   0.146  14.153 -0.2029 -0.3169  0.3389
  846MPD2    H512437   4.582   0.229  14.181 -1.8697 -1.1054 -0.4634
  846MPD2    N112438   4.569   0.333  13.714 -0.6459 -0.0317 -0.3059
  846MPD2    H712439   4.562   0.415  13.774  3.3294 -0.1649  0.3445
  847MPD2     C12440   4.644   1.041  14.001 -0.2146  0.1505 -0.4253
  847MPD2    C112441   4.701   1.107  14.109 -0.2656 -0.4389 -0.6230
  847MPD2    C212442   0.084   1.049  14.168  0.9616  1.0211 -0.1589
  847MPD2    C312443   0.138   0.934  14.124 -0.2800 -0.0675 -0.8138
  847MPD2    C412444   0.091   0.874  14.005  1.3569 -0.4826 -0.4134
  847MPD2    C512445   4.698   0.925  13.957  0.0163  0.2342  0.3840
  847MPD2     H12446   0.112   1.100  14.260  1.5990  0.3325  0.0320
  847MPD2    H112447   0.133   0.782  13.966 -0.5783 -2.0113  1.0781
  847MPD2    H212448   4.561   1.084  13.947 -0.7006  2.5827  2.2791
  847MPD2    H312449   4.646   0.885  13.870  3.7644 -0.4018 -1.5857
  847MPD2     N12450   0.235   0.860  14.201 -0.0377  0.0428 -0.3402
  847MPD2    H512451   0.229   0.758  14.198 -1.8970  0.1401 -0.3124
  847MPD2    N112452   4.653   1.223  14.164  0.7331  0.0016 -0.2518
  847MPD2    H712453   4.695   1.253  14.252  0.9936  3.2775 -1.5048
  848MPD2     C12454   2.627   4.725  17.084 -0.1459  0.3148 -0.1014
  848MPD2    C112455   2.634   4.697  17.220 -0.0111 -0.2910  0.0571
  848MPD2    C212456   2.636   0.085  17.304 -0.0358 -0.0006 -0.8144
  848MPD2    C312457   2.615   0.217  17.258  0.1047 -0.1281  0.7300
  848MPD2    C412458   2.601   0.235  17.128 -0.4250 -0.1024 -0.2127
  848MPD2    C512459   2.598   0.128  17.041 -0.3242 -0.7827  0.6850
  848MPD2     H12460   2.646   0.067  17.411  0.9564  0.1279 -0.8796
  848MPD2    H112461   2.582   0.337  17.098 -0.5533  0.3356  1.3793
  848MPD2    H212462   2.604   4.645  17.015 -0.2732 -0.3797  0.7492
  848MPD2    H312463   2.592   0.151  16.936 -1.2930  0.0713  0.9316
  848MPD2     N12464   2.598   0.330  17.352 -0.1446 -0.6932 -1.2608
  848MPD2    H512465   2.578   0.422  17.314  0.1881 -0.4478 -0.8321
  848MPD2    N112466   2.640   4.560  17.275  0.0947 -0.0825 -0.4387
  848MPD2    H712467   2.624   4.542  17.373 -0.2732  2.2013 -0.0746
  849MPD2     C12468   1.384   3.749  14.140 -0.9344 -0.5373  0.0797
  849MPD2    C112469   1.518   3.756  14.093  0.2334 -0.2549  0.1533
  849MPD2    C212470   1.617   3.683  14.141  0.0300  0.1948 -0.0565
  849MPD2    C312471   1.596   3.590  14.242 -0.3563  0.1103  1.1521
  849MPD2    C412472   1.466   3.579  14.285 -0.4852  1.0640 -0.1675
  849MPD2    C512473   1.361   3.655  14.234 -0.1339  0.5437  0.2130
  849MPD2     H12474   1.715   3.694  14.095  0.7108  0.9197  1.5382
  849MPD2    H112475   1.438   3.508  14.363  2.7620  1.3907  1.2756
  849MPD2    H212476   1.305   3.813  14.104  1.3438  1.2642 -1.6786
  849MPD2    H312477   1.262   3.640  14.276  0.2530 -0.9079  0.6250
  849MPD2     N12478   1.699   3.504  14.285 -0.5418  0.0693 -0.3202
  849MPD2    H512479   1.785   3.515  14.234  0.5198  1.2469  1.7503
  849MPD2    N112480   1.544   3.841  13.988 -0.1674 -0.0986  0.3364
  849MPD2    H712481   1.641   3.840  13.958 -0.9048 -2.5803 -1.9340
  850MPD2     C12482   4.466   1.906  15.114  0.2559  0.3370 -0.4521
  850MPD2    C112483   4.458   2.014  15.199 -0.1815  0.5151  0.0288
  850MPD2    C212484   4.578   2.071  15.244  0.4065 -0.3005  0.2695
  850MPD2    C312485   4.699   2.001  15.230  0.2082 -0.2114  0.2076
  850MPD2    C412486   4.697   1.885  15.157 -0.1026  0.2651 -0.3426
  850MPD2    C512487   4.581   1.837  15.100  0.3608 -0.0771 -0.1021
  850MPD2     H12488   4.581   2.165  15.297  2.0319  0.9294 -1.9706
  850MPD2    H112489   0.057   1.820  15.156 -0.1459  0.2032  0.1285
  850MPD2    H212490   4.374   1.869  15.069 -0.4423 -0.1003  1.3283
  850MPD2    H312491   4.592   1.744  15.045  1.2432 -0.0118 -0.0351
  850MPD2     N12492   0.098   2.027  15.289  0.6145 -0.0287  0.6001
  850MPD2    H512493   0.175   1.963  15.275  1.6324  0.7825  2.6286
  850MPD2    N112494   4.325   2.070  15.220  0.2049 -0.3170  0.3352
  850MPD2    H712495   4.255   2.024  15.162  0.8974 -0.9844  0.0251
  851MPD2     C12496   0.124   2.100  15.876  0.3910  0.7388  0.2401
  851MPD2    C112497   0.034   2.032  15.793  0.0206  0.1943  0.0838
  851MPD2    C212498   0.084   1.930  15.714  0.4060  0.1108  0.0467
  851MPD2    C312499   0.214   1.890  15.728  0.0372  0.9890  0.1774
  851MPD2    C412500   0.293   1.957  15.814  0.2542 -0.5845  0.0518
  851MPD2    C512501   0.252   2.063  15.888 -0.2555 -0.3213 -0.0806
  851MPD2     H12502   0.025   1.877  15.640 -0.7668  2.3430 -0.6364
  851MPD2    H112503   0.397   1.927  15.827  0.1713 -1.1564 -0.5907
  851MPD2    H212504   0.096   2.178  15.946 -1.8591 -0.7234  0.9877
  851MPD2    H312505   0.314   2.113  15.961  0.9178 -3.0913  0.8175
  851MPD2     N12506   0.266   1.780  15.653  0.8934  0.1143 -0.0373
  851MPD2    H512507   0.200   1.743  15.584  0.2473  0.6428  0.3027
  851MPD2    N112508   4.631   2.087  15.777  0.5615 -0.3551 -0.2811
  851MPD2    H712509   4.608   2.174  15.824  0.5933 -0.3966 -0.1901
  852MPD2     C12510   4.003   4.494   9.939 -0.3472 -0.2775 -0.2449
  852MPD2    C112511   3.995   4.428  10.058 -0.6644  0.2723  0.7501
  852MPD2    C212512   4.103   4.418  10.144  0.7787 -0.4786 -0.8921
  852MPD2    C312513   4.223   4.468  10.103 -0.0062  0.6764 -0.0490
  852MPD2    C412514   4.236   4.531   9.981 -0.2372 -0.0958  0.1062
  852MPD2    C512515   4.130   4.537   9.897 -0.6599  0.8880 -0.3364
  852MPD2     H12516   4.087   4.366  10.238 -3.6650  0.0162 -1.3379
  852MPD2    H112517   4.334   4.562   9.946  0.9733 -0.9014  2.8031
  852MPD2    H212518   3.926   4.494   9.863 -0.2508 -0.9579 -0.3460
  852MPD2    H312519   4.142   4.595   9.807  3.2913  0.4043 -0.1020
  852MPD2     N12520   4.328   4.446  10.193 -0.8441  0.1352  0.4882
  852MPD2    H512521   4.311   4.408  10.285 -2.1568  1.9748  1.0029
  852MPD2    N112522   3.874   4.370  10.108 -0.0837 -0.4415  0.3281
  852MPD2    H712523   3.878   4.299  10.180  2.2044 -1.6768 -1.0329
  853MPD2     C12524   0.837   4.373  12.714  0.6235  0.7409  0.5060
  853MPD2    C112525   0.910   4.484  12.675 -0.3524  0.1404  0.5489
  853MPD2    C212526   0.968   4.486  12.548 -0.5510  0.5489  0.2379
  853MPD2    C312527   0.956   4.381  12.458  0.4060 -0.1898  0.3313
  853MPD2    C412528   0.888   4.273  12.505  0.4324 -0.2257  0.3377
  853MPD2    C512529   0.828   4.269  12.628 -0.2143  0.0829  0.1159
  853MPD2     H12530   1.030   4.570  12.520  0.5253  0.7056  3.0491
  853MPD2    H112531   0.860   4.195  12.435  1.2950 -0.0126 -0.2351
  853MPD2    H212532   0.800   4.365  12.816  1.8317 -2.4681  0.7015
  853MPD2    H312533   0.783   4.175  12.659 -1.5155  0.2394 -1.2812
  853MPD2     N12534   0.999   4.389  12.326  0.4081 -0.1432 -0.1832
  853MPD2    H512535   1.009   4.298  12.283  0.3539  0.8108 -2.2216
  853MPD2    N112536   0.916   4.582  12.775  0.1050 -0.4533 -0.0990
  853MPD2    H712537   0.877   4.563  12.867  2.0397  0.7083  0.9484
  854MPD2     C12538   3.331   4.447  12.641  0.2656 -0.0850  0.5789
  854MPD2    C112539   3.291   4.474  12.767 -0.8238 -0.2865 -0.4239
  854MPD2    C212540   3.325   4.382  12.866  0.6659  0.1486 -0.2924
  854MPD2    C312541   3.383   4.258  12.827 -0.8658 -0.8470  0.0788
  854MPD2    C412542   3.414   4.231  12.700  0.1819  0.8155 -0.9946
  854MPD2    C512543   3.400   4.332  12.607 -0.1324 -1.4542  0.2383
  854MPD2     H12544   3.286   4.395  12.967 -1.5652 -3.5100 -0.6723
  854MPD2    H112545   3.461   4.137  12.672  0.1995  0.1712  1.1874
  854MPD2    H212546   3.301   4.517  12.564  0.8329  1.9635  2.2249
  854MPD2    H312547   3.423   4.307  12.504  0.3290 -0.3444  0.0685
  854MPD2     N12548   3.411   4.165  12.933 -0.9173  0.0672  0.5221
  854MPD2    H512549   3.398   4.200  13.027  0.1897 -0.4744  0.8841
  854MPD2    N112550   3.218   4.597  12.800  0.2334 -0.0591 -0.6601
  854MPD2    H712551   3.225   4.678  12.740 -1.1088  1.3848  1.1236
  855MPD2     C12552   3.639   4.361  13.723  0.1471  1.0032 -0.2949
  855MPD2    C112553   3.684   4.235  13.721 -0.3314 -0.0566  0.2425
  855MPD2    C212554   3.683   4.161  13.605  0.5731  0.5822  0.3332
  855MPD2    C312555   3.642   4.215  13.487 -0.9162  0.4219 -0.2125
  855MPD2    C412556   3.592   4.347  13.488  0.2932 -0.3494  0.1200
  855MPD2    C512557   3.591   4.412  13.608  0.4924  0.8247  0.2842
  855MPD2     H12558   3.702   4.054  13.613 -0.3691  0.5260  1.9151
  855MPD2    H112559   3.561   4.401  13.399 -1.7931 -0.8061  0.5597
  855MPD2    H212560   3.652   4.431  13.805  1.5661  1.0775 -0.5764
  855MPD2    H312561   3.548   4.512  13.613 -1.6883 -0.1732  1.2263
  855MPD2     N12562   3.638   4.149  13.363 -0.6315  0.2559 -0.1335
  855MPD2    H512563   3.576   4.193  13.295  0.9478  1.0760 -1.0209
  855MPD2    N112564   3.745   4.179  13.836 -0.0439  0.3864  0.0047
  855MPD2    H712565   3.811   4.103  13.823  2.7107  3.1741 -2.4448
  856MPD2     C12566   0.612   0.422  14.043 -0.2483 -0.3253 -0.3484
  856MPD2    C112567   0.713   0.511  14.070  0.8884  0.5705  0.0943
  856MPD2    C212568   0.696   0.651  14.069 -0.0091 -1.2893  0.0933
  856MPD2    C312569   0.570   0.697  14.042 -0.3609 -0.3137  0.4146
  856MPD2    C412570   0.468   0.610  14.008  0.0693  1.1482  0.7921
  856MPD2    C512571   0.488   0.477  14.017 -0.0811 -0.3572 -0.3118
  856MPD2     H12572   0.782   0.715  14.081 -1.1322  0.4161 -0.9709
  856MPD2    H112573   0.365   0.637  13.990 -0.0767  0.9576  1.3418
  856MPD2    H212574   0.632   0.315  14.041 -2.6251 -0.7878  0.5055
  856MPD2    H312575   0.411   0.405  13.992  0.3664 -1.9872  2.8721
  856MPD2     N12576   0.545   0.836  14.036 -0.0347  0.7291 -0.0771
  856MPD2    H512577   0.463   0.862  13.981  1.2494  1.2950 -1.7282
  856MPD2    N112578   0.841   0.471  14.105  0.7160  0.2032  0.3456
  856MPD2    H712579   0.918   0.533  14.084  1.1121 -0.1609  0.7168
  857MPD2     C12580   2.692   2.277  13.512  0.1057 -0.2175  0.6830
  857MPD2    C112581   2.670   2.390  13.437  0.2324  0.5478 -0.1146
  857MPD2    C212582   2.658   2.512  13.503  0.5719  0.4905  0.0889
  857MPD2    C312583   2.671   2.520  13.638  0.2320 -0.1237 -0.5845
  857MPD2    C412584   2.700   2.401  13.713  0.2796 -0.0843 -0.7219
  857MPD2    C512585   2.709   2.284  13.644 -0.3319 -0.0926  0.1230
  857MPD2     H12586   2.636   2.601  13.445 -0.7235 -0.4781 -0.8952
  857MPD2    H112587   2.705   2.399  13.821  2.5741  0.7235 -0.8168
  857MPD2    H212588   2.692   2.181  13.462  0.6261 -0.2280  0.7061
  857MPD2    H312589   2.724   2.195  13.703  4.0911 -1.2972 -2.8458
  857MPD2     N12590   2.660   2.650  13.698 -0.2144  0.1018 -0.3964
  857MPD2    H512591   2.658   2.730  13.635  0.5242  0.3201 -0.1536
  857MPD2    N112592   2.648   2.374  13.297 -0.1141 -0.1096  0.3803
  857MPD2    H712593   2.640   2.279  13.264 -1.3260  0.9296 -2.3893
  858MPD2     C12594   3.014   1.560  16.833 -0.0276  0.3706 -0.2827
  858MPD2    C112595   3.141   1.565  16.889  0.9206 -0.0433  0.7860
  858MPD2    C212596   3.161   1.642  17.004 -0.0013  0.3230  0.0978
  858MPD2    C312597   3.057   1.713  17.062 -0.5559  0.8397 -0.6863
  858MPD2    C412598   2.928   1.699  17.013  0.0336 -0.5499 -0.8028
  858MPD2    C512599   2.915   1.626  16.894 -0.1901 -1.1598  0.1375
  858MPD2     H12600   3.259   1.656  17.050 -1.0438  1.9353  1.8156
  858MPD2    H112601   2.840   1.751  17.050 -0.9709 -3.7657  1.3315
  858MPD2    H212602   2.973   1.493  16.758 -1.7226  0.8814  0.1908
  858MPD2    H312603   2.814   1.609  16.859 -0.9230 -0.9911  2.1391
  858MPD2     N12604   3.081   1.789  17.179 -0.0652 -0.3323 -0.4254
  858MPD2    H512605   3.002   1.842  17.213  3.5089  3.7420  1.4882
  858MPD2    N112606   3.250   1.496  16.838 -0.0146  0.9060  0.1862
  858MPD2    H712607   3.340   1.497  16.883  0.3028 -1.5342 -0.3821
  859MPD2     C12608   2.289   3.660  14.965 -0.1847 -0.0416 -0.0088
  859MPD2    C112609   2.176   3.679  15.032 -0.3014  0.2393  0.0117
  859MPD2    C212610   2.095   3.576  15.074  0.4204  0.3577  0.5346
  859MPD2    C312611   2.132   3.449  15.060 -0.0057  0.2486  0.4241
  859MPD2    C412612   2.260   3.430  15.013 -0.0624 -0.4637  0.0575
  859MPD2    C512613   2.332   3.529  14.963  0.1878  0.5715 -0.8243
  859MPD2     H12614   1.994   3.595  15.110 -0.0353 -0.0386 -0.5198
  859MPD2    H112615   2.309   3.333  15.012 -2.3144 -1.6328  3.2764
  859MPD2    H212616   2.336   3.743  14.912  0.8448 -0.3810  0.3786
  859MPD2    H312617   2.427   3.508  14.915  0.4238 -0.0762 -0.0857
  859MPD2     N12618   2.055   3.343  15.110 -0.0330  0.0051  0.4705
  859MPD2    H512619   2.107   3.257  15.127 -1.8045 -1.6974 -2.8031
  859MPD2    N112620   2.135   3.814  15.052  0.2098  0.2107 -0.7183
  859MPD2    H712621   2.208   3.880  15.025  0.2970  0.4030 -0.0061
  860MPD2     C12622   4.247   4.408  11.946 -0.1230  0.5195 -0.4607
  860MPD2    C112623   4.194   4.433  12.070 -0.2032 -0.7584 -0.3225
  860MPD2    C212624   4.107   4.345  12.119  0.1529  0.2137  0.1859
  860MPD2    C312625   4.074   4.229  12.056 -0.2116  0.2713  0.9170
  860MPD2    C412626   4.129   4.206  11.933 -0.1334 -0.2956  0.7761
  860MPD2    C512627   4.218   4.293  11.876 -0.0827  0.1318 -0.1400
  860MPD2     H12628   4.072   4.373  12.217  0.4464  0.7750  0.1322
  860MPD2    H112629   4.101   4.119  11.875  0.5638 -0.3815  0.5684
  860MPD2    H212630   4.326   4.472  11.909 -0.5032  1.1708 -0.1348
  860MPD2    H312631   4.271   4.283  11.782  1.1238 -0.3982  0.5985
  860MPD2     N12632   3.977   4.150  12.111 -0.6022  0.5447 -0.2329
  860MPD2    H512633   3.931   4.185  12.195 -0.1081  3.2781 -1.0969
  860MPD2    N112634   4.231   4.541  12.150  0.5208 -0.0241  0.1451
  860MPD2    H712635   4.210   4.526  12.248  0.8005 -0.5583  0.1285
  861MPD2     C12636   2.939   2.303  11.406  0.2735 -0.3017 -0.3420
  861MPD2    C112637   3.016   2.413  11.386 -0.4797  0.5411  0.0459
  861MPD2    C212638   2.986   2.507  11.287 -0.3595  0.2632  0.1265
  861MPD2    C312639   2.883   2.480  11.198 -0.5712 -0.2476 -0.2412
  861MPD2    C412640   2.812   2.362  11.217  0.0245 -0.4432 -0.6377
  861MPD2    C512641   2.834   2.279  11.316 -0.3076  0.6365 -0.6833
  861MPD2     H12642   3.055   2.588  11.265 -0.3907 -0.1345 -1.3995
  861MPD2    H112643   2.728   2.343  11.151  0.6640  0.8578 -1.8292
  861MPD2    H212644   2.952   2.237  11.491 -0.3153  0.8474  0.6355
  861MPD2    H312645   2.756   2.207  11.337  0.7876  0.0533  1.4800
  861MPD2     N12646   2.848   2.568  11.086 -0.3515 -0.0898 -0.0639
  861MPD2    H512647   2.763   2.551  11.033  0.8422  1.9495 -2.6062
  861MPD2    N112648   3.108   2.440  11.486 -0.2843  0.3582  0.0744
  861MPD2    H712649   3.096   2.379  11.567 -1.3743 -0.9293 -1.0520
  862MPD2     C12650   2.323   2.723  10.576  0.0100 -0.0177  0.1575
  862MPD2    C112651   2.414   2.644  10.650 -0.3133  0.1775 -0.5390
  862MPD2    C212652   2.401   2.509  10.643 -0.3579 -0.6262  0.0921
  862MPD2    C312653   2.308   2.446  10.560 -0.3962  0.8970  0.1156
  862MPD2    C412654   2.222   2.524  10.487 -0.3889 -0.0967 -0.5447
  862MPD2    C512655   2.232   2.663  10.493 -0.1011  0.0556  0.5256
  862MPD2     H12656   2.465   2.450  10.708  1.9394  2.2641  0.4647
  862MPD2    H112657   2.147   2.480  10.423 -1.8658  0.6797  0.6469
  862MPD2    H212658   2.324   2.831  10.581  1.0277 -0.0066 -0.3824
  862MPD2    H312659   2.159   2.730  10.448 -1.7614 -1.3262  1.1754
  862MPD2     N12660   2.302   2.306  10.553 -0.0202  0.1557  0.1750
  862MPD2    H512661   2.230   2.276  10.489  0.8978  0.2218 -0.8898
  862MPD2    N112662   2.514   2.688  10.740  0.0609 -0.1377  0.1304
  862MPD2    H712663   2.573   2.614  10.777 -2.0598 -2.7920 -1.8381
  863MPD2     C12664   1.245   0.942  17.670 -0.2391 -0.4329  1.0258
  863MPD2    C112665   1.343   1.032  17.629 -0.8191 -0.4136 -0.3399
  863MPD2    C212666   1.461   1.051   0.000  0.0407  0.4164 -0.1461
  863MPD2    C312667   1.481   0.977   0.117  0.1385 -0.1141 -0.1301
  863MPD2    C412668   1.374   0.896   0.166 -0.4330  0.7051  0.3355
  863MPD2    C512669   1.262   0.878   0.086 -0.5700  0.3386 -0.8245
  863MPD2     H12670   1.544   1.104  17.660  0.6055  1.5398  2.1198
  863MPD2    H112671   1.385   0.832   0.254 -0.1507  1.8725  1.1473
  863MPD2    H212672   1.155   0.911  17.618  1.0841  0.5989 -1.9161
  863MPD2    H312673   1.189   0.801   0.107 -0.7533  1.2085  1.6553
  863MPD2     N12674   1.603   0.979   0.186 -0.0909  0.2859 -0.5857
  863MPD2    H512675   1.612   0.900   0.248  0.0531  1.8195  1.3441
  863MPD2    N112676   1.315   1.092  17.512 -0.2001  0.5449 -0.6814
  863MPD2    H712677   1.224   1.073  17.471  0.2729  0.7298 -1.8112
  864MPD2     C12678   1.704   2.463  17.345  0.0844 -0.0660  1.3089
  864MPD2    C112679   1.778   2.362  17.289 -0.4995  0.2950 -0.2671
  864MPD2    C212680   1.881   2.393  17.203  0.8188  0.7563  0.2455
  864MPD2    C312681   1.894   2.524  17.158 -0.2800 -0.2524 -0.3520
  864MPD2    C412682   1.813   2.621  17.202  0.7493 -0.0794 -0.4034
  864MPD2    C512683   1.725   2.596  17.305 -0.2889 -0.7750 -0.8171
  864MPD2     H12684   1.942   2.321  17.150 -0.2637  0.3769 -0.4702
  864MPD2    H112685   1.840   2.724  17.185  0.3817  0.3772  1.7335
  864MPD2    H212686   1.629   2.446  17.421 -0.5917 -0.6971  0.5112
  864MPD2    H312687   1.674   2.683  17.345  2.9085  0.4854  0.4776
  864MPD2     N12688   1.995   2.566  17.068 -0.4318 -0.7713 -0.2189
  864MPD2    H512689   1.983   2.641  17.001  0.2469 -0.2037  0.3022
  864MPD2    N112690   1.750   2.227  17.321 -0.3230 -0.2738 -0.0205
  864MPD2    H712691   1.670   2.218  17.382 -0.4250 -1.6080 -0.3554
  865MPD2     C12692   1.937   2.251  16.135  0.3865  0.1034 -0.5267
  865MPD2    C112693   1.954   2.168  16.243  0.0146 -0.0549 -0.0956
  865MPD2    C212694   1.984   2.220  16.362  0.1205 -0.2304  0.5101
  865MPD2    C312695   2.020   2.358  16.370 -0.6884  0.6925 -0.0902
  865MPD2    C412696   2.011   2.435  16.255 -0.5319 -0.2085 -0.2862
  865MPD2    C512697   1.958   2.384  16.143  0.0108 -0.1298  0.4166
  865MPD2     H12698   2.000   2.166  16.454 -2.0022 -1.2249  0.3009
  865MPD2    H112699   2.028   2.542  16.264  2.4322 -0.5363 -2.1593
  865MPD2    H212700   1.919   2.211  16.036 -0.3565  0.8371 -0.6823
  865MPD2    H312701   1.935   2.441  16.054  1.5364  0.3169  0.2993
  865MPD2     N12702   2.083   2.413  16.484 -0.7298 -0.1832  0.2190
  865MPD2    H512703   2.120   2.504  16.461 -1.3877 -0.4898 -2.0409
  865MPD2    N112704   1.944   2.028  16.232 -0.1297  0.3197 -0.5336
  865MPD2    H712705   1.959   1.984  16.141 -1.4613 -2.6959  0.7265
  866MPD2     C12706   3.831   2.474  11.603  0.9044  0.0283  0.2198
  866MPD2    C112707   3.856   2.493  11.469 -0.2891  0.1977 -0.3672
  866MPD2    C212708   3.763   2.560  11.384 -0.7565 -0.1775  0.2528
  866MPD2    C312709   3.640   2.596  11.437  0.2110 -0.4881  0.3459
  866MPD2    C412710   3.610   2.559  11.567 -0.0078  0.8963  0.5877
  866MPD2    C512711   3.706   2.510  11.648  0.6385 -0.4434 -0.0188
  866MPD2     H12712   3.785   2.576  11.279  1.5898 -1.9654  0.4758
  866MPD2    H112713   3.506   2.557  11.600  0.5866 -1.7504  2.2737
  866MPD2    H212714   3.888   2.402  11.660 -0.6521 -0.0871  1.6347
  866MPD2    H312715   3.671   2.472  11.743  2.6293 -1.5709  0.2362
  866MPD2     N12716   3.532   2.661  11.366 -0.0377 -0.1552  0.1357
  866MPD2    H512717   3.438   2.670  11.402 -0.0081  1.2418 -0.1188
  866MPD2    N112718   3.979   2.452  11.410 -0.2659  0.6163  0.2349
  866MPD2    H712719   3.987   2.463  11.309  2.0090  1.5245  0.5004
  867MPD2     C12720   1.283   2.402  16.790 -0.0391 -0.5260  0.2629
  867MPD2    C112721   1.324   2.413  16.916  0.1530 -0.0610  0.7323
  867MPD2    C212722   1.290   2.525  16.991 -0.1181  1.0892 -0.8370
  867MPD2    C312723   1.202   2.619  16.937 -0.3378  0.3587 -0.0160
  867MPD2    C412724   1.157   2.604  16.811 -0.3262  0.2130 -0.2237
  867MPD2    C512725   1.196   2.492  16.739 -0.2666 -0.2397  0.4358
  867MPD2     H12726   1.340   2.525  17.087 -0.8401 -0.4525 -0.4645
  867MPD2    H112727   1.085   2.672  16.768  1.9456  1.3028 -2.3070
  867MPD2    H212728   1.313   2.315  16.733  3.6007  1.2262 -0.5304
  867MPD2    H312729   1.152   2.485  16.640  1.7039  0.8122 -0.5302
  867MPD2     N12730   1.162   2.735  17.008  0.1410  0.7503  0.0263
  867MPD2    H512731   1.108   2.806  16.958 -2.1233 -0.6791  0.4256
  867MPD2    N112732   1.393   2.303  16.967 -0.4132  0.7009  0.0739
  867MPD2    H712733   1.422   2.238  16.895  0.1603  0.6172  0.3808
  868MPD2     C12734   2.542   1.095  13.177  0.2883  0.1859  0.4009
  868MPD2    C112735   2.633   1.032  13.269  0.4534 -0.1117  0.3702
  868MPD2    C212736   2.593   0.986  13.391 -0.4150  0.4723  0.3230
  868MPD2    C312737   2.455   0.987  13.422  0.2434  0.1328 -0.3909
  868MPD2    C412738   2.367   1.038  13.326 -0.2866  0.6565  0.2554
  868MPD2    C512739   2.410   1.094  13.208  0.2634 -0.2438  0.1699
  868MPD2     H12740   2.659   0.935  13.460  0.3832  0.4750 -0.4310
  868MPD2    H112741   2.258   1.038  13.332 -0.3657 -0.0213 -1.1628
  868MPD2    H212742   2.579   1.128  13.081  1.0601  0.3275  0.7461
  868MPD2    H312743   2.342   1.127  13.131  0.2502 -0.1805  0.2080
  868MPD2     N12744   2.406   0.932  13.545  0.0329 -0.4825 -0.4911
  868MPD2    H512745   2.474   0.898  13.613  0.5393  0.2822 -0.6182
  868MPD2    N112746   2.764   1.024  13.231 -0.0405  0.6610 -0.1953
  868MPD2    H712747   2.788   1.051  13.136  1.3338  0.5988  0.1321
  869MPD2     C12748   3.495   3.192   1.251 -0.2649 -0.7455  0.3768
  869MPD2    C112749   3.369   3.150   1.296 -0.2504 -0.3248  0.5321
  869MPD2    C212750   3.257   3.189   1.220  1.0900 -0.6254  0.4650
  869MPD2    C312751   3.277   3.273   1.109  0.0080 -0.2087  0.4732
  869MPD2    C412752   3.403   3.302   1.063 -0.5884  0.6923  0.5667
  869MPD2    C512753   3.511   3.259   1.134 -0.1748  0.0492 -0.1671
  869MPD2     H12754   3.159   3.172   1.262  0.4729 -0.6832 -0.9752
  869MPD2    H112755   3.423   3.372   0.983 -1.0982 -0.1027 -0.2486
  869MPD2    H212756   3.586   3.168   1.306 -0.4544 -1.5170  0.3406
  869MPD2    H312757   3.615   3.272   1.107 -0.3079  1.3741 -0.0519
  869MPD2     N12758   3.172   3.320   1.032  0.4456  0.2720  0.0839
  869MPD2    H512759   3.207   3.366   0.949  0.8090 -1.2845 -0.6132
  869MPD2    N112760   3.362   3.114   1.434 -0.5783 -0.6092  0.1787
  869MPD2    H712761   3.446   3.079   1.479  0.9671  0.6891 -1.7061
  870MPD2     C12762   1.989   2.992   1.493  0.5362 -0.0096 -0.0391
  870MPD2    C112763   2.101   2.946   1.426 -0.4391  0.2925 -0.5578
  870MPD2    C212764   2.124   3.000   1.296  0.4400  0.4265 -0.0020
  870MPD2    C312765   2.045   3.099   1.244 -0.0205 -0.6164  0.4166
  870MPD2    C412766   1.927   3.137   1.308 -0.3189  0.0147  0.1209
  870MPD2    C512767   1.899   3.083   1.434  0.1053  0.0202 -0.3821
  870MPD2     H12768   2.210   2.979   1.234 -0.1399 -0.0328 -0.6482
  870MPD2    H112769   1.871   3.224   1.274 -0.3124 -0.9281 -2.2655
  870MPD2    H212770   1.967   2.970   1.597  0.5285 -1.3376 -0.3164
  870MPD2    H312771   1.809   3.117   1.484  0.0663 -0.0489 -0.4051
  870MPD2     N12772   2.066   3.135   1.114  0.3707  0.3834  0.5145
  870MPD2    H512773   2.156   3.104   1.077  0.3260 -0.6300  1.2875
  870MPD2    N112774   2.183   2.856   1.496 -0.1781  0.1604 -0.6459
  870MPD2    H712775   2.149   2.812   1.581 -0.3770  1.0698 -0.2465
  871MPD2     C12776   4.096   1.826  16.592 -0.8757 -0.1482  0.2317
  871MPD2    C112777   4.179   1.803  16.698 -0.2349  0.6345 -0.7980
  871MPD2    C212778   4.270   1.705  16.694 -0.0931 -0.5277  0.6917
  871MPD2    C312779   4.287   1.625  16.584  0.1123 -0.2712  0.0581
  871MPD2    C412780   4.207   1.650  16.480  0.1663  0.6376 -0.2476
  871MPD2    C512781   4.116   1.748  16.482 -0.0754  0.4831 -0.3624
  871MPD2     H12782   4.330   1.662  16.774  0.0691 -2.3384 -0.4018
  871MPD2    H112783   4.220   1.592  16.390  1.5636  0.7134 -0.1061
  871MPD2    H212784   4.024   1.907  16.595 -0.6865 -0.0059  0.8419
  871MPD2    H312785   4.047   1.757  16.399  2.4297 -2.6026 -2.7770
  871MPD2     N12786   4.395   1.532  16.582 -0.4389 -0.0662  0.4371
  871MPD2    H512787   4.455   1.508  16.661 -0.0939 -1.7684 -0.3479
  871MPD2    N112788   4.179   1.892  16.810  0.3749 -0.8446  0.1785
  871MPD2    H712789   4.119   1.974  16.802  1.2367  0.0621  3.0193
  872MPD2     C12790   0.726   0.022  14.002 -0.5612 -0.8856 -0.1884
  872MPD2    C112791   0.806   4.636  14.037  0.0342 -0.1156 -0.1943
  872MPD2    C212792   0.751   4.534  14.121  0.8258 -0.0413 -0.2616
  872MPD2    C312793   0.626   4.551  14.168  0.3075 -0.1124 -0.0096
  872MPD2    C412794   0.543   4.654  14.130  0.0176  0.3542  0.3157
  872MPD2    C512795   0.591   0.028  14.039 -0.4612  0.4594  0.3096
  872MPD2     H12796   0.810   4.447  14.144  1.1024  0.3129  0.3751
  872MPD2    H112797   0.444   4.676  14.169  0.1298 -0.4618  1.0628
  872MPD2    H212798   0.757   0.105  13.940  0.4884 -2.2162 -1.4397
  872MPD2    H312799   0.523   0.107  14.009 -1.9301 -1.5339 -1.6643
  872MPD2     N12800   0.562   4.465  14.268  0.0412 -0.7740  0.7693
  872MPD2    H512801   0.463   4.486  14.274  0.3590  0.8292  0.5171
  872MPD2    N112802   0.931   4.616  13.981  0.2501  0.5898 -0.1256
  872MPD2    H712803   0.968   4.524  14.002  1.2244  1.4206  1.7581
  873MPD2     C12804   1.886   3.875   1.094 -0.4044  0.5964 -0.2667
  873MPD2    C112805   1.752   3.870   1.137 -0.5114  0.3617  0.3455
  873MPD2    C212806   1.690   3.744   1.148  0.2633 -0.6854  0.0485
  873MPD2    C312807   1.763   3.631   1.129 -0.4040  0.1707  0.3469
  873MPD2    C412808   1.897   3.633   1.105 -0.3455 -0.3645 -0.7054
  873MPD2    C512809   1.953   3.755   1.080 -0.0377  0.0102 -0.2618
  873MPD2     H12810   1.581   3.742   1.144  0.3297 -0.8198 -1.5785
  873MPD2    H112811   1.945   3.542   1.071  1.4189  0.0097  0.7693
  873MPD2    H212812   1.931   3.972   1.074 -0.5769  0.8363  0.5066
  873MPD2    H312813   2.051   3.757   1.036  0.4198 -0.2109  0.7360
  873MPD2     N12814   1.709   3.501   1.119  0.4271 -0.0419  0.0165
  873MPD2    H512815   1.778   3.434   1.085  1.9706  1.1109  0.8647
  873MPD2    N112816   1.687   3.996   1.155  0.3293  0.8414  0.0458
  873MPD2    H712817   1.753   4.074   1.154  0.6865  0.5620  1.4271
  874MPD2     C12818   1.778   0.269  17.416 -0.2726  0.1265 -0.2507
  874MPD2    C112819   1.889   0.220  17.354 -0.9292 -0.5763 -0.2936
  874MPD2    C212820   2.014   0.270  17.379 -0.5799  0.2361 -0.1007
  874MPD2    C312821   2.031   0.358  17.485 -0.6621  0.8342  0.7765
  874MPD2    C412822   1.920   0.400  17.551 -0.0847  0.2788  0.0811
  874MPD2    C512823   1.796   0.362  17.510  0.0667 -0.1273  0.0456
  874MPD2     H12824   2.097   0.239  17.317 -2.5299 -2.8628 -1.1440
  874MPD2    H112825   1.928   0.470  17.633  0.5392 -2.8345  2.6568
  874MPD2    H212826   1.676   0.243  17.391 -0.2125 -0.7848  0.4417
  874MPD2    H312827   1.704   0.381  17.565 -0.0607  1.2169 -0.6345
  874MPD2     N12828   2.166   0.405  17.516 -0.1744  0.0508  0.3499
  874MPD2    H512829   2.243   0.384  17.454  0.1986 -0.2216  0.9146
  874MPD2    N112830   1.868   0.118  17.264 -0.1440  0.1068  0.1625
  874MPD2    H712831   1.776   0.076  17.259 -0.2304  0.1273  1.6425
  875MPD2     C12832   3.296   2.975  14.928  0.9897 -0.0341  0.2586
  875MPD2    C112833   3.161   2.977  14.951  0.0955 -0.0615  0.0506
  875MPD2    C212834   3.119   3.018  15.083  0.6483  0.0054 -0.3674
  875MPD2    C312835   3.211   3.048  15.180 -0.1043 -0.0558  0.0756
  875MPD2    C412836   3.346   3.045  15.150 -0.5963  0.1119  0.5258
  875MPD2    C512837   3.385   3.006  15.025  0.0546 -0.7249 -0.0050
  875MPD2     H12838   3.016   3.025  15.115  0.7744 -1.1763  0.2893
  875MPD2    H112839   3.425   3.056  15.223  2.0575 -1.1647 -2.1737
  875MPD2    H212840   3.327   2.946  14.828 -1.6026 -1.6640 -0.0791
  875MPD2    H312841   3.486   2.973  15.000  0.4280 -0.6981  1.4747
  875MPD2     N12842   3.179   3.086  15.311 -0.4557 -0.3583 -0.0834
  875MPD2    H512843   3.256   3.135  15.356 -0.2807 -1.8962  1.3126
  875MPD2    N112844   3.068   2.954  14.853 -0.1931 -0.0446 -0.5224
  875MPD2    H712845   2.976   2.986  14.882 -0.6900 -1.1618 -0.8443
  876MPD2     C12846   1.890   4.118  16.007 -0.3413 -0.7936  0.0475
  876MPD2    C112847   2.025   4.094  15.988  0.1961  0.1495 -0.2152
  876MPD2    C212848   2.075   3.979  16.043 -0.4915 -0.2192  0.3191
  876MPD2    C312849   2.001   3.898  16.123  0.3413  0.7567  0.3672
  876MPD2    C412850   1.869   3.930  16.141 -0.3109  0.0554 -0.0408
  876MPD2    C512851   1.808   4.038  16.081  0.8232  0.0513  0.3577
  876MPD2     H12852   2.180   3.955  16.032 -0.4110  1.4191 -2.3478
  876MPD2    H112853   1.801   3.879  16.208 -0.5780 -1.1112 -1.2079
  876MPD2    H212854   1.845   4.209  15.971 -0.6610 -0.8016  0.4227
  876MPD2    H312855   1.702   4.059  16.088  0.7049  0.1771 -1.8372
  876MPD2     N12856   2.062   3.788  16.185 -0.1629 -0.1286  0.5974
  876MPD2    H512857   2.158   3.768  16.160  0.1246  1.7241  0.1957
  876MPD2    N112858   2.107   4.184  15.914 -0.2296  0.2265  0.3043
  876MPD2    H712859   2.066   4.268  15.874 -1.4942 -0.6962 -0.3179
  877MPD2     C12860   2.120   4.712  15.359  0.6574  0.5872 -0.4115
  877MPD2    C112861   2.198   4.599  15.348  0.7302  0.1340 -0.0497
  877MPD2    C212862   2.213   4.535  15.222 -0.0091  0.0813  0.0022
  877MPD2    C312863   2.138   4.574  15.111 -0.5385  0.0046 -0.2821
  877MPD2    C412864   2.062   4.686  15.121 -0.6304  0.5196  0.3711
  877MPD2    C512865   2.051   0.026  15.247 -1.0336 -0.7629 -0.7025
  877MPD2     H12866   2.279   4.450  15.215  2.7329  2.3564 -1.6990
  877MPD2    H112867   2.006   4.724  15.037 -1.9174 -2.3163 -0.0846
  877MPD2    H212868   2.096   0.023  15.458 -0.6767 -0.8800 -0.1779
  877MPD2    H312869   1.994   0.118  15.259  0.3755  0.2446 -1.6863
  877MPD2     N12870   2.122   4.501  14.991 -0.4045 -0.8034 -0.0635
  877MPD2    H512871   2.056   4.545  14.928 -0.8382  0.1929  1.0851
  877MPD2    N112872   2.246   4.530  15.457  0.4821 -0.3964  0.0203
  877MPD2    H712873   2.300   4.449  15.428 -0.0512 -0.9138  0.4637
  878MPD2     C12874   1.515   3.678  12.959  0.1574 -0.4879 -0.4372
  878MPD2    C112875   1.614   3.763  12.994 -0.0209  0.6944  0.5596
  878MPD2    C212876   1.654   3.770  13.132 -0.4719  0.0553 -0.6361
  878MPD2    C312877   1.573   3.723  13.234  0.4658  0.2251 -0.0660
  878MPD2    C412878   1.464   3.644  13.193  0.7446  0.4095  0.6511
  878MPD2    C512879   1.440   3.619  13.057  0.1721 -0.5836 -0.4553
  878MPD2     H12880   1.737   3.833  13.161 -1.4135  0.4189  1.2969
  878MPD2    H112881   1.406   3.587  13.264  0.3463  0.9897  0.7932
  878MPD2    H212882   1.473   3.668  12.860  1.4895  2.2019 -1.2713
  878MPD2    H312883   1.354   3.564  13.021  1.2083 -1.9655 -0.8269
  878MPD2     N12884   1.605   3.747  13.368 -0.6468  0.2072  0.1765
  878MPD2    H512885   1.687   3.795  13.403 -0.7534 -0.1438  0.9154
  878MPD2    N112886   1.684   3.845  12.895 -0.1619  0.5688  0.4770
  878MPD2    H712887   1.660   3.829  12.797  1.3369  0.4341  0.1190
  879MPD2     C12888   1.935   0.961  17.403 -0.1115  0.5685  0.8810
  879MPD2    C112889   1.937   0.889  17.519  0.0676  0.1734 -0.6379
  879MPD2    C212890   1.824   0.822  17.561 -0.2198  0.4038 -0.5304
  879MPD2    C312891   1.702   0.829  17.489 -0.4835  0.7309 -0.3835
  879MPD2    C412892   1.713   0.894  17.365 -0.0113  0.7021 -0.2395
  879MPD2    C512893   1.830   0.956  17.323 -0.2060  0.8284 -0.0586
  879MPD2     H12894   1.818   0.755  17.647  2.6863  1.4661  0.4984
  879MPD2    H112895   1.633   0.901  17.292  0.2297 -2.3911 -0.8024
  879MPD2    H212896   2.005   1.038  17.373  0.2416 -1.3560 -3.2171
  879MPD2    H312897   1.816   1.027  17.242 -0.6710 -0.2366 -0.9103
  879MPD2     N12898   1.587   0.756  17.523  0.3880  0.4610  0.2198
  879MPD2    H512899   1.516   0.768  17.451  0.4407  0.3614  0.1493
  879MPD2    N112900   2.057   0.883  17.587  0.7102  0.1628  0.1735
  879MPD2    H712901   2.142   0.916  17.543  0.0600  2.0044  0.3223
  880MPD2     C12902   2.977   2.013   0.813  0.0872  0.5208 -0.3001
  880MPD2    C112903   2.844   2.056   0.806 -0.2134  0.1345 -0.1142
  880MPD2    C212904   2.749   1.984   0.885 -0.0209 -0.1196 -0.1475
  880MPD2    C312905   2.779   1.870   0.964  0.2171 -1.1720  0.3754
  880MPD2    C412906   2.914   1.836   0.964 -0.5697  0.4222  0.9522
  880MPD2    C512907   3.010   1.906   0.896  0.3874  0.5849 -0.3103
  880MPD2     H12908   2.645   2.014   0.873  0.1954  1.6483  2.5206
  880MPD2    H112909   2.953   1.755   1.025 -3.6817  1.3025  4.1198
  880MPD2    H212910   3.058   2.058   0.757 -0.1399  0.8791 -0.3386
  880MPD2    H312911   3.114   1.878   0.905 -0.0094 -0.2682  1.7557
  880MPD2     N12912   2.679   1.803   1.041  0.1993  0.5170  1.1545
  880MPD2    H512913   2.587   1.847   1.046  0.3224  1.0811 -1.3293
  880MPD2    N112914   2.801   2.165   0.723  0.0853  0.1384  0.0709
  880MPD2    H712915   2.706   2.203   0.724  0.9792  2.3571  0.6677
  881MPD2     C12916   2.998   2.951  17.682  0.2522  0.0450 -0.0617
  881MPD2    C112917   3.084   2.852   0.016 -0.1727 -0.3838 -0.1866
  881MPD2    C212918   3.034   2.759   0.112 -0.0920 -0.1527 -0.1528
  881MPD2    C312919   2.915   2.787   0.177 -0.2149 -0.1792 -0.9894
  881MPD2    C412920   2.852   2.908   0.157  0.8947 -0.4991  0.8697
  881MPD2    C512921   2.898   2.985   0.056  0.4792 -0.5967 -1.0162
  881MPD2     H12922   3.084   2.664   0.124 -1.1024 -0.9438 -2.2851
  881MPD2    H112923   2.768   2.942   0.216 -0.3734 -0.7339 -0.8009
  881MPD2    H212924   3.037   3.009  17.599  0.7437  1.8173  1.4079
  881MPD2    H312925   2.855   3.084   0.044 -0.9915 -1.3880 -2.2527
  881MPD2     N12926   2.862   2.705   0.281 -0.3630 -0.3619 -0.0689
  881MPD2    H512927   2.764   2.716   0.306  0.0616 -0.7017  1.7498
  881MPD2    N112928   3.196   2.820  17.632 -0.2080  0.4833  0.1590
  881MPD2    H712929   3.220   2.898  17.572 -0.5410  0.1154 -0.4582
  882MPD2     C12930   1.839   4.047  14.309 -0.1071 -0.2755  0.0318
  882MPD2    C112931   1.831   4.171  14.371  0.4344  0.0658 -0.2429
  882MPD2    C212932   1.729   4.257  14.335 -0.4607  0.7870  0.1055
  882MPD2    C312933   1.619   4.211  14.265  0.4876 -0.3583 -0.3719
  882MPD2    C412934   1.626   4.087  14.204 -0.5356  0.8758  0.7575
  882MPD2    C512935   1.737   4.008  14.225 -0.0065 -0.3983 -0.4510
  882MPD2     H12936   1.736   4.363  14.357  2.2683  1.2795 -3.0495
  882MPD2    H112937   1.546   4.052  14.139 -0.5112 -1.2508  1.8713
  882MPD2    H212938   1.923   3.981  14.328  1.1376  1.3271  0.0667
  882MPD2    H312939   1.754   3.917  14.168  1.2169 -0.0234 -0.6671
  882MPD2     N12940   1.493   4.276  14.263 -0.3041  0.6855 -0.3356
  882MPD2    H512941   1.414   4.238  14.211  0.8736 -0.5729 -1.2143
  882MPD2    N112942   1.939   4.218  14.450 -0.0572 -0.2001  0.2007
  882MPD2    H712943   2.017   4.154  14.463 -1.0458 -1.3327  0.5489
  883MPD2     C12944   4.105   4.384  16.814  0.2863 -0.2397 -0.0255
  883MPD2    C112945   4.194   4.429  16.720  0.0668  0.3566  0.2985
  883MPD2    C212946   4.320   4.476  16.753  0.7744  0.1521 -0.1740
  883MPD2    C312947   4.365   4.470  16.888 -0.1208  0.8076  0.5076
  883MPD2    C412948   4.273   4.422  16.983  0.3090 -0.1862  0.2712
  883MPD2    C512949   4.151   4.385  16.945  0.2536 -1.0219 -0.5509
  883MPD2     H12950   4.378   4.517  16.671 -1.1011  3.0914 -0.0149
  883MPD2    H112951   4.288   4.425  17.090  1.3844  1.9346  0.0612
  883MPD2    H212952   4.004   4.346  16.800  0.3415 -0.3432 -0.1360
  883MPD2    H312953   4.081   4.364  17.025 -0.6732 -0.0566 -1.1060
  883MPD2     N12954   4.490   4.523  16.922  0.4805 -0.0733 -0.0107
  883MPD2    H512955   4.543   4.562  16.845  0.6560 -0.3467 -0.0303
  883MPD2    N112956   4.143   4.428  16.587 -0.3433 -0.0484 -0.3068
  883MPD2    H712957   4.053   4.384  16.574  0.2053 -1.0510 -0.6918
  884MPD2     C12958   0.907   0.745  15.800 -0.7087 -0.5248 -0.5729
  884MPD2    C112959   0.868   0.677  15.685 -0.4661 -0.6034  0.3346
  884MPD2    C212960   0.774   0.735  15.606  0.2817 -0.4126 -0.7265
  884MPD2    C312961   0.743   0.864  15.622 -0.1686 -0.5574  0.1125
  884MPD2    C412962   0.781   0.936  15.735  0.1179  0.4607 -0.5834
  884MPD2    C512963   0.867   0.873  15.822 -0.3527 -0.6613  0.1301
  884MPD2     H12964   0.750   0.688  15.511 -3.6359 -1.0680  0.6281
  884MPD2    H112965   0.742   1.035  15.757 -0.3808  0.2004 -0.2838
  884MPD2    H212966   0.973   0.709  15.878  1.3671 -0.3030 -2.2220
  884MPD2    H312967   0.896   0.924  15.913  0.1911 -1.0645  0.1843
  884MPD2     N12968   0.675   0.930  15.518  1.0303  0.3422  0.0812
  884MPD2    H512969   0.638   0.882  15.437  0.1673  1.4240 -0.1692
  884MPD2    N112970   0.913   0.546  15.655  0.3686 -0.7971 -0.4932
  884MPD2    H712971   0.876   0.501  15.572 -2.0335 -1.7500  1.0733
  885MPD2     C12972   3.797   1.068   0.107  0.2788  0.5099 -0.5953
  885MPD2    C112973   3.901   0.982   0.089  0.4946 -0.1875 -0.1766
  885MPD2    C212974   3.957   0.981  17.670 -0.0434  0.7796  0.1661
  885MPD2    C312975   3.906   1.056  17.566  0.7820  0.5744  0.5104
  885MPD2    C412976   3.792   1.130  17.582  0.0882  0.3194 -0.4502
  885MPD2    C512977   3.749   1.145   0.008  0.6021  0.3888 -0.1170
  885MPD2     H12978   4.054   0.935  17.655 -0.6661 -0.4584 -0.0577
  885MPD2    H112979   3.753   1.198  17.508 -0.2369  0.2635 -0.3283
  885MPD2    H212980   3.759   1.083   0.207  1.1109  0.2291 -0.2404
  885MPD2    H312981   3.669   1.212   0.038  0.7831  0.7319 -0.3994
  885MPD2     N12982   3.970   1.058  17.439 -0.6683 -0.3689 -0.2231
  885MPD2    H512983   4.051   0.998  17.442 -0.7374 -0.4110  0.8424
  885MPD2    N112984   3.942   0.903   0.195  0.0252 -0.3041 -0.0237
  885MPD2    H712985   3.902   0.934   0.282 -0.8291  0.9573 -0.8691
  886MPD2     C12986   0.720   3.877  15.660  0.6395  0.2119  0.1416
  886MPD2    C112987   0.849   3.917  15.654  0.7660 -0.0278  0.4490
  886MPD2    C212988   0.877   4.049  15.672  0.4408 -0.5142  0.3059
  886MPD2    C312989   0.773   4.146  15.671 -1.0865 -0.2118  0.2707
  886MPD2    C412990   0.641   4.100  15.664  0.1796  0.0320 -0.6549
  886MPD2    C512991   0.617   3.971  15.657  0.2815 -0.3407  0.3628
  886MPD2     H12992   0.979   4.083  15.661  0.3723 -0.5297 -0.4224
  886MPD2    H112993   0.551   4.160  15.663 -1.4940 -2.4682 -1.2996
  886MPD2    H212994   0.681   3.778  15.680  2.0459  0.0898  2.2139
  886MPD2    H312995   0.513   3.941  15.665 -0.0874  0.6639 -0.5990
  886MPD2     N12996   0.796   4.288  15.670  0.3122 -0.0597 -0.5908
  886MPD2    H512997   0.724   4.352  15.640 -0.5841 -1.3432 -1.2037
  886MPD2    N112998   0.963   3.826  15.653 -0.1614  0.1309 -0.2202
  886MPD2    H712999   1.047   3.868  15.692 -1.1665  2.3994 -0.4867
  887MPD2     C13000   1.686   3.796  15.657 -0.2599  0.2101  0.3660
  887MPD2    C113001   1.566   3.859  15.687 -1.0050 -0.2229  0.1457
  887MPD2    C213002   1.565   3.998  15.689 -0.1791  0.4753  0.3127
  887MPD2    C313003   1.683   4.070  15.673  0.1374  0.4513 -0.1173
  887MPD2    C413004   1.800   4.006  15.649  0.4193 -0.4485  0.4571
  887MPD2    C513005   1.800   3.872  15.641 -0.2597  0.3433 -0.3712
  887MPD2     H13006   1.470   4.049  15.694  0.9112  2.4949  0.4544
  887MPD2    H113007   1.888   4.063  15.623  0.4823 -0.2341  1.1343
  887MPD2    H213008   1.692   3.688  15.649  1.1744  0.5200 -3.1387
  887MPD2    H313009   1.895   3.829  15.610 -0.3881 -1.2326  1.4180
  887MPD2     N13010   1.673   4.206  15.671 -0.1199  0.3414 -0.6508
  887MPD2    H513011   1.580   4.243  15.688 -0.8696 -1.4231 -0.8824
  887MPD2    N113012   1.441   3.793  15.706  0.1348  0.3245  0.3158
  887MPD2    H713013   1.365   3.846  15.748 -1.3406 -1.1960 -0.4447
  888MPD2     C13014   3.220   4.225  14.616  0.1267  0.2121  0.2155
  888MPD2    C113015   3.275   4.219  14.746 -0.2720 -0.6759 -0.4394
  888MPD2    C213016   3.325   4.331  14.811  0.5950 -0.6527  0.2019
  888MPD2    C313017   3.348   4.446  14.733  0.1929 -0.7265 -0.2835
  888MPD2    C413018   3.307   4.452  14.604 -0.0501 -0.1052  1.2146
  888MPD2    C513019   3.240   4.340  14.546  0.4340 -1.2905  0.5802
  888MPD2     H13020   3.354   4.319  14.915  0.6555  1.1051  0.3793
  888MPD2    H113021   3.328   4.539  14.543 -0.4343 -0.8412  0.0289
  888MPD2    H213022   3.188   4.141  14.555 -1.6852  1.1709 -0.1588
  888MPD2    H313023   3.224   4.348  14.439  0.4272 -0.0591  0.6789
  888MPD2     N13024   3.431   4.538  14.800  0.4069  0.1582 -0.2647
  888MPD2    H513025   3.434   4.528  14.901 -0.8339 -0.9583 -0.3418
  888MPD2    N113026   3.289   4.093  14.818 -0.2654  0.6254  0.0151
  888MPD2    H713027   3.331   4.095  14.910  0.3088  0.5128 -0.2475
  889MPD2     C13028   2.458   3.340  13.594  0.4017 -0.4295  0.1264
  889MPD2    C113029   2.542   3.363  13.703  0.3240 -0.5252 -0.1603
  889MPD2    C213030   2.501   3.457  13.796 -0.9732 -0.6422  0.6507
  889MPD2    C313031   2.432   3.567  13.747  0.5818  0.2651 -0.1637
  889MPD2    C413032   2.383   3.562  13.618 -0.3067  0.1651  0.0891
  889MPD2    C513033   2.401   3.449  13.540 -0.0165 -0.2186  0.1404
  889MPD2     H13034   2.536   3.469  13.898  0.4403  2.1323 -0.1574
  889MPD2    H113035   2.336   3.651  13.576 -0.9469  0.0555  0.5688
  889MPD2    H213036   2.459   3.251  13.533 -1.4318  0.0135 -0.5595
  889MPD2    H313037   2.345   3.448  13.448 -0.5690 -0.3188  0.4759
  889MPD2     N13038   2.397   3.675  13.844 -0.0051 -0.1633 -0.2391
  889MPD2    H513039   2.437   3.671  13.937 -1.5548 -1.7407  0.3576
  889MPD2    N113040   2.618   3.257  13.751 -0.1917 -0.0570  0.1134
  889MPD2    H713041   2.639   3.260  13.850  0.6841 -1.3306 -0.0349
  890MPD2     C13042   2.678   0.158  15.291  0.7309  0.3864  0.7464
  890MPD2    C113043   2.577   0.190  15.376  0.2716 -0.2894 -1.0032
  890MPD2    C213044   2.590   0.147  15.509  0.3526 -1.0302  0.1491
  890MPD2    C313045   2.703   0.076  15.551 -0.0452 -0.3896 -0.0215
  890MPD2    C413046   2.807   0.055  15.466  0.9329 -0.2338 -0.7426
  890MPD2    C513047   2.793   0.095  15.341  0.1908 -0.2614 -0.8838
  890MPD2     H13048   2.511   0.174  15.579 -0.4463  3.4043 -2.4581
  890MPD2    H113049   2.898   0.006  15.498  0.1557 -0.6491  0.8486
  890MPD2    H213050   2.695   0.181  15.186  1.4543  4.6044  1.7764
  890MPD2    H313051   2.871   0.095  15.266  0.7328 -2.2335 -0.3204
  890MPD2     N13052   2.714   0.042  15.689 -0.2602  0.2956 -0.6160
  890MPD2    H513053   2.638   0.071  15.750  1.9852  0.3335  2.1724
  890MPD2    N113054   2.484   0.289  15.335 -0.7696 -0.2021  0.5835
  890MPD2    H713055   2.504   0.327  15.243  2.6041 -2.1316  0.5073
  891MPD2     C13056   4.686   3.462  16.886 -0.1724  0.7279 -0.3810
  891MPD2    C113057   4.652   3.466  17.020 -0.1396  0.7016 -0.0247
  891MPD2    C213058   0.017   3.524  17.102 -0.1832 -0.7250 -0.3004
  891MPD2    C313059   0.133   3.587  17.062  0.1726 -0.2434 -0.3040
  891MPD2    C413060   0.164   3.583  16.926 -0.1955 -0.0997  0.1050
  891MPD2    C513061   0.077   3.512  16.843  0.0759 -0.0641  0.2069
  891MPD2     H13062   4.718   3.543  17.206 -3.2607 -1.0255 -0.9978
  891MPD2    H113063   0.267   3.594  16.895 -0.0281 -2.4212 -0.1467
  891MPD2    H213064   4.627   3.406  16.815  1.5563  1.5948 -2.4998
  891MPD2    H313065   0.107   3.506  16.738  0.6484 -1.3954  0.4453
  891MPD2     N13066   0.211   3.650  17.167 -0.3317 -0.0594 -0.2849
  891MPD2    H513067   0.175   3.645  17.261  2.7348 -2.3668  0.7434
  891MPD2    N113068   4.522   3.420  17.052 -0.2595  0.2152  0.1805
  891MPD2    H713069   4.467   3.373  16.981 -0.4137  1.4431 -0.5120
  892MPD2     C13070   1.216   4.719  15.052 -0.4573  0.3602 -0.1062
  892MPD2    C113071   1.118   0.013  14.960  1.1679 -0.4255 -0.7689
  892MPD2    C213072   1.116   4.671  14.840  0.0044 -0.4341 -0.1180
  892MPD2    C313073   1.212   4.574  14.806 -0.4810  0.3188 -0.0715
  892MPD2    C413074   1.311   4.556  14.895  0.8303  0.4516  0.9557
  892MPD2    C513075   1.314   4.627  15.015 -0.4780 -0.2751  0.5816
  892MPD2     H13076   1.034   4.695  14.774 -0.8805 -1.6392  0.5398
  892MPD2    H113077   1.383   4.475  14.889  0.3939  0.1302  0.0773
  892MPD2    H213078   1.224   0.037  15.151  1.8480 -0.2626  0.0004
  892MPD2    H313079   1.408   4.620  15.067 -0.1172  1.0495  0.0975
  892MPD2     N13080   1.206   4.499  14.688  0.3960  0.2991  0.2138
  892MPD2    H513081   1.281   4.430  14.684  1.4183  1.4319 -0.1233
  892MPD2    N113082   1.003   0.091  14.984  0.0796 -0.2065  0.2132
  892MPD2    H713083   0.962   0.131  14.900 -1.9849 -1.6609  0.5314
  893MPD2     C13084   1.710   3.484   1.511 -0.7610 -0.5030 -0.0317
  893MPD2    C113085   1.785   3.390   1.578 -0.2470 -0.1147  0.2393
  893MPD2    C213086   1.717   3.284   1.642  0.4799  0.3807  0.2700
  893MPD2    C313087   1.576   3.270   1.649  0.0527 -0.0373  0.1149
  893MPD2    C413088   1.505   3.362   1.577  0.0752 -0.5702 -0.1687
  893MPD2    C513089   1.566   3.466   1.513 -0.1130  0.3911  0.2554
  893MPD2     H13090   1.780   3.206   1.684  0.5915 -0.1343 -0.8777
  893MPD2    H113091   1.398   3.352   1.570  0.1130 -0.9580 -0.2157
  893MPD2    H213092   1.752   3.555   1.441 -0.8767 -1.4818 -1.0810
  893MPD2    H313093   1.509   3.533   1.449  1.9702  1.1887 -0.7774
  893MPD2     N13094   1.521   3.148   1.705  0.3711  0.7951 -0.4407
  893MPD2    H513095   1.432   3.107   1.678 -0.7144  2.7130  0.2110
  893MPD2    N113096   1.925   3.410   1.562 -0.1636 -0.4964 -0.0075
  893MPD2    H713097   1.957   3.488   1.505 -0.3390 -0.1948  0.3071
  894MPD2     C13098   4.346   1.778   1.770  0.4866 -0.2505  0.2943
  894MPD2    C113099   4.446   1.718   1.694 -0.0524 -0.2828 -0.6543
  894MPD2    C213100   4.519   1.796   1.610  0.6711  0.6166  0.0751
  894MPD2    C313101   4.498   1.927   1.589 -0.2502 -0.4273  0.0588
  894MPD2    C413102   4.390   1.987   1.661 -0.1972  0.4565 -0.1554
  894MPD2    C513103   4.322   1.909   1.755  0.2670 -0.0395  0.5504
  894MPD2     H13104   4.594   1.741   1.553 -1.2922  0.9259 -2.8358
  894MPD2    H113105   4.358   2.091   1.656  0.1054  0.5447 -0.3207
  894MPD2    H213106   4.287   1.732   1.849 -1.4755  1.2720 -0.2953
  894MPD2    H313107   4.252   1.953   1.824  0.1199  0.9960 -0.2444
  894MPD2     N13108   4.579   1.988   1.490  0.0752  0.0303 -0.1552
  894MPD2    H513109   4.652   1.929   1.449  0.8260 -0.5559  2.0479
  894MPD2    N113110   4.477   1.576   1.704 -0.9223  0.1039 -0.0518
  894MPD2    H713111   4.563   1.544   1.659 -0.8314  0.9510 -0.4698
  895MPD2     C13112   0.209   4.283  14.034  0.2804 -0.3353  0.0080
  895MPD2    C113113   0.172   4.146  14.016  0.4175 -0.6902  0.0589
  895MPD2    C213114   0.265   4.049  13.983  0.1913  0.2889  0.2054
  895MPD2    C313115   0.403   4.090  13.971  0.5115 -0.4322  0.0027
  895MPD2    C413116   0.438   4.221  13.988 -1.1259 -0.0610 -0.2129
  895MPD2    C513117   0.342   4.317  14.015  0.7734  0.5298  0.3311
  895MPD2     H13118   0.233   3.955  13.939  0.6700  0.5526 -0.7192
  895MPD2    H113119   0.540   4.257  13.978 -1.5801  1.9470  2.1771
  895MPD2    H213120   0.145   4.369  14.047  0.4971 -0.1946  0.1353
  895MPD2    H313121   0.378   4.420  14.015  1.4465  0.2838  2.1325
  895MPD2     N13122   0.507   4.004  13.935  0.1981 -0.2331  0.6853
  895MPD2    H513123   0.578   4.055  13.882  0.9819  0.2097  2.1417
  895MPD2    N113124   0.041   4.099  14.021 -0.4597  0.1450  0.4084
  895MPD2    H713125   0.020   3.999  14.017  0.8690 -0.0708 -1.4856
  896MPD2     C13126   1.599   2.283   1.038 -0.9317  0.6867  0.3915
  896MPD2    C113127   1.625   2.150   1.012 -0.0098  0.3928 -0.5705
  896MPD2    C213128   1.521   2.067   0.976  0.0442  0.7050  0.6022
  896MPD2    C313129   1.390   2.126   0.969  0.1120 -0.3307 -0.8597
  896MPD2    C413130   1.371   2.261   0.985  0.0039 -0.0458 -0.5284
  896MPD2    C513131   1.476   2.337   1.018 -0.8198  0.7284 -0.3598
  896MPD2     H13132   1.537   1.961   0.963  2.4729  1.0725  0.6578
  896MPD2    H113133   1.272   2.302   0.976 -0.6436 -1.7716 -1.2667
  896MPD2    H213134   1.679   2.348   1.071 -0.1466 -1.4236  2.7028
  896MPD2    H313135   1.454   2.443   1.022 -0.1539  0.9018 -1.1339
  896MPD2     N13136   1.282   2.033   0.957  0.3974  0.1237  0.1567
  896MPD2    H513137   1.299   1.934   0.970 -1.4691  0.2784  3.8873
  896MPD2    N113138   1.760   2.108   1.038 -0.0348  0.0344 -0.2699
  896MPD2    H713139   1.825   2.172   1.083 -0.0468  0.7180 -1.2461
  897MPD2     C13140   3.194   3.571  10.508 -0.0612 -0.0702 -0.1413
  897MPD2    C113141   3.251   3.556  10.630 -0.2181  0.0807 -0.2129
  897MPD2    C213142   3.190   3.633  10.731  0.6003  0.1867 -0.6196
  897MPD2    C313143   3.097   3.730  10.708 -0.3641  0.4880 -0.3980
  897MPD2    C413144   3.040   3.728  10.584  0.2600  0.6872  1.1493
  897MPD2    C513145   3.086   3.642  10.487  0.4741 -0.2071  0.0043
  897MPD2     H13146   3.237   3.625  10.828 -1.7209  0.2846  0.5189
  897MPD2    H113147   2.959   3.792  10.554  1.5097  2.1720  0.9416
  897MPD2    H213148   3.235   3.521  10.421  0.0110  1.1777 -0.8280
  897MPD2    H313149   3.048   3.653  10.386 -1.9302 -2.5274  0.6487
  897MPD2     N13150   3.072   3.823  10.811 -0.4242 -0.1434  0.4837
  897MPD2    H513151   3.114   3.816  10.903  0.0503 -0.6800  0.2250
  897MPD2    N113152   3.352   3.465  10.651 -0.0459  0.2434  0.3450
  897MPD2    H713153   3.383   3.398  10.582 -0.2334  0.2999  0.2076
  898MPD2     C13154   1.165   4.371   0.033  0.4144 -0.4830  0.0901
  898MPD2    C113155   1.049   4.302   0.069 -0.2177  0.0194 -0.0946
  898MPD2    C213156   0.954   4.372   0.148  0.3422 -0.9507  0.4975
  898MPD2    C313157   0.977   4.508   0.187  0.3060 -0.2035 -0.9668
  898MPD2    C413158   1.094   4.570   0.142 -0.2835  0.1998 -0.8271
  898MPD2    C513159   1.185   4.501   0.073 -0.7335  0.0362  0.1885
  898MPD2     H13160   0.860   4.325   0.173 -0.6734  1.4560  1.2576
  898MPD2    H113161   1.119   4.670   0.174  2.1822 -0.5822 -0.3513
  898MPD2    H213162   1.246   4.324  17.685  1.1571  1.5390 -0.5688
  898MPD2    H313163   1.275   4.556   0.051  0.2739 -1.5569  0.3610
  898MPD2     N13164   0.878   4.571   0.265 -0.7479  0.0086  0.5368
  898MPD2    H513165   0.800   4.513   0.294 -1.8735 -0.1087 -2.7878
  898MPD2    N113166   1.027   4.162   0.043  0.4763 -0.2718 -0.7962
  898MPD2    H713167   0.945   4.119   0.086  0.0537  0.7486 -0.5792
  899MPD2     C13168   2.104   0.647   0.720 -0.3804  0.8225 -0.1981
  899MPD2    C113169   1.997   0.724   0.709  0.2093  0.1702  0.1446
  899MPD2    C213170   1.880   0.688   0.778 -0.4009 -0.3035 -0.7004
  899MPD2    C313171   1.865   0.568   0.837  0.3084  0.0291 -0.5656
  899MPD2    C413172   1.979   0.496   0.862  0.0756  0.3670  0.2426
  899MPD2    C513173   2.096   0.545   0.807  0.1310 -0.5216 -0.4864
  899MPD2     H13174   1.795   0.755   0.776  0.2276  0.4612 -1.6974
  899MPD2    H113175   1.977   0.409   0.926 -0.5660  1.3564  1.5689
  899MPD2    H213176   2.200   0.673   0.677 -0.8621 -0.9922 -2.3339
  899MPD2    H313177   2.188   0.495   0.834 -0.2164 -1.3127 -0.7538
  899MPD2     N13178   1.735   0.515   0.871 -0.1118  0.0138 -0.4184
  899MPD2    H513179   1.727   0.425   0.916  0.0169  0.5215  0.6075
  899MPD2    N113180   1.996   0.834   0.616  0.5612 -0.1478 -0.3817
  899MPD2    H713181   2.077   0.835   0.554  1.8713 -1.8014  1.3127
  900MPD2     C13182   1.252   2.116  12.776  0.3010  0.7948  0.0359
  900MPD2    C113183   1.233   1.974  12.767  0.1655 -0.1255  0.1095
  900MPD2    C213184   1.115   1.916  12.716 -0.0123  0.1072  0.1100
  900MPD2    C313185   1.011   2.002  12.678 -0.0822  0.1723 -0.6452
  900MPD2    C413186   1.025   2.138  12.690 -0.8929 -0.1960  0.3984
  900MPD2    C513187   1.143   2.190  12.739 -0.1437 -0.1990 -0.4147
  900MPD2     H13188   1.107   1.808  12.723  1.9300 -0.0908 -0.6823
  900MPD2    H113189   0.945   2.202  12.652 -1.6871 -0.8384  0.9978
  900MPD2    H213190   1.337   2.174  12.810  0.0539  1.1329  0.0783
  900MPD2    H313191   1.151   2.298  12.743 -0.9974 -0.1812  0.8325
  900MPD2     N13192   0.888   1.961  12.622 -0.6486  0.7393  0.0143
  900MPD2    H513193   0.816   2.032  12.615  0.2591  1.6322 -0.2570
  900MPD2    N113194   1.348   1.894  12.817 -0.0893 -0.0673  0.3465
  900MPD2    H713195   1.433   1.946  12.838 -0.4705 -0.1306  2.0536
  901MPD2     C13196   1.405   0.938  12.612  0.4438 -0.6815 -0.0354
  901MPD2    C113197   1.485   0.912  12.725 -0.0953  0.3050  0.1366
  901MPD2    C213198   1.525   1.020  12.804 -0.0104 -0.2455  0.4076
  901MPD2    C313199   1.474   1.146  12.773 -0.6736 -0.2726 -1.2857
  901MPD2    C413200   1.392   1.172  12.662 -0.0551  0.2500 -0.8360
  901MPD2    C513201   1.369   1.068  12.581 -0.0033 -0.4559  0.4448
  901MPD2     H13202   1.584   1.015  12.895  0.0692 -0.7775  0.3274
  901MPD2    H113203   1.370   1.276  12.641  1.0172  0.2637 -1.8964
  901MPD2    H213204   1.359   0.861  12.552 -1.6165  0.0197  0.6717
  901MPD2    H313205   1.304   1.069  12.493 -1.6615  0.1427  1.6672
  901MPD2     N13206   1.524   1.254  12.860  0.0472  0.0894  0.3336
  901MPD2    H513207   1.606   1.238  12.918 -0.0455 -3.6059 -0.5143
  901MPD2    N113208   1.514   0.775  12.760  0.3286  0.0878 -0.2183
  901MPD2    H713209   1.478   0.710  12.691  1.7239 -0.3287 -0.5476
  902MPD2     C13210   0.183   4.521  13.648  0.5523 -0.5856 -0.9625
  902MPD2    C113211   0.172   4.581  13.522  0.2412 -0.4892 -0.2481
  902MPD2    C213212   0.166   4.499  13.411  0.1172  0.0739 -0.8151
  902MPD2    C313213   0.174   4.360  13.430  0.0070  0.1366 -0.6549
  902MPD2    C413214   0.196   4.296  13.556  0.2865 -0.4035  0.4541
  902MPD2    C513215   0.205   4.383  13.662 -0.5869 -0.6179  0.1751
  902MPD2     H13216   0.159   4.544  13.313 -0.8978  0.7086 -0.4563
  902MPD2    H113217   0.205   4.190  13.576 -0.8125 -0.0360  2.8797
  902MPD2    H213218   0.189   4.582  13.737 -1.7097 -1.3184 -0.3182
  902MPD2    H313219   0.218   4.329  13.755  1.2066 -0.4130  0.0533
  902MPD2     N13220   0.159   4.271  13.322 -0.3167  0.4131  1.0755
  902MPD2    H513221   0.146   4.172  13.340 -0.2857  0.6461  2.3442
  902MPD2    N113222   0.161   4.726  13.502  1.1983  0.1255 -0.4090
  902MPD2    H713223   0.194   0.043  13.588 -1.3064 -0.5481  0.8966
  903MPD2     C13224   0.313   4.510  12.568  0.6622 -0.4742  0.3085
  903MPD2    C113225   0.189   4.459  12.603 -0.4498  0.9378  0.7652
  903MPD2    C213226   0.079   4.520  12.547  0.8576  0.7327  0.1799
  903MPD2    C313227   0.084   4.623  12.457 -0.0420  0.6799 -0.2279
  903MPD2    C413228   0.206   4.663  12.417 -0.6496  0.4248 -0.6363
  903MPD2    C513229   0.320   4.618  12.485  0.1165  0.4086 -0.5197
  903MPD2     H13230   4.703   4.488  12.564  0.7455  1.4084  0.7965
  903MPD2    H113231   0.226   0.020  12.350  1.1537  0.3239 -0.2336
  903MPD2    H213232   0.400   4.476  12.623  0.8738 -1.6220 -0.7549
  903MPD2    H313233   0.418   4.660  12.467 -0.1066  1.1475  0.0006
  903MPD2     N13234   4.686   4.684  12.415 -0.2102 -0.3735 -0.2065
  903MPD2    H513235   4.598   4.633  12.426 -0.9273  0.7038 -0.9396
  903MPD2    N113236   0.182   4.356  12.701 -0.4059  0.1918  0.4311
  903MPD2    H713237   0.273   4.343  12.745 -0.2071 -1.0427 -0.3135
  904MPD2     C13238   0.191   2.868  14.274 -0.2872 -0.2556  0.1379
  904MPD2    C113239   0.187   2.998  14.324 -0.1827  0.5854  0.3503
  904MPD2    C213240   0.304   3.067  14.345 -0.0807  0.6292  0.2695
  904MPD2    C313241   0.427   3.011  14.296  0.5442  0.2184  0.1236
  904MPD2    C413242   0.429   2.876  14.245 -0.1647  0.2931 -0.5268
  904MPD2    C513243   0.312   2.807  14.248 -0.5167 -0.6739  0.4951
  904MPD2     H13244   0.315   3.165  14.391 -2.5403  0.4691  1.2028
  904MPD2    H113245   0.511   2.819  14.204 -0.9881 -1.3400  0.0809
  904MPD2    H213246   0.095   2.824  14.250  0.5420 -0.4012 -2.9421
  904MPD2    H313247   0.317   2.702  14.220  1.7706 -0.0589 -1.3853
  904MPD2     N13248   0.541   3.092  14.290 -0.1745 -0.1670 -0.7852
  904MPD2    H513249   0.529   3.189  14.315  0.4915 -0.7693  1.8972
  904MPD2    N113250   0.074   3.061  14.373  0.5625 -0.0724  0.3929
  904MPD2    H713251   0.090   3.145  14.427 -0.6068  1.2991 -1.4088
  905MPD2     C13252   4.492   3.410  13.747  0.3077 -0.1793  0.2444
  905MPD2    C113253   4.583   3.455  13.843  0.0645 -0.0161 -0.3678
  905MPD2    C213254   4.683   3.549  13.808 -0.4289  0.5779 -0.1021
  905MPD2    C313255   4.701   3.590  13.677  0.2578 -0.5557  1.2014
  905MPD2    C413256   4.603   3.550  13.589 -0.2496  0.2974  0.3286
  905MPD2    C513257   4.496   3.465  13.624 -0.9824 -0.5350 -0.4971
  905MPD2     H13258   0.039   3.576  13.874 -1.0696  2.2457  0.0126
  905MPD2    H113259   4.607   3.581  13.485 -0.6400 -1.3143 -0.1661
  905MPD2    H213260   4.422   3.330  13.766  2.0017 -2.7821 -4.5094
  905MPD2    H313261   4.424   3.440  13.547 -0.7353 -2.1864 -0.1787
  905MPD2     N13262   0.085   3.659  13.625 -0.1804  0.2562 -0.0925
  905MPD2    H513263   0.094   3.658  13.524 -0.8499  0.5839 -0.1530
  905MPD2    N113264   4.571   3.400  13.971  0.4842 -0.5983 -0.2206
  905MPD2    H713265   4.504   3.324  13.978  3.2220 -3.2263 -2.4459
  906MPD2     C13266   2.279   3.510  11.751  0.5668 -0.2240 -0.0809
  906MPD2    C113267   2.221   3.470  11.634  0.4411 -0.7683  0.0021
  906MPD2    C213268   2.181   3.338  11.636 -0.6062  0.6260  0.5229
  906MPD2    C313269   2.190   3.252  11.747  0.1177 -0.1578  0.0535
  906MPD2    C413270   2.233   3.304  11.863 -0.6143 -0.6180 -0.0601
  906MPD2    C513271   2.293   3.430  11.864  0.4319  0.6669 -0.3769
  906MPD2     H13272   2.125   3.305  11.549  1.2546  0.8521 -0.7766
  906MPD2    H113273   2.226   3.245  11.954  1.4333 -0.1996  0.3612
  906MPD2    H213274   2.312   3.611  11.770 -1.9174  0.7641 -1.0334
  906MPD2    H313275   2.323   3.477  11.957 -2.5785  0.9982  0.4139
  906MPD2     N13276   2.130   3.120  11.754  0.5271 -0.2110 -0.0332
  906MPD2    H513277   2.131   3.076  11.846  0.6998 -0.8565 -0.3470
  906MPD2    N113278   2.201   3.552  11.524  0.2572  0.1423  0.5827
  906MPD2    H713279   2.169   3.517  11.434  1.0738  2.4539 -0.6140
  907MPD2     C13280   1.088   2.745  15.818  0.9673 -0.0153 -0.0918
  907MPD2    C113281   1.201   2.697  15.762 -0.2718  0.7312  0.2308
  907MPD2    C213282   1.322   2.736  15.823  0.1549  0.1476  0.5952
  907MPD2    C313283   1.326   2.835  15.925 -0.4486  0.5766 -0.0680
  907MPD2    C413284   1.210   2.888  15.974 -0.1371 -0.3745 -0.4615
  907MPD2    C513285   1.091   2.833  15.928 -0.5664  0.1594  0.2381
  907MPD2     H13286   1.417   2.704  15.782 -1.1361 -1.5828 -1.0627
  907MPD2    H113287   1.205   2.962  16.053 -1.5063 -0.3637 -0.5473
  907MPD2    H213288   0.988   2.715  15.791  0.8751 -0.2686  0.5236
  907MPD2    H313289   0.998   2.872  15.967 -1.7203 -0.5429 -1.8031
  907MPD2     N13290   1.455   2.873  15.962  0.2542 -0.4497 -0.3579
  907MPD2    H513291   1.533   2.861  15.899 -0.7442  0.6888 -1.7846
  907MPD2    N113292   1.212   2.616  15.649 -0.2874 -0.8672 -0.1972
  907MPD2    H713293   1.302   2.582  15.615 -0.6425 -1.5467 -0.4705
  908MPD2     C13294   3.474   2.594  10.504  0.3201 -0.4001  0.5659
  908MPD2    C113295   3.442   2.709  10.432 -0.6240 -0.0975 -0.2479
  908MPD2    C213296   3.479   2.834  10.481  0.3273 -0.2890  0.4842
  908MPD2    C313297   3.512   2.847  10.616 -0.0261 -0.5269  1.3823
  908MPD2    C413298   3.542   2.731  10.686 -0.3009  0.1677  0.0912
  908MPD2    C513299   3.536   2.607  10.630  0.5200  0.8552  0.3645
  908MPD2     H13300   3.462   2.927  10.427  0.3144  0.0087  1.0030
  908MPD2    H113301   3.576   2.730  10.789  1.4708  0.1067 -0.4823
  908MPD2    H213302   3.468   2.492  10.467  2.9486 -0.2995 -0.1137
  908MPD2    H313303   3.574   2.522  10.686 -0.6679  1.1154  1.5809
  908MPD2     N13304   3.537   2.985  10.660  0.3824 -0.0197 -0.0693
  908MPD2    H513305   3.533   3.062  10.594  1.7400 -1.6055 -2.0041
  908MPD2    N113306   3.388   2.701  10.301 -0.0558  0.5422  0.2824
  908MPD2    H713307   3.402   2.785  10.245 -1.4204  0.0249 -0.8253
  909MPD2     C13308   4.228   1.419  12.625  0.8631 -0.0645  0.0068
  909MPD2    C113309   4.227   1.505  12.517 -0.1351 -0.2756 -0.0319
  909MPD2    C213310   4.128   1.593  12.507 -0.4023  0.1345 -0.6128
  909MPD2    C313311   4.028   1.603  12.597  0.2129  0.4389  0.1361
  909MPD2    C413312   4.031   1.514  12.700 -0.0536  0.3021  0.3745
  909MPD2    C513313   4.128   1.426  12.715 -0.4321 -0.2241 -0.0154
  909MPD2     H13314   4.125   1.663  12.424  1.4085  0.8691 -0.0406
  909MPD2    H113315   3.961   1.513  12.782 -1.7927 -1.4747 -1.1380
  909MPD2    H213316   4.314   1.361  12.655 -0.5266 -1.6391  0.9724
  909MPD2    H313317   4.112   1.357  12.797  0.0577 -0.4828 -0.1371
  909MPD2     N13318   3.932   1.702  12.577  0.1638  0.0606  0.8692
  909MPD2    H513319   3.955   1.755  12.494  2.8606  2.6414  3.2813
  909MPD2    N113320   4.328   1.507  12.413  0.1088 -0.0837 -0.3098
  909MPD2    H713321   4.333   1.569  12.332 -0.8702 -1.7194 -1.6354
  910MPD2     C13322   0.745   2.863  16.291 -0.4359  0.3052 -0.4018
  910MPD2    C113323   0.817   2.776  16.215  0.2163 -0.1557 -0.3465
  910MPD2    C213324   0.763   2.745  16.089  0.0509 -0.5876 -0.0370
  910MPD2    C313325   0.650   2.802  16.031 -0.4282  0.0802 -0.8257
  910MPD2    C413326   0.588   2.894  16.108 -0.0855 -0.0811 -0.1728
  910MPD2    C513327   0.637   2.925  16.233  0.2291 -0.5870  0.3841
  910MPD2     H13328   0.827   2.684  16.026  0.8216  0.7010 -0.5064
  910MPD2    H113329   0.503   2.949  16.071  0.8354  2.2201  1.1423
  910MPD2    H213330   0.771   2.898  16.390  1.3238 -0.1122 -0.7190
  910MPD2    H313331   0.573   2.992  16.290 -1.9926 -1.4655 -1.1188
  910MPD2     N13332   0.598   2.775  15.903 -0.3946  0.2808 -0.0324
  910MPD2    H513333   0.514   2.821  15.869  1.6183  3.1183 -1.1823
  910MPD2    N113334   0.945   2.721  16.245 -0.1386 -0.7896  0.1461
  910MPD2    H713335   0.987   2.654  16.183  0.1440 -1.8495  1.4807
  911MPD2     C13336   3.387   4.363  16.753  0.0895  0.5219  0.2592
  911MPD2    C113337   3.343   4.270  16.660 -0.0549  0.3802 -0.3459
  911MPD2    C213338   3.248   4.307  16.564  0.3971 -0.2064 -0.6037
  911MPD2    C313339   3.180   4.428  16.575 -0.4009 -0.1192 -0.1836
  911MPD2    C413340   3.237   4.523  16.647  0.0786 -0.3150  0.1802
  911MPD2    C513341   3.341   4.492  16.732  0.3242  0.1475 -0.0031
  911MPD2     H13342   3.212   4.227  16.501  1.3565 -0.4111 -0.9043
  911MPD2    H113343   3.207   4.627  16.642 -0.4953 -0.4321  1.3597
  911MPD2    H213344   3.460   4.345  16.831 -0.3674  0.6980  0.7294
  911MPD2    H313345   3.377   4.568  16.800  0.1806 -0.0166  0.2515
  911MPD2     N13346   3.065   4.459  16.501 -0.0817 -0.2011 -0.3814
  911MPD2    H513347   3.035   4.556  16.508  1.1451  0.1617 -0.3112
  911MPD2    N113348   3.403   4.138  16.667 -0.5919 -0.2898 -0.0925
  911MPD2    H713349   3.456   4.121  16.751  0.5111 -0.4465 -0.8158
  912MPD2     C13350   2.743   3.969  15.847  0.1979  0.0844  0.4300
  912MPD2    C113351   2.735   4.002  15.979 -0.1524 -0.3021 -0.1944
  912MPD2    C213352   2.735   3.899  16.075  0.0780 -0.5478 -0.4865
  912MPD2    C313353   2.727   3.764  16.033 -0.6066  0.2279  0.3650
  912MPD2    C413354   2.734   3.734  15.898 -0.2268 -0.9161  0.5488
  912MPD2    C513355   2.742   3.833  15.809 -0.7332 -0.5130  0.2765
  912MPD2     H13356   2.745   3.917  16.181  1.8928  5.7669 -1.7290
  912MPD2    H113357   2.728   3.631  15.866  0.5900 -0.4081 -1.2477
  912MPD2    H213358   2.756   4.040  15.766 -3.6651  1.8277  1.3593
  912MPD2    H313359   2.757   3.823  15.702  0.5817 -2.0411  0.5983
  912MPD2     N13360   2.735   3.666  16.137 -0.0039 -0.1241  0.0732
  912MPD2    H513361   2.748   3.698  16.233 -1.4130 -1.3713  0.6982
  912MPD2    N113362   2.739   4.141  16.009  0.0118 -0.1774 -0.2526
  912MPD2    H713363   2.748   4.210  15.935  2.0011 -1.1579 -0.9415
  913MPD2     C13364   4.038   0.697  11.066 -0.7686 -0.2046 -0.1463
  913MPD2    C113365   3.973   0.584  11.030 -0.0586 -0.8430 -0.2075
  913MPD2    C213366   3.914   0.580  10.899 -0.2236  0.3961 -0.5861
  913MPD2    C313367   3.926   0.690  10.813 -0.1889 -0.5939  0.3546
  913MPD2    C413368   4.000   0.797  10.852 -0.5121  0.0158  0.2212
  913MPD2    C513369   4.045   0.797  10.980  0.1878 -0.7510 -0.3396
  913MPD2     H13370   3.841   0.505  10.873  0.1228 -0.3403  0.5671
  913MPD2    H113371   4.018   0.874  10.778  2.6205 -0.3986  0.5716
  913MPD2    H213372   4.093   0.701  11.159 -2.7735 -0.1768  1.0490
  913MPD2    H313373   4.106   0.881  11.013 -0.2358  0.1670 -1.9067
  913MPD2     N13374   3.879   0.696  10.676 -0.2776  0.0708 -0.1216
  913MPD2    H513375   3.891   0.779  10.618 -2.2807  2.1246  2.4295
  913MPD2    N113376   3.963   0.479  11.125  0.5524 -0.4453 -0.0605
  913MPD2    H713377   3.985   0.500  11.222  3.7095 -0.4733 -0.7741
  914MPD2     C13378   0.969   0.403  12.373 -0.5985  0.0242  0.8893
  914MPD2    C113379   1.060   0.511  12.381  0.2846  0.5566  0.0780
  914MPD2    C213380   1.172   0.503  12.467  0.1494 -0.3514  0.5651
  914MPD2    C313381   1.197   0.395  12.545  0.0009  0.2904  0.3213
  914MPD2    C413382   1.101   0.300  12.550  0.0998  0.6826 -0.2611
  914MPD2    C513383   0.991   0.301  12.461  0.5425 -0.0171  0.4204
  914MPD2     H13384   1.243   0.583  12.455  0.2726 -0.4795  0.4351
  914MPD2    H113385   1.118   0.211  12.609 -0.0748  0.5767 -0.3727
  914MPD2    H213386   0.880   0.401  12.311  0.6985 -0.3380 -0.9455
  914MPD2    H313387   0.934   0.209  12.458  2.2982 -1.1740  3.1421
  914MPD2     N13388   1.309   0.403  12.624 -0.7361 -0.4316 -0.2916
  914MPD2    H513389   1.372   0.480  12.603 -0.3155 -1.3391 -2.3174
  914MPD2    N113390   1.034   0.628  12.303  0.0501 -0.3741  0.0739
  914MPD2    H713391   0.963   0.625  12.230  2.4935  0.8027 -2.3839
  915MPD2     C13392   0.121   0.458  15.864 -0.7214  0.5391  0.0942
  915MPD2    C113393   4.710   0.458  15.858  0.0307 -0.1380 -0.1700
  915MPD2    C213394   4.637   0.495  15.969 -0.6154 -0.3449  0.2899
  915MPD2    C313395   4.707   0.536  16.086 -0.5141  0.9856 -0.2165
  915MPD2    C413396   0.118   0.539  16.089 -0.6257 -0.7164 -0.2165
  915MPD2    C513397   0.187   0.508  15.975  0.2584 -0.3802  0.2758
  915MPD2     H13398   4.530   0.479  15.979 -0.9494  1.2577 -0.7284
  915MPD2    H113399   0.172   0.577  16.175  0.1920 -0.3080 -0.9118
  915MPD2    H213400   0.184   0.430  15.780 -0.3047 -1.5665  1.1036
  915MPD2    H313401   0.296   0.515  15.970  0.3028  0.1658  1.9820
  915MPD2     N13402   4.629   0.552  16.199 -0.1110  0.3080 -0.2232
  915MPD2    H513403   4.528   0.542  16.191 -0.3839 -0.1640  3.7294
  915MPD2    N113404   4.648   0.398  15.746 -0.1768  0.1093 -0.5452
  915MPD2    H713405   4.695   0.381  15.658 -0.6785  0.0165 -0.7953
  916MPD2     C13406   2.439   3.455  15.867  0.3472 -0.3580 -0.5232
  916MPD2    C113407   2.426   3.364  15.975 -1.3063 -0.0514  0.2606
  916MPD2    C213408   2.472   3.232  15.968 -0.0317 -1.1628  0.7971
  916MPD2    C313409   2.532   3.192  15.853  0.1655  0.6478  0.1266
  916MPD2    C413410   2.535   3.280  15.745 -0.7978  0.1043 -0.0028
  916MPD2    C513411   2.483   3.411  15.745  0.2332 -0.6031  0.0992
  916MPD2     H13412   2.463   3.161  16.049 -0.3219 -1.4752  0.4915
  916MPD2    H113413   2.568   3.248  15.647  1.7588  1.9922  0.2431
  916MPD2    H213414   2.403   3.557  15.878  3.3315  0.6537 -0.1459
  916MPD2    H313415   2.491   3.479  15.661  1.3203  0.8517  1.3862
  916MPD2     N13416   2.578   3.057  15.844  0.2410 -0.1309  0.9336
  916MPD2    H513417   2.580   3.010  15.934 -0.3709 -0.0487  0.9934
  916MPD2    N113418   2.368   3.429  16.086 -0.1097  0.2223 -0.2882
  916MPD2    H713419   2.338   3.523  16.063 -0.3333  0.1605 -0.2494
  917MPD2     C13420   2.906   0.831  11.419  1.2490  0.0102 -0.1841
  917MPD2    C113421   2.939   0.951  11.487 -0.1322  0.2222 -0.1651
  917MPD2    C213422   3.016   1.041  11.413 -0.2971  0.3695 -0.1170
  917MPD2    C313423   3.064   1.012  11.290  0.0105  0.7140 -0.5042
  917MPD2    C413424   3.048   0.884  11.234 -0.0855 -0.0213  0.2382
  917MPD2    C513425   2.971   0.796  11.309 -0.1232 -0.2769 -0.0619
  917MPD2     H13426   3.039   1.138  11.455  1.1740  0.1779 -0.4742
  917MPD2    H113427   3.083   0.858  11.135 -0.9932 -2.3698  0.5357
  917MPD2    H213428   2.853   0.751  11.469 -1.1087  0.2887 -2.2292
  917MPD2    H313429   2.939   0.706  11.258 -2.4887  0.7970 -0.4814
  917MPD2     N13430   3.122   1.110  11.208 -0.3215  0.3547  0.3044
  917MPD2    H513431   3.115   1.100  11.107  1.1295 -3.1627  0.5395
  917MPD2    N113432   2.862   0.988  11.597  0.7353 -0.4499  0.2499
  917MPD2    H713433   2.787   0.926  11.627  2.0315 -2.8369 -1.4587
  918MPD2     C13434   3.039   1.704  12.259 -0.1297  0.4222  1.0073
  918MPD2    C113435   3.106   1.584  12.231 -0.2142 -0.1967 -0.1078
  918MPD2    C213436   3.037   1.491  12.161  0.0849 -0.2708  0.7094
  918MPD2    C313437   2.911   1.508  12.109 -0.0771 -1.0785  0.1885
  918MPD2    C413438   2.846   1.627  12.138  0.4600 -0.2134  0.0894
  918MPD2    C513439   2.914   1.726  12.212 -0.4696  0.1773  0.0976
  918MPD2     H13440   3.073   1.389  12.157  2.5526  0.6041  0.7459
  918MPD2    H113441   2.750   1.645  12.092 -1.1193 -0.2721  3.3034
  918MPD2    H213442   3.087   1.779  12.321 -1.6491  1.6473  0.6650
  918MPD2    H313443   2.866   1.821  12.233  1.5899  1.4706 -0.9620
  918MPD2     N13444   2.853   1.403  12.047  0.1329  0.5558 -0.0881
  918MPD2    H513445   2.914   1.322  12.047  0.0078  0.4631  0.7259
  918MPD2    N113446   3.233   1.551  12.287  0.0542  0.1529 -0.3195
  918MPD2    H713447   3.281   1.465  12.260  0.4177 -0.2401  1.5411
  919MPD2     C13448   3.141   0.134  11.747 -0.1707 -0.1693 -0.4100
  919MPD2    C113449   3.191   0.007  11.780  0.0696 -0.2223  0.1301
  919MPD2    C213450   3.218   4.651  11.672  0.4228  0.4000 -0.7773
  919MPD2    C313451   3.192   4.690  11.539  0.5640  0.3448  0.7569
  919MPD2    C413452   3.128   0.088  11.516 -0.0753 -0.8023  0.2842
  919MPD2    C513453   3.091   0.164  11.624 -0.4491  0.2191 -0.4581
  919MPD2     H13454   3.281   4.566  11.696 -0.7980 -0.9041 -2.2171
  919MPD2    H113455   3.102   0.125  11.417 -0.3090  2.3508  1.5266
  919MPD2    H213456   3.138   0.217  11.817 -0.0343  0.4431 -1.1355
  919MPD2    H313457   3.053   0.265  11.613  1.0254  0.7872 -0.3327
  919MPD2     N13458   3.238   4.623  11.424 -0.2656 -0.2556  0.3848
  919MPD2    H513459   3.222   4.668  11.335 -3.1376 -0.7705  0.6605
  919MPD2    N113460   3.223   4.690  11.912 -0.2451  0.0922 -0.2750
  919MPD2    H713461   3.283   4.608  11.917  1.7748  1.5455 -0.6162
  920MPD2     C13462   3.415   3.932  10.638  0.0401  0.0266  0.6543
  920MPD2    C113463   3.335   4.035  10.611  0.5203  0.8239 -0.1725
  920MPD2    C213464   3.318   4.135  10.702 -0.4453  0.3794 -0.1149
  920MPD2    C313465   3.390   4.128  10.817 -0.2113  0.2137 -1.1341
  920MPD2    C413466   3.461   4.012  10.842 -0.1120  0.0329  0.4141
  920MPD2    C513467   3.471   3.904  10.759  0.2842  0.1974  0.2830
  920MPD2     H13468   3.260   4.224  10.679  0.5606  1.5747  1.9154
  920MPD2    H113469   3.532   3.998  10.923 -0.4082 -0.0449  0.6599
  920MPD2    H213470   3.434   3.856  10.563 -0.1466 -0.6488  1.2892
  920MPD2    H313471   3.530   3.813  10.771 -0.3053 -0.5524 -2.4900
  920MPD2     N13472   3.386   4.242  10.902  0.1362 -0.1605 -0.1373
  920MPD2    H513473   3.347   4.331  10.870  1.8336  0.5650 -0.1875
  920MPD2    N113474   3.269   4.043  10.487 -0.3700  0.7204 -0.2460
  920MPD2    H713475   3.214   4.128  10.477 -0.0849  0.9538  0.1467
  921MPD2     C13476   4.098   3.909  17.117  0.0040 -0.3047  0.1294
  921MPD2    C113477   4.019   3.788  17.138 -0.0705 -0.4673 -0.3213
  921MPD2    C213478   3.902   3.779  17.062  0.0740  0.2670  0.0755
  921MPD2    C313479   3.865   3.883  16.976 -0.7607  0.5282  0.4997
  921MPD2    C413480   3.941   3.995  16.957 -0.3358 -0.5183 -0.5720
  921MPD2    C513481   4.059   4.007  17.025 -0.0490 -0.1192 -0.0764
  921MPD2     H13482   3.836   3.693  17.065  0.4258 -0.0511 -1.1335
  921MPD2    H113483   3.913   4.085  16.902  0.7588  0.0569 -0.1861
  921MPD2    H213484   4.189   3.911  17.176  0.0395 -0.2018  0.0718
  921MPD2    H313485   4.115   4.098  17.010 -2.0144  0.9858 -0.7796
  921MPD2     N13486   3.746   3.882  16.903 -0.5231  0.7663 -0.2538
  921MPD2    H513487   3.733   3.949  16.828 -1.4363 -0.5495 -1.2612
  921MPD2    N113488   4.076   3.674  17.205  0.0075  0.7579 -0.4080
  921MPD2    H713489   4.172   3.689  17.234  0.1577 -0.1945 -0.4196
  922MPD2     C13490   0.272   1.395  17.050  0.0636  0.3475 -0.1510
  922MPD2    C113491   0.272   1.467  17.166 -0.4450  0.8039  0.0315
  922MPD2    C213492   0.223   1.416  17.283 -0.2572 -0.8950  0.4064
  922MPD2    C313493   0.179   1.284  17.285 -0.4996  0.2486  0.4594
  922MPD2    C413494   0.176   1.215  17.166 -0.0545  0.5719 -0.1612
  922MPD2    C513495   0.224   1.272  17.050  0.0186  0.1872 -0.1534
  922MPD2     H13496   0.229   1.478  17.372  1.4184  0.5551 -0.7075
  922MPD2    H113497   0.140   1.113  17.158 -0.5681  0.4280  3.7313
  922MPD2    H213498   0.315   1.430  16.957  0.3534  0.2153 -0.0638
  922MPD2    H313499   0.217   1.214  16.959  2.7412  0.1876 -0.3529
  922MPD2     N13500   0.139   1.222  17.401  0.2250 -0.3263 -0.1944
  922MPD2    H513501   0.054   1.170  17.382  1.5331 -1.9048 -1.8128
  922MPD2    N113502   0.310   1.604  17.178 -0.2586  0.0458  0.0786
  922MPD2    H713503   0.304   1.630  17.276  2.0827 -0.5499  0.3865
  923MPD2     C13504   1.173   3.978   9.738 -0.0117  0.5781  1.2925
  923MPD2    C113505   1.272   4.071   9.775 -0.2981 -0.2798  0.2401
  923MPD2    C213506   1.392   4.030   9.828 -0.0497 -0.1915  1.0047
  923MPD2    C313507   1.427   3.897   9.837 -0.5657 -0.0405 -0.1834
  923MPD2    C413508   1.328   3.798   9.820 -0.1795  0.1592 -0.1051
  923MPD2    C513509   1.205   3.844   9.763  0.7506  0.2522 -0.3602
  923MPD2     H13510   1.466   4.105   9.856  0.4376  0.3008 -1.6306
  923MPD2    H113511   1.335   3.691   9.829 -0.3021 -0.0037 -1.8559
  923MPD2    H213512   1.078   4.010   9.696  1.2330  2.4168 -0.1068
  923MPD2    H313513   1.126   3.773   9.743  1.2125 -0.7923  1.5602
  923MPD2     N13514   1.557   3.863   9.891 -0.2490 -0.3802  0.5829
  923MPD2    H513515   1.627   3.934   9.907 -0.7002 -0.3248  2.2556
  923MPD2    N113516   1.228   4.208   9.778  1.1137 -0.2708 -0.2499
  923MPD2    H713517   1.147   4.239   9.726 -0.0498 -0.0999  1.6845
  924MPD2     C13518   2.188   3.334  15.484  0.0185  0.3579  0.3122
  924MPD2    C113519   2.169   3.206  15.534 -0.3362  0.5823 -0.0696
  924MPD2    C213520   2.046   3.164  15.574 -0.4719  0.0741 -0.0355
  924MPD2    C313521   1.941   3.259  15.588 -0.1467  0.1704  0.1160
  924MPD2    C413522   1.963   3.384  15.539 -0.4757 -0.3759  0.0372
  924MPD2    C513523   2.085   3.416  15.489  0.2096 -0.2024 -0.3952
  924MPD2     H13524   2.028   3.068  15.621  1.7365 -0.4127 -0.1703
  924MPD2    H113525   1.886   3.461  15.536 -2.7561 -2.5669  3.1128
  924MPD2    H213526   2.279   3.372  15.439  1.0071 -0.2502  1.7929
  924MPD2    H313527   2.100   3.508  15.433  2.1744 -1.2788 -1.6624
  924MPD2     N13528   1.826   3.237  15.660  0.4134  0.8577  0.3201
  924MPD2    H513529   1.754   3.308  15.647 -0.2974 -0.3643 -2.5333
  924MPD2    N113530   2.278   3.120  15.525  0.7224 -0.0247  0.1885
  924MPD2    H713531   2.345   3.151  15.455  2.1484 -2.0170  0.6799
  925MPD2     C13532   0.709   4.132  15.069  0.0279  0.0954 -0.2074
  925MPD2    C113533   0.580   4.162  15.040 -0.1648  0.9721  0.1914
  925MPD2    C213534   0.491   4.175  15.145  0.0974  0.0522 -0.4198
  925MPD2    C313535   0.517   4.125  15.271 -0.5651  0.2825 -0.1844
  925MPD2    C413536   0.646   4.085  15.296  0.1118  0.3505 -0.4506
  925MPD2    C513537   0.745   4.108  15.202 -0.0382  0.1121 -0.0483
  925MPD2     H13538   0.399   4.216  15.106  0.6979  1.7755 -0.0349
  925MPD2    H113539   0.681   4.052  15.394 -0.4280  1.2033  0.0252
  925MPD2    H213540   0.789   4.142  14.997  1.1888 -1.3249  0.8891
  925MPD2    H313541   0.849   4.084  15.220 -0.0493  1.0445  1.3132
  925MPD2     N13542   0.415   4.108  15.373 -0.0092  0.4523 -0.1706
  925MPD2    H513543   0.453   4.069  15.458  0.4605 -1.1802 -1.1265
  925MPD2    N113544   0.529   4.188  14.907  0.1294  0.4630 -0.5472
  925MPD2    H713545   0.443   4.240  14.899 -0.1796 -0.1364 -1.1121
  926MPD2     C13546   3.713   2.621  13.528 -0.0426  0.0715 -0.5027
  926MPD2    C113547   3.687   2.756  13.545  0.6319 -0.2358 -1.0890
  926MPD2    C213548   3.669   2.839  13.429  0.9957 -0.7476 -0.6657
  926MPD2    C313549   3.688   2.784  13.299  0.4664  0.3575 -0.4485
  926MPD2    C413550   3.724   2.654  13.290 -0.4677 -0.4147  0.2970
  926MPD2    C513551   3.732   2.572  13.401 -0.0877 -0.6709  0.2752
  926MPD2     H13552   3.660   2.945  13.450 -2.4821 -0.3979 -3.7587
  926MPD2    H113553   3.741   2.604  13.195 -1.5261 -0.3670  0.0802
  926MPD2    H213554   3.732   2.563  13.617  0.1891 -1.4880 -1.5858
  926MPD2    H313555   3.762   2.469  13.385  0.4111 -0.1320 -2.3319
  926MPD2     N13556   3.685   2.864  13.183 -0.8093 -0.3680  0.0838
  926MPD2    H513557   3.714   2.828  13.093  0.8294  2.3132 -0.4786
  926MPD2    N113558   3.708   2.818  13.670 -0.5038  0.0075  0.4292
  926MPD2    H713559   3.731   2.916  13.665  0.2092 -0.0765  2.0949
  927MPD2     C13560   3.648   4.599   0.477  0.7604 -0.8472  0.3632
  927MPD2    C113561   3.663   0.004   0.477  0.2825 -0.4117  0.0142
  927MPD2    C213562   3.764   0.055   0.401 -0.6473 -0.0241  0.1203
  927MPD2    C313563   3.827   4.710   0.303  0.4594  0.8799  0.1148
  927MPD2    C413564   3.809   4.577   0.296  0.1251 -0.3388 -0.5578
  927MPD2    C513565   3.715   4.535   0.381  0.0299  0.6370  0.3512
  927MPD2     H13566   3.788   0.160   0.411 -1.4766  0.0628  1.2189
  927MPD2    H113567   3.849   4.520   0.214  0.7836  0.0092 -0.4780
  927MPD2    H213568   3.568   4.547   0.528  0.9446 -0.5873  0.9087
  927MPD2    H313569   3.694   4.430   0.362  1.9168  0.7535 -2.4104
  927MPD2     N13570   3.908   0.053   0.212  0.1583 -0.3362 -0.0378
  927MPD2    H513571   3.906   0.155   0.209 -0.2225 -0.3076  1.1625
  927MPD2    N113572   3.566   0.085   0.547  0.3470 -0.0089 -0.1770
  927MPD2    H713573   3.489   0.033   0.588  0.9963 -0.0949  0.9577
  928MPD2     C13574   1.003   2.735   0.654 -0.0768  0.1799 -0.0856
  928MPD2    C113575   0.928   2.833   0.709 -0.0302  0.1817 -0.4387
  928MPD2    C213576   0.967   2.960   0.693 -0.8700 -0.4613 -0.3840
  928MPD2    C313577   1.078   2.999   0.614 -0.6360 -0.1317 -0.5822
  928MPD2    C413578   1.145   2.894   0.549 -0.3953 -0.6438 -0.8006
  928MPD2    C513579   1.107   2.769   0.567  0.3153 -0.3390  0.3380
  928MPD2     H13580   0.903   3.035   0.739  0.1219  0.3954 -0.4086
  928MPD2    H113581   1.228   2.899   0.480  0.5556 -2.7818  0.1854
  928MPD2    H213582   0.978   2.630   0.664 -0.9086  0.4994  1.2881
  928MPD2    H313583   1.159   2.688   0.516 -1.4161 -0.4018 -1.3592
  928MPD2     N13584   1.130   3.128   0.588  0.5278  0.0079  0.3420
  928MPD2    H513585   1.202   3.134   0.516 -2.2095  0.0007 -2.3927
  928MPD2    N113586   0.813   2.785   0.776  0.0372 -0.6813  0.0378
  928MPD2    H713587   0.788   2.687   0.761  2.2778 -1.1597 -0.6492
  929MPD2     C13588   1.469   3.446  11.123  0.3677 -0.4865 -0.0537
  929MPD2    C113589   1.364   3.380  11.072 -0.1976 -0.2937 -0.1934
  929MPD2    C213590   1.280   3.443  10.982 -0.1708  0.0393  0.1289
  929MPD2    C313591   1.315   3.568  10.930  0.9159  0.6518 -0.1592
  929MPD2    C413592   1.423   3.630  10.979  0.6832 -0.2045 -0.2709
  929MPD2    C513593   1.495   3.576  11.080  0.1624 -0.5581  1.0894
  929MPD2     H13594   1.201   3.381  10.942 -0.4240 -0.4319  1.3725
  929MPD2    H113595   1.451   3.724  10.933 -1.0136  0.7446  0.6270
  929MPD2    H213596   1.527   3.395  11.199  0.3157  1.7464  1.4658
  929MPD2    H313597   1.585   3.616  11.125  0.8617 -0.1433 -0.6681
  929MPD2     N13598   1.244   3.634  10.826 -0.2263  0.6027 -0.9598
  929MPD2    H513599   1.293   3.712  10.782  0.5175  1.1527  0.8215
  929MPD2    N113600   1.341   3.254  11.131  0.3055  0.3326 -0.0330
  929MPD2    H713601   1.407   3.222  11.201  1.4283  0.5547 -0.9811
  930MPD2     C13602   3.107   0.853  14.478  0.3506 -0.8650  0.7486
  930MPD2    C113603   3.219   0.903  14.414 -0.1906 -0.4129 -0.7715
  930MPD2    C213604   3.226   0.892  14.280  0.3971 -0.3891  0.4568
  930MPD2    C313605   3.124   0.829  14.206  0.0378  0.2078  0.8786
  930MPD2    C413606   3.015   0.778  14.274 -0.2651  0.1991  0.3910
  930MPD2    C513607   2.998   0.800  14.408 -0.5759  0.1694 -0.1945
  930MPD2     H13608   3.311   0.931  14.226 -0.3300  0.7496  0.1328
  930MPD2    H113609   2.932   0.732  14.222  0.0411  0.9727 -0.7761
  930MPD2    H213610   3.089   0.837  14.584  2.9307 -0.2868  1.2642
  930MPD2    H313611   2.906   0.776  14.460 -2.0321  2.4867 -1.7018
  930MPD2     N13612   3.112   0.813  14.067 -0.1055 -0.1726 -0.1289
  930MPD2    H513613   3.027   0.769  14.034 -0.0761 -0.8440  0.6781
  930MPD2    N113614   3.336   0.960  14.484  0.3530  0.2160  0.1836
  930MPD2    H713615   3.419   0.976  14.429 -1.2395 -1.6755 -2.7952
  931MPD2     C13616   3.376   4.572   1.082  0.2820  0.6002  0.1369
  931MPD2    C113617   3.275   4.641   1.030  0.0924 -0.5821  0.1774
  931MPD2    C213618   3.145   4.595   1.059  0.5570  0.1848 -0.2929
  931MPD2    C313619   3.121   4.497   1.155  0.5983 -0.0631  0.2432
  931MPD2    C413620   3.225   4.426   1.208  0.2134  0.4018  0.1537
  931MPD2    C513621   3.353   4.462   1.166  0.0485 -0.4124  0.3291
  931MPD2     H13622   3.065   4.654   1.015 -1.0132 -0.3305  1.8819
  931MPD2    H113623   3.208   4.350   1.283  1.8305 -0.8417 -0.7558
  931MPD2    H213624   3.480   4.600   1.069  0.4471  0.5996  1.4690
  931MPD2    H313625   3.436   4.414   1.217  1.9562  1.4947 -0.9931
  931MPD2     N13626   2.986   4.459   1.195 -0.3241  0.1132 -0.3918
  931MPD2    H513627   2.969   4.383   1.259 -1.0001 -0.3382 -1.1193
  931MPD2    N113628   3.304   0.017   0.938 -0.1900  0.5627  0.2908
  931MPD2    H713629   3.405   0.023   0.922 -0.1751 -3.2117 -1.2482
  932MPD2     C13630   0.400   4.202  11.863 -0.5034 -0.1706  0.0088
  932MPD2    C113631   0.496   4.201  11.966  0.6921  0.5434  0.0537
  932MPD2    C213632   0.513   4.083  12.038 -0.7252 -0.0744  1.0020
  932MPD2    C313633   0.447   3.969  12.005 -0.0032  0.3390 -0.2285
  932MPD2    C413634   0.347   3.972  11.906 -0.4945  0.2509 -0.8156
  932MPD2    C513635   0.328   4.089  11.838 -0.2396 -0.5775  0.0711
  932MPD2     H13636   0.591   4.081  12.113  0.4648 -1.8874 -0.3172
  932MPD2    H113637   0.283   3.887  11.887 -0.7307 -0.2693  2.3465
  932MPD2    H213638   0.379   4.289  11.802  1.7338 -0.7974 -1.6522
  932MPD2    H313639   0.252   4.101  11.761  0.4054  0.4066 -0.4264
  932MPD2     N13640   0.466   3.848  12.071  0.1522 -0.5421  0.3823
  932MPD2    H513641   0.393   3.778  12.060 -0.2421  0.0003 -0.4968
  932MPD2    N113642   0.553   4.326  11.999  0.4260 -0.0675 -0.2827
  932MPD2    H713643   0.530   4.405  11.938 -0.5953  0.4234  0.7507
  933MPD2     C13644   0.013   2.776   1.250  0.7617 -0.4441  0.1650
  933MPD2    C113645   0.079   2.874   1.179 -0.8827  0.0009  0.3810
  933MPD2    C213646   0.023   2.997   1.158  0.4048 -0.2500 -0.3313
  933MPD2    C313647   4.632   3.030   1.223 -0.2134 -0.2371  0.4329
  933MPD2    C413648   4.573   2.934   1.301  0.0492 -0.8053  0.1179
  933MPD2    C513649   4.620   2.805   1.303  0.4774 -0.7398  0.0639
  933MPD2     H13650   0.074   3.074   1.101 -0.3280  1.6967  1.6202
  933MPD2    H113651   4.489   2.951   1.368 -0.2462 -1.9520  0.0352
  933MPD2    H213652   0.047   2.674   1.266 -0.0317 -0.3847  2.1664
  933MPD2    H313653   4.575   2.737   1.373 -0.0352  1.5059  1.9125
  933MPD2     N13654   4.577   3.155   1.199  0.1798  0.7095  0.6440
  933MPD2    H513655   4.638   3.228   1.164  1.6663  0.9350  3.6927
  933MPD2    N113656   0.202   2.838   1.130 -0.0351  0.7265 -0.3607
  933MPD2    H713657   0.243   2.752   1.164 -0.1035  0.1276 -1.8192
  934MPD2     C13658   1.464   1.960   1.720 -0.0453  0.2121  0.4171
  934MPD2    C113659   1.492   1.827   1.692  0.2524  0.0599  0.4767
  934MPD2    C213660   1.390   1.753   1.631  1.1205  0.0079 -0.3144
  934MPD2    C313661   1.260   1.814   1.601 -0.3062 -0.0672  0.3982
  934MPD2    C413662   1.239   1.941   1.639 -0.5049 -0.2202  0.4780
  934MPD2    C513663   1.338   2.009   1.698 -0.5023  0.1449  0.0966
  934MPD2     H13664   1.413   1.652   1.598  1.1456 -0.6483  1.7305
  934MPD2    H113665   1.143   1.985   1.618 -0.6663 -0.4233  0.7943
  934MPD2    H213666   1.547   2.020   1.755  0.2806 -0.7811  1.3655
  934MPD2    H313667   1.325   2.113   1.725  0.6308  0.5960 -1.1369
  934MPD2     N13668   1.159   1.743   1.528 -0.5284 -0.1485 -0.0164
  934MPD2    H513669   1.077   1.800   1.510  0.0749  0.5877 -0.4197
  934MPD2    N113670   1.618   1.767   1.702  0.1744 -0.5307  0.1598
  934MPD2    H713671   1.639   1.672   1.672  0.9065 -0.2638 -0.1659
  935MPD2     C13672   0.450   0.888   1.459 -0.3924 -0.9317 -0.0852
  935MPD2    C113673   0.581   0.876   1.483 -0.1689  0.2301  0.4067
  935MPD2    C213674   0.667   0.987   1.473  0.0287  0.0267  0.4801
  935MPD2    C313675   0.618   1.114   1.449  0.3874  0.0164 -0.0702
  935MPD2    C413676   0.482   1.121   1.438  0.7114 -0.3905 -0.1534
  935MPD2    C513677   0.400   1.009   1.450 -0.4913 -0.6774 -0.3985
  935MPD2     H13678   0.772   0.973   1.493  0.5072  1.3466 -1.1865
  935MPD2    H113679   0.436   1.219   1.431  0.8625 -0.2424  1.0010
  935MPD2    H213680   0.368   0.818   1.466 -1.6933  0.4665 -1.4256
  935MPD2    H313681   0.292   1.018   1.454 -0.4845 -0.0591 -1.5304
  935MPD2     N13682   0.694   1.235   1.443  0.1387 -0.2955  0.0369
  935MPD2    H513683   0.637   1.310   1.404 -2.2871 -1.3084  1.7225
  935MPD2    N113684   0.643   0.754   1.521 -0.1922 -0.0125 -0.0373
  935MPD2    H713685   0.744   0.756   1.535  0.1283 -0.5458 -2.1877
  936MPD2     C13686   1.341   2.532  12.658  0.0604  0.1509  0.3217
  936MPD2    C113687   1.315   2.661  12.714 -0.0118 -1.0396  0.7685
  936MPD2    C213688   1.415   2.752  12.726 -0.1328 -0.6548  0.3826
  936MPD2    C313689   1.546   2.714  12.705 -0.1033 -0.2276 -0.6695
  936MPD2    C413690   1.575   2.592  12.646  0.0548  0.6380  0.3377
  936MPD2    C513691   1.468   2.505  12.613 -0.4193 -0.2889  0.7323
  936MPD2     H13692   1.389   2.852  12.759 -0.5516 -0.7556  0.3576
  936MPD2    H113693   1.672   2.553  12.617 -0.5134 -0.4230 -0.1408
  936MPD2    H213694   1.266   2.455  12.646 -0.2587  0.6980 -1.1676
  936MPD2    H313695   1.492   2.410  12.567 -0.4467 -0.2420  0.6199
  936MPD2     N13696   1.646   2.793  12.757 -0.2342  0.3814 -0.6330
  936MPD2    H513697   1.743   2.766  12.742 -0.3190 -0.8891  1.1131
  936MPD2    N113698   1.190   2.701  12.770 -0.4490 -0.7627  0.0904
  936MPD2    H713699   1.181   2.797  12.803  1.2065 -0.3461 -0.6667
  937MPD2     C13700   3.390   4.068  12.173  0.0322 -0.0169  0.2501
  937MPD2    C113701   3.401   4.182  12.098  0.5386 -0.9490  0.4644
  937MPD2    C213702   3.498   4.182  11.996 -0.2388 -0.4264  0.3033
  937MPD2    C313703   3.548   4.068  11.945 -0.3260  0.2943  0.2383
  937MPD2    C413704   3.505   3.951  12.001  0.4384  0.5867 -0.2928
  937MPD2    C513705   3.429   3.947  12.115  0.6665 -0.1054 -0.2412
  937MPD2     H13706   3.535   4.275  11.955  0.6718 -0.5352  0.8771
  937MPD2    H113707   3.529   3.853  11.962 -1.1320  1.4880 -3.5575
  937MPD2    H213708   3.323   4.065  12.258 -1.3038  0.5323 -0.7819
  937MPD2    H313709   3.427   3.850  12.165  0.4570 -0.8175 -1.6528
  937MPD2     N13710   3.630   4.069  11.829  0.4147 -0.4542 -0.1792
  937MPD2    H513711   3.637   4.155  11.776 -0.8782 -1.1343 -1.4834
  937MPD2    N113712   3.343   4.311  12.129  0.4618 -0.0287  0.2314
  937MPD2    H713713   3.354   4.377  12.052  1.6453 -0.8741 -0.3346
  938MPD2     C13714   0.700   0.314   1.251  0.2134 -0.1008 -0.1737
  938MPD2    C113715   0.577   0.378   1.274 -0.0569 -0.0729  0.0946
  938MPD2    C213716   0.479   0.311   1.348  0.3791  0.1876  0.2874
  938MPD2    C313717   0.509   0.183   1.398 -0.3643  0.3617 -0.1761
  938MPD2    C413718   0.625   0.119   1.363 -0.3057  0.0598  0.0069
  938MPD2    C513719   0.723   0.190   1.294  0.5364  0.1986 -0.2253
  938MPD2     H13720   0.388   0.364   1.377 -0.1867 -1.4515  1.4828
  938MPD2    H113721   0.640   0.021   1.408 -2.4123 -0.0605  0.4381
  938MPD2    H213722   0.787   0.347   1.196  0.0328  1.2712  0.3387
  938MPD2    H313723   0.813   0.140   1.260 -0.4658 -1.8973  0.2041
  938MPD2     N13724   0.428   0.106   1.490 -0.5900  0.6100 -0.4427
  938MPD2    H513725   0.454   0.010   1.509 -2.0520  0.5376  1.1912
  938MPD2    N113726   0.550   0.513   1.231  0.2980 -0.5707 -0.0505
  938MPD2    H713727   0.457   0.553   1.235 -0.1737 -2.0829  3.5778
  939MPD2     C13728   1.910   1.634   0.801 -0.4684  0.5738 -1.0450
  939MPD2    C113729   1.927   1.721   0.695  0.1557  0.3832  0.5888
  939MPD2    C213730   2.020   1.698   0.597 -0.3682  0.4798 -0.0321
  939MPD2    C313731   2.123   1.605   0.621  0.0679 -0.4024 -0.9427
  939MPD2    C413732   2.111   1.527   0.732 -0.2504 -0.9330  0.7948
  939MPD2    C513733   2.004   1.537   0.809  0.0787 -0.0838  0.5215
  939MPD2     H13734   2.039   1.770   0.518  1.5740  0.6893  0.6289
  939MPD2    H113735   2.175   1.446   0.766 -0.0456 -1.5132 -0.9384
  939MPD2    H213736   1.820   1.638   0.863 -0.5270 -3.5028 -0.8525
  939MPD2    H313737   1.984   1.472   0.893  1.3327  0.4884  1.2582
  939MPD2     N13738   2.228   1.582   0.522  0.9546  0.4022 -0.2695
  939MPD2    H513739   2.223   1.642   0.440  1.0952  2.4207  1.1985
  939MPD2    N113740   1.826   1.822   0.671 -0.8207 -0.8057 -0.6462
  939MPD2    H713741   1.762   1.843   0.747  0.4774  1.3474 -0.1350
  940MPD2     C13742   1.349   2.603  13.209  0.0848  0.1227 -0.7422
  940MPD2    C113743   1.452   2.622  13.302  0.3054 -0.1392 -0.0641
  940MPD2    C213744   1.579   2.609  13.251 -0.0690  0.1512 -0.5852
  940MPD2    C313745   1.618   2.575  13.121  0.6486  0.1736 -0.6596
  940MPD2    C413746   1.511   2.570  13.033 -0.0290 -0.3099 -0.1230
  940MPD2    C513747   1.387   2.577  13.075  0.4313 -0.5473  0.6658
  940MPD2     H13748   1.653   2.619  13.329  0.8722 -3.5074 -1.0038
  940MPD2    H113749   1.525   2.549  12.928 -0.7299  1.6164 -0.6021
  940MPD2    H213750   1.244   2.628  13.224 -0.1199 -1.0125 -0.2734
  940MPD2    H313751   1.304   2.563  13.007  0.8330  0.9846 -0.1397
  940MPD2     N13752   1.746   2.535  13.070  0.0046 -0.3100  0.2481
  940MPD2    H513753   1.753   2.527  12.969  0.4634 -0.1688  0.2675
  940MPD2    N113754   1.437   2.656  13.437 -0.3341  0.1689  0.2911
  940MPD2    H713755   1.521   2.691  13.482  0.6295  0.2724 -1.6015
  941MPD2     C13756   0.451   2.130   9.895  0.0189  0.3666 -0.2369
  941MPD2    C113757   0.533   2.092  10.000 -0.2614  0.1517  0.2088
  941MPD2    C213758   0.505   1.985  10.083 -0.4083  0.8331 -1.2585
  941MPD2    C313759   0.394   1.909  10.070  0.7092  0.1388  0.3153
  941MPD2    C413760   0.315   1.948   9.967 -0.3157 -0.2986 -0.2651
  941MPD2    C513761   0.344   2.050   9.876  0.0203  0.4900  0.4335
  941MPD2     H13762   0.575   1.969  10.164  0.4064  1.4258 -1.8412
  941MPD2    H113763   0.217   1.905   9.951  0.5766 -1.4345 -2.6169
  941MPD2    H213764   0.481   2.207   9.825  0.0476  1.2911  0.8054
  941MPD2    H313765   0.285   2.079   9.789  0.8750  3.0918  0.7177
  941MPD2     N13766   0.356   1.810  10.164  0.5501  0.4764  0.2915
  941MPD2    H513767   0.275   1.754  10.138  0.0899  0.3317  1.9989
  941MPD2    N113768   0.644   2.163  10.040  0.3753  0.2906 -0.4574
  941MPD2    H713769   0.700   2.133  10.120 -1.1537 -0.0277  0.4785
  942MPD2     C13770   0.602   3.965  10.878 -0.0462  0.0464 -0.2073
  942MPD2    C113771   0.537   3.914  10.766  0.3860  0.4295 -0.0906
  942MPD2    C213772   0.570   3.963  10.639 -0.4836 -0.1084 -1.2596
  942MPD2    C313773   0.649   4.076  10.630  0.6414  0.1828 -0.3306
  942MPD2    C413774   0.706   4.137  10.742  0.1526  0.4064 -0.4307
  942MPD2    C513775   0.683   4.077  10.867 -0.2735  0.6167 -0.5264
  942MPD2     H13776   0.543   3.908  10.550  0.1778 -0.5847 -1.1607
  942MPD2    H113777   0.765   4.227  10.742 -0.2070  0.6433 -1.3251
  942MPD2    H213778   0.572   3.925  10.975  1.6969  3.5573  1.7951
  942MPD2    H313779   0.724   4.117  10.959 -0.0557  0.0079 -0.3619
  942MPD2     N13780   0.680   4.139  10.509 -0.0734  0.6281 -0.2864
  942MPD2    H513781   0.710   4.235  10.523 -0.2436  0.3083  2.3180
  942MPD2    N113782   0.464   3.797  10.766 -0.4006  0.2341  0.3136
  942MPD2    H713783   0.466   3.744  10.679  0.4800 -0.7424  0.9268
  943MPD2     C13784   3.802   2.100   9.667 -0.1562  0.4014  0.3483
  943MPD2    C113785   3.826   2.007   9.764 -0.4067  0.3192  0.7412
  943MPD2    C213786   3.914   2.047   9.865 -0.1193 -0.0060  1.1226
  943MPD2    C313787   3.972   2.168   9.871  0.0972  0.4551  0.6899
  943MPD2    C413788   3.933   2.264   9.786  0.4338  0.2701 -0.1004
  943MPD2    C513789   3.850   2.226   9.682 -0.6398  0.5285  0.7528
  943MPD2     H13790   3.934   1.975   9.944  0.1077 -0.4720  0.6415
  943MPD2    H113791   3.982   2.360   9.783  0.1222  0.4659  1.5120
  943MPD2    H213792   3.742   2.079   9.580  1.2712  1.1560 -0.8141
  943MPD2    H313793   3.818   2.293   9.602 -0.2950  0.8351  0.8697
  943MPD2     N13794   4.056   2.219   9.974  0.4617 -0.1053 -0.0608
  943MPD2    H513795   4.072   2.319   9.988  0.9480  0.0566 -1.7569
  943MPD2    N113796   3.768   1.877   9.748 -0.7147 -0.3492  0.5814
  943MPD2    H713797   3.721   1.857   9.660  0.4506 -0.9128  0.0817
  944MPD2     C13798   4.523   0.566  11.461  0.2674 -0.0930  0.2569
  944MPD2    C113799   4.483   0.672  11.379  0.1048 -0.3066 -0.8620
  944MPD2    C213800   4.456   0.792  11.440 -0.2944 -0.3666 -0.9964
  944MPD2    C313801   4.449   0.802  11.583  0.5455  0.5273 -0.2834
  944MPD2    C413802   4.471   0.687  11.661  0.3116  0.2381 -0.1579
  944MPD2    C513803   4.514   0.575  11.596 -0.4577 -0.3858  0.2433
  944MPD2     H13804   4.435   0.872  11.371 -2.4659 -1.5219 -1.6874
  944MPD2    H113805   4.467   0.684  11.769 -0.7593  2.7564 -0.1239
  944MPD2    H213806   4.564   0.473  11.422  1.9339  1.2234 -1.1779
  944MPD2    H313807   4.537   0.481  11.643  2.5950  0.3685  0.2287
  944MPD2     N13808   4.433   0.928  11.638 -0.9714 -0.6013 -0.3414
  944MPD2    H513809   4.436   1.013  11.582  3.1162 -1.3162 -1.2516
  944MPD2    N113810   4.477   0.646  11.241 -0.4654  0.2328 -0.6265
  944MPD2    H713811   4.513   0.557  11.207  0.2445  1.2306 -2.4809
    1TCq1    O113812   0.794   2.056  14.457 -0.1281  0.2765  0.1335
    1TCq1    C113813   0.844   2.095  14.338 -0.4402 -0.1436  0.0158
    1TCq1    O213814   0.815   2.194  14.272  0.0852  0.2666 -0.2658
    1TCq1    C213815   0.920   1.988  14.281 -0.2344  0.0718 -0.4991
    1TCq1    C313816   0.940   2.007  14.147 -0.7020 -0.2297  0.2150
    1TCq1    C413817   1.059   1.975  14.093  0.4127 -0.1817 -0.1336
    1TCq1    C513818   1.165   1.933  14.164  0.1575  0.0671 -0.0252
    1TCq1    C613819   1.146   1.922  14.300 -0.7156 -0.3478 -0.3277
    1TCq1    C713820   1.024   1.943  14.364 -0.4690 -0.6341 -0.0181
    1TCq1    C813821   1.257   1.910  14.390  0.0078 -0.6028 -0.4426
    1TCq1    O413822   1.237   1.852  14.499  0.0271  0.4150  0.0080
    1TCq1    C913823   1.074   2.008  13.950  0.7363  0.4404  0.1028
    1TCq1    O513824   1.024   2.124  13.912  0.1265 -0.0196  0.4290
    1TCq1    O613825   1.187   1.972  13.906 -0.2070  0.3532  0.2383
    1TCq1    H113826   0.803   1.961  14.480 -0.0856  0.0421 -0.8480
    1TCq1    H213827   0.861   2.050  14.087 -1.6247  0.2416  1.7682
    1TCq1    H313828   1.261   1.912  14.117  0.5052  0.0256  0.7075
    1TCq1    H413829   1.022   1.935  14.472  0.2854  0.0950  0.0446
    2MPD2     C13830   1.683   2.131  14.587  0.4416  0.1748 -0.2039
    2MPD2    C113831   1.639   2.201  14.474 -0.4925 -0.7853 -0.2006
    2MPD2    C213832   1.528   2.157  14.407 -0.3562 -0.3938  0.3520
    2MPD2    C313833   1.466   2.039  14.439  0.7032  0.1933  0.4570
    2MPD2    C413834   1.510   1.964  14.551 -0.5446 -0.7368 -0.5230
    2MPD2    C513835   1.618   2.010  14.623  0.5522 -0.4666 -0.2329
    2MPD2     H13836   1.474   2.215  14.334 -2.1876 -1.0516  1.1845
    2MPD2    H113837   1.468   1.870  14.586 -0.9728 -1.2786 -2.4760
    2MPD2    H213838   1.769   2.167  14.642  0.5352 -0.2065 -0.0979
    2MPD2    H313839   1.648   1.951  14.709 -1.7878  0.9079  1.5398
    2MPD2     N13840   1.360   1.998  14.359 -0.3719 -0.1828  0.1925
    2MPD2    H513841   1.350   2.056  14.275 -0.1152  0.4605  0.6044
    2MPD2    N113842   1.719   2.310  14.432  0.1717 -0.1355  0.4263
    2MPD2    H713843   1.811   2.324  14.472 -0.2122 -0.3903  1.3785
    3TMC2    C113844   1.780   2.498  14.295 -0.1077  0.4775  0.0474
    3TMC2    C213845   1.848   2.550  14.402  0.0740 -0.2247 -0.2610
    3TMC2    C313846   1.943   2.647  14.371  0.9734 -0.3625  0.5280
    3TMC2    C413847   1.803   2.534  14.157 -0.3375 -0.9571  0.0500
    3TMC2    C513848   1.898   2.623  14.134  0.7818 -0.4653 -0.6798
    3TMC2    C613849   1.967   2.676  14.236  0.4358 -0.4214 -0.1451
    3TMC2     C13850   1.693   2.378  14.314  1.3650 -0.0892 -0.6480
    3TMC2     O13851   1.617   2.356  14.221  0.2161  0.2111 -0.2744
    3TMC2     H13852   1.827   2.520  14.504  2.3765  2.1181  0.8969
    3TMC2    H113853   1.733   2.511  14.077  0.9844 -0.4037 -1.2691
    3TMC2    H213854   2.048   2.743  14.210 -0.2385  1.2757  2.1100
    3TMC2    C713855   1.945   2.640  13.992 -0.1274  1.0189  0.0439
    3TMC2    C813856   2.030   2.706  14.471 -0.3290  0.2277 -0.2073
    3TMC2    O113857   1.929   2.543  13.914 -0.2331 -0.4294 -0.0513
    3TMC2    O213858   2.073   2.818  14.464 -0.0098  0.1707 -0.1624
    3TMC2    O513859   2.002   2.638  14.586  0.3287  0.3609 -0.1184
    3TMC2    H513860   1.993   2.542  14.568  1.0055  0.1333  0.7411
    4MPD2     C13861   0.927   3.429  13.306  0.1915  0.1458  0.3038
    4MPD2    C113862   0.995   3.339  13.236  0.4796 -0.6175  0.1689
    4MPD2    C213863   1.125   3.313  13.270  0.5797 -0.2380 -0.0796
    4MPD2    C313864   1.186   3.384  13.377 -0.0129 -0.1002 -0.1252
    4MPD2    C413865   1.104   3.469  13.451  0.1824  0.6069 -0.3543
    4MPD2    C513866   0.973   3.492  13.420  0.8582  0.0346  0.3467
    4MPD2     H13867   1.184   3.236  13.221 -0.1537  1.3284 -3.3941
    4MPD2    H113868   1.142   3.513  13.542  0.2289 -1.8338  0.7855
    4MPD2    H213869   0.827   3.451  13.269  0.5161 -0.3766 -0.9096
    4MPD2    H313870   0.918   3.568  13.474 -0.0853  1.2664 -2.3414
    4MPD2     N13871   1.320   3.360  13.411 -0.0248  0.1986  0.0071
    4MPD2    H513872   1.378   3.308  13.346  1.4446  0.8062  0.8575
    4MPD2    N113873   0.920   3.280  13.134 -0.6848 -0.1526 -0.6884
    4MPD2    H713874   0.819   3.292  13.138 -0.4214  1.8507 -0.3101
    5TCq2    C113875   1.370   3.376  13.536 -0.1557  0.2272 -0.0494
    5TCq2    O213876   1.304   3.386  13.636  0.2998 -0.2401 -0.6270
    5TCq2    C213877   1.514   3.368  13.538  0.6327  0.8667  0.7305
    5TCq2    C313878   1.587   3.395  13.426  0.1536  0.4837 -0.5572
    5TCq2    C413879   1.719   3.388  13.438  0.1694  0.0292 -0.0291
    5TCq2    C513880   1.786   3.346  13.558 -0.2113 -0.0323 -0.1999
    5TCq2    C613881   1.707   3.322  13.668 -0.2804  1.0106 -0.2176
    5TCq2    C713882   1.571   3.334  13.654  0.3418  0.0598 -0.0398
    5TCq2    C813883   1.756   3.204  13.736  0.2642 -0.6081 -0.6645
    5TCq2    O413884   1.726   3.181  13.852 -0.0668  0.4972 -0.3537
    5TCq2    C913885   1.801   3.406  13.321 -1.0303 -0.0864 -0.5577
    5TCq2    O513886   1.743   3.386  13.207  0.1240  0.2414  0.1123
    5TCq2    O613887   1.929   3.407  13.333  0.6280  0.4386 -0.3119
    5TCq2    H213888   1.546   3.421  13.330  0.1651 -1.0931 -0.9893
    5TCq2    H313889   1.894   3.336  13.554 -0.3526 -1.1116 -1.4479
    5TCq2    H413890   1.505   3.324  13.739  0.2616  0.1502 -0.0920
    6MPD1     C13891   0.770   4.550  13.599  0.2551  0.3331 -0.3198
    6MPD1    C113892   0.659   4.486  13.645 -0.5067  0.5049  0.0620
    6MPD1    C213893   0.605   4.379  13.575 -0.8381 -0.5140  0.1745
    6MPD1    C313894   0.653   4.342  13.448 -0.6526 -0.0330  0.2759
    6MPD1    C413895   0.751   4.423  13.392 -0.6991 -0.0401 -0.1163
    6MPD1    C513896   0.811   4.523  13.470  0.2623 -0.3059  0.0207
    6MPD1     H13897   0.535   4.318  13.630 -0.0190 -1.9356 -0.3621
    6MPD1    H113898   0.797   4.396  13.297  0.6453  0.3952  0.4132
    6MPD1    H213899   0.819   4.631  13.652  1.3182  0.8842 -2.1577
    6MPD1    H313900   0.903   4.564  13.432 -1.6459  1.4861 -2.6468
    6MPD1     N13901   0.590   4.245  13.364 -0.1423 -0.2686 -0.0135
    6MPD1    H513902   0.614   4.254  13.266 -1.0665  0.8105 -0.1295
    6MPD1    N113903   0.625   4.488  13.787 -0.1260 -0.6197  0.6398
    6MPD1    H613904   0.628   4.582  13.824  0.5875 -0.7424  0.8820
    6MPD1    H713905   0.531   4.453  13.807 -0.1809 -0.8271  0.0404
    7MPD2     C13906   0.193   3.466  13.283  0.3975  0.4832 -0.5475
    7MPD2    C113907   0.314   3.507  13.232 -0.3163  0.3691  0.3385
    7MPD2    C213908   0.400   3.418  13.171 -0.3102 -0.3868 -0.5842
    7MPD2    C313909   0.362   3.284  13.153  0.1084  0.2098 -0.1253
    7MPD2    C413910   0.231   3.247  13.189  0.6671  0.3795  0.6748
    7MPD2    C513911   0.150   3.341  13.260 -0.0056  0.5458 -0.2926
    7MPD2     H13912   0.482   3.453  13.110  0.2495 -0.9929 -0.1909
    7MPD2    H113913   0.192   3.154  13.151 -0.7687  1.1633  0.2396
    7MPD2    H213914   0.118   3.536  13.318 -0.6175 -1.3291  0.8460
    7MPD2    H313915   0.052   3.303  13.286 -0.6185  2.5626  0.2689
    7MPD2     N13916   0.451   3.191  13.089  0.6321  0.8367 -0.3116
    7MPD2    H513917   0.415   3.098  13.071 -0.1819  1.5025 -2.0591
    7MPD2    N113918   0.353   3.645  13.233 -0.0128 -0.7729 -0.4373
    7MPD2    H713919   0.440   3.660  13.182  0.8855 -1.3703  0.9365
    8TMC3    C113920   0.636   3.123  12.968  0.0466 -0.5559 -1.1704
    8TMC3    C213921   0.763   3.109  13.011  0.4181  0.2835  0.3485
    8TMC3    C313922   0.863   3.168  12.944 -0.2463  0.4379  0.2239
    8TMC3    C413923   0.618   3.166  12.847 -0.9156  0.5338 -0.4716
    8TMC3    C513924   0.717   3.239  12.782  0.2777 -0.5898 -0.4393
    8TMC3    C613925   0.842   3.229  12.827  0.0008 -0.0415  0.2713
    8TMC3     C13926   0.578   3.224  13.050 -0.0458 -0.3479  0.3367
    8TMC3     O13927   0.648   3.308  13.102 -0.0530  0.0257  0.4669
    8TMC3     H13928   0.778   3.064  13.109  0.2125 -2.0101 -0.6731
    8TMC3    H113929   0.519   3.174  12.802 -1.0897  1.1391  0.0192
    8TMC3    H213930   0.930   3.259  12.771 -1.1075 -1.6527 -2.3587
    8TMC3    C713931   0.667   3.370  12.738 -0.6113 -1.1645  0.2833
    8TMC3    C813932   0.975   3.220  13.022 -0.3119 -0.3563  0.7724
    8TMC3    O113933   0.548   3.392  12.749 -0.1289 -0.2918 -0.1631
    8TMC3    O213934   1.086   3.229  12.968  0.0276 -0.3551  0.0847
    9TMC3    C113935   0.435   4.073  13.296 -0.9220 -0.2154  0.4970
    9TMC3    C213936   0.489   4.083  13.167 -0.1736  0.2764 -0.0459
    9TMC3    C313937   0.471   3.982  13.078  0.0311  0.0105  0.9222
    9TMC3    C413938   0.351   3.968  13.331  0.1130 -0.6088 -0.0097
    9TMC3    C513939   0.344   3.870  13.238  0.4967  0.7467  0.6147
    9TMC3    C613940   0.398   3.869  13.111  0.9136 -0.0087  0.0224
    9TMC3     C13941   0.506   4.140  13.405 -0.6280 -0.8893 -0.0729
    9TMC3     O13942   0.465   4.114  13.520  0.0517  0.1340  0.1424
    9TMC3     H13943   0.567   4.157  13.151  0.0501  0.0517  0.0109
    9TMC3    H113944   0.298   3.956  13.425  0.2866  0.7110  0.2466
    9TMC3    H213945   0.386   3.779  13.052 -1.4614 -0.2808  0.9236
    9TMC3    C713946   0.275   3.753  13.272  0.7465  0.2220  0.2234
    9TMC3    C813947   0.577   3.969  12.982 -0.7281 -0.0305 -0.3803
    9TMC3    O113948   0.190   3.754  13.356 -0.3635 -0.6755 -0.3299
    9TMC3    O213949   0.632   4.072  12.949  0.2496  0.0999  0.2739
   10MPD2     C13950   0.863   3.678  12.673  0.5613  0.1028 -0.1913
   10MPD2    C113951   0.761   3.599  12.726 -0.0763 -0.6540 -0.5379
   10MPD2    C213952   0.663   3.657  12.798  0.0410 -0.3207 -0.1081
   10MPD2    C313953   0.673   3.793  12.832  0.4612  0.5382  0.5357
   10MPD2    C413954   0.783   3.868  12.784 -0.5146  0.2641 -0.4165
   10MPD2    C513955   0.873   3.809  12.700  0.0830  0.2360  0.3408
   10MPD2     H13956   0.588   3.595  12.846 -0.3545 -1.4457 -2.1546
   10MPD2    H113957   0.795   3.971  12.814 -1.2282 -0.3480  1.9256
   10MPD2    H213958   0.937   3.632  12.608 -0.5866 -0.3896 -1.1493
   10MPD2    H313959   0.956   3.865  12.658  1.3479 -0.5408  1.7995
   10MPD2     N13960   0.583   3.842  12.935 -0.0811 -0.7363  0.2413
   10MPD2    H513961   0.521   3.769  12.968  1.1762 -2.2814 -0.7397
   10MPD2    N113962   0.769   3.459  12.714 -0.2418  0.6413 -0.4422
   10MPD2    H713963   0.858   3.424  12.682 -1.0922 -1.1025 -0.9211
   11MPD2     C13964   1.989   2.751  13.720  0.3071 -0.2461 -0.5784
   11MPD2    C113965   1.934   2.818  13.827  0.7109  0.1057 -0.4837
   11MPD2    C213966   1.882   2.943  13.799 -0.3382 -0.8000 -0.5242
   11MPD2    C313967   1.870   2.998  13.673 -0.7301 -0.1388  0.4168
   11MPD2    C413968   1.938   2.932  13.572 -0.6975  0.0904 -0.2778
   11MPD2    C513969   1.988   2.807  13.595 -0.6261  1.4043  0.1617
   11MPD2     H13970   1.854   3.003  13.884  1.0988 -0.6582 -0.1591
   11MPD2    H113971   1.944   2.975  13.473  0.6628 -1.8903 -1.0653
   11MPD2    H213972   2.042   2.657  13.733  1.8108  0.6782 -0.0934
   11MPD2    H313973   2.029   2.746  13.516 -1.9291  0.1117  0.4776
   11MPD2     N13974   1.817   3.120  13.641  0.8526  0.3698 -0.3939
   11MPD2    H513975   1.822   3.151  13.545 -0.6459  1.5468 -0.1117
   11MPD2    N113976   1.934   2.773  13.964 -0.1188 -0.3034  0.1023
   11MPD2    H713977   1.898   2.830  14.040  0.9197 -0.9608  1.0963
    1MPD1     C13978   3.958   3.559   0.355 -0.0592  0.4818 -0.1070
    1MPD1    C113979   4.025   3.664   0.410  0.1054 -0.1226 -0.5775
    1MPD1    C213980   4.121   3.730   0.332  0.0937 -0.0600 -0.0988
    1MPD1    C313981   4.148   3.678   0.204 -0.0161 -1.4471  0.0500
    1MPD1    C413982   4.074   3.573   0.157  0.1102  0.2173 -0.5072
    1MPD1    C513983   3.980   3.511   0.234  0.0559 -0.0067  0.0570
    1MPD1     H13984   4.169   3.816   0.377 -0.3469  0.4678 -0.6415
    1MPD1    H113985   4.092   3.533   0.058  2.0865 -0.4446  0.1018
    1MPD1    H213986   3.876   3.505   0.403  0.9470 -0.0910  0.9627
    1MPD1    H313987   3.930   3.421   0.201  3.0169 -1.1247 -1.3304
    1MPD1     N13988   4.244   3.729   0.109 -0.7018  0.6587  0.2825
    1MPD1    H513989   4.247   3.681   0.019  1.1356  1.4697 -0.0949
    1MPD1    N113990   4.017   3.685   0.549  0.2628  0.6711 -0.5369
    1MPD1    H613991   3.921   3.669   0.577  0.5818 -0.1423  0.0703
    1MPD1    H713992   4.033   3.784   0.567  1.5754  0.0260  1.8204
    2MPD1     C13993   0.292   4.397   0.219 -1.0551  1.0398  0.3370
    2MPD1    C113994   0.247   4.308   0.302  0.0030 -0.2680 -0.0468
    2MPD1    C213995   0.139   4.232   0.265 -0.7644  0.1025  0.5440
    2MPD1    C313996   0.096   4.226   0.134  0.0639  0.1563  0.3219
    2MPD1    C413997   0.144   4.322   0.045  0.3170 -0.0000  0.2671
    2MPD1    C513998   0.242   4.410   0.089  0.3685 -0.3545 -0.1977
    2MPD1     H13999   0.099   4.164   0.340 -1.1362  1.8846  1.9564
    2MPD1    H114000   0.106   4.341  17.651 -0.7034  0.5084  0.7516
    2MPD1    H214001   0.374   4.462   0.248 -1.3140  0.5342  2.1693
    2MPD1    H314002   0.282   4.494   0.033 -1.7542  0.4026 -0.5670
    2MPD1     N14003   4.725   4.137   0.087  0.4307  0.2323 -0.2199
    2MPD1    H514004   4.690   4.075   0.159 -0.3755  0.0298 -0.7910
    2MPD1    N114005   0.293   4.318   0.437  0.5072  0.7527  0.5141
    2MPD1    H614006   0.393   4.334   0.437  0.5622  0.4173 -0.9194
    2MPD1    H714007   0.285   4.225   0.477 -1.9185  0.1442 -1.3228
    3TMC3    C114008   4.566   4.031  17.652 -0.2621  0.0811  0.7628
    3TMC3    C214009   4.542   4.010  17.519 -0.4789  0.0206 -0.1454
    3TMC3    C314010   4.440   3.917  17.492  0.1166 -0.2633  0.3215
    3TMC3    C414011   4.500   3.978   0.049  0.5159  0.5475  0.0617
    3TMC3    C514012   4.399   3.887   0.015  0.1720  0.2338 -0.3884
    3TMC3    C614013   4.369   3.859  17.590 -0.0933 -0.5827  0.2179
    3TMC3     C14014   4.663   4.133  17.673  0.2290  0.3770 -0.2408
    3TMC3     O14015   4.684   4.204  17.574 -0.6668 -0.3339 -0.5269
    3TMC3     H14016   4.601   4.057  17.441 -0.2577 -1.5447 -0.9157
    3TMC3    H114017   4.524   3.998   0.153  2.7215  0.0556 -0.3629
    3TMC3    H214018   4.286   3.796  17.560  0.5870 -1.1922 -0.3799
    3TMC3    C714019   4.317   3.840   0.125  0.2312 -0.4665 -0.4009
    3TMC3    C814020   4.421   3.880  17.354 -0.1581  0.1779 -0.4039
    3TMC3    O114021   4.338   3.884   0.235  0.0140 -0.1335 -0.5307
    3TMC3    O214022   4.361   3.773  17.337  0.7582 -0.0022  0.3189
    4MPD1     C14023   4.492   3.939  16.857  0.5073 -0.3254 -0.0463
    4MPD1    C114024   4.471   4.057  16.915 -0.1718  0.3155  0.4460
    4MPD1    C214025   4.459   4.072  17.045 -0.6979 -0.9528  0.7969
    4MPD1    C314026   4.462   3.960  17.130 -0.8710  0.3254  0.1146
    4MPD1    C414027   4.478   3.839  17.072 -0.1853  0.4323 -0.5929
    4MPD1    C514028   4.492   3.825  16.934  0.1326  0.0220 -0.0754
    4MPD1     H14029   4.435   4.163  17.098  4.4289  0.3691  0.8235
    4MPD1    H114030   4.496   3.751  17.133  3.5588  0.7366 -1.2579
    4MPD1    H214031   4.515   3.926  16.751 -3.6968  0.7189 -1.0744
    4MPD1    H314032   4.501   3.723  16.898  0.7743  0.3673 -0.8823
    4MPD1     N14033   4.455   3.981  17.266 -0.3533 -0.2161  0.3216
    4MPD1    H514034   4.460   4.072  17.309 -0.8781 -0.8106  1.6493
    4MPD1    N114035   4.491   4.173  16.833 -0.3833  0.0541 -0.4444
    4MPD1    H614036   4.456   4.261  16.870  0.6705  0.7238 -1.0346
    4MPD1    H714037   4.454   4.162  16.739  0.4995  1.1920 -0.9343
    1TCq1    O114038   0.774   3.234  11.683 -0.3652 -0.4780  0.0366
    1TCq1    C114039   0.848   3.268  11.789 -0.3864 -0.1910  0.0061
    1TCq1    O214040   0.828   3.332  11.891 -0.1510 -0.6102  0.1761
    1TCq1    C214041   0.973   3.194  11.774  0.9724 -0.5028 -0.0855
    1TCq1    C314042   0.969   3.059  11.732  0.1670 -0.9296  0.1318
    1TCq1    C414043   1.078   2.976  11.757 -0.4516 -0.3358 -0.2587
    1TCq1    C514044   1.173   3.010  11.849  0.0474 -0.9128 -0.4101
    1TCq1    C614045   1.172   3.141  11.900  0.4606  0.1852 -0.2498
    1TCq1    C714046   1.068   3.231  11.868  0.3327 -0.7553  0.5704
    1TCq1    C814047   1.285   3.183  11.980 -0.2155 -0.5044  0.2886
    1TCq1    O414048   1.392   3.118  11.979 -0.3386 -0.3650 -0.5083
    1TCq1    C914049   1.053   2.829  11.759 -0.5485 -0.4188  0.2150
    1TCq1    O514050   1.146   2.748  11.776  0.6846  0.2239 -0.0128
    1TCq1    O614051   0.934   2.798  11.761 -0.3131 -0.2131  0.0557
    1TCq1    H114052   0.830   3.200  11.611 -1.3819  0.6994 -1.3151
    1TCq1    H214053   0.883   3.022  11.678  0.0483  0.2751 -0.4956
    1TCq1    H314054   1.248   2.937  11.877 -1.1498 -1.8466  0.3601
    1TCq1    H414055   1.079   3.334  11.900 -1.6026 -0.0278 -1.0821
    2MPD1     C14056   1.528   3.565  12.231 -0.2545  0.1785 -0.1970
    2MPD1    C114057   1.405   3.611  12.185 -0.1841  0.2989  0.0729
    2MPD1    C214058   1.323   3.516  12.126  0.1885  0.0051  0.0856
    2MPD1    C314059   1.359   3.386  12.106 -0.4792 -1.5451 -0.3505
    2MPD1    C414060   1.482   3.339  12.147  0.2744 -0.7251 -0.3518
    2MPD1    C514061   1.556   3.429  12.214  0.3684 -0.0775 -0.2870
    2MPD1     H14062   1.222   3.551  12.107  1.5992  1.4666 -4.8338
    2MPD1    H114063   1.513   3.235  12.142 -1.4844 -1.3166  0.9377
    2MPD1    H214064   1.594   3.624  12.294 -0.1672 -1.6082  1.3922
    2MPD1    H314065   1.647   3.388  12.257  0.7401  1.7729  0.6734
    2MPD1     N14066   1.266   3.308  12.034  0.3776  0.3096 -0.3735
    2MPD1    H514067   1.178   3.353  12.011 -1.5052 -3.2287 -0.1676
    2MPD1    N114068   1.358   3.746  12.209  0.0203  0.2859  0.4136
    2MPD1    H614069   1.287   3.760  12.137 -0.0466  1.8706  0.7758
    2MPD1    H714070   1.433   3.813  12.193  1.0271 -1.1297 -0.8780
    1TCq1    O114071   3.442   1.177   1.144 -0.3655  0.3632 -0.3611
    1TCq1    C114072   3.520   1.094   1.079 -0.0621  0.1698 -0.3083
    1TCq1    O214073   3.635   1.111   1.045  0.4541  0.1242 -0.2726
    1TCq1    C214074   3.468   0.961   1.082 -0.0827  0.5545  0.2677
    1TCq1    C314075   3.351   0.930   1.144  0.0600  0.0256  0.6144
    1TCq1    C414076   3.304   0.803   1.128  0.3602 -0.2664  0.2176
    1TCq1    C514077   3.372   0.712   1.059 -0.2783 -0.3258  0.0775
    1TCq1    C614078   3.472   0.754   0.977  0.6680 -0.4693 -0.9676
    1TCq1    C714079   3.515   0.883   0.981  0.2598 -0.6985 -0.0232
    1TCq1    C814080   3.568   0.654   0.931  0.5837 -0.2303 -0.2460
    1TCq1    O414081   3.656   0.693   0.858  0.3381  0.6880 -0.0778
    1TCq1    C914082   3.217   0.746   1.228  0.4104  0.1380  0.2557
    1TCq1    O514083   3.208   0.622   1.245 -0.2385  0.5859  0.5262
    1TCq1    O614084   3.151   0.821   1.303 -0.2575  0.0253  0.1299
    1TCq1    H114085   3.353   1.140   1.156  0.3612 -0.9276  1.0472
    1TCq1    H214086   3.322   0.996   1.225 -2.9198  0.2673 -0.6548
    1TCq1    H314087   3.331   0.612   1.048 -2.4104  0.5356  0.2311
    1TCq1    H414088   3.606   0.911   0.929  0.1436 -0.4077 -0.0725
    2MPD1     C14089   3.734   0.163   0.896 -0.4035  0.0219  0.4922
    2MPD1    C114090   3.671   0.183   1.012  0.1740  0.2722 -0.2594
    2MPD1    C214091   3.619   0.306   1.043 -0.3180  0.1041 -0.2236
    2MPD1    C314092   3.616   0.412   0.953  0.3772 -0.2935 -0.4703
    2MPD1    C414093   3.686   0.396   0.834 -0.3272 -0.0531 -0.6723
    2MPD1    C514094   3.747   0.277   0.816 -0.0721 -0.7034 -0.0404
    2MPD1     H14095   3.566   0.313   1.138 -0.5717 -1.8676 -0.2226
    2MPD1    H114096   3.688   0.464   0.749 -0.7882  1.1121  0.2431
    2MPD1    H214097   3.775   0.072   0.854  0.1573  0.5472 -0.0859
    2MPD1    H314098   3.799   0.265   0.722  0.5136  0.1393  0.1693
    2MPD1     N14099   3.545   0.531   0.993 -0.1444 -0.7265  0.4848
    2MPD1    H514100   3.481   0.517   1.070  0.8780  1.0668  1.6611
    2MPD1    N114101   3.637   0.070   1.087 -0.2354 -0.6377  1.0058
    2MPD1    H614102   3.701   4.719   1.071 -2.4544 -1.8214 -1.9075
    2MPD1    H714103   3.634   0.089   1.187  0.9042  2.7616  0.3990
    1MPD1     C14104   2.411   3.445  12.665  0.2615  1.0231  0.4581
    1MPD1    C114105   2.426   3.539  12.766 -0.3789  0.8429 -0.4117
    1MPD1    C214106   2.461   3.669  12.714  1.3714 -0.5255 -0.2364
    1MPD1    C314107   2.517   3.691  12.590 -0.1239  0.8351  0.8557
    1MPD1    C414108   2.519   3.588  12.496  0.2592  0.8761 -0.5092
    1MPD1    C514109   2.455   3.469  12.533  0.3736 -0.2494  0.7537
    1MPD1     H14110   2.451   3.753  12.781  1.4283  0.2752 -1.2398
    1MPD1    H114111   2.531   3.607  12.390  2.0387  0.3101 -0.4071
    1MPD1    H214112   2.369   3.348  12.690  0.2113  0.7708 -0.5937
    1MPD1    H314113   2.453   3.390  12.459  2.6654  1.1739 -0.8194
    1MPD1     N14114   2.578   3.819  12.557  0.6127 -0.1834  0.6431
    1MPD1    H514115   2.573   3.889  12.630  0.6282  2.0955 -1.5184
    1MPD1    N114116   2.338   3.524  12.878 -0.0020 -0.1759 -0.4806
    1MPD1    H614117   2.348   3.430  12.914  3.4059 -0.8745 -3.2764
    1MPD1    H714118   2.362   3.584  12.957  0.3646  0.6814 -1.2379
    2MPD1     C14119   1.501   4.604  12.115  0.5250 -0.0687  0.2241
    2MPD1    C114120   1.589   4.544  12.201  0.5347 -0.3846 -0.5616
    2MPD1    C214121   1.666   4.447  12.149  0.4163  0.4735  0.1354
    2MPD1    C314122   1.668   4.422  12.010  0.3581  0.3248  0.0748
    2MPD1    C414123   1.588   4.497  11.927  0.5471 -0.1530  0.0534
    2MPD1    C514124   1.502   4.586  11.983  0.0249 -0.4526  0.1225
    2MPD1     H14125   1.726   4.389  12.218  1.9406  0.0435 -1.5371
    2MPD1    H114126   1.584   4.483  11.820 -1.1927  0.9204 -0.0173
    2MPD1    H214127   1.425   4.667  12.160 -0.4534 -0.1550 -1.3134
    2MPD1    H314128   1.426   4.628  11.918 -0.4610 -1.6094 -0.0462
    2MPD1     N14129   1.735   4.315  11.948 -0.1694 -0.8772 -0.2504
    2MPD1    H514130   1.711   4.297  11.852  1.2589  0.4985 -0.8678
    2MPD1    N114131   1.581   4.558  12.340 -0.1363  0.9181  0.4113
    2MPD1    H614132   1.563   4.652  12.377 -2.7766  0.0618  1.3292
    2MPD1    H714133   1.665   4.520  12.381  0.6324 -0.4312 -2.4292
    3MPD1     C14134   1.690   3.463  11.446 -0.0337  0.0262  0.0167
    3MPD1    C114135   1.790   3.437  11.540  0.0705  0.0320 -0.8005
    3MPD1    C214136   1.839   3.549  11.609  0.1142  0.0839 -0.0308
    3MPD1    C314137   1.787   3.676  11.593  0.2653 -0.0072 -0.1045
    3MPD1    C414138   1.683   3.690  11.504  0.1694 -0.5364  0.7505
    3MPD1    C514139   1.641   3.588  11.426 -0.0002  0.5452  0.1678
    3MPD1     H14140   1.915   3.531  11.685 -0.6176  0.0666  0.6897
    3MPD1    H114141   1.639   3.789  11.500  2.4637  0.3743 -1.9978
    3MPD1    H214142   1.660   3.382  11.382 -1.7428 -0.4547  1.4212
    3MPD1    H314143   1.554   3.611  11.364  0.5858  1.6058 -0.2634
    3MPD1     N14144   1.838   3.785  11.666  0.8260 -0.2971  0.3677
    3MPD1    H514145   1.927   3.768  11.713  1.2853  1.1668  0.0353
    3MPD1    N114146   1.836   3.310  11.548  0.1369  0.4045 -0.8155
    3MPD1    H614147   1.771   3.236  11.521  0.5075 -0.2091 -0.0278
    3MPD1    H714148   1.881   3.290  11.638 -0.1482 -4.2850 -1.6962
    4MPD2     C14149   2.473   4.551  12.413  0.2134  0.0543  0.1252
    4MPD2    C114150   2.595   4.499  12.370  0.2816  0.5518  0.4907
    4MPD2    C214151   2.660   4.555  12.261  0.0450 -0.2516  0.1767
    4MPD2    C314152   2.609   4.657  12.187 -0.4115 -0.2505  0.5894
    4MPD2    C414153   2.485   4.708  12.225 -1.1419  0.0411  0.2364
    4MPD2    C514154   2.421   4.651  12.330  0.3481  0.2679  0.1849
    4MPD2     H14155   2.759   4.515  12.240 -0.1318 -0.0259 -1.0951
    4MPD2    H114156   2.434   0.057  12.166 -0.7571 -1.0574 -1.4879
    4MPD2    H214157   2.422   4.525  12.505  0.8603  1.1002  0.7740
    4MPD2    H314158   2.327   4.693  12.365 -0.2548 -0.3857 -0.6607
    4MPD2     N14159   2.680   4.692  12.074 -0.2505 -0.0779  0.1862
    4MPD2    H514160   2.772   4.648  12.071  0.4320  1.2389  1.7308
    4MPD2    N114161   2.659   4.385  12.426  0.2071 -0.2874 -0.3751
    4MPD2    H714162   2.747   4.363  12.382  0.9638 -0.4116  1.1881
    5TMC3    C114163   2.682   4.191  12.534 -0.3332 -0.5224  0.5443
    5TMC3    C214164   2.614   4.079  12.503 -0.3852 -0.0566 -1.1678
    5TMC3    C314165   2.676   3.985  12.420 -0.2062  0.0003 -0.0806
    5TMC3    C414166   2.816   4.211  12.505 -0.1120  0.0348  0.5628
    5TMC3    C514167   2.865   4.125  12.407 -0.7266  0.7678 -0.7202
    5TMC3    C614168   2.797   4.016  12.366 -0.4703  0.2423 -0.6501
    5TMC3     C14169   2.602   4.310  12.529 -0.9336  0.1437  0.0204
    5TMC3     O14170   2.487   4.310  12.565  0.2096  0.1002  0.0439
    5TMC3     H14171   2.506   4.078  12.514  0.0739  2.3793  3.6767
    5TMC3    H114172   2.868   4.302  12.533  1.9409 -1.0451  0.2438
    5TMC3    H214173   2.834   3.938  12.301 -0.0018  0.1750 -0.2995
    5TMC3    C714174   2.943   4.196  12.309  0.1650 -0.3852 -0.1588
    5TMC3    C814175   2.649   3.844  12.439  0.3700 -0.1442  0.0949
    5TMC3    O114176   2.920   4.317  12.311  0.4908 -0.5870 -0.5171
    5TMC3    O214177   2.698   3.766  12.356  0.0713 -0.0193  0.5505
    6TMC3    C114178   1.885   4.146  11.925  0.1517  0.0237  0.8145
    6TMC3    C214179   1.813   4.083  11.829 -0.2156  0.4302 -0.3178
    6TMC3    C314180   1.873   4.008  11.731 -0.5139  0.9879 -0.4306
    6TMC3    C414181   2.024   4.132  11.915 -0.2105 -0.0898  0.5337
    6TMC3    C514182   2.085   4.063  11.806 -0.1589  0.1976  0.1762
    6TMC3    C614183   2.010   3.999  11.710  0.5293 -0.2319  0.0912
    6TMC3     C14184   1.823   4.236  12.019  0.7529  0.0275 -0.7938
    6TMC3     O14185   1.888   4.243  12.125 -0.1968 -0.1133 -0.1663
    6TMC3     H14186   1.707   4.067  11.842 -0.1032 -0.1042 -0.0291
    6TMC3    H114187   2.073   4.206  11.976 -1.0413  1.7655 -1.0361
    6TMC3    H214188   2.051   3.948  11.624 -0.3097  0.4093 -0.6896
    6TMC3    C714189   2.219   4.117  11.782 -0.1164 -0.2223 -0.0801
    6TMC3    C814190   1.785   3.913  11.670 -0.3314 -0.6333 -0.1343
    6TMC3    O114191   2.233   4.229  11.834 -0.2677  0.1761 -0.1022
    6TMC3    O214192   1.673   3.947  11.635 -0.0693 -0.0205  0.5283
    7MPD2     C14193   3.126   4.206  11.836  0.4467 -0.3688  0.6147
    7MPD2    C114194   3.048   4.301  11.904  0.2202 -0.7524  0.4850
    7MPD2    C214195   3.010   4.266  12.030 -0.3408  0.5932 -0.5773
    7MPD2    C314196   3.043   4.144  12.087 -0.1008  0.1128  0.6830
    7MPD2    C414197   3.114   4.050  12.013 -0.1215  0.2522 -0.0432
    7MPD2    C514198   3.154   4.084  11.888  0.2723  0.3553  0.2640
    7MPD2     H14199   2.949   4.338  12.084 -0.8254 -0.2585  0.0153
    7MPD2    H114200   3.152   3.954  12.048  0.9963  1.1165  1.1255
    7MPD2    H214201   3.154   4.233  11.735 -3.0674 -1.1751 -0.5901
    7MPD2    H314202   3.190   4.005  11.824  1.1162  0.0958  1.0510
    7MPD2     N14203   3.001   4.112  12.217  0.3794  0.1569  0.6198
    7MPD2    H514204   3.010   4.016  12.247 -1.7232 -0.6017 -1.1543
    7MPD2    N114205   3.008   4.418  11.839 -0.3243  0.0783 -0.1901
    7MPD2    H714206   3.027   4.418  11.739  1.1297 -0.0796  0.0899
    8TMC3    C114207   2.886   4.624  11.806 -0.0506 -0.2079  0.5815
    8TMC3    C214208   2.820   4.564  11.702  0.1890 -0.0220  0.3466
    8TMC3    C314209   2.691   4.599  11.682  0.2069  1.2940  0.5953
    8TMC3    C414210   2.845   0.006  11.867 -0.0668  0.1805  0.1252
    8TMC3    C514211   2.715   0.042  11.846 -1.2008 -0.1331  0.3198
    8TMC3    C614212   2.643   4.703  11.754 -0.0599 -0.2873 -0.5711
    8TMC3     C14213   2.948   4.527  11.898  0.0492  0.0720 -0.3607
    8TMC3     O14214   2.934   4.547  12.016  0.2928  0.0912 -0.0630
    8TMC3     H14215   2.866   4.478  11.654 -0.9048  0.3253 -1.3230
    8TMC3    H114216   2.906   0.045  11.947 -0.1188 -0.9157  0.6938
    8TMC3    H214217   2.536   4.721  11.760 -0.2237 -1.0073 -1.4110
    8TMC3    C714218   2.642   0.054  11.974 -0.8195  0.4679  0.8735
    8TMC3    C814219   2.598   4.489  11.693  0.0658  0.4670  0.7489
    8TMC3    O114220   2.539   0.123  11.966  0.0219 -0.0417 -0.0936
    8TMC3    O214221   2.491   4.492  11.748 -0.1917 -0.0181  0.1749
    9MPD2     C14222   2.648   4.175  11.499  0.1128  0.0089  0.2535
    9MPD2    C114223   2.582   4.264  11.587  0.7325 -0.8671 -0.2167
    9MPD2    C214224   2.475   4.218  11.652  0.3077  0.3897  0.0410
    9MPD2    C314225   2.425   4.092  11.631  0.5619 -0.3349  0.0000
    9MPD2    C414226   2.501   4.001  11.557  0.0601  0.4261  0.5787
    9MPD2    C514227   2.618   4.040  11.498  0.4696 -0.2340 -0.3893
    9MPD2     H14228   2.415   4.285  11.713  0.9339 -0.1694  1.2671
    9MPD2    H114229   2.472   3.897  11.560  0.2155  0.3452 -0.5289
    9MPD2    H214230   2.735   4.207  11.444 -1.4401  0.2086 -2.1113
    9MPD2    H314231   2.676   3.975  11.433  0.5278 -0.4682 -0.1050
    9MPD2     N14232   2.298   4.045  11.689  0.4847 -0.2396  0.7372
    9MPD2    H514233   2.268   3.950  11.669 -0.3989 -0.2090  1.8972
    9MPD2    N114234   2.636   4.393  11.600  0.6012 -0.0463 -0.0371
    9MPD2    H714235   2.712   4.420  11.538 -0.0893  0.6179 -0.5883
    1MPD1     C14236   2.527   3.396  17.008  0.1375  0.3606 -0.1793
    1MPD1    C114237   2.482   3.293  17.093 -0.9226 -0.3361  0.8291
    1MPD1    C214238   2.429   3.181  17.031 -0.7213 -0.0255 -0.7296
    1MPD1    C314239   2.400   3.189  16.894 -0.5912 -0.1041 -0.5326
    1MPD1    C414240   2.434   3.295  16.810  0.0060  0.2215  0.0511
    1MPD1    C514241   2.497   3.401  16.872 -0.4955  0.6466  0.0602
    1MPD1     H14242   2.403   3.089  17.083 -0.8160  0.1229 -0.5157
    1MPD1    H114243   2.410   3.288  16.705  2.4020  0.3712 -0.5107
    1MPD1    H214244   2.586   3.472  17.058 -1.1846  2.0055 -1.1174
    1MPD1    H314245   2.520   3.493  16.818  0.8622  0.1410 -0.2294
    1MPD1     N14246   2.331   3.085  16.825  0.3105 -0.1909  0.7538
    1MPD1    H514247   2.305   3.113  16.731 -1.9101  0.4307  1.5318
    1MPD1    N114248   2.520   3.279  17.230  0.0690 -0.4615  0.3659
    1MPD1    H614249   2.516   3.366  17.282  0.3352  0.2949 -0.8672
    1MPD1    H714250   2.459   3.217  17.283 -1.1838  0.0831 -0.4342
    2MPD1     C14251   2.657   2.734  16.141 -0.1929 -0.2182  0.5346
    2MPD1    C114252   2.631   2.864  16.172 -0.8525  0.3790 -0.3575
    2MPD1    C214253   2.528   2.896  16.259  0.6313  0.1130 -0.6079
    2MPD1    C314254   2.460   2.794  16.326  0.1567  0.5780  0.1608
    2MPD1    C414255   2.497   2.662  16.300  0.2237 -0.4433  0.7405
    2MPD1    C514256   2.592   2.630  16.204  0.2597 -0.1243 -0.4876
    2MPD1     H14257   2.516   3.001  16.287 -2.6312  0.3632 -2.8370
    2MPD1    H114258   2.447   2.574  16.337 -0.2477 -0.7070 -0.5071
    2MPD1    H214259   2.717   2.704  16.056 -0.3626  1.2408 -0.1098
    2MPD1    H314260   2.614   2.526  16.180  0.1488 -0.7578  2.2256
    2MPD1     N14261   2.352   2.829  16.407  0.0053  0.3626 -0.1296
    2MPD1    H514262   2.320   2.924  16.423  2.3908  1.0453  0.6072
    2MPD1    N114263   2.691   2.967  16.092  0.1674 -1.0241  0.3619
    2MPD1    H614264   2.714   3.051  16.145  2.4981 -1.9881  0.8702
    2MPD1    H714265   2.777   2.942  16.043  1.5814  2.4646  1.0707
    3TCq2    C114266   2.259   2.743  16.461  0.5531  0.6290 -0.4491
    3TCq2    O214267   2.231   2.626  16.435 -0.6094  0.3973 -0.7595
    3TCq2    C214268   2.181   2.802  16.571  0.4867  0.9715  0.1978
    3TCq2    C314269   2.051   2.756  16.607  0.0607 -0.0851  0.1760
    3TCq2    C414270   2.006   2.788  16.732  0.6033  0.6427 -0.3644
    3TCq2    C514271   2.087   2.851  16.816 -0.6748 -0.6635 -0.3809
    3TCq2    C614272   2.204   2.897  16.783  0.1751  0.3945  0.5571
    3TCq2    C714273   2.260   2.876  16.661 -0.7399 -0.0514 -0.1965
    3TCq2    C814274   2.285   2.971  16.880 -0.1277 -0.8306 -0.3823
    3TCq2    O414275   2.267   2.931  16.995  0.1960  0.0468 -0.5918
    3TCq2    C914276   1.879   2.740  16.777 -0.4704 -0.0588  0.1521
    3TCq2    O514277   1.864   2.750  16.904 -0.1057  0.1813 -0.0050
    3TCq2    O614278   1.812   2.659  16.711 -0.5994 -0.1306 -0.3712
    3TCq2    H214279   1.998   2.685  16.544 -0.3314 -0.2113  0.6493
    3TCq2    H314280   2.048   2.886  16.911 -3.3527 -0.4074 -1.5581
    3TCq2    H414281   2.366   2.892  16.647 -1.0328  3.8048  1.9193
    1TCq1    O114282   0.260   1.567  13.480  0.2084 -0.2659  0.4236
    1TCq1    C114283   0.156   1.627  13.542  0.1511 -0.0802 -0.3789
    1TCq1    O214284   0.098   1.582  13.636  0.4645 -0.2463 -0.1981
    1TCq1    C214285   0.089   1.691  13.428  0.1068  0.4483 -0.2603
    1TCq1    C314286   4.680   1.670  13.430  0.1521 -0.1385  0.0441
    1TCq1    C414287   4.609   1.744  13.334 -0.0182  0.2896  0.0064
    1TCq1    C514288   4.669   1.845  13.257 -1.0836 -0.5741  0.2550
    1TCq1    C614289   0.081   1.859  13.258  0.4415  0.3553  0.0515
    1TCq1    C714290   0.157   1.790  13.352 -0.1117 -0.1079 -0.6826
    1TCq1    C814291   0.142   1.968  13.178  0.2625  0.7072 -0.0785
    1TCq1    O414292   0.074   2.011  13.085  0.2881  0.4647 -0.5292
    1TCq1    C914293   4.469   1.723  13.331 -0.1670 -0.4118 -0.0445
    1TCq1    O514294   4.403   1.788  13.248 -0.6779 -0.6211  0.1798
    1TCq1    O614295   4.415   1.641  13.408 -0.0958  0.0585  0.0717
    1TCq1    H114296   0.248   1.583  13.384  2.3687  1.7776  0.4851
    1TCq1    H214297   4.640   1.590  13.491  2.5111 -1.6681 -0.3997
    1TCq1    H314298   4.609   1.908  13.191 -0.2691 -0.5854 -0.4987
    1TCq1    H414299   0.265   1.791  13.344 -0.0141 -0.4322  0.6374
    2MPD2     C14300   0.325   2.150  13.036  0.4412 -0.7991  0.5667
    2MPD2    C114301   0.333   2.115  13.175  0.0923  0.4879  0.7236
    2MPD2    C214302   0.437   2.174  13.244 -0.2285 -0.0564  1.2182
    2MPD2    C314303   0.526   2.262  13.188  0.5369  0.3383  0.1709
    2MPD2    C414304   0.507   2.301  13.054  0.6217  0.9803  0.3782
    2MPD2    C514305   0.409   2.238  12.977 -0.5701  0.1200  0.2124
    2MPD2     H14306   0.449   2.148  13.349 -1.2109  1.6552  1.7486
    2MPD2    H114307   0.573   2.375  13.010 -0.8523  2.7865  1.1779
    2MPD2    H214308   0.252   2.107  12.968  0.6284  1.2254 -0.9066
    2MPD2    H314309   0.389   2.264  12.873 -0.8854 -2.2487 -0.3007
    2MPD2     N14310   0.618   2.330  13.278 -0.1859  0.2148 -0.3574
    2MPD2    H514311   0.617   2.275  13.363  0.4000  1.0265  0.1744
    2MPD2    N114312   0.256   2.016  13.239  0.4562 -0.3611 -0.0294
    2MPD2    H714313   0.288   1.981  13.329 -1.6527 -1.5950  0.2369
    3TCq1    O114314   0.808   2.827  13.531 -0.2747  0.1747  0.2431
    3TCq1    C114315   0.898   2.743  13.591 -0.3393  0.3301 -0.0179
    3TCq1    O214316   0.911   2.721  13.714 -0.1235 -0.3215  0.1103
    3TCq1    C214317   0.904   2.631  13.504  0.2901  0.2420  0.4553
    3TCq1    C314318   0.958   2.519  13.560 -0.0090  0.5724  0.2320
    3TCq1    C414319   0.935   2.395  13.515 -0.4560  0.4014  0.9782
    3TCq1    C514320   0.854   2.372  13.403  0.5535 -0.0424  0.2775
    3TCq1    C614321   0.786   2.481  13.361 -0.8271  0.2481  0.0651
    3TCq1    C714322   0.803   2.611  13.410  0.5248  0.6404 -0.4958
    3TCq1    C814323   0.685   2.453  13.261  0.7812 -0.4189  0.2171
    3TCq1    O414324   0.645   2.541  13.189  0.7652 -0.2154  0.3640
    3TCq1    C914325   1.002   2.280  13.573  1.1080 -0.0274  0.6390
    3TCq1    O514326   1.069   2.300  13.676  0.4914  0.3517  0.1450
    3TCq1    O614327   0.981   2.172  13.511  0.2108 -0.0623 -0.1870
    3TCq1    H114328   0.821   2.827  13.434 -0.6375 -1.2808  0.1979
    3TCq1    H214329   1.027   2.529  13.643 -0.5042 -1.6641  0.8899
    3TCq1    H314330   0.849   2.274  13.356  1.8325 -0.0916  0.2500
    3TCq1    H414331   0.747   2.688  13.358 -0.1849  0.1401 -0.4561
    1MPD2     C14332   0.150   2.542  15.210  0.0665  0.2413  0.7582
    1MPD2    C114333   0.025   2.606  15.209  0.3483 -0.5119  0.2944
    1MPD2    C214334   4.653   2.574  15.112  0.6084  0.3624  0.0055
    1MPD2    C314335   4.677   2.474  15.021  0.3311  0.6043  0.0075
    1MPD2    C414336   0.073   2.407  15.027  0.7813  0.5131 -0.2546
    1MPD2    C514337   0.170   2.439  15.123 -0.6912 -0.3100  0.0338
    1MPD2     H14338   4.566   2.638  15.108 -0.0535 -0.5677 -0.3214
    1MPD2    H114339   0.106   2.338  14.949  1.4724  2.1793 -1.4369
    1MPD2    H214340   0.216   2.555  15.295 -0.5053 -2.1820  1.5736
    1MPD2    H314341   0.260   2.380  15.118 -0.6919 -0.5458  2.8982
    1MPD2     N14342   4.574   2.451  14.927 -0.1970  0.0842 -0.6234
    1MPD2    H514343   4.487   2.503  14.936 -0.1309  0.4594 -2.0993
    1MPD2    N114344   0.006   2.713  15.301  0.3947 -0.2070 -0.1878
    1MPD2    H714345   0.090   2.747  15.348 -0.1361  1.3962 -0.4088
    2TMC3    C114346   4.590   2.864  15.429 -0.5435  0.3848  0.1294
    2TMC3    C214347   4.471   2.870  15.500  0.1531 -0.3634 -0.5129
    2TMC3    C314348   4.401   2.987  15.520 -0.4273 -0.5065 -0.1519
    2TMC3    C414349   4.648   2.978  15.384  0.4574  0.3497 -0.0500
    2TMC3    C514350   4.583   3.096  15.399  0.6378 -0.2201 -0.0369
    2TMC3    C614351   4.462   3.104  15.472 -0.6596  0.4304  0.7410
    2TMC3     C14352   4.610   2.746  15.343 -0.2179  0.5264 -0.3077
    2TMC3     O14353   4.501   2.693  15.318 -0.6019 -0.5436  0.1323
    2TMC3     H14354   4.430   2.775  15.532  2.9426 -1.7229 -0.9594
    2TMC3    H114355   4.723   2.969  15.307 -0.5066  0.2572 -0.9700
    2TMC3    H214356   4.398   3.191  15.460  0.0147  0.8691  0.3040
    2TMC3    C714357   4.620   3.222  15.321  0.4618  0.0616  0.4034
    2TMC3    C814358   4.265   2.978  15.459  0.7679  0.6140  0.0680
    2TMC3    O114359   4.541   3.313  15.308  0.0742 -0.3761  0.6458
    2TMC3    O214360   4.188   3.073  15.468  0.0005  0.5873  0.2726
    3TCq1    O114361   1.008   3.751  15.180  0.6232  0.3015  0.2863
    3TCq1    C114362   0.984   3.663  15.085 -0.2515  0.1288 -0.4785
    3TCq1    O214363   1.066   3.611  15.012  0.3811 -0.2138 -0.3382
    3TCq1    C214364   0.887   3.580  15.148  0.6330 -0.1929 -0.2761
    3TCq1    C314365   0.924   3.484  15.235  0.0833 -0.1451 -0.1948
    3TCq1    C414366   0.828   3.410  15.294  0.2869 -0.5300 -0.1260
    3TCq1    C514367   0.698   3.431  15.264  0.2771 -1.0771  0.1025
    3TCq1    C614368   0.662   3.523  15.179  0.6120 -0.0583 -0.0294
    3TCq1    C714369   0.756   3.605  15.117 -0.0767 -0.7725 -0.3891
    3TCq1    C814370   0.522   3.553  15.156 -0.5964 -0.4104 -0.4833
    3TCq1    O414371   0.514   3.663  15.102  0.3722 -0.3486  0.2417
    3TCq1    C914372   0.870   3.315  15.394  0.3493 -0.0499  0.6782
    3TCq1    O514373   0.780   3.263  15.475  0.0589 -0.5755 -0.0465
    3TCq1    O614374   0.990   3.295  15.403  0.2122 -0.1618 -0.1935
    3TCq1    H114375   0.926   3.761  15.235  1.9573  0.4064  2.2654
    3TCq1    H214376   1.028   3.471  15.262 -0.2845 -0.7582  0.9594
    3TCq1    H314377   0.621   3.384  15.324 -0.7302 -2.1797 -2.0731
    3TCq1    H414378   0.736   3.690  15.052 -0.6804  0.6460  1.6198
    4MPD2     C14379   0.236   3.526  15.072 -0.3431  1.1171 -0.0709
    4MPD2    C114380   0.299   3.449  15.168  0.6683 -0.1367 -0.0666
    4MPD2    C214381   0.229   3.349  15.238 -0.6404 -0.5432 -0.1223
    4MPD2    C314382   0.092   3.339  15.220  0.2952 -0.8393 -0.7929
    4MPD2    C414383   0.026   3.418  15.127 -0.3928  0.4019  0.1051
    4MPD2    C514384   0.099   3.507  15.054 -0.5815 -0.0261  1.3468
    4MPD2     H14385   0.277   3.280  15.307 -1.9914  0.3992  1.7486
    4MPD2    H114386   4.648   3.396  15.109  0.1045 -1.4970 -0.4227
    4MPD2    H214387   0.291   3.594  15.009 -0.0529 -0.5251 -1.5749
    4MPD2    H314388   0.041   3.570  14.987  2.0787  2.7370  1.6574
    4MPD2     N14389   0.029   3.232  15.295  0.1533  0.4876  0.6048
    4MPD2    H514390   0.088   3.156  15.327  0.3098  1.2228  2.0500
    4MPD2    N114391   0.441   3.444  15.171 -0.2227  0.5113  0.3550
    4MPD2    H714392   0.476   3.375  15.236  0.0145 -1.1736 -1.5478
    5TMC2    C114393   4.235   2.427  14.871  0.4817  0.0660 -0.5572
    5TMC2    C214394   4.188   2.301  14.892 -0.1613  0.6625  0.4599
    5TMC2    C314395   4.256   2.196  14.848  0.8069 -0.1925 -0.2945
    5TMC2    C414396   4.359   2.439  14.810 -0.2304 -0.1978 -0.0239
    5TMC2    C514397   4.439   2.334  14.777 -0.1092 -1.0085 -0.1382
    5TMC2    C614398   4.384   2.210  14.794  0.1810  0.3607  0.1481
    5TMC2     C14399   4.235   2.516  14.988 -0.5478 -0.5970  0.0406
    5TMC2     O14400   4.343   2.568  15.017  0.1598 -0.0447 -0.7268
    5TMC2     H14401   4.100   2.273  14.948 -0.1830  0.0874  0.1355
    5TMC2    H114402   4.383   2.543  14.790  1.0458 -0.2323  1.3890
    5TMC2    H214403   4.438   2.122  14.762 -1.1304 -0.0950 -0.8230
    5TMC2    C714404   4.570   2.343  14.841 -0.0561 -0.6654 -0.0737
    5TMC2    C814405   4.197   2.066  14.887  0.5573  0.0376  0.6122
    5TMC2    O114406   4.647   2.251  14.830 -0.2649 -0.0657 -0.5788
    5TMC2    O214407   4.144   2.047  14.995 -0.3815 -0.8274 -0.5408
    5TMC2    O514408   4.246   1.973  14.800  0.1220 -0.0766 -0.3786
    5TMC2    H514409   4.256   2.010  14.710 -0.0972  1.1435  0.1030
    6MPD2     C14410   4.020   2.855  15.309 -0.7785  0.0032 -0.0213
    6MPD2    C114411   4.156   2.815  15.302  0.2458  1.0026 -0.4964
    6MPD2    C214412   4.187   2.713  15.203 -0.5497  0.7933  0.9159
    6MPD2    C314413   4.086   2.657  15.116  0.6959  0.5164 -0.4901
    6MPD2    C414414   3.955   2.705  15.126 -0.6946 -0.3850  0.3423
    6MPD2    C514415   3.927   2.807  15.215 -0.4149  0.1075  0.2179
    6MPD2     H14416   4.285   2.666  15.212 -0.3701  1.4108  2.1721
    6MPD2    H114417   3.877   2.663  15.063 -0.0892 -1.0614  0.0390
    6MPD2    H214418   3.988   2.931  15.378 -0.6236 -0.1021  0.1657
    6MPD2    H314419   3.826   2.847  15.217 -0.8580 -1.0015  0.1872
    6MPD2     N14420   4.110   2.545  15.033  0.6848  0.0649 -0.1896
    6MPD2    H514421   4.029   2.496  14.998  1.8061 -0.8438 -1.5227
    6MPD2    N114422   4.264   2.863  15.382 -0.2638 -0.2346  0.3264
    6MPD2    H714423   4.351   2.812  15.366 -0.1853  0.1578 -0.4675
  945NH3     N114424   0.525   0.564   8.243  0.5306 -0.0841  0.3104
  945NH3     H214425   0.591   0.635   8.214 -0.7481  1.0195  0.1230
  945NH3     H314426   0.464   0.615   8.306 -0.2964  1.3173 -1.6268
  945NH3     H414427   0.579   0.503   8.303 -1.1930 -1.9122  0.0023
  946SOD     NA14428   3.877   1.102  14.153 -0.4374 -0.3615 -0.1656
  947SOD     NA14429   2.431   2.484  15.376 -0.3360  0.2680  0.0254
  948SOD     NA14430   2.171   2.595   0.294  0.4483 -0.1900  0.3383
  949SOD     NA14431   0.903   2.132  10.658  0.3771  0.5146  0.0770
  950SOD     NA14432   4.684   1.109   7.284  0.1450 -0.5569  0.2111
  951SOD     NA14433   1.933   0.419   0.322  0.1567 -0.0726  0.2295
  952SOD     NA14434   4.362   1.697   6.235 -0.4323  0.0872 -0.4417
  953SOD     NA14435   4.453   2.309   9.551 -0.4466 -0.1480 -0.3955
  954SOD     NA14436   1.509   3.743  15.209 -0.2415 -0.2717  0.1762
  955SOD     NA14437   1.618   4.668  14.360 -0.2624  0.3854 -0.1692
  956SOD     NA14438   1.428   1.689   5.517  0.4205  0.0179 -0.3160
  957SOD     NA14439   0.740   2.103  11.926  0.0780  0.0548  0.3180
  958SOD     NA14440   0.178   4.433   8.923  0.1991 -0.2423 -0.2910
  959SOD     NA14441   3.410   1.518  13.460 -0.0876  0.3398  0.0999
  960SOD     NA14442   2.745   3.239  13.196  0.0537 -0.0705 -0.1282
  961SOD     NA14443   2.286   4.465  11.868 -0.0328 -0.5289 -0.1326
  962SOD     NA14444   0.491   3.169  12.421 -0.3884  0.7777  0.0237
  963SOD     NA14445   2.370   0.126   3.817 -0.2882 -0.0738  0.3776
  964SOD     NA14446   0.602   2.190  10.574  0.3350 -0.6181 -0.3816
  965SOD     NA14447   0.652   3.597   2.584  0.0819 -0.2441  0.1912
  966SOD     NA14448   0.302   3.246  14.685 -0.2909 -0.3685  0.3597
  967SOD     NA14449   3.625   1.649   2.592 -0.1518 -0.2108  0.1562
  968SOD     NA14450   1.656   2.516  16.736 -0.3197  0.1859  0.2119
  969SOD     NA14451   1.343   2.662  11.703  0.5004 -0.2222  0.3661
  970SOD     NA14452   3.543   1.891  10.703  0.1192 -0.2861  0.0184
  971SOD     NA14453   1.201   2.160  13.784  0.5942  0.1211  0.5809
  972SOD     NA14454   1.161   2.249  12.336  0.0106 -0.1608 -0.1153
  973SOD     NA14455   0.973   0.556   1.187 -0.4701 -0.4229 -0.3474
  974SOD     NA14456   3.444   2.565  13.868  0.0766 -0.4211 -0.0374
  975SOD     NA14457   3.035   0.627   1.377  0.2413 -0.2758 -0.3237
  976SOD     NA14458   1.834   2.318  11.551  0.7881 -0.1046 -0.0157
  977SOD     NA14459   1.145   1.507  12.858  0.2395  0.0199  0.3746
  978SOD     NA14460   0.121   4.275  16.725 -0.2518 -0.0036  0.3361
  979SOD     NA14461   2.019   0.880  12.869  0.4792  0.0476 -0.2745
  980SOD     NA14462   2.238   1.543  17.564  0.3057 -0.0821 -0.0352
  981SOD     NA14463   0.861   1.632  11.803  0.4387  0.2347  0.1458
  982SOD     NA14464   1.744   1.202  17.551  0.1625 -0.4577 -0.0211
  983SOD     NA14465   3.905   0.280  10.520  0.3409 -0.3314  0.2348
  984SOD     NA14466   4.574   1.513  10.522  0.0565  0.4690 -0.1205
  985SOD     NA14467   4.161   2.936  10.583 -0.1174 -0.0513  0.4212
  986SOD     NA14468   0.632   1.681   8.972  0.3010 -0.1267  0.6115
  987SOD     NA14469   0.113   1.444   2.456  0.2224 -0.6164  0.2157
  988SOD     NA14470   3.585   3.514   1.720 -0.2299 -0.5946 -0.2499
  989SOD     NA14471   0.938   2.309  13.884 -0.2701  0.3132 -0.4443
  990SOD     NA14472   4.595   1.489  10.176  0.3003  0.4054  0.3628
  991SOD     NA14473   2.002   0.996  13.372  0.6226  0.5350  0.4084
  992SOD     NA14474   0.082   2.529  15.703 -0.2001 -0.5957 -0.2983
  993SOD     NA14475   3.206   0.836   4.604 -0.3448 -0.0814 -0.1497
  994SOD     NA14476   1.470   3.322  14.630 -0.0871 -0.3658 -0.2739
  995SOD     NA14477   2.807   2.424  15.320  0.0322 -0.1952  0.2268
  996SOD     NA14478   4.353   2.539   0.473 -0.0636  0.1141 -0.4205
  997SOD     NA14479   1.960   3.148  11.080  0.7917  0.1488  0.0233
  998SOD     NA14480   1.111   2.105   0.429  0.2649 -0.2728  0.1863
  999SOD     NA14481   3.738   2.847  11.009 -0.2447 -0.8923  0.0398
 1000SOD     NA14482   4.301   2.621  10.638 -0.2648  0.8333  0.3619
 1001SOD     NA14483   3.500   4.177   9.029  0.0061 -0.3249 -0.2829
 1002SOD     NA14484   4.221   3.319   3.560  0.0508 -0.3299 -0.6846
 1003SOD     NA14485   1.256   3.415  13.867 -0.5471  0.1824 -0.7397
 1004SOD     NA14486   3.958   1.605  13.158 -0.1081 -0.0447 -0.1539
 1005SOD     NA14487   4.192   1.791  13.250  0.2281  0.6854  0.5572
 1006SOD     NA14488   0.536   0.474   2.666  0.2174 -0.5070 -0.3337
 1007SOD     NA14489   3.844   2.359   0.677 -0.3520 -0.0763 -0.1485
 1008SOD     NA14490   0.911   3.129  15.597  0.0036 -0.1560  0.0959
 1009SOD     NA14491   0.811   0.475   0.015 -0.0714  0.4480  0.0029
 1010SOD     NA14492   1.187   0.800   2.632  0.2453  0.3249 -0.2778
 1011SOD     NA14493   0.436   1.106  11.015 -0.2997  0.6103  0.0730
 1012SOL     OW14494   4.207   1.679   1.324 -0.1632  0.7863 -0.4250
 1012SOL    HW114495   4.200   1.767   1.361  0.2634  0.7128 -0.1641
 1012SOL    HW214496   4.184   1.622   1.397 -0.0219 -0.8714 -1.6768
 1013SOL     OW14497   1.599   0.517   7.480 -0.6231  0.0379 -0.4605
 1013SOL    HW114498   1.577   0.604   7.516 -0.7809 -0.8789  1.6809
 1013SOL    HW214499   1.528   0.517   7.415 -1.1367  1.8792  0.0968
 1014SOL     OW14500   0.776   3.657   7.447  0.5271 -0.2328 -0.1189
 1014SOL    HW114501   0.691   3.694   7.474  1.0628 -0.0384  1.3327
 1014SOL    HW214502   0.759   3.580   7.393 -0.2141  0.0075 -0.2276
 1015SOL     OW14503   1.304   1.120  14.256  0.2468 -0.1133 -0.4937
 1015SOL    HW114504   1.369   1.073  14.204  1.2038  0.8464 -0.1586
 1015SOL    HW214505   1.359   1.171  14.315 -0.2225 -0.0518 -0.1109
 1016SOL     OW14506   0.272   3.349   3.382 -0.2200 -0.4799 -0.1414
 1016SOL    HW114507   0.269   3.423   3.321  0.6768  0.2687  0.7149
 1016SOL    HW214508   0.199   3.291   3.359  1.8957 -3.7605  1.3948
 1017SOL     OW14509   0.521   1.641   6.206 -0.4234  0.0573 -0.6104
 1017SOL    HW114510   0.585   1.582   6.166  0.1374 -0.7728  1.5081
 1017SOL    HW214511   0.506   1.586   6.283  1.2123 -1.4935 -1.3873
 1018SOL     OW14512   2.966   1.678   8.532 -0.1859  0.4314 -0.4730
 1018SOL    HW114513   2.960   1.642   8.621 -0.7510 -1.1502 -1.1506
 1018SOL    HW214514   3.029   1.618   8.493 -0.8330 -0.0901 -0.6996
 1019SOL     OW14515   0.918   4.028   7.457 -0.3237 -0.1537 -0.0032
 1019SOL    HW114516   1.008   4.038   7.428 -0.1321 -1.9704 -0.0646
 1019SOL    HW214517   0.942   3.992   7.542  2.1354  0.5872 -0.3911
 1020SOL     OW14518   4.019   3.217   5.709  0.3400  0.3161  0.4865
 1020SOL    HW114519   4.020   3.262   5.625 -0.8546 -2.0526 -0.7620
 1020SOL    HW214520   3.983   3.285   5.766  0.5516  1.3063 -0.5480
 1021SOL     OW14521   1.553   0.273   7.894  0.3954  0.4075 -0.1784
 1021SOL    HW114522   1.617   0.299   7.827  0.3275 -0.3457 -0.5356
 1021SOL    HW214523   1.519   0.188   7.867  2.8068 -0.8331  0.6591
 1022SOL     OW14524   0.376   4.512  11.447 -0.2215 -0.5059  0.3898
 1022SOL    HW114525   0.364   4.606  11.459 -2.3392 -0.4316 -2.2476
 1022SOL    HW214526   0.432   4.512  11.369 -2.4162 -1.2193 -1.1947
 1023SOL     OW14527   1.692   2.317   4.194  0.5445 -0.4539 -0.6820
 1023SOL    HW114528   1.691   2.229   4.232 -0.6500 -0.1059  0.1114
 1023SOL    HW214529   1.699   2.303   4.100 -0.5860 -0.0042 -0.8366
 1024SOL     OW14530   0.200   3.057   3.698 -0.1439  0.4213 -0.0270
 1024SOL    HW114531   0.240   3.072   3.612 -0.1267 -0.9519 -0.2653
 1024SOL    HW214532   0.272   3.061   3.761 -0.0370 -2.9746  0.0856
 1025SOL     OW14533   0.233   0.595   2.897  0.3251  0.0470  0.2731
 1025SOL    HW114534   0.292   0.660   2.861 -0.2458 -0.3976 -1.4715
 1025SOL    HW214535   0.285   0.518   2.876  2.9727  2.1829 -0.9050
 1026SOL     OW14536   2.327   3.917   6.164  0.3717  0.5458  0.4177
 1026SOL    HW114537   2.310   4.002   6.204  2.3518  2.2655 -2.3188
 1026SOL    HW214538   2.236   3.894   6.147  1.1460 -0.9911 -1.6946
 1027SOL     OW14539   2.727   2.842   5.126 -0.0465 -0.2494  0.0401
 1027SOL    HW114540   2.645   2.795   5.137 -0.9024  0.5248 -3.2333
 1027SOL    HW214541   2.774   2.776   5.076 -1.0171  1.5729 -3.3139
 1028SOL     OW14542   4.377   2.625   1.209 -0.4117  0.3039  0.0491
 1028SOL    HW114543   4.363   2.582   1.293 -1.6516  1.0617  0.2207
 1028SOL    HW214544   4.446   2.575   1.163 -1.5218  0.2875 -1.6129
 1029SOL     OW14545   3.823   1.424   5.361 -0.2187 -0.8492 -0.4433
 1029SOL    HW114546   3.801   1.339   5.323  0.0541 -1.6919  1.2841
 1029SOL    HW214547   3.914   1.407   5.388 -0.4632 -0.7712  0.4231
 1030SOL     OW14548   2.437   3.613   4.140  0.1402 -0.1877  0.0279
 1030SOL    HW114549   2.363   3.598   4.081 -0.1561 -1.4290  0.7054
 1030SOL    HW214550   2.511   3.630   4.081  0.0655  2.5359  0.7336
 1031SOL     OW14551   2.573   0.190   1.955  0.0786 -0.0648  0.6001
 1031SOL    HW114552   2.495   0.215   2.005  0.2217  0.4613  0.5665
 1031SOL    HW214553   2.583   0.267   1.898 -0.7172  1.6951  2.8265
 1032SOL     OW14554   3.119   2.378   4.013  0.2944  0.1411 -0.5485
 1032SOL    HW114555   3.024   2.370   4.008  0.2013 -0.0008  1.4656
 1032SOL    HW214556   3.129   2.423   3.929 -0.9365 -0.6478 -1.1200
 1033SOL     OW14557   3.938   1.575   1.942 -0.3625 -0.5430 -0.1664
 1033SOL    HW114558   3.907   1.500   1.891 -1.3042 -0.2816  0.0183
 1033SOL    HW214559   3.942   1.638   1.870  1.1353  1.0003  1.2569
 1034SOL     OW14560   0.289   4.698  14.469 -0.4989 -0.3609  0.1646
 1034SOL    HW114561   0.298   0.058  14.429 -1.3858 -1.1646 -1.7762
 1034SOL    HW214562   0.299   4.645  14.390 -1.5444 -2.4759  1.4577
 1035SOL     OW14563   0.232   1.465  11.850 -0.3819  0.2385  0.1976
 1035SOL    HW114564   0.311   1.417  11.874 -1.3912 -1.1343  0.6958
 1035SOL    HW214565   0.272   1.539  11.803  1.6775 -2.0980 -1.7195
 1036SOL     OW14566   4.619   1.446   4.225  0.0453  0.3040 -0.4545
 1036SOL    HW114567   4.641   1.509   4.294  2.1727 -1.2682  0.3385
 1036SOL    HW214568   4.664   1.486   4.151 -0.1856  0.3075 -0.5918
 1037SOL     OW14569   4.475   0.081   6.373 -0.1312  0.0017 -0.4500
 1037SOL    HW114570   4.456   0.045   6.459  2.7355 -0.4466 -0.0165
 1037SOL    HW214571   4.397   0.131   6.348 -0.6395  0.4331  2.0086
 1038SOL     OW14572   4.342   0.424   6.709  0.0371  0.4042  0.2731
 1038SOL    HW114573   4.279   0.353   6.703 -0.9862  1.4571 -1.6970
 1038SOL    HW214574   4.370   0.433   6.800 -1.7971  1.4306  0.7300
 1039SOL     OW14575   4.557   0.081   5.848 -0.4530  0.7910  0.1618
 1039SOL    HW114576   4.632   0.137   5.865  1.8529 -1.7307 -1.5970
 1039SOL    HW214577   4.562   0.078   5.752 -0.6544 -0.2844  0.1789
 1040SOL     OW14578   2.122   0.695   4.491  0.2887 -0.0413 -0.4469
 1040SOL    HW114579   2.139   0.647   4.410 -2.6820 -1.5229 -0.1893
 1040SOL    HW214580   2.028   0.676   4.495  0.8006 -3.0704 -2.6784
 1041SOL     OW14581   0.023   2.024   7.443 -0.1025  0.4962  0.1207
 1041SOL    HW114582   0.093   1.982   7.494  0.7180  0.0862 -1.3343
 1041SOL    HW214583   4.680   1.959   7.450  0.4656  0.0011  1.3613
 1042SOL     OW14584   0.816   2.556   8.588  0.0159  0.0791 -0.0466
 1042SOL    HW114585   0.878   2.586   8.655  0.5850 -1.7859  0.2763
 1042SOL    HW214586   0.862   2.484   8.544 -2.1798 -1.7304  0.5847
 1043SOL     OW14587   3.243   4.389   5.076 -0.0020 -0.7016 -0.4701
 1043SOL    HW114588   3.189   4.376   4.999 -0.5144  0.7674 -0.3639
 1043SOL    HW214589   3.260   4.301   5.109  0.6670  0.3565  1.9990
 1044SOL     OW14590   3.362   3.637  16.192  0.1776 -0.8395  0.0385
 1044SOL    HW114591   3.398   3.669  16.110  0.4442  2.4506  1.4518
 1044SOL    HW214592   3.433   3.636  16.257  0.2176  0.7902  0.0049
 1045SOL     OW14593   2.451   0.754   5.400 -0.8262 -0.1673 -0.5362
 1045SOL    HW114594   2.545   0.757   5.418 -0.8043 -0.5735 -0.5772
 1045SOL    HW214595   2.446   0.840   5.358  0.6581  0.2778  0.1946
 1046SOL     OW14596   0.043   1.471   1.677 -0.4714 -0.1402 -0.9305
 1046SOL    HW114597   0.103   1.545   1.685 -2.8557  1.5041  1.8006
 1046SOL    HW214598   0.096   1.418   1.618 -0.2303  0.6613 -1.4450
 1047SOL     OW14599   1.154   0.410   4.070 -0.1120  0.0252 -0.1323
 1047SOL    HW114600   1.103   0.358   4.009  0.4135 -1.1747  0.4379
 1047SOL    HW214601   1.115   0.389   4.155  1.1619  0.3385  0.5360
 1048SOL     OW14602   0.282   4.209  16.575 -0.0375 -0.1585 -0.2491
 1048SOL    HW114603   0.373   4.181  16.579  0.0749 -0.0070 -1.7443
 1048SOL    HW214604   0.252   4.218  16.484  1.7655  0.0017 -0.8138
 1049SOL     OW14605   2.967   1.500   8.195 -0.1352 -0.6543 -0.2692
 1049SOL    HW114606   3.007   1.579   8.232 -1.6776  1.1625 -2.5940
 1049SOL    HW214607   3.000   1.433   8.255  1.4543  0.8988  0.5994
 1050SOL     OW14608   1.611   2.102   9.436 -0.4162  0.1534  0.2784
 1050SOL    HW114609   1.685   2.146   9.477 -1.0609  0.1123  1.5110
 1050SOL    HW214610   1.546   2.157   9.481 -0.3076  0.5305 -0.0225
 1051SOL     OW14611   0.069   4.576  13.043  0.2963 -0.5157  0.2389
 1051SOL    HW114612   4.717   4.527  13.070  1.0985 -1.9891 -0.1314
 1051SOL    HW214613   0.070   4.628  13.124  1.7533  1.4065 -1.0122
 1052SOL     OW14614   4.092   4.617   3.036 -0.6385 -1.0603  0.3214
 1052SOL    HW114615   4.075   4.695   2.984  0.7737 -1.5767 -0.9036
 1052SOL    HW214616   4.074   4.639   3.128 -0.4217 -1.8939  0.5605
 1053SOL     OW14617   0.695   0.658  17.627 -0.4055  0.2320  0.1703
 1053SOL    HW114618   0.670   0.682  17.538  2.0898  3.0813  0.2232
 1053SOL    HW214619   0.745   0.734  17.658  0.1382 -0.0444 -0.0271
 1054SOL     OW14620   4.666   1.938   5.533 -0.0690  0.1061 -0.0719
 1054SOL    HW114621   4.642   1.899   5.617 -0.3137  1.0705  0.2962
 1054SOL    HW214622   4.586   1.974   5.496 -0.3345 -1.7249 -1.2872
 1055SOL     OW14623   4.103   0.386   8.821  0.7170  0.1897 -0.0651
 1055SOL    HW114624   4.087   0.417   8.732  0.7237 -0.4915 -0.3067
 1055SOL    HW214625   4.064   0.454   8.875 -0.2997  0.0694 -0.6495
 1056SOL     OW14626   2.476   3.721   2.199  0.2020  0.1756 -0.2179
 1056SOL    HW114627   2.501   3.780   2.128 -0.3734 -2.8665 -2.9591
 1056SOL    HW214628   2.398   3.761   2.238 -0.7441 -2.6697  0.8421
 1057SOL     OW14629   0.898   4.583   7.925  0.1270  0.2196 -0.1399
 1057SOL    HW114630   0.862   4.656   7.976  0.6684  0.0209  0.5275
 1057SOL    HW214631   0.854   4.511   7.971 -0.1351  0.6304  0.2542
 1058SOL     OW14632   0.549   3.635   7.963 -0.8268  0.1781  0.3116
 1058SOL    HW114633   0.511   3.569   8.021  0.1245 -0.9655 -0.3679
 1058SOL    HW214634   0.551   3.702   8.031 -0.1813  0.3300  0.1491
 1059SOL     OW14635   1.931   2.384   0.598  0.3519  0.2329  1.1768
 1059SOL    HW114636   1.844   2.399   0.561  1.1233  2.5779  0.3068
 1059SOL    HW214637   1.985   2.401   0.521  0.5873  2.4905  1.8494
 1060SOL     OW14638   0.002   3.181  13.691  0.0722 -0.3806  0.7685
 1060SOL    HW114639   4.718   3.263  13.739 -0.5510  0.2520 -0.4532
 1060SOL    HW214640   4.690   3.115  13.749 -0.1753  0.1022  1.1569
 1061SOL     OW14641   1.141   0.469   6.273  0.8813 -0.0880  0.4999
 1061SOL    HW114642   1.157   0.551   6.227 -2.5903  0.6203  0.4884
 1061SOL    HW214643   1.102   0.417   6.202  0.3301 -0.0455  0.7724
 1062SOL     OW14644   4.353   0.972  16.713  0.1724  0.1390 -0.6302
 1062SOL    HW114645   4.440   0.934  16.705 -0.1924 -0.5811 -1.1587
 1062SOL    HW214646   4.339   0.967  16.808  0.0786 -0.6317 -0.6827
 1063SOL     OW14647   2.105   4.189   4.859 -0.3776  0.0082  0.0672
 1063SOL    HW114648   2.090   4.256   4.925 -0.5431  0.9572 -0.9184
 1063SOL    HW214649   2.086   4.108   4.906  2.8173 -0.8679 -0.1616
 1064SOL     OW14650   0.783   0.692   5.907  0.3427  0.4042  0.3999
 1064SOL    HW114651   0.689   0.689   5.888  0.1819  0.2829  1.2031
 1064SOL    HW214652   0.822   0.610   5.875 -0.8284  0.5605 -1.4186
 1065SOL     OW14653   0.359   3.138   7.001  0.7102  0.1137 -0.4465
 1065SOL    HW114654   0.378   3.231   7.003 -0.3707  0.2846  1.8366
 1065SOL    HW214655   0.308   3.123   7.080  1.8555 -0.3297  0.2019
 1066SOL     OW14656   4.423   4.715   6.613  0.4693 -0.2158  0.2580
 1066SOL    HW114657   4.373   4.652   6.663 -0.0038 -1.2696 -1.5604
 1066SOL    HW214658   4.419   0.067   6.668  0.5938 -0.4539  0.6086
 1067SOL     OW14659   0.319   1.702   7.530  0.3544  0.5162 -0.1014
 1067SOL    HW114660   0.348   1.671   7.444 -1.8098 -4.7562  1.1076
 1067SOL    HW214661   0.251   1.638   7.545  0.1942  0.4278 -1.1885
 1068SOL     OW14662   3.998   0.256   3.870  0.5445 -0.9171 -0.3248
 1068SOL    HW114663   4.035   0.344   3.875  1.6545 -1.4313  0.5984
 1068SOL    HW214664   4.064   0.208   3.919 -1.1154 -0.9875  1.8194
 1069SOL     OW14665   3.290   3.148   6.820 -0.2325 -0.5659 -0.6477
 1069SOL    HW114666   3.312   3.114   6.733 -2.3287 -1.5165 -0.8124
 1069SOL    HW214667   3.231   3.078   6.846 -1.1029  0.1369 -0.6903
 1070SOL     OW14668   3.654   1.809   9.126  0.1954  0.6725 -0.0591
 1070SOL    HW114669   3.618   1.749   9.191  0.6820 -0.0314 -0.4298
 1070SOL    HW214670   3.748   1.792   9.131  0.3449  0.1180 -4.5100
 1071SOL     OW14671   1.464   3.026   0.367  0.3573 -0.0341 -0.4495
 1071SOL    HW114672   1.378   3.056   0.336  0.1127  0.7466  0.9952
 1071SOL    HW214673   1.527   3.051   0.300  0.6114 -0.0752 -0.2271
 1072SOL     OW14674   1.814   4.332   3.317  0.3020  0.1870  0.1238
 1072SOL    HW114675   1.845   4.400   3.258  0.3114 -0.8412 -1.0441
 1072SOL    HW214676   1.895   4.286   3.339  1.9388  2.6928 -0.6012
 1073SOL     OW14677   3.000   4.649   2.072  0.4177  0.7983 -0.3754
 1073SOL    HW114678   3.049   4.613   2.146  0.4765  1.6768  0.0086
 1073SOL    HW214679   2.974   0.011   2.097  0.9196  0.5164  1.1412
 1074SOL     OW14680   1.011   3.236   7.620  0.3491  0.0954  0.1549
 1074SOL    HW114681   0.932   3.206   7.665 -0.4874 -1.4458 -2.3517
 1074SOL    HW214682   1.022   3.324   7.656 -1.9972  0.7217 -0.6394
 1075SOL     OW14683   1.520   3.165   8.467  0.2485 -0.0050  0.3774
 1075SOL    HW114684   1.527   3.231   8.398  2.1636  2.0553  2.5477
 1075SOL    HW214685   1.565   3.212   8.537  2.0160 -0.8872 -0.1746
 1076SOL     OW14686   1.277   4.027  15.474 -0.4412 -0.0586 -0.6853
 1076SOL    HW114687   1.288   3.991  15.386 -1.8279 -0.7202 -0.5934
 1076SOL    HW214688   1.304   4.118  15.472 -1.2834  0.1949 -0.6937
 1077SOL     OW14689   3.649   1.248   0.417 -0.2190  0.3060  0.2399
 1077SOL    HW114690   3.579   1.284   0.362  0.2901  0.6348 -0.1901
 1077SOL    HW214691   3.589   1.177   0.441 -0.8185  0.2935 -1.3041
 1078SOL     OW14692   0.446   4.115   2.908  0.1522 -0.2620 -0.1473
 1078SOL    HW114693   0.391   4.179   2.862 -0.4064  0.6066  1.7169
 1078SOL    HW214694   0.536   4.131   2.879 -0.5318  1.1825 -1.4863
 1079SOL     OW14695   2.726   0.592   6.684  0.5380  0.3839 -0.0371
 1079SOL    HW114696   2.667   0.518   6.672  0.3409  0.4107  0.7153
 1079SOL    HW214697   2.670   0.662   6.650 -0.1283  0.3548  0.9911
 1080SOL     OW14698   3.760   3.089   5.711 -0.0504  0.1396 -0.2413
 1080SOL    HW114699   3.845   3.117   5.677 -0.9490  0.3084 -2.3278
 1080SOL    HW214700   3.793   3.050   5.792 -0.7675 -0.5973 -0.3109
 1081SOL     OW14701   3.700   3.307   8.719  0.1061  0.1595 -0.3712
 1081SOL    HW114702   3.723   3.368   8.790 -3.9272  0.6513  0.4779
 1081SOL    HW214703   3.686   3.360   8.640 -1.8335 -2.1053 -1.5113
 1082SOL     OW14704   0.317   3.786   4.336  0.2480 -0.0966  0.6732
 1082SOL    HW114705   0.257   3.797   4.410  1.3617 -0.8817  1.7062
 1082SOL    HW214706   0.381   3.856   4.347 -0.6526  1.1212 -1.8682
 1083SOL     OW14707   0.411   2.972   4.395  0.8988 -0.0164  0.4234
 1083SOL    HW114708   0.359   2.924   4.331  0.2858  1.1357  0.0713
 1083SOL    HW214709   0.483   3.002   4.339  0.5612 -1.1707 -0.6401
 1084SOL     OW14710   0.150   2.957   2.170  0.1069  0.0821  0.0850
 1084SOL    HW114711   0.197   2.900   2.231  0.9810  1.9622  1.1405
 1084SOL    HW214712   0.084   2.893   2.142  0.3419  0.3351 -1.0540
 1085SOL     OW14713   3.649   3.439  10.414 -1.0217 -0.5114  0.4560
 1085SOL    HW114714   3.704   3.506  10.455  1.8279 -1.8127 -1.2511
 1085SOL    HW214715   3.592   3.500  10.366  1.2539 -0.6919 -2.4259
 1086SOL     OW14716   3.324   0.067  16.227  0.4133  0.1532  0.3371
 1086SOL    HW114717   3.348   0.008  16.299 -1.5262  0.1544  0.9882
 1086SOL    HW214718   3.366   0.146  16.262 -0.1276 -0.1161  1.5808
 1087SOL     OW14719   3.615   1.969   4.659  0.0628  0.5781 -0.5338
 1087SOL    HW114720   3.618   2.043   4.720 -0.4488 -0.8044  1.1672
 1087SOL    HW214721   3.534   1.925   4.685  0.0431  0.4730 -0.7707
 1088SOL     OW14722   2.056   1.618   7.385  0.4724 -0.1719 -0.4673
 1088SOL    HW114723   2.121   1.684   7.413  1.5751 -1.0546 -0.9402
 1088SOL    HW214724   2.111   1.547   7.352  2.8619  1.0910  0.7420
 1089SOL     OW14725   0.787   3.211   7.787 -0.3546  0.1398  0.5141
 1089SOL    HW114726   0.811   3.281   7.848 -0.0086 -0.6806  1.3177
 1089SOL    HW214727   0.744   3.268   7.723 -0.5765 -0.0795  0.4719
 1090SOL     OW14728   3.435   0.760  15.186  0.3909 -0.1410  0.0833
 1090SOL    HW114729   3.487   0.679  15.187 -0.7056 -0.8615 -1.1791
 1090SOL    HW214730   3.369   0.730  15.248  0.6423 -2.2148 -0.6297
 1091SOL     OW14731   3.746   0.539   8.948  0.0084  0.2466 -0.4573
 1091SOL    HW114732   3.758   0.452   8.910 -1.3407 -0.2540  0.2650
 1091SOL    HW214733   3.663   0.534   8.996 -0.6752 -1.4673 -1.8601
 1092SOL     OW14734   1.803   1.032  13.835 -0.0763 -0.0388 -0.1020
 1092SOL    HW114735   1.874   1.093  13.814  0.5600 -1.5420 -2.2990
 1092SOL    HW214736   1.762   1.073  13.912 -0.1217  0.0260 -0.1601
 1093SOL     OW14737   3.352   2.810   4.018 -0.3328  0.1580 -0.4222
 1093SOL    HW114738   3.345   2.904   4.036  1.2756 -0.3951  2.9717
 1093SOL    HW214739   3.338   2.803   3.923  1.2088  0.3113 -0.6719
 1094SOL     OW14740   3.510   1.573  12.011 -0.2414  0.2699  0.0441
 1094SOL    HW114741   3.597   1.574  11.971 -0.1312  0.2752  0.2843
 1094SOL    HW214742   3.506   1.655  12.061 -1.1477  0.7117 -0.7652
 1095SOL     OW14743   2.442   1.658   6.096 -0.4571  0.0852 -0.5022
 1095SOL    HW114744   2.367   1.675   6.153  0.9779 -0.6149  1.5837
 1095SOL    HW214745   2.498   1.727   6.129  0.4423 -0.9654  0.1794
 1096SOL     OW14746   2.825   4.399   8.319 -0.2894  0.5982 -0.0178
 1096SOL    HW114747   2.903   4.447   8.345  1.1043 -0.4713 -2.2344
 1096SOL    HW214748   2.857   4.312   8.345 -1.6578  0.6324  1.7638
 1097SOL     OW14749   1.696   3.040   2.527  0.2763 -0.7013 -0.0831
 1097SOL    HW114750   1.715   3.019   2.435  0.9376 -0.0474 -0.0971
 1097SOL    HW214751   1.782   3.026   2.567  1.4087 -0.1396 -2.3438
 1098SOL     OW14752   4.661   4.287  11.404  0.3114  0.3867 -0.0013
 1098SOL    HW114753   4.663   4.194  11.381  0.0618  0.3125  0.2716
 1098SOL    HW214754   4.723   4.308  11.334 -0.4134  0.7624 -0.5313
 1099SOL     OW14755   1.299   0.728   6.960  0.2798  0.1760  0.1439
 1099SOL    HW114756   1.293   0.735   6.864  1.2407  0.7769  0.1321
 1099SOL    HW214757   1.229   0.665   6.978  0.5714  0.4172  2.0874
 1100SOL     OW14758   4.323   0.137   3.036 -0.2830 -0.0190  0.0225
 1100SOL    HW114759   4.245   0.184   3.067 -0.3352  0.4592 -0.8212
 1100SOL    HW214760   4.394   0.196   3.058  0.0451  0.2811 -1.8315
 1101SOL     OW14761   2.110   0.703   5.190  0.1582  0.4919  0.4844
 1101SOL    HW114762   2.060   0.621   5.184  1.3479 -0.1110 -1.3894
 1101SOL    HW214763   2.186   0.689   5.134 -1.5639  0.2112 -1.7731
 1102SOL     OW14764   1.374   1.777   7.852 -0.0993  0.0266  0.7612
 1102SOL    HW114765   1.429   1.833   7.907  1.4553 -1.4422  0.7230
 1102SOL    HW214766   1.437   1.767   7.779 -2.0579  0.2897 -0.9561
 1103SOL     OW14767   2.834   4.227   5.116 -0.5486  0.1672 -0.2789
 1103SOL    HW114768   2.830   4.280   5.037 -0.6901 -2.8678 -2.2947
 1103SOL    HW214769   2.856   4.141   5.079 -1.2438 -1.0362  2.1346
 1104SOL     OW14770   0.037   0.420   9.268  0.0152  0.1528 -0.1967
 1104SOL    HW114771   0.003   0.340   9.228  0.6407  1.2152 -2.8719
 1104SOL    HW214772   0.007   0.419   9.359 -0.0407 -1.8654 -0.2364
 1105SOL     OW14773   3.735   2.715  17.115 -0.1946 -0.2632  0.4662
 1105SOL    HW114774   3.707   2.696  17.025  0.7280 -0.5983  0.2511
 1105SOL    HW214775   3.830   2.704  17.116  0.0319  1.8228  2.4727
 1106SOL     OW14776   3.425   3.293   8.263  0.2753  0.0796 -0.2991
 1106SOL    HW114777   3.419   3.219   8.324 -1.0433  0.3936 -0.0482
 1106SOL    HW214778   3.338   3.329   8.278  0.2690  0.4050 -1.1187
 1107SOL     OW14779   1.912   4.538   0.548  0.8822 -0.5279 -0.0493
 1107SOL    HW114780   1.891   4.512   0.458 -0.1429 -1.8108  0.5500
 1107SOL    HW214781   1.928   4.632   0.541 -0.0710 -0.3422  0.2782
 1108SOL     OW14782   1.513   4.029  17.041  0.3067  0.3853  0.2977
 1108SOL    HW114783   1.467   4.066  16.966 -0.9085 -0.5087  0.6081
 1108SOL    HW214784   1.594   4.080  17.035  1.4760 -1.3320  1.4890
 1109SOL     OW14785   4.282   3.428   8.849 -0.0247 -0.4126  0.4902
 1109SOL    HW114786   4.204   3.442   8.904  1.4036  2.4551  1.7739
 1109SOL    HW214787   4.284   3.508   8.795  0.9165  0.7303  2.2285
 1110SOL     OW14788   1.542   2.145  11.857 -0.5005 -0.2876 -0.1964
 1110SOL    HW114789   1.638   2.152  11.858 -0.5137 -0.0982 -0.6977
 1110SOL    HW214790   1.524   2.149  11.951  0.7971  2.0230 -0.0639
 1111SOL     OW14791   1.240   1.460   4.365 -0.7341  0.1109 -0.0876
 1111SOL    HW114792   1.206   1.393   4.305  0.8225  2.0324 -3.1616
 1111SOL    HW214793   1.180   1.478   4.436  0.2742  0.8974  0.5693
 1112SOL     OW14794   4.286   3.024   5.262 -0.1408  0.1334  0.6536
 1112SOL    HW114795   4.282   3.020   5.357 -1.0959 -2.7140  0.5061
 1112SOL    HW214796   4.235   3.102   5.242 -0.9741 -0.4896  0.3504
 1113SOL     OW14797   1.869   0.926   9.281 -0.1489  0.1741 -0.1984
 1113SOL    HW114798   1.897   1.005   9.328 -2.1855  0.5031  0.4539
 1113SOL    HW214799   1.920   0.856   9.320  0.1239 -0.5039 -1.7860
 1114SOL     OW14800   4.166   3.987   3.321 -0.3939  0.1605 -0.2011
 1114SOL    HW114801   4.192   4.033   3.240  2.7232 -0.3614  0.5101
 1114SOL    HW214802   4.250   3.991   3.366 -0.3017 -2.7790 -0.1190
 1115SOL     OW14803   1.540   3.577   7.870  0.4390  0.6649  0.0313
 1115SOL    HW114804   1.550   3.666   7.905  1.1863  0.6795 -0.2289
 1115SOL    HW214805   1.624   3.543   7.898  0.2926 -0.3142 -0.7294
 1116SOL     OW14806   4.624   3.548   2.816 -0.0408  0.2203  0.4473
 1116SOL    HW114807   4.559   3.492   2.773  0.1551 -0.5627  1.1579
 1116SOL    HW214808   4.652   3.608   2.747  0.0577  0.9788  1.1502
 1117SOL     OW14809   4.197   0.759   7.977 -0.1298 -0.2059  0.8430
 1117SOL    HW114810   4.110   0.731   7.947  0.1824  2.5501 -2.6369
 1117SOL    HW214811   4.169   0.848   7.999 -0.4348 -0.4251  1.3571
 1118SOL     OW14812   3.950   3.575   8.397 -0.2762 -0.5628 -0.5983
 1118SOL    HW114813   3.876   3.525   8.432 -0.3456 -0.5307 -0.7001
 1118SOL    HW214814   3.920   3.567   8.307 -0.1192  1.1372 -0.7964
 1119SOL     OW14815   3.557   0.460   9.156  0.1581 -0.0560 -0.1631
 1119SOL    HW114816   3.509   0.415   9.086 -0.2185  1.4103 -0.8413
 1119SOL    HW214817   3.493   0.489   9.221 -2.5966  0.4612 -3.0935
 1120SOL     OW14818   0.783   3.262   0.900  0.1033 -0.0850  0.4114
 1120SOL    HW114819   0.745   3.176   0.918  0.9275 -0.9841 -2.1360
 1120SOL    HW214820   0.858   3.247   0.843 -0.6050 -3.0806  0.2923
 1121SOL     OW14821   0.699   0.415   3.233 -0.0378 -0.6874  0.2732
 1121SOL    HW114822   0.751   0.339   3.209 -0.3300 -1.2414  1.4215
 1121SOL    HW214823   0.766   0.480   3.258  0.8309 -2.0027  1.3459
 1122SOL     OW14824   3.601   2.148   9.079 -0.5476  0.1713  0.3098
 1122SOL    HW114825   3.523   2.173   9.129  0.0129 -0.0537  1.2927
 1122SOL    HW214826   3.612   2.068   9.129  2.0473  0.3081 -0.0269
 1123SOL     OW14827   0.750   0.199   4.772  0.0521 -0.3189 -0.1713
 1123SOL    HW114828   0.771   0.114   4.810 -1.1360 -1.0856 -1.2288
 1123SOL    HW214829   0.661   0.194   4.738 -0.3621  1.9449  0.5884
 1124SOL     OW14830   4.176   1.196   5.538 -0.0676 -0.0502  0.3894
 1124SOL    HW114831   4.230   1.259   5.587  2.1647 -0.2390 -1.7956
 1124SOL    HW214832   4.194   1.112   5.579  3.5665  0.2509 -0.5363
 1125SOL     OW14833   0.567   2.490  17.215 -0.0989 -0.1419  0.0139
 1125SOL    HW114834   0.520   2.447  17.286 -1.3187  2.0261  0.5194
 1125SOL    HW214835   0.637   2.428  17.198 -0.5422 -0.6145 -0.0726
 1126SOL     OW14836   2.393   3.249   4.367  0.3397  0.1795  0.8461
 1126SOL    HW114837   2.367   3.337   4.394  0.9157  0.4421  0.5549
 1126SOL    HW214838   2.367   3.242   4.276  0.3570 -0.0843  0.8620
 1127SOL     OW14839   4.142   2.752   1.407 -0.3000 -0.6344 -0.0118
 1127SOL    HW114840   4.197   2.680   1.377  0.7812  0.2169 -0.0464
 1127SOL    HW214841   4.055   2.722   1.381 -0.4286  0.7904 -1.2325
 1128SOL     OW14842   1.294   3.934   7.733  0.0595 -0.1879  0.3966
 1128SOL    HW114843   1.226   3.868   7.746  0.4464 -0.3893  1.3607
 1128SOL    HW214844   1.264   3.972   7.651  0.4178  1.2384  0.9215
 1129SOL     OW14845   1.432   1.654   1.076 -0.3235 -0.7961  0.7029
 1129SOL    HW114846   1.340   1.650   1.102 -0.2541  3.4449  1.6106
 1129SOL    HW214847   1.475   1.692   1.152 -0.3176 -0.0754  0.3438
 1130SOL     OW14848   4.418   3.611   2.481 -0.2807 -0.3914 -0.4746
 1130SOL    HW114849   4.445   3.686   2.428 -2.0717  0.6818  0.1566
 1130SOL    HW214850   4.390   3.559   2.405  0.1441 -0.5528 -0.5244
 1131SOL     OW14851   4.489   4.134   0.348  0.1557 -0.0915 -0.3754
 1131SOL    HW114852   4.404   4.107   0.312  0.0327  0.0656 -0.2039
 1131SOL    HW214853   4.491   4.227   0.329 -1.5379  0.5539  2.6159
 1132SOL     OW14854   4.692   0.957   5.762 -0.3387  0.2292 -0.7125
 1132SOL    HW114855   4.646   0.874   5.750 -1.1553  0.9342 -2.4512
 1132SOL    HW214856   0.049   0.932   5.721 -0.9105 -0.2100 -1.6037
 1133SOL     OW14857   1.402   4.401   9.174 -0.6311  0.4630 -0.6330
 1133SOL    HW114858   1.473   4.457   9.206 -0.5389  0.0668 -0.1531
 1133SOL    HW214859   1.352   4.455   9.112 -1.6916  1.5643  1.1919
 1134SOL     OW14860   1.493   4.653  10.747  0.2941 -0.7643 -0.3477
 1134SOL    HW114861   1.422   4.675  10.807  0.1165 -1.2116 -0.3874
 1134SOL    HW214862   1.529   4.567  10.771 -1.0980 -1.6024 -1.2280
 1135SOL     OW14863   0.327   4.447   2.520  0.5072  0.9856  0.3723
 1135SOL    HW114864   0.407   4.483   2.557  1.9553 -0.2420 -1.5461
 1135SOL    HW214865   0.340   4.479   2.431 -0.4847 -1.8867 -0.8039
 1136SOL     OW14866   3.033   4.241   8.443 -0.1852 -0.3719 -0.4549
 1136SOL    HW114867   3.004   4.198   8.523  1.3307  1.9895  1.3269
 1136SOL    HW214868   3.122   4.265   8.466 -0.9121  0.9853  0.9283
 1137SOL     OW14869   3.130   0.737   4.409 -0.0315 -0.2281  0.0008
 1137SOL    HW114870   3.037   0.718   4.398 -0.0382  0.6680 -1.5922
 1137SOL    HW214871   3.149   0.777   4.323  1.5312 -0.5920  0.1766
 1138SOL     OW14872   0.082   1.366   5.176  0.2879  0.6839 -0.1746
 1138SOL    HW114873   0.055   1.426   5.106  0.3204 -0.4607 -1.1701
 1138SOL    HW214874   0.002   1.318   5.197  0.0211  1.0565 -0.3298
 1139SOL     OW14875   3.355   2.868   5.728  0.8080 -0.0498 -0.3026
 1139SOL    HW114876   3.265   2.840   5.743  1.4426 -1.2805  1.1962
 1139SOL    HW214877   3.371   2.834   5.640 -0.5592 -1.6349  0.0662
 1140SOL     OW14878   0.738   1.524   3.642  0.3385 -0.2915  0.4422
 1140SOL    HW114879   0.778   1.530   3.555  2.7480  1.2056  1.6590
 1140SOL    HW214880   0.692   1.607   3.653  1.8774  0.4236  1.4104
 1141SOL     OW14881   1.396   2.381   2.176  0.7308 -0.0724  0.0152
 1141SOL    HW114882   1.405   2.473   2.151  1.2220 -0.4056 -1.0209
 1141SOL    HW214883   1.332   2.409   2.241 -0.1757  2.4512 -1.9648
 1142SOL     OW14884   3.945   3.158  11.327 -0.0769  0.4103 -0.5422
 1142SOL    HW114885   3.868   3.104  11.307 -0.6850  1.0302  0.1457
 1142SOL    HW214886   3.911   3.246  11.315  2.7799  1.5713 -0.0684
 1143SOL     OW14887   1.084   0.310   9.272 -0.5553 -0.5431 -0.0273
 1143SOL    HW114888   1.007   0.363   9.252  0.1974  0.0652 -1.3253
 1143SOL    HW214889   1.145   0.372   9.311 -0.7584 -0.9490  0.9201
 1144SOL     OW14890   3.987   4.052   7.261  0.5437 -0.1161 -0.6098
 1144SOL    HW114891   3.912   3.994   7.249  0.3900 -0.0259 -0.0791
 1144SOL    HW214892   4.050   3.993   7.219  2.8531  2.1960 -0.4172
 1145SOL     OW14893   2.183   0.460   7.593  0.0370 -0.0554 -0.3797
 1145SOL    HW114894   2.159   0.552   7.585  0.5329  0.0350 -0.7712
 1145SOL    HW214895   2.256   0.460   7.655  1.6534 -1.9470 -2.2622
 1146SOL     OW14896   1.943   0.211  11.255 -0.2770 -0.6791 -0.2212
 1146SOL    HW114897   1.936   0.221  11.350 -0.6962 -1.7135 -0.1413
 1146SOL    HW214898   1.907   0.294  11.222  0.7919 -0.6804 -1.3847
 1147SOL     OW14899   2.361   0.344  16.650  0.0296 -0.5817 -0.4103
 1147SOL    HW114900   2.411   0.268  16.680  1.0621  0.5294  0.6688
 1147SOL    HW214901   2.404   0.421  16.688 -1.1826 -0.5690  0.9560
 1148SOL     OW14902   3.770   4.184   5.251  0.1105 -0.1969  0.4188
 1148SOL    HW114903   3.757   4.111   5.191 -1.1892 -0.6813  1.2827
 1148SOL    HW214904   3.787   4.132   5.329  0.6640 -1.8339 -0.7965
 1149SOL     OW14905   2.511   3.155   2.356 -0.0375 -0.4567 -0.1345
 1149SOL    HW114906   2.556   3.225   2.309 -0.6287  3.1157  4.6170
 1149SOL    HW214907   2.478   3.207   2.430 -0.0110 -2.0907  1.0284
 1150SOL     OW14908   3.654   2.903   1.272 -0.2557  0.3368  0.3767
 1150SOL    HW114909   3.682   2.849   1.346  0.7799  0.6105  0.1906
 1150SOL    HW214910   3.687   2.988   1.300 -2.2190  1.1946  0.0379
 1151SOL     OW14911   3.259   4.410   4.536  0.3918  0.3757  0.3294
 1151SOL    HW114912   3.309   4.373   4.463  0.0855  1.0823 -0.2365
 1151SOL    HW214913   3.169   4.406   4.506 -0.2017 -1.4998  2.3574
 1152SOL     OW14914   2.210   3.006   2.944 -0.0621 -0.2911  0.0578
 1152SOL    HW114915   2.161   2.936   2.987  0.5659 -0.6513  0.1841
 1152SOL    HW214916   2.139   3.070   2.934 -0.2469 -0.6561 -0.9958
 1153SOL     OW14917   3.358   3.898   9.890 -0.1961 -0.2603  0.2866
 1153SOL    HW114918   3.330   3.816   9.930 -1.2922 -1.4366 -2.8809
 1153SOL    HW214919   3.410   3.867   9.816 -1.0701  1.6958 -1.1572
 1154SOL     OW14920   0.813   1.771   9.534  0.1190 -0.1907 -0.6812
 1154SOL    HW114921   0.862   1.700   9.575 -1.0013  0.2465  1.4066
 1154SOL    HW214922   0.744   1.774   9.600 -0.3245  1.2149 -1.2116
 1155SOL     OW14923   4.071   4.571  15.370 -0.2095  0.9155  0.0216
 1155SOL    HW114924   4.082   4.510  15.443  0.1359 -1.3325 -1.9079
 1155SOL    HW214925   4.078   4.655  15.415 -0.6003  0.2796  1.2719
 1156SOL     OW14926   4.017   4.468   6.757  0.2517  0.2816  0.3051
 1156SOL    HW114927   4.016   4.430   6.845 -0.8881 -2.9284 -1.0976
 1156SOL    HW214928   3.933   4.508   6.737 -0.5489 -2.0008 -0.9045
 1157SOL     OW14929   3.832   3.060   6.030 -0.0075 -0.3590 -0.1533
 1157SOL    HW114930   3.867   3.019   6.109 -1.6374 -2.6792 -0.6412
 1157SOL    HW214931   3.751   3.012   6.019  0.6181 -1.8088  1.6279
 1158SOL     OW14932   4.285   3.309  16.185  0.1849  0.9235  0.3048
 1158SOL    HW114933   4.261   3.328  16.275 -0.0138  0.3273  0.3806
 1158SOL    HW214934   4.293   3.214  16.194  0.8353  0.9696  0.1814
 1159SOL     OW14935   1.043   3.255  12.359  0.0844  0.8668 -0.0262
 1159SOL    HW114936   1.013   3.205  12.283  0.9281  1.3722 -0.6881
 1159SOL    HW214937   0.989   3.334  12.357  1.1014  1.6333  2.9347
 1160SOL     OW14938   4.628   4.427   6.275  0.5953  0.4032 -0.7559
 1160SOL    HW114939   4.677   4.381   6.343 -0.6513 -1.9838 -1.4595
 1160SOL    HW214940   4.580   4.354   6.235 -0.6061  0.7662 -0.0051
 1161SOL     OW14941   0.139   3.711   7.682  0.0356  0.0725  0.0401
 1161SOL    HW114942   0.059   3.749   7.647 -0.3554 -0.9576 -0.1779
 1161SOL    HW214943   0.152   3.651   7.609  3.6538  3.3009 -1.9864
 1162SOL     OW14944   0.474   0.444  16.635 -0.3127  0.1639 -0.0862
 1162SOL    HW114945   0.403   0.398  16.588 -1.4815  1.0092  0.8604
 1162SOL    HW214946   0.436   0.467  16.720 -1.4571 -2.4596  0.1441
 1163SOL     OW14947   1.787   4.379  11.426  0.3644 -0.3534 -0.2413
 1163SOL    HW114948   1.800   4.290  11.393  0.3525 -0.6387  0.5271
 1163SOL    HW214949   1.857   4.423  11.377  1.9919 -0.2925  2.1675
 1164SOL     OW14950   3.413   0.944  11.855  0.0645 -0.1307 -0.1531
 1164SOL    HW114951   3.415   0.867  11.797  1.1567  0.5920 -1.0920
 1164SOL    HW214952   3.328   0.980  11.828  0.9297  1.0096 -1.3624
 1165SOL     OW14953   1.106   1.718  13.898 -0.5129 -0.4612  0.1308
 1165SOL    HW114954   1.165   1.684  13.966 -2.1208 -0.8447  1.3284
 1165SOL    HW214955   1.137   1.808  13.887  1.7372 -0.9302  2.4682
 1166SOL     OW14956   3.387   2.051   5.580  0.5408  0.0224  0.2418
 1166SOL    HW114957   3.457   2.047   5.514 -0.0161 -0.2081 -0.3267
 1166SOL    HW214958   3.344   1.968   5.563  1.8200 -1.0423  2.3201
 1167SOL     OW14959   0.656   0.596   4.984 -0.5020  0.2515 -0.1725
 1167SOL    HW114960   0.712   0.521   4.962 -0.8989  0.5994 -2.4148
 1167SOL    HW214961   0.610   0.566   5.062 -2.2328  0.9239 -0.9250
 1168SOL     OW14962   0.073   3.657   3.766 -0.1295  0.1731 -0.2977
 1168SOL    HW114963   0.076   3.728   3.702 -1.8179  0.1598 -0.3995
 1168SOL    HW214964   0.158   3.668   3.807 -0.3608 -0.1768  0.2849
 1169SOL     OW14965   1.307   2.512   9.876 -0.4863  0.0978  0.4096
 1169SOL    HW114966   1.278   2.427   9.911  0.0254  0.6040  2.0680
 1169SOL    HW214967   1.241   2.534   9.811  0.5983 -2.0721 -1.4067
 1170SOL     OW14968   1.915   4.425   6.381  0.1215 -0.2240  0.0735
 1170SOL    HW114969   1.934   4.373   6.302 -1.6131  1.1419 -1.2639
 1170SOL    HW214970   1.960   4.509   6.368  1.0019 -0.5203  1.2787
 1171SOL     OW14971   3.943   1.634   4.049  0.6737  0.6771 -0.2021
 1171SOL    HW114972   3.937   1.592   4.134  0.3679  1.1682  0.0167
 1171SOL    HW214973   3.952   1.725   4.078 -0.1711  0.8336 -0.4381
 1172SOL     OW14974   4.226   4.193   2.481 -0.2267  1.0919 -0.2883
 1172SOL    HW114975   4.200   4.112   2.525 -1.3085  0.7761 -1.5292
 1172SOL    HW214976   4.242   4.249   2.558  2.9132 -0.5422  0.2483
 1173SOL     OW14977   3.456   4.562   4.175  0.3463  0.2039  0.1265
 1173SOL    HW114978   3.517   4.516   4.232 -2.2142 -0.9183  1.9808
 1173SOL    HW214979   3.467   4.653   4.199 -1.1638  0.5475 -0.4300
 1174SOL     OW14980   2.709   2.963   1.395  0.2817 -0.5795 -0.3952
 1174SOL    HW114981   2.792   3.006   1.376  0.0893  0.3500  0.8612
 1174SOL    HW214982   2.666   3.024   1.454  1.9679  0.6130 -0.4230
 1175SOL     OW14983   1.258   3.881   2.749  0.1294  0.3673  0.5284
 1175SOL    HW114984   1.297   3.950   2.695  0.3373 -0.0871  0.0910
 1175SOL    HW214985   1.254   3.929   2.831 -2.3810  1.1630 -0.0587
 1176SOL     OW14986   1.751   1.100   2.996 -0.6405  0.1774 -0.5127
 1176SOL    HW114987   1.828   1.094   3.052  0.3802  1.2301 -1.8103
 1176SOL    HW214988   1.691   1.036   3.035  1.1200 -1.2226 -0.0920
 1177SOL     OW14989   4.387   0.043   7.712 -0.2406  0.2412 -0.2287
 1177SOL    HW114990   4.441   4.691   7.723 -0.0156  0.1595 -2.0838
 1177SOL    HW214991   4.332   0.013   7.640  0.1222  0.1131 -0.4520
 1178SOL     OW14992   4.513   3.143   1.922 -0.2986  0.0800  0.6229
 1178SOL    HW114993   4.536   3.097   1.841 -0.4512 -0.4727  0.8948
 1178SOL    HW214994   4.488   3.229   1.889  1.4109  0.4947  0.4254
 1179SOL     OW14995   3.376   1.144   6.198 -0.3202 -0.3282 -0.0039
 1179SOL    HW114996   3.391   1.057   6.234  0.1658  0.2676  1.2336
 1179SOL    HW214997   3.349   1.137   6.106 -1.3392  1.9601  0.1344
 1180SOL     OW14998   3.870   0.608   3.106 -0.0302 -0.2546  1.0318
 1180SOL    HW114999   3.775   0.598   3.111 -0.0000 -0.6692  0.7293
 1180SOL    HW215000   3.882   0.701   3.085  0.7739 -0.7091 -0.4558
 1181SOL     OW15001   1.337   3.851   7.376 -0.1415 -0.1536  0.3161
 1181SOL    HW115002   1.287   3.774   7.400  1.2187 -1.3568 -0.7557
 1181SOL    HW215003   1.372   3.816   7.295 -0.9284 -1.9769  0.7754
 1182SOL     OW15004   0.329   0.554   3.619  0.2967  0.5393  0.4342
 1182SOL    HW115005   0.319   0.606   3.539  0.8666 -2.8503 -1.8675
 1182SOL    HW215006   0.402   0.601   3.660  3.5087 -1.6415 -2.7917
 1183SOL     OW15007   2.059   0.803  13.287 -0.1919 -0.1218  0.2820
 1183SOL    HW115008   2.004   0.730  13.257  0.3380 -0.9098  1.2283
 1183SOL    HW215009   2.141   0.756  13.299 -1.6031 -2.3610  1.2029
 1184SOL     OW15010   4.016   1.385   4.356 -0.0104  0.3431  0.5172
 1184SOL    HW115011   4.040   1.472   4.389  2.5312 -0.3983  0.6087
 1184SOL    HW215012   4.106   1.353   4.353 -0.9898 -2.3615 -0.4285
 1185SOL     OW15013   2.606   1.402   5.299 -0.3296  0.0823 -0.0848
 1185SOL    HW115014   2.594   1.485   5.253  1.6891  1.0540  1.1128
 1185SOL    HW215015   2.630   1.440   5.384  0.3830 -2.6121  0.9451
 1186SOL     OW15016   3.202   1.751   4.256 -0.3346  0.0151  0.3939
 1186SOL    HW115017   3.222   1.800   4.176  1.6088 -2.5856 -0.7172
 1186SOL    HW215018   3.277   1.787   4.303  0.3914 -1.1289  0.1295
 1187SOL     OW15019   1.210   2.060  13.572 -0.5643 -0.4970  0.0603
 1187SOL    HW115020   1.253   2.093  13.493 -1.0122 -0.1414 -0.0372
 1187SOL    HW215021   1.121   2.095  13.565  0.4820  1.8359 -2.1609
 1188SOL     OW15022   2.944   2.038   0.263 -0.0476 -0.4669  0.5732
 1188SOL    HW115023   2.929   1.947   0.289  1.1738  0.0472  3.0582
 1188SOL    HW215024   2.998   2.074   0.333  1.0436 -0.6348 -0.1924
 1189SOL     OW15025   4.234   2.834   6.057  0.3788  0.1823 -0.3512
 1189SOL    HW115026   4.201   2.904   6.000  1.0767 -1.1966 -2.4624
 1189SOL    HW215027   4.195   2.759   6.011  1.6777  0.0914 -1.3141
 1190SOL     OW15028   2.804   4.232   3.873  0.1769  0.2619 -0.8714
 1190SOL    HW115029   2.858   4.183   3.935 -1.6059 -1.0125 -0.3280
 1190SOL    HW215030   2.873   4.276   3.823  0.3092  1.1131  0.0764
 1191SOL     OW15031   3.349   0.049   8.059  0.1536  0.3046  0.0116
 1191SOL    HW115032   3.369   0.069   7.968  1.3715  0.3009  0.2848
 1191SOL    HW215033   3.437   0.065   8.094  1.3856 -0.4044 -2.8185
 1192SOL     OW15034   1.604   2.458   8.800  0.4794  0.0553 -0.1710
 1192SOL    HW115035   1.663   2.534   8.808  2.4410 -1.6149  1.1409
 1192SOL    HW215036   1.649   2.390   8.850 -1.3426  0.2771  1.7697
 1193SOL     OW15037   3.768   0.594   6.568 -0.3926 -0.2175 -0.8779
 1193SOL    HW115038   3.851   0.546   6.569 -0.2168  0.1019 -0.3117
 1193SOL    HW215039   3.731   0.568   6.652 -0.1345  1.3586 -0.2751
 1194SOL     OW15040   1.727   1.111  14.877  0.5484  0.0340 -0.0008
 1194SOL    HW115041   1.650   1.114  14.933  2.0998  0.7285  2.1212
 1194SOL    HW215042   1.722   1.190  14.823  1.4988  0.2502  0.2131
 1195SOL     OW15043   2.621   1.954   5.766 -0.8248  0.1449  0.0428
 1195SOL    HW115044   2.545   1.909   5.802 -0.8635  2.4249  2.8240
 1195SOL    HW215045   2.645   2.009   5.841  2.9678 -2.0922  0.4701
 1196SOL     OW15046   0.746   0.373  16.610 -0.6596  0.2230  0.4880
 1196SOL    HW115047   0.795   0.430  16.669  1.8755  0.0868 -1.4978
 1196SOL    HW215048   0.655   0.402  16.606 -0.9518 -1.0291 -1.6471
 1197SOL     OW15049   4.146   4.197   8.793 -0.6850  0.4603  0.3467
 1197SOL    HW115050   4.095   4.167   8.868  1.0592  0.7170  1.6303
 1197SOL    HW215051   4.174   4.282   8.827  0.7924  0.0020  0.2839
 1198SOL     OW15052   1.275   3.602   7.798 -0.2884 -0.0951 -0.5218
 1198SOL    HW115053   1.369   3.602   7.819 -0.4963  0.4347  0.4042
 1198SOL    HW215054   1.261   3.653   7.877  0.8274  0.1913 -0.5005
 1199SOL     OW15055   3.305   1.280   3.743 -0.2643  0.3971 -0.6309
 1199SOL    HW115056   3.212   1.298   3.729 -0.9709 -0.9441  2.4511
 1199SOL    HW215057   3.320   1.315   3.831 -0.8764  0.2843 -0.4849
 1200SOL     OW15058   1.492   4.188   5.992 -0.5254  0.2376  0.1799
 1200SOL    HW115059   1.554   4.177   5.920  0.4318 -0.6792  1.1432
 1200SOL    HW215060   1.544   4.194   6.072  0.3025  1.6832 -0.4651
 1201SOL     OW15061   0.683   1.573   2.192  0.5037  0.1526  0.2380
 1201SOL    HW115062   0.658   1.487   2.225 -2.7279  0.6816 -0.8209
 1201SOL    HW215063   0.614   1.627   2.230  1.4540  0.1952  1.9058
 1202SOL     OW15064   4.063   4.213   4.784  0.0828 -0.7063 -0.2749
 1202SOL    HW115065   4.116   4.176   4.854  1.8090  0.0405 -1.1748
 1202SOL    HW215066   4.125   4.275   4.745  0.4444  1.2506  3.4226
 1203SOL     OW15067   4.451   4.465   1.962  0.1400 -0.6699 -0.3734
 1203SOL    HW115068   4.491   4.380   1.979 -0.6769 -0.4682  2.5504
 1203SOL    HW215069   4.511   4.497   1.895 -0.1049 -0.3180 -0.4265
 1204SOL     OW15070   4.254   1.121   2.285 -0.5771  0.3410  0.2900
 1204SOL    HW115071   4.159   1.124   2.288 -0.5804 -0.1526  0.5798
 1204SOL    HW215072   4.276   1.043   2.336 -2.7876 -0.6772 -0.3300
 1205SOL     OW15073   2.430   3.277   4.094 -0.5876 -0.1641  1.2818
 1205SOL    HW115074   2.357   3.316   4.045  1.4011  1.4829 -0.3597
 1205SOL    HW215075   2.473   3.341   4.151  1.5264  0.2442 -0.7891
 1206SOL     OW15076   3.748   0.755  14.431  0.3426 -0.2633  0.1819
 1206SOL    HW115077   3.796   0.748  14.514 -2.8708 -2.2720  1.8901
 1206SOL    HW215078   3.788   0.689  14.374  0.1252 -0.1743 -0.0727
 1207SOL     OW15079   2.045   4.363   5.082  0.1017  0.2214  0.6033
 1207SOL    HW115080   2.004   4.351   5.168 -1.3467 -0.2981 -0.1646
 1207SOL    HW215081   1.994   4.431   5.037 -1.8942 -2.3333 -0.9769
 1208SOL     OW15082   1.990   2.005   7.250  0.1107 -0.1670 -0.6141
 1208SOL    HW115083   2.021   1.932   7.197  1.3241  1.3465 -1.9745
 1208SOL    HW215084   2.068   2.060   7.257 -0.7982  1.1453 -0.8056
 1209SOL     OW15085   3.371   4.354   8.946  0.2891  0.2618  0.7985
 1209SOL    HW115086   3.360   4.436   8.994 -0.7167  0.1297  0.7906
 1209SOL    HW215087   3.384   4.381   8.855  0.5650 -0.6258  0.5733
 1210SOL     OW15088   1.887   1.853   5.434 -0.2907 -0.1643  0.2885
 1210SOL    HW115089   1.862   1.912   5.363  1.2508 -0.3604 -0.4235
 1210SOL    HW215090   1.888   1.911   5.511  0.2188  1.1461 -0.7091
 1211SOL     OW15091   0.495   3.079   0.556  0.0342  0.0140 -0.2570
 1211SOL    HW115092   0.415   3.027   0.567  0.7221 -1.1418 -0.7722
 1211SOL    HW215093   0.524   3.053   0.468  1.0034  0.5349 -0.0898
 1212SOL     OW15094   3.560   3.795   3.613  0.6358  0.0283 -0.2608
 1212SOL    HW115095   3.594   3.884   3.617 -1.7328  0.8926  0.6885
 1212SOL    HW215096   3.551   3.794   3.518  1.1216 -4.0439 -0.2855
 1213SOL     OW15097   1.535   1.479  17.270 -0.0160 -0.3993  0.0591
 1213SOL    HW115098   1.462   1.540  17.260  0.6045  0.1943 -0.8376
 1213SOL    HW215099   1.564   1.472  17.179 -0.3680  0.8609 -0.1430
 1214SOL     OW15100   1.481   2.223   7.371 -0.1394  0.4026 -0.2974
 1214SOL    HW115101   1.531   2.148   7.405 -0.6812  0.0353 -0.3042
 1214SOL    HW215102   1.426   2.241   7.447  0.3041  0.8322 -0.0819
 1215SOL     OW15103   1.622   0.658   3.487  0.2053 -0.2669 -0.4669
 1215SOL    HW115104   1.540   0.702   3.508  1.4091  2.2137 -1.0015
 1215SOL    HW215105   1.603   0.653   3.394 -0.6883 -0.2944 -0.2855
 1216SOL     OW15106   0.457   3.367   3.830  0.2257  0.9290  0.1612
 1216SOL    HW115107   0.446   3.444   3.885 -3.0189 -0.3609  1.3294
 1216SOL    HW215108   0.551   3.351   3.825  0.1706  0.4738  0.6027
 1217SOL     OW15109   3.397   2.762  13.734 -0.2442  0.8158  0.4552
 1217SOL    HW115110   3.354   2.804  13.660 -0.0401  0.4353  0.1167
 1217SOL    HW215111   3.484   2.767  13.694 -0.9962  0.1298 -1.2736
 1218SOL     OW15112   3.856   3.964   4.505  0.4467  0.1694 -0.5343
 1218SOL    HW115113   3.768   3.940   4.474 -0.6802  1.9689  1.2577
 1218SOL    HW215114   3.884   4.025   4.436  1.3299  0.2354 -0.1178
 1219SOL     OW15115   4.557   1.552   6.305  0.1883  0.0534  0.1876
 1219SOL    HW115116   4.583   1.569   6.395  0.1417  1.7958 -0.1118
 1219SOL    HW215117   4.634   1.499   6.285  0.9238  1.2618 -0.2186
 1220SOL     OW15118   2.237   4.063   9.483 -0.4764  0.0670 -0.2165
 1220SOL    HW115119   2.209   4.122   9.414 -0.1569 -0.7074 -1.0095
 1220SOL    HW215120   2.329   4.081   9.499 -0.7290 -0.0243  1.4247
 1221SOL     OW15121   3.144   0.391   9.226  0.4517 -0.1813 -0.1992
 1221SOL    HW115122   3.066   0.412   9.175 -1.9858 -1.2786  3.1431
 1221SOL    HW215123   3.174   0.479   9.249  0.0131 -0.3085  0.8205
 1222SOL     OW15124   4.234   0.806   3.045  0.1761 -0.6093 -0.1252
 1222SOL    HW115125   4.192   0.750   3.111  3.5850 -1.0270  1.7038
 1222SOL    HW215126   4.209   0.893   3.076 -0.1599 -0.2814 -1.3128
 1223SOL     OW15127   2.134   0.623   2.940  0.4837 -0.0098  0.1045
 1223SOL    HW115128   2.157   0.664   2.856 -0.7176  0.6650  0.1025
 1223SOL    HW215129   2.048   0.586   2.919 -0.1265  1.6689 -0.3603
 1224SOL     OW15130   3.341   3.699   5.602 -0.8952 -0.2637 -0.7542
 1224SOL    HW115131   3.425   3.685   5.558 -1.1809 -0.2394 -1.3037
 1224SOL    HW215132   3.290   3.734   5.530 -1.6843  0.3526  0.1133
 1225SOL     OW15133   1.177   2.590   5.474 -0.2013  0.3059  0.6336
 1225SOL    HW115134   1.115   2.662   5.480 -0.3325  0.1462  1.1596
 1225SOL    HW215135   1.260   2.634   5.454 -0.5424  0.0391 -1.3723
 1226SOL     OW15136   2.913   0.057   9.623 -0.3395  0.4890 -0.7625
 1226SOL    HW115137   2.841   0.024   9.677  0.7131 -1.9907 -0.8615
 1226SOL    HW215138   2.962   4.704   9.601 -1.7476 -0.3046 -1.0905
 1227SOL     OW15139   0.516   2.786   7.359  0.2598 -0.0130  0.1064
 1227SOL    HW115140   0.585   2.743   7.408 -0.3607  1.2101  2.0468
 1227SOL    HW215141   0.480   2.709   7.314 -2.0693  0.6309  0.8336
 1228SOL     OW15142   0.725   4.143   3.722 -0.6219 -0.4129 -0.2856
 1228SOL    HW115143   0.632   4.119   3.719 -0.8915  0.7057 -0.9947
 1228SOL    HW215144   0.752   4.130   3.631  0.4796 -0.8607  0.1137
 1229SOL     OW15145   0.495   2.708  13.520  0.1689  0.2783 -0.2383
 1229SOL    HW115146   0.446   2.715  13.438 -1.0185  0.3919  0.4824
 1229SOL    HW215147   0.463   2.787  13.564 -1.9667  0.1512 -1.5492
 1230SOL     OW15148   3.258   1.712   9.156 -0.8344  0.0948  0.6625
 1230SOL    HW115149   3.332   1.718   9.217  0.0854 -0.6490 -0.3772
 1230SOL    HW215150   3.309   1.672   9.086  2.9484  1.0300  2.8558
 1231SOL     OW15151   3.115   3.006  13.092  0.2031 -0.1426 -0.3908
 1231SOL    HW115152   3.048   2.938  13.089 -0.4922  0.5517 -0.7715
 1231SOL    HW215153   3.158   2.992  13.176 -1.9163  0.6901  0.8092
 1232SOL     OW15154   4.417   0.358  14.179  0.6922  0.2586 -0.1125
 1232SOL    HW115155   4.358   0.324  14.111  2.1891 -2.2114 -0.1590
 1232SOL    HW215156   4.351   0.383  14.244  1.1896 -1.1212  0.9044
 1233SOL     OW15157   2.199   0.197  15.725  0.2096  0.4949  0.0001
 1233SOL    HW115158   2.259   0.221  15.655  0.0554 -0.2236 -0.3751
 1233SOL    HW215159   2.116   0.200  15.677  0.7282  1.7202 -0.8110
 1234SOL     OW15160   1.214   2.542  11.544  0.3145  0.3472 -0.5978
 1234SOL    HW115161   1.210   2.609  11.475  1.0487  1.5927  0.5764
 1234SOL    HW215162   1.147   2.480  11.515 -1.3675  2.9509 -2.3374
 1235SOL     OW15163   0.697   0.302   8.394 -0.5042  0.2181  0.6426
 1235SOL    HW115164   0.754   0.236   8.434  0.7542  0.6525 -0.4324
 1235SOL    HW215165   0.768   0.349   8.350  1.0404 -1.3237  1.4718
 1236SOL     OW15166   1.894   0.839  16.146 -0.5556  0.6672 -0.0693
 1236SOL    HW115167   1.933   0.861  16.230 -0.3402 -1.2671  0.3556
 1236SOL    HW215168   1.975   0.821  16.099 -0.7793 -1.3106  0.2620
 1237SOL     OW15169   0.677   4.704   3.813  0.3852 -0.0283 -0.4288
 1237SOL    HW115170   0.714   4.669   3.732  0.2254 -1.3261  0.0554
 1237SOL    HW215171   0.671   0.066   3.776 -1.2130 -0.1463 -0.4607
 1238SOL     OW15172   2.008   2.756   5.444 -0.0650 -0.5591  0.1797
 1238SOL    HW115173   2.033   2.752   5.537 -0.7518 -1.7344  0.3139
 1238SOL    HW215174   1.924   2.795   5.470  0.0529 -1.2234  1.5545
 1239SOL     OW15175   1.413   3.585   7.277  0.3448  0.5674  0.6617
 1239SOL    HW115176   1.366   3.519   7.328  0.2936 -0.7652 -1.1443
 1239SOL    HW215177   1.392   3.559   7.188 -1.1959 -0.4059  1.3074
 1240SOL     OW15178   0.630   1.135   4.111 -0.0143  0.3671 -0.0125
 1240SOL    HW115179   0.675   1.050   4.110  3.8835  2.4732  0.3255
 1240SOL    HW215180   0.597   1.150   4.022 -1.0271 -1.3483  0.0631
 1241SOL     OW15181   0.529   4.637   0.165  0.6903 -0.5028  0.1091
 1241SOL    HW115182   0.453   4.665   0.216 -0.5973 -1.2745 -1.3936
 1241SOL    HW215183   0.505   4.660   0.075  1.5501 -1.1257 -0.2732
 1242SOL     OW15184   0.677   0.045   5.880  0.5022  0.0358  0.7267
 1242SOL    HW115185   0.591   0.025   5.917 -0.9525  1.9217 -1.6971
 1242SOL    HW215186   0.684   4.708   5.808  0.0871 -1.3916  1.9397
 1243SOL     OW15187   4.604   4.605   9.072 -0.0802 -0.3337  0.1978
 1243SOL    HW115188   4.512   4.606   9.097 -0.0097  1.1808  0.3951
 1243SOL    HW215189   4.638   4.580   9.158  1.3101  0.1955 -0.1946
 1244SOL     OW15190   3.774   1.703   4.853 -0.3849 -0.0192  0.0820
 1244SOL    HW115191   3.807   1.682   4.941 -2.8949 -2.6823  0.3974
 1244SOL    HW215192   3.694   1.749   4.877 -2.3254 -4.0924  1.5430
 1245SOL     OW15193   2.986   1.204   2.432 -0.1975  0.2927 -0.2295
 1245SOL    HW115194   3.052   1.183   2.366 -2.1306 -1.3842 -1.6324
 1245SOL    HW215195   2.931   1.267   2.386  1.1266  0.0407 -2.1637
 1246SOL     OW15196   2.947   2.855   7.896 -0.5346 -0.3301 -0.1097
 1246SOL    HW115197   3.026   2.871   7.949 -1.2111 -0.6984  0.9935
 1246SOL    HW215198   2.916   2.946   7.892 -2.9410 -1.0506  2.0819
 1247SOL     OW15199   1.778   4.645  16.283 -0.3365 -0.5930 -0.2717
 1247SOL    HW115200   1.811   4.611  16.200  1.4924 -1.7512  0.9333
 1247SOL    HW215201   1.856   4.691  16.314 -0.6669 -0.8883  1.0279
 1248SOL     OW15202   3.703   2.743   6.448  0.2570 -0.3565 -0.7297
 1248SOL    HW115203   3.782   2.712   6.404  0.3104 -2.6961  1.0457
 1248SOL    HW215204   3.722   2.733   6.541 -0.6611  0.6804 -0.4221
 1249SOL     OW15205   0.922   0.871   2.322 -0.8245 -0.4848 -0.7367
 1249SOL    HW115206   0.911   0.805   2.254  2.2451 -1.1338 -0.6137
 1249SOL    HW215207   0.997   0.832   2.368 -1.3236 -0.0463  0.4651
 1250SOL     OW15208   4.460   2.444   4.171  0.1453  0.1392 -0.4731
 1250SOL    HW115209   4.396   2.493   4.223  0.6317 -0.2206  0.4632
 1250SOL    HW215210   4.442   2.491   4.089  0.6382 -0.6936 -1.0511
 1251SOL     OW15211   1.054   4.165  15.997  0.3810  0.0772 -0.2517
 1251SOL    HW115212   1.117   4.231  16.025 -0.4442  0.0859  1.5855
 1251SOL    HW215213   1.018   4.205  15.918 -1.9832  1.3773  1.4758
 1252SOL     OW15214   1.453   3.906   4.821  0.4987  0.0504 -0.4312
 1252SOL    HW115215   1.424   3.992   4.790 -0.4089 -0.5238 -1.1491
 1252SOL    HW215216   1.370   3.862   4.837  1.2435 -1.5478 -0.9292
 1253SOL     OW15217   0.048   0.927   3.943  0.3091 -0.7449  0.0302
 1253SOL    HW115218   0.000   0.995   3.897  0.7132 -0.8090 -0.4879
 1253SOL    HW215219   0.094   0.979   4.009  0.3254 -0.1160 -0.4786
 1254SOL     OW15220   1.606   2.512   7.340  0.3466  0.2218  0.0902
 1254SOL    HW115221   1.687   2.514   7.392  1.1247  0.7668 -1.1432
 1254SOL    HW215222   1.594   2.421   7.313  2.0147 -0.0135  0.0996
 1255SOL     OW15223   1.566   0.596   5.217 -0.7355 -0.2766  0.2568
 1255SOL    HW115224   1.653   0.586   5.257 -0.1944 -0.6874 -1.0196
 1255SOL    HW215225   1.514   0.593   5.297  0.0124 -0.8138  0.7296
 1256SOL     OW15226   4.109   2.987   8.572 -0.2612 -0.7354  0.0528
 1256SOL    HW115227   4.108   3.079   8.542 -0.7692 -0.8733 -0.3585
 1256SOL    HW215228   4.078   2.952   8.488 -3.0296  0.6181  0.5021
 1257SOL     OW15229   0.042   1.911  13.695  0.5851 -0.1455 -0.0743
 1257SOL    HW115230   4.692   1.854  13.699 -0.9661  2.0271  0.7750
 1257SOL    HW215231   0.024   1.967  13.770 -1.8714 -0.3106 -0.5450
 1258SOL     OW15232   1.022   3.926   1.814 -0.4928  0.3856 -0.2742
 1258SOL    HW115233   1.051   3.864   1.880 -1.7004 -1.1512 -1.2079
 1258SOL    HW215234   1.074   4.002   1.843  0.2420 -0.9172  1.8011
 1259SOL     OW15235   2.216   0.933   8.969  0.2625 -0.1986  0.2543
 1259SOL    HW115236   2.173   0.973   9.044  0.6184  0.1552  0.2726
 1259SOL    HW215237   2.307   0.937   9.000  1.2449  2.3245 -2.8413
 1260SOL     OW15238   4.704   0.779   7.967  0.0011  0.0326  0.1836
 1260SOL    HW115239   0.001   0.872   7.964  1.4873 -0.3378  0.3625
 1260SOL    HW215240   4.619   0.787   7.924 -1.3877 -1.3639  2.6868
 1261SOL     OW15241   0.990   4.660   3.292 -0.1270 -0.3570  0.1417
 1261SOL    HW115242   1.031   4.672   3.206 -3.6479  2.0816 -1.2031
 1261SOL    HW215243   1.027   4.723   3.354 -1.1530  1.3247 -0.9659
 1262SOL     OW15244   1.918   1.949  10.551  0.1773 -0.3014 -0.2303
 1262SOL    HW115245   1.943   1.860  10.575  3.1208  0.7624  0.6807
 1262SOL    HW215246   1.951   2.002  10.623  1.9633 -1.5065 -0.1625
 1263SOL     OW15247   2.015   0.198   5.051  0.0299  0.4793  0.3004
 1263SOL    HW115248   1.962   0.147   4.990  1.0265 -0.0219 -0.1481
 1263SOL    HW215249   2.061   0.132   5.103 -2.0473 -2.1333 -1.1950
 1264SOL     OW15250   2.659   0.150   1.562 -0.3550  0.7185 -0.5601
 1264SOL    HW115251   2.609   0.136   1.482 -0.7245 -0.4431 -0.1357
 1264SOL    HW215252   2.597   0.105   1.619  0.9750  1.7624  1.7315
 1265SOL     OW15253   2.582   3.143   6.743  0.2357 -0.2799 -0.1787
 1265SOL    HW115254   2.593   3.081   6.671 -1.1068 -4.4875  3.2485
 1265SOL    HW215255   2.530   3.085   6.798  0.0488  0.4995  0.4613
 1266SOL     OW15256   3.602   0.810  13.243  0.1315  0.1323  1.0787
 1266SOL    HW115257   3.621   0.858  13.162 -2.7700  0.3053  0.4745
 1266SOL    HW215258   3.680   0.755  13.249 -1.4233 -2.3863 -1.7465
 1267SOL     OW15259   3.848   3.252   0.993 -0.5513  0.1282  0.0204
 1267SOL    HW115260   3.807   3.166   0.982 -0.6474  0.2466 -0.5575
 1267SOL    HW215261   3.918   3.232   1.055  2.7480 -0.1763 -3.7218
 1268SOL     OW15262   2.082   4.100   2.424 -0.1720  0.3628  0.1871
 1268SOL    HW115263   1.998   4.096   2.377 -0.1487  2.9841 -0.0403
 1268SOL    HW215264   2.083   4.191   2.453  3.7661 -0.2240  1.7921
 1269SOL     OW15265   0.548   3.053   7.329 -0.8279  0.1302  0.6523
 1269SOL    HW115266   0.465   3.091   7.358 -2.0550 -2.5753  0.7478
 1269SOL    HW215267   0.540   2.960   7.351 -1.3512  0.5911  2.3534
 1270SOL     OW15268   1.403   2.039  11.548 -0.7532  0.4656 -0.1825
 1270SOL    HW115269   1.392   2.134  11.534 -1.1160  0.4077 -0.2855
 1270SOL    HW215270   1.435   2.011  11.462 -0.6647 -1.6757  0.5556
 1271SOL     OW15271   2.056   1.960  15.146  0.2284 -0.2567 -0.5718
 1271SOL    HW115272   1.992   1.926  15.083  0.5284 -0.2646 -0.8711
 1271SOL    HW215273   2.096   1.876  15.171 -1.3407 -0.2834  1.9131
 1272SOL     OW15274   1.506   2.731   4.865 -0.6282  0.1443 -0.1209
 1272SOL    HW115275   1.594   2.699   4.847 -0.1636  1.7055 -0.6538
 1272SOL    HW215276   1.466   2.744   4.779 -1.8674  0.4936  0.5169
 1273SOL     OW15277   3.127   4.586   5.423  0.1913 -0.1262  0.0177
 1273SOL    HW115278   3.138   4.508   5.477 -0.6091 -0.9670 -1.0219
 1273SOL    HW215279   3.218   4.614   5.412  0.1339  0.0603  0.0222
 1274SOL     OW15280   2.309   3.216   5.287 -0.2636  0.1796  0.3475
 1274SOL    HW115281   2.403   3.230   5.279 -0.1402 -1.5538 -1.2567
 1274SOL    HW215282   2.265   3.272   5.223  0.8815  1.5013  0.7278
 1275SOL     OW15283   3.478   4.321   3.243  0.2479  0.2500 -0.5058
 1275SOL    HW115284   3.446   4.384   3.308  1.2036 -0.1270  0.3226
 1275SOL    HW215285   3.554   4.367   3.209 -0.2433 -0.2193 -2.2425
 1276SOL     OW15286   3.700   3.141  15.693  0.5023  0.1714  0.0676
 1276SOL    HW115287   3.664   3.229  15.681  0.7518 -0.0053 -2.0299
 1276SOL    HW215288   3.790   3.146  15.662  0.8739 -1.1774  0.9416
 1277SOL     OW15289   2.473   4.298   7.722 -0.0060 -0.2053 -1.0771
 1277SOL    HW115290   2.487   4.367   7.788 -0.8947  0.1662 -1.2723
 1277SOL    HW215291   2.388   4.266   7.755 -0.1041  0.7391 -0.4063
 1278SOL     OW15292   0.734   1.307   5.679  0.2537 -0.3831 -0.1646
 1278SOL    HW115293   0.660   1.265   5.634 -0.3180 -0.3527  0.7400
 1278SOL    HW215294   0.677   1.346   5.746 -1.0259  0.7622 -1.9075
 1279SOL     OW15295   1.214   3.116   2.110  0.0510 -0.0207  0.4204
 1279SOL    HW115296   1.213   3.028   2.149  0.4039  1.5891  4.1315
 1279SOL    HW215297   1.303   3.139   2.137  0.1324  1.7173 -1.3162
 1280SOL     OW15298   1.606   0.947   0.781 -0.1440 -0.4301 -0.3195
 1280SOL    HW115299   1.672   0.931   0.714 -1.2251 -0.7317 -1.3054
 1280SOL    HW215300   1.582   0.858   0.807 -1.9204 -0.3283 -1.5825
 1281SOL     OW15301   1.716   0.770   1.532 -0.0666 -0.6158  0.7513
 1281SOL    HW115302   1.677   0.689   1.497  0.1722  0.8276 -2.7907
 1281SOL    HW215303   1.807   0.753   1.507 -1.0596  1.1199 -4.1233
 1282SOL     OW15304   0.282   3.370   7.933 -0.1485  0.1563 -0.1276
 1282SOL    HW115305   0.295   3.277   7.950 -0.1451 -0.0771 -1.3747
 1282SOL    HW215306   0.312   3.417   8.011 -0.1018  0.4061 -0.2962
 1283SOL     OW15307   1.513   1.266  14.429 -0.2252  0.1807 -0.2460
 1283SOL    HW115308   1.574   1.279  14.357  0.0504 -2.5678 -0.5243
 1283SOL    HW215309   1.569   1.304  14.496 -0.3809  0.6289 -0.3696
 1284SOL     OW15310   4.072   3.275  14.611 -0.6344  0.1639  0.8876
 1284SOL    HW115311   4.125   3.204  14.648 -1.1800 -0.0766  1.2060
 1284SOL    HW215312   4.036   3.317  14.690 -0.2578 -1.7764  2.0847
 1285SOL     OW15313   3.077   4.398   4.854  0.3152  0.0622 -0.0896
 1285SOL    HW115314   2.984   4.390   4.833 -0.2352  1.6137  1.8414
 1285SOL    HW215315   3.087   4.490   4.875  0.4217  0.2063 -0.7695
 1286SOL     OW15316   2.200   2.844   8.046  0.1605  0.6734 -0.5617
 1286SOL    HW115317   2.145   2.920   8.027  0.0988  0.1550 -2.4405
 1286SOL    HW215318   2.128   2.784   8.068  1.4304 -1.0016 -1.0094
 1287SOL     OW15319   4.510   0.888   6.811  0.3778 -0.0601  0.1617
 1287SOL    HW115320   4.453   0.828   6.859 -1.9254  0.2123 -2.2955
 1287SOL    HW215321   4.486   0.864   6.721  0.5594  0.7501 -0.1032
 1288SOL     OW15322   1.248   4.379   1.987 -0.1546  0.0890 -0.1639
 1288SOL    HW115323   1.206   4.442   1.928  3.0845  1.7834 -0.6794
 1288SOL    HW215324   1.324   4.351   1.936  0.4036  2.9541 -0.9038
 1289SOL     OW15325   3.505   0.471  12.699  0.1779 -0.1968  0.2597
 1289SOL    HW115326   3.467   0.464  12.611 -2.5468 -1.5770  1.5312
 1289SOL    HW215327   3.570   0.540  12.688 -1.5303  0.8537 -3.3815
 1290SOL     OW15328   1.072   1.511   7.115 -0.4533  0.3296  0.4437
 1290SOL    HW115329   1.069   1.466   7.199  0.1622 -0.1741  0.1959
 1290SOL    HW215330   1.124   1.588   7.141 -1.3014  1.2191 -0.5094
 1291SOL     OW15331   3.295   0.183   0.059 -0.0316 -0.1239 -0.2260
 1291SOL    HW115332   3.389   0.167   0.071  0.6441  2.4583 -2.1425
 1291SOL    HW215333   3.288   0.130  17.686 -1.0057 -0.9561  0.4228
 1292SOL     OW15334   1.036   4.286  13.319  0.5963  0.1911 -0.9813
 1292SOL    HW115335   1.098   4.321  13.383  0.9529  0.6668 -1.5789
 1292SOL    HW215336   1.051   4.352  13.251 -1.9770 -0.3640 -2.0758
 1293SOL     OW15337   1.292   3.482   5.158 -0.6787 -0.0872 -0.9154
 1293SOL    HW115338   1.310   3.452   5.248 -3.2035 -1.0533 -0.7490
 1293SOL    HW215339   1.207   3.447   5.134 -0.7845 -1.8900  2.0941
 1294SOL     OW15340   0.256   2.844  12.712 -0.7480  0.1408  0.2265
 1294SOL    HW115341   0.197   2.910  12.748  0.4253 -0.5068  3.3451
 1294SOL    HW215342   0.273   2.781  12.782 -1.0449 -0.6918 -0.4524
 1295SOL     OW15343   0.908   4.630   7.062  0.0285 -0.7682  0.0661
 1295SOL    HW115344   0.942   4.577   7.134 -0.2537  0.8408  1.3894
 1295SOL    HW215345   0.964   4.602   6.991 -1.3267 -0.3139 -1.1837
 1296SOL     OW15346   1.150   2.135   2.417  0.1006  0.1396  0.0635
 1296SOL    HW115347   1.245   2.134   2.420  0.0721 -1.1614  0.2518
 1296SOL    HW215348   1.140   2.221   2.459  0.0777 -0.5363  1.4594
 1297SOL     OW15349   4.067   1.470   4.927  0.1463 -0.0059 -0.1739
 1297SOL    HW115350   4.059   1.452   5.021  1.5517 -0.7944 -0.2151
 1297SOL    HW215351   3.984   1.433   4.898  1.1204 -1.6492 -0.8226
 1298SOL     OW15352   3.055   1.998   3.566  0.2939 -0.2898  0.1531
 1298SOL    HW115353   3.136   2.047   3.576 -0.3578  0.6508  0.8048
 1298SOL    HW215354   2.997   2.067   3.533  1.0143  1.6967  3.0682
 1299SOL     OW15355   3.719   4.195   7.012 -0.5372  0.2652  0.2333
 1299SOL    HW115356   3.793   4.139   6.987  0.5321  1.3216  1.0657
 1299SOL    HW215357   3.645   4.146   6.975 -0.4344  1.9344 -2.1395
 1300SOL     OW15358   4.169   1.552   2.065  0.5123 -0.3771  0.1642
 1300SOL    HW115359   4.216   1.549   1.982  1.3343  1.3234  0.5635
 1300SOL    HW215360   4.082   1.552   2.026  0.8934 -1.8004 -0.7002
 1301SOL     OW15361   1.719   3.670   8.439  0.1063  0.3620 -0.2543
 1301SOL    HW115362   1.744   3.678   8.532 -0.8621  1.6498 -0.1121
 1301SOL    HW215363   1.805   3.645   8.404 -1.0093 -2.3226 -1.0722
 1302SOL     OW15364   2.811   4.570  16.853 -0.1573  0.0045 -0.1330
 1302SOL    HW115365   2.749   4.528  16.913 -0.1071  1.3112  0.8242
 1302SOL    HW215366   2.890   4.564  16.907  0.8732 -1.8720 -1.8625
 1303SOL     OW15367   1.998   4.666   5.945 -0.0238 -0.4922  0.3639
 1303SOL    HW115368   1.955   0.002   6.004 -0.4391  0.0242 -0.4784
 1303SOL    HW215369   2.022   4.604   6.014  0.1246  0.2191  0.9545
 1304SOL     OW15370   0.872   3.693  13.058  0.1846 -0.0629 -0.0948
 1304SOL    HW115371   0.958   3.710  13.096  0.2105 -0.4100 -0.0046
 1304SOL    HW215372   0.897   3.657  12.973 -1.6202 -1.0019 -0.2238
 1305SOL     OW15373   3.024   2.839   8.927  0.9214 -0.0003 -0.0590
 1305SOL    HW115374   3.080   2.864   8.854  1.1835 -0.7414 -0.1152
 1305SOL    HW215375   2.961   2.780   8.885 -0.5293  2.9258 -1.9231
 1306SOL     OW15376   0.639   3.604   6.443  0.0631 -0.3267 -0.3321
 1306SOL    HW115377   0.720   3.613   6.394 -0.3417 -0.3798 -1.0221
 1306SOL    HW215378   0.577   3.597   6.369  0.4325 -0.1980 -0.6514
 1307SOL     OW15379   4.199   3.640   4.701 -0.7157 -0.0107 -0.3966
 1307SOL    HW115380   4.185   3.732   4.678  0.8919  1.1696  3.3917
 1307SOL    HW215381   4.113   3.608   4.672  0.0226 -2.0060 -0.3514
 1308SOL     OW15382   3.066   1.992  16.319 -0.2429  0.2288 -0.5025
 1308SOL    HW115383   3.142   1.983  16.262 -0.6887  0.9964 -1.2299
 1308SOL    HW215384   3.057   2.084  16.343  1.0704  0.7026 -1.8397
 1309SOL     OW15385   3.370   0.431   1.195 -0.2814  0.1635  0.0838
 1309SOL    HW115386   3.293   0.479   1.224 -1.0755 -0.7763 -0.4900
 1309SOL    HW215387   3.331   0.352   1.157 -0.1490  0.5231 -0.8057
 1310SOL     OW15388   0.893   3.166   1.438 -0.3265  0.7333 -0.2677
 1310SOL    HW115389   0.932   3.116   1.509  1.3165 -0.6755 -2.1704
 1310SOL    HW215390   0.960   3.181   1.371 -0.5261 -0.3762 -0.7076
 1311SOL     OW15391   0.125   2.943   6.787  0.2620  0.0649  0.0425
 1311SOL    HW115392   0.054   2.937   6.724 -0.1229  0.5331  0.4290
 1311SOL    HW215393   0.144   2.855   6.820 -0.2734 -0.2709 -0.5719
 1312SOL     OW15394   0.638   1.176   4.944  0.3563  0.6747  0.0198
 1312SOL    HW115395   0.666   1.258   4.983  3.4998 -0.0075 -0.7827
 1312SOL    HW215396   0.705   1.158   4.877  0.8833  2.3224  0.1250
 1313SOL     OW15397   4.307   0.573   8.761 -0.3170 -0.9689  0.4554
 1313SOL    HW115398   4.272   0.532   8.682  0.7096  3.4662 -2.3055
 1313SOL    HW215399   4.224   0.597   8.801 -0.3710 -2.4374  1.2125
 1314SOL     OW15400   2.559   2.357   5.867 -0.9075 -0.0117 -0.3411
 1314SOL    HW115401   2.630   2.307   5.826 -1.4422  0.0459 -1.3283
 1314SOL    HW215402   2.554   2.435   5.812  2.5258  2.5193  2.9012
 1315SOL     OW15403   1.414   1.643   5.735 -0.4311 -0.2902  0.1458
 1315SOL    HW115404   1.338   1.645   5.794 -0.7444  0.0138 -0.2706
 1315SOL    HW215405   1.484   1.607   5.790  0.1291 -0.3322 -0.5909
 1316SOL     OW15406   4.716   4.672   6.239  1.0642  0.6400  0.3722
 1316SOL    HW115407   4.682   4.583   6.246  0.3939  0.9592  1.2798
 1316SOL    HW215408   4.632   4.718   6.234  0.7193  0.0312  0.5400
 1317SOL     OW15409   3.184   0.515   2.480 -0.4226 -0.1072 -0.3817
 1317SOL    HW115410   3.265   0.468   2.501 -1.9432 -2.3546  0.5114
 1317SOL    HW215411   3.124   0.476   2.543 -0.0377  1.9759  1.2843
 1318SOL     OW15412   2.083   3.546   9.129  0.1031  0.4103 -0.2355
 1318SOL    HW115413   2.093   3.629   9.177 -1.0187  0.9771 -0.9975
 1318SOL    HW215414   2.079   3.489   9.205  3.2163 -0.4627 -0.6940
 1319SOL     OW15415   3.722   2.130  12.227 -0.2943  0.3035  0.4036
 1319SOL    HW115416   3.797   2.187  12.211  1.1054 -1.0427  2.2145
 1319SOL    HW215417   3.722   2.079  12.146  0.0518  0.2626  0.4280
 1320SOL     OW15418   1.446   2.300   3.587 -0.7108  0.2460  0.2332
 1320SOL    HW115419   1.530   2.293   3.634 -1.5752  0.4580  1.8019
 1320SOL    HW215420   1.407   2.374   3.632 -0.6234  0.3410  0.1530
 1321SOL     OW15421   2.091   1.578   8.332  0.3113  0.0382  0.5718
 1321SOL    HW115422   2.065   1.610   8.246 -3.6667 -2.1846  0.9254
 1321SOL    HW215423   2.128   1.491   8.326  1.3949  0.6823 -1.6927
 1322SOL     OW15424   3.530   1.378   7.570  0.4005 -0.7596 -0.0696
 1322SOL    HW115425   3.515   1.417   7.656 -1.6396  0.4927 -1.0123
 1322SOL    HW215426   3.449   1.341   7.535 -0.4733  0.3033  0.8477
 1323SOL     OW15427   2.413   2.348   9.087  0.4061 -0.5409  0.7806
 1323SOL    HW115428   2.489   2.403   9.065 -0.0424 -0.7062 -1.1483
 1323SOL    HW215429   2.452   2.286   9.148  1.0333 -0.4562  0.4675
 1324SOL     OW15430   4.036   4.176   7.930 -0.6939 -0.2761  0.1590
 1324SOL    HW115431   3.947   4.143   7.943 -0.6800  0.5083  2.2042
 1324SOL    HW215432   4.058   4.160   7.838 -1.9701 -1.7977  0.1158
 1325SOL     OW15433   4.534   1.838   7.412 -0.1584 -0.3548 -0.2902
 1325SOL    HW115434   4.528   1.815   7.504 -0.8960  2.7375  0.4188
 1325SOL    HW215435   4.500   1.756   7.377  1.7093 -0.4664 -1.8783
 1326SOL     OW15436   0.779   2.295  17.152  0.0548  0.5499 -0.1143
 1326SOL    HW115437   0.762   2.320  17.061 -1.0272  1.2250  0.2819
 1326SOL    HW215438   0.823   2.211  17.136  0.4231  0.8289 -0.5483
 1327SOL     OW15439   3.763   3.795   6.499  0.0022  0.1160 -0.4604
 1327SOL    HW115440   3.732   3.775   6.411  0.2081  2.8046 -1.1368
 1327SOL    HW215441   3.731   3.884   6.514 -0.3873  0.0416 -0.8483
 1328SOL     OW15442   0.277   1.760   9.276  0.2361 -0.1477 -0.5479
 1328SOL    HW115443   0.298   1.853   9.266  0.5671 -0.1533  0.1018
 1328SOL    HW215444   0.360   1.726   9.308 -0.0197  0.5958  0.9000
 1329SOL     OW15445   2.851   2.377   4.052 -0.4373 -0.3344 -0.0591
 1329SOL    HW115446   2.789   2.374   4.125  0.9602  2.1246  1.2021
 1329SOL    HW215447   2.802   2.313   3.999  1.0090 -0.9734 -0.6082
 1330SOL     OW15448   3.763   1.765   2.998 -0.3809 -0.3151  0.2405
 1330SOL    HW115449   3.737   1.697   3.060 -0.1755  0.1576  0.8414
 1330SOL    HW215450   3.701   1.760   2.925  2.0028  2.6395 -1.9838
 1331SOL     OW15451   2.586   1.512  13.108 -0.2374  0.2520 -0.1967
 1331SOL    HW115452   2.648   1.584  13.121  2.6821 -2.1761 -0.4518
 1331SOL    HW215453   2.542   1.497  13.192  0.4744  2.5610  0.5943
 1332SOL     OW15454   4.166   1.290  14.401  0.1583  0.2483  0.1288
 1332SOL    HW115455   4.236   1.226  14.414  0.1606  0.7755  2.7762
 1332SOL    HW215456   4.167   1.338  14.483  1.3503 -1.6239  1.2207
 1333SOL     OW15457   4.646   0.567   3.942 -0.3085  0.1830  0.2520
 1333SOL    HW115458   4.611   0.502   4.003  0.8898 -1.4375 -0.7676
 1333SOL    HW215459   0.011   0.571   3.971 -0.0820  0.5025 -0.5035
 1334SOL     OW15460   2.986   0.012  16.583 -0.4125 -0.4050 -0.1787
 1334SOL    HW115461   3.031   0.073  16.641 -1.2591  0.0153  0.0384
 1334SOL    HW215462   3.000   0.043  16.493 -1.2543 -2.5531 -1.0489
 1335SOL     OW15463   1.605   4.326  16.069  0.1786  0.0224  0.3887
 1335SOL    HW115464   1.664   4.401  16.070 -0.4590  0.5222  0.7696
 1335SOL    HW215465   1.620   4.294  16.158 -0.1280 -0.3108  0.3191
 1336SOL     OW15466   0.054   2.872   6.236  0.0967  0.4691  0.6155
 1336SOL    HW115467   0.049   2.777   6.224  2.6162  0.4250  0.0357
 1336SOL    HW215468   4.699   2.899   6.193  1.1892 -0.1781 -1.8732
 1337SOL     OW15469   0.303   1.865   5.487 -0.0014 -0.5556  0.1437
 1337SOL    HW115470   0.269   1.953   5.471  0.7848 -0.3529 -0.4815
 1337SOL    HW215471   0.229   1.820   5.528  0.4597 -2.3650 -0.9845
 1338SOL     OW15472   2.884   1.492   3.793 -0.1051 -0.3144 -0.1352
 1338SOL    HW115473   2.939   1.551   3.844 -0.9548  0.1852  0.2044
 1338SOL    HW215474   2.812   1.553   3.783  1.7595  1.5249 -2.1142
 1339SOL     OW15475   2.711   3.364  12.944  0.2825  0.0968  0.5203
 1339SOL    HW115476   2.622   3.328  12.944  0.3472 -0.0989 -1.9978
 1339SOL    HW215477   2.751   3.335  12.862  1.9183 -0.8336  1.6433
 1340SOL     OW15478   0.625   2.915   2.976 -0.1252  0.3024 -0.3191
 1340SOL    HW115479   0.662   2.993   2.934 -1.3649  1.2877  0.4301
 1340SOL    HW215480   0.531   2.930   2.968 -0.3679 -1.2935 -0.4283
 1341SOL     OW15481   4.675   2.011   9.880  0.0986  0.3509  0.3041
 1341SOL    HW115482   0.006   2.028   9.955 -0.5229  0.0726  0.8420
 1341SOL    HW215483   4.620   1.940   9.912 -1.1523  0.6537 -1.2063
 1342SOL     OW15484   4.438   3.392   3.257  0.6147  0.3231  0.5287
 1342SOL    HW115485   4.361   3.447   3.272  1.5801  1.9449 -0.4776
 1342SOL    HW215486   4.480   3.451   3.194 -0.5063  0.1334 -0.4049
 1343SOL     OW15487   4.143   2.213  10.870  0.1020 -0.0442  0.3139
 1343SOL    HW115488   4.135   2.165  10.788 -1.3465  1.8593 -0.6716
 1343SOL    HW215489   4.204   2.278  10.835  1.8844 -0.9453  1.7722
 1344SOL     OW15490   4.394   1.419  13.526  0.3754  0.2301 -0.3097
 1344SOL    HW115491   4.426   1.505  13.499  0.3025  0.8711  1.6788
 1344SOL    HW215492   4.382   1.389  13.436 -0.0215  1.5107 -0.6738
 1345SOL     OW15493   0.706   2.400   4.472 -0.1223 -0.2873 -0.0997
 1345SOL    HW115494   0.662   2.318   4.494  0.1600 -0.5631 -0.5566
 1345SOL    HW215495   0.789   2.358   4.448 -0.4135 -0.5452 -0.6573
 1346SOL     OW15496   2.971   4.336   2.249  0.4008  0.1659 -0.1645
 1346SOL    HW115497   2.919   4.306   2.324  1.6170  0.0926  0.6608
 1346SOL    HW215498   3.004   4.418   2.286 -0.6571 -1.6498  4.8267
 1347SOL     OW15499   1.116   0.704   3.164 -0.2968 -0.1943 -0.3389
 1347SOL    HW115500   1.139   0.672   3.252  0.7157  2.9417  0.5363
 1347SOL    HW215501   1.160   0.638   3.110  1.0925  2.8015 -2.8243
 1348SOL     OW15502   1.399   1.776   8.875  0.1127  0.0123 -0.0139
 1348SOL    HW115503   1.377   1.727   8.796 -2.4425  0.1217  0.6222
 1348SOL    HW215504   1.335   1.742   8.938  1.1884 -1.9892 -0.0177
 1349SOL     OW15505   1.234   1.933   2.608  0.1337 -0.3245  0.2254
 1349SOL    HW115506   1.254   1.987   2.685 -1.8851 -1.9033  1.8496
 1349SOL    HW215507   1.248   1.995   2.537  1.4712 -0.6204  0.2304
 1350SOL     OW15508   0.663   1.290  14.372  0.9340  0.1155  0.2701
 1350SOL    HW115509   0.591   1.324  14.319  0.7219 -0.7686 -0.0125
 1350SOL    HW215510   0.621   1.241  14.443 -0.3397  1.6428  0.5783
 1351SOL     OW15511   0.549   2.292   5.562 -0.3402 -0.0774  0.1540
 1351SOL    HW115512   0.477   2.287   5.625 -1.2912  1.3854 -0.8458
 1351SOL    HW215513   0.580   2.380   5.580  0.0210 -0.5035  1.6581
 1352SOL     OW15514   4.563   0.426   6.556 -0.1274 -0.0284 -0.6311
 1352SOL    HW115515   4.501   0.408   6.485 -0.3745 -0.4497 -0.3093
 1352SOL    HW215516   4.495   0.417   6.622  0.1143 -1.4615 -0.5639
 1353SOL     OW15517   1.028   0.724   5.742  0.0182  0.3544 -0.2011
 1353SOL    HW115518   0.948   0.701   5.789 -0.7233  3.1230 -0.1087
 1353SOL    HW215519   0.991   0.753   5.659  1.0134  2.6642  0.1490
 1354SOL     OW15520   1.344   3.667   3.731 -0.4138 -0.2070  0.5237
 1354SOL    HW115521   1.359   3.715   3.650  2.2256  1.3680  1.9184
 1354SOL    HW215522   1.373   3.580   3.701  0.2228  0.7922 -1.7616
 1355SOL     OW15523   0.169   0.063  10.921 -0.0323  0.8870  0.0536
 1355SOL    HW115524   0.080   0.051  10.888  1.1420  1.6421 -3.4526
 1355SOL    HW215525   0.176   0.000  10.993  1.0209 -1.6094 -2.1875
 1356SOL     OW15526   0.497   0.453   3.041 -0.1981 -0.0855 -0.1676
 1356SOL    HW115527   0.581   0.461   3.086 -0.1951  1.2494 -0.4156
 1356SOL    HW215528   0.470   0.373   3.087 -1.8693  0.0109 -1.0020
 1357SOL     OW15529   4.109   1.574  13.612 -0.1117 -0.3389  0.2075
 1357SOL    HW115530   4.030   1.521  13.623 -1.3556  1.5986  0.5132
 1357SOL    HW215531   4.165   1.512  13.566 -1.1386  0.7082 -2.5036
 1358SOL     OW15532   1.544   2.161  12.145  0.1493 -0.1938  0.1870
 1358SOL    HW115533   1.450   2.140  12.150  0.5039 -1.3546  2.2906
 1358SOL    HW215534   1.568   2.173  12.237  3.3242  0.1010 -0.6797
 1359SOL     OW15535   1.016   4.205   8.425 -0.4168 -0.0076 -0.1966
 1359SOL    HW115536   1.028   4.222   8.519  0.1154 -1.2431 -0.0425
 1359SOL    HW215537   1.000   4.111   8.424  1.3377 -0.3381  2.3862
 1360SOL     OW15538   0.289   3.695   8.502 -0.0347 -0.3731 -0.0568
 1360SOL    HW115539   0.380   3.719   8.487  0.0297  0.7188  2.0545
 1360SOL    HW215540   0.293   3.603   8.529  1.2418  0.7024  3.4789
 1361SOL     OW15541   1.626   2.149  16.418  0.0483 -0.1410 -0.0049
 1361SOL    HW115542   1.719   2.130  16.433 -0.2127 -0.6789  0.9220
 1361SOL    HW215543   1.639   2.196  16.335 -1.7705  0.8477  0.2881
 1362SOL     OW15544   3.962   4.239  15.201  0.7237 -0.4802 -0.2226
 1362SOL    HW115545   3.872   4.206  15.201  0.5595 -0.0384 -1.2700
 1362SOL    HW215546   3.945   4.332  15.188 -0.5304 -0.3584  2.1691
 1363SOL     OW15547   2.350   1.362   4.730  0.7195  0.8346 -0.5235
 1363SOL    HW115548   2.381   1.426   4.795 -0.6523 -0.4600  1.4020
 1363SOL    HW215549   2.402   1.283   4.744 -3.1635 -1.6329 -0.1587
 1364SOL     OW15550   0.036   1.998   2.712 -0.1996 -0.2225  0.2890
 1364SOL    HW115551   4.668   1.998   2.730 -0.1656  1.5013  0.4420
 1364SOL    HW215552   0.050   2.076   2.658 -0.3851 -1.0394 -0.9386
 1365SOL     OW15553   3.588   2.223   4.477 -0.2290  0.8810  0.1359
 1365SOL    HW115554   3.672   2.249   4.440 -0.3383 -2.0492 -2.2482
 1365SOL    HW215555   3.608   2.133   4.503  0.0341  0.2011 -2.4219
 1366SOL     OW15556   2.076   0.302  12.867 -0.3676  0.4958 -0.0584
 1366SOL    HW115557   2.030   0.350  12.936  0.7398  0.0226  1.0151
 1366SOL    HW215558   2.012   0.238  12.834  0.9396 -1.0042  0.3208
 1367SOL     OW15559   3.754   4.576   7.153  0.2247 -0.0357  0.2078
 1367SOL    HW115560   3.772   4.605   7.063 -0.0535 -0.5177 -0.0055
 1367SOL    HW215561   3.710   4.649   7.196  2.3894  1.0141  0.6581
 1368SOL     OW15562   4.720   3.276   2.558  0.1226  1.0280  0.4023
 1368SOL    HW115563   0.024   3.365   2.540 -1.3207  1.5435  0.5329
 1368SOL    HW215564   4.708   3.264   2.652  2.0596 -1.9012  0.2397
 1369SOL     OW15565   0.283   2.822   1.687 -0.3221  0.5404 -0.3184
 1369SOL    HW115566   0.205   2.869   1.716  0.0697  1.3839 -0.6208
 1369SOL    HW215567   0.287   2.750   1.750 -0.7072  1.5601  0.8532
 1370SOL     OW15568   1.704   2.669   6.772  0.2431 -0.5945 -0.0784
 1370SOL    HW115569   1.768   2.738   6.791  1.7447 -1.7184 -1.0626
 1370SOL    HW215570   1.718   2.612   6.847  1.0662  1.6192  1.4493
 1371SOL     OW15571   0.101   2.953  17.463 -0.3234  0.5698 -0.3088
 1371SOL    HW115572   0.123   3.009  17.537  1.8358  1.1778 -1.4255
 1371SOL    HW215573   0.017   2.994  17.439 -0.9144 -0.9410 -0.8337
 1372SOL     OW15574   2.382   2.194   3.648 -0.5971 -0.0828 -0.1495
 1372SOL    HW115575   2.418   2.105   3.650 -1.5777 -0.4789 -0.1262
 1372SOL    HW215576   2.436   2.233   3.580 -1.7568  0.4879 -0.7376
 1373SOL     OW15577   3.001   1.778  16.603 -0.1046 -0.1992 -0.6174
 1373SOL    HW115578   3.021   1.688  16.630  0.4991 -0.0528 -0.5577
 1373SOL    HW215579   3.081   1.831  16.604 -1.2691  1.5033  0.9706
 1374SOL     OW15580   2.127   2.380   0.251  1.1712 -0.2469 -0.0460
 1374SOL    HW115581   2.160   2.324   0.180  1.0015 -0.6039  0.1596
 1374SOL    HW215582   2.032   2.368   0.243  1.2901 -0.3154 -1.4666
 1375SOL     OW15583   3.216   2.231  15.271  0.0816  0.1262 -0.2694
 1375SOL    HW115584   3.291   2.173  15.261 -1.4303 -1.7790 -0.6397
 1375SOL    HW215585   3.181   2.230  15.182 -2.9868 -1.8183  0.9832
 1376SOL     OW15586   0.340   2.897   8.787  0.3826 -0.4784  0.1746
 1376SOL    HW115587   0.255   2.895   8.831 -0.2986  2.4554 -0.9872
 1376SOL    HW215588   0.396   2.911   8.863  2.1587 -0.4721 -1.1504
 1377SOL     OW15589   2.873   0.445   8.084 -0.0025 -0.2113  0.2807
 1377SOL    HW115590   2.800   0.389   8.110  1.5578 -1.2676  2.4518
 1377SOL    HW215591   2.916   0.397   8.013 -0.6420 -1.8593  1.0025
 1378SOL     OW15592   4.715   3.869   2.028  0.3459  0.1341 -0.5408
 1378SOL    HW115593   4.655   3.934   2.065 -0.4547 -1.3224  0.6872
 1378SOL    HW215594   0.054   3.850   2.095 -3.5451 -3.2487  2.3369
 1379SOL     OW15595   3.808   2.432  15.349  0.2203  0.2855  0.2021
 1379SOL    HW115596   3.718   2.405  15.369  0.3885 -0.2339  0.2600
 1379SOL    HW215597   3.807   2.511  15.402 -0.2736 -0.2571  1.0051
 1380SOL     OW15598   0.697   1.055   6.132  0.4623  0.2627  0.3513
 1380SOL    HW115599   0.738   1.134   6.098  1.2330  0.6635  2.2266
 1380SOL    HW215600   0.616   1.046   6.080  1.4332 -1.2893 -0.9131
 1381SOL     OW15601   2.278   3.113   7.957  0.2907 -0.2974 -0.0060
 1381SOL    HW115602   2.246   3.197   7.988 -1.7965 -1.4841  1.0384
 1381SOL    HW215603   2.351   3.096   8.017  0.1974  0.2934  0.2686
 1382SOL     OW15604   2.113   3.501   1.962 -0.0230 -0.2162  0.4377
 1382SOL    HW115605   2.201   3.523   1.933  0.3025  0.9154  2.2633
 1382SOL    HW215606   2.070   3.574   1.919 -0.0074 -0.6877 -0.3832
 1383SOL     OW15607   1.569   2.191  12.435  0.1172  0.4553  0.0380
 1383SOL    HW115608   1.620   2.228  12.507 -1.6594 -0.4229  1.7485
 1383SOL    HW215609   1.566   2.101  12.469 -2.1092  0.2416 -0.7047
 1384SOL     OW15610   4.444   3.627  12.269 -0.1023 -0.5363  0.1203
 1384SOL    HW115611   4.351   3.653  12.271 -0.2391 -0.8920 -1.4055
 1384SOL    HW215612   4.439   3.532  12.264  0.8743 -0.5186 -1.2998
 1385SOL     OW15613   0.060   3.458   7.803  0.0917  0.9697  0.0625
 1385SOL    HW115614   0.086   3.550   7.812 -2.0074  1.3581  2.1976
 1385SOL    HW215615   0.135   3.412   7.842 -1.8951 -1.4419  0.9816
 1386SOL     OW15616   0.372   4.144   1.809  0.1755 -0.6955 -0.1023
 1386SOL    HW115617   0.358   4.152   1.904 -1.5937 -2.2234 -0.2289
 1386SOL    HW215618   0.282   4.127   1.782 -1.0041 -0.4628  3.6927
 1387SOL     OW15619   0.098   4.470   8.233 -0.4665  0.2546 -0.3029
 1387SOL    HW115620   0.057   4.394   8.192  1.1386  0.9746 -3.2715
 1387SOL    HW215621   0.122   4.507   8.147 -2.9460  1.0910 -0.6501
 1388SOL     OW15622   4.479   4.411   2.851  0.1808 -0.0290  0.2859
 1388SOL    HW115623   4.459   4.470   2.923 -3.3136 -0.1324 -0.6007
 1388SOL    HW215624   4.534   4.460   2.790 -1.2478  0.4370 -0.6151
 1389SOL     OW15625   2.001   2.167   5.079 -0.2314  0.0873  0.6156
 1389SOL    HW115626   1.918   2.189   5.037 -0.2514 -1.8874 -0.3758
 1389SOL    HW215627   1.978   2.156   5.171  0.7246  1.2841  0.9931
 1390SOL     OW15628   4.643   2.956  15.752  0.4416  0.2060 -0.7130
 1390SOL    HW115629   4.644   3.045  15.787  1.3086 -0.2071  0.3455
 1390SOL    HW215630   0.010   2.946  15.732  1.0212  0.5936  1.6977
 1391SOL     OW15631   4.148   4.509   6.146 -0.0567 -0.3463 -0.2093
 1391SOL    HW115632   4.136   4.417   6.121  0.7193 -0.4386 -0.2228
 1391SOL    HW215633   4.172   4.550   6.063 -0.7430 -2.0855 -1.2847
 1392SOL     OW15634   4.009   4.110   8.563 -0.2405 -0.3997  0.4911
 1392SOL    HW115635   4.007   4.014   8.554 -0.7671 -0.4316  0.9025
 1392SOL    HW215636   4.073   4.123   8.633 -0.6146 -1.7429  1.0890
 1393SOL     OW15637   3.003   1.169   5.133 -0.1687  0.3685 -0.4269
 1393SOL    HW115638   2.936   1.173   5.201  2.7375 -0.1932  2.5246
 1393SOL    HW215639   2.984   1.082   5.100 -3.0085  0.4077  1.0956
 1394SOL     OW15640   3.670   4.470  17.137  0.2284 -0.7060 -0.1054
 1394SOL    HW115641   3.579   4.499  17.139  1.3854  2.8454  0.4184
 1394SOL    HW215642   3.670   4.375  17.122 -1.1104 -0.6910 -0.1581
 1395SOL     OW15643   0.037   1.033   2.088  0.4120 -0.2378 -0.0942
 1395SOL    HW115644   0.011   0.942   2.073 -1.5640  0.3767 -0.4510
 1395SOL    HW215645   4.688   1.074   2.132  0.1675  0.8937 -1.5977
 1396SOL     OW15646   1.309   2.503   6.669  0.6376 -0.0429 -0.2393
 1396SOL    HW115647   1.239   2.438   6.677  1.5245 -0.9244  0.2455
 1396SOL    HW215648   1.308   2.516   6.574 -0.8753  1.3410 -0.0480
 1397SOL     OW15649   2.932   3.366  15.197 -0.1815 -0.1564  1.1026
 1397SOL    HW115650   2.974   3.327  15.121  0.3509  0.4523  1.0951
 1397SOL    HW215651   2.840   3.355  15.172  0.1240  1.6376 -0.7386
 1398SOL     OW15652   3.649   2.550   1.411  0.5526 -0.6359 -0.0418
 1398SOL    HW115653   3.608   2.470   1.446 -2.3261  1.4867  1.4046
 1398SOL    HW215654   3.571   2.589   1.372  0.8563 -1.5200 -1.5509
 1399SOL     OW15655   2.410   4.689   8.672 -0.1075  0.2423 -0.3501
 1399SOL    HW115656   2.352   0.028   8.712 -0.5320  0.3260 -1.1089
 1399SOL    HW215657   2.346   4.618   8.671  0.4497 -0.2263 -2.3370
 1400SOL     OW15658   4.005   0.646   9.581 -0.4741  0.1294 -0.4923
 1400SOL    HW115659   3.973   0.625   9.669 -1.2488 -0.6520 -0.9620
 1400SOL    HW215660   3.922   0.659   9.536 -1.5783 -0.4680  1.3785
 1401SOL     OW15661   1.713   3.798  12.421 -0.1509 -0.5239  0.2879
 1401SOL    HW115662   1.670   3.762  12.498 -1.9993 -0.7583 -0.8604
 1401SOL    HW215663   1.655   3.864  12.383  0.4114 -0.9259 -1.2563
 1402SOL     OW15664   2.599   3.561  15.112  0.3136 -0.0820  0.2665
 1402SOL    HW115665   2.666   3.502  15.080  0.6194  0.4122 -0.0063
 1402SOL    HW215666   2.546   3.510  15.174  1.3510  1.0583  2.0758
 1403SOL     OW15667   4.704   2.953   2.742  0.0734  0.1944 -0.4488
 1403SOL    HW115668   4.629   2.917   2.789  0.0269 -1.6215 -1.9143
 1403SOL    HW215669   4.703   3.048   2.754  0.9768  0.0197  1.0450
 1404SOL     OW15670   4.640   4.601  11.513  0.1916 -0.0844 -0.0232
 1404SOL    HW115671   4.612   4.511  11.499 -2.3581  0.7683 -0.4622
 1404SOL    HW215672   4.606   4.613  11.601 -1.4281  1.1507 -0.8161
 1405SOL     OW15673   0.328   3.424   7.682  0.0123  0.0244  0.4091
 1405SOL    HW115674   0.396   3.490   7.670 -1.2674  1.1346 -0.6982
 1405SOL    HW215675   0.330   3.406   7.776  0.0112 -0.7665  0.2629
 1406SOL     OW15676   0.327   3.755   6.839 -1.2549 -0.0496  0.1291
 1406SOL    HW115677   0.414   3.723   6.864 -1.4250 -1.5704 -1.2393
 1406SOL    HW215678   0.328   3.723   6.749  1.1848  2.8589 -0.8732
 1407SOL     OW15679   3.946   1.244   5.702 -0.3380 -0.4426  0.0047
 1407SOL    HW115680   3.962   1.208   5.615  1.3075 -0.1755  0.2033
 1407SOL    HW215681   3.959   1.173   5.765 -0.5942 -1.4457 -1.0602
 1408SOL     OW15682   1.729   2.512  15.494  0.0781  0.1568 -0.1614
 1408SOL    HW115683   1.783   2.446  15.536 -1.3749 -0.0293  1.4373
 1408SOL    HW215684   1.758   2.516  15.403 -1.5830  2.7461 -0.5881
 1409SOL     OW15685   1.504   1.754  15.665  0.3582 -0.1126  0.0496
 1409SOL    HW115686   1.424   1.775  15.616 -0.4538 -1.3804  0.8595
 1409SOL    HW215687   1.541   1.689  15.605  0.6663 -0.2354  0.3747
 1410SOL     OW15688   0.382   0.099   7.345 -0.5297  0.1297 -0.5262
 1410SOL    HW115689   0.304   0.090   7.290  1.9024 -1.3876 -3.7222
 1410SOL    HW215690   0.424   0.013   7.341 -0.2834  0.0925  2.8375
 1411SOL     OW15691   0.420   4.205   4.919 -0.2294 -0.0142  0.5762
 1411SOL    HW115692   0.378   4.125   4.889 -2.9742  0.6559  2.6742
 1411SOL    HW215693   0.501   4.164   4.950  0.5505  0.9299 -0.1809
 1412SOL     OW15694   0.286   2.342   5.642  1.0773  0.3016 -0.5493
 1412SOL    HW115695   0.303   2.374   5.730  0.1334 -0.6380 -0.0132
 1412SOL    HW215696   0.309   2.416   5.586  1.0448 -1.7060 -3.2277
 1413SOL     OW15697   2.209   4.114  14.238  0.5514 -0.0361 -0.1810
 1413SOL    HW115698   2.277   4.169  14.276  1.2291 -0.0846 -1.3174
 1413SOL    HW215699   2.189   4.165  14.159 -0.3601 -0.3823 -0.1670
 1414SOL     OW15700   1.734   1.229  15.476  0.4317 -0.5400  0.9149
 1414SOL    HW115701   1.657   1.240  15.532 -0.1263 -0.7995  0.1998
 1414SOL    HW215702   1.700   1.157  15.422  3.3460 -0.8240 -0.5807
 1415SOL     OW15703   1.711   0.251   3.528  0.1764  0.7262  0.0488
 1415SOL    HW115704   1.673   0.231   3.614  0.2824  0.7172  0.0941
 1415SOL    HW215705   1.650   0.205   3.470 -0.6893  1.1131  0.6450
 1416SOL     OW15706   3.913   0.001   9.647  0.8399  0.4225  0.0801
 1416SOL    HW115707   3.988   4.706   9.592 -0.4798  4.2084 -3.1324
 1416SOL    HW215708   3.882   0.086   9.615 -1.8822 -0.5623  0.0566
 1417SOL     OW15709   1.567   4.102  13.156 -0.1088 -0.5522  0.3023
 1417SOL    HW115710   1.597   4.191  13.142  0.9057 -1.0877 -0.9068
 1417SOL    HW215711   1.610   4.051  13.087  2.3360  1.7524  0.1602
 1418SOL     OW15712   0.339   3.865  15.183  0.3087  0.3209 -0.4544
 1418SOL    HW115713   0.386   3.788  15.151 -0.5120 -0.3545 -0.0279
 1418SOL    HW215714   0.280   3.826  15.247 -0.5794 -0.8359 -1.9637
 1419SOL     OW15715   0.249   1.942   7.628 -0.1170  0.6308  0.3728
 1419SOL    HW115716   0.277   1.855   7.601 -0.4226  0.4121  0.7507
 1419SOL    HW215717   0.270   1.989   7.548  0.7674 -0.6756 -0.1500
 1420SOL     OW15718   1.974   2.218   4.394  0.5104 -0.5343  0.0681
 1420SOL    HW115719   1.935   2.269   4.465  0.4616 -1.0916  0.4385
 1420SOL    HW215720   1.904   2.156   4.374 -0.5489  1.2455 -1.7527
 1421SOL     OW15721   4.002   0.079   6.908 -0.6223 -0.0731 -0.3133
 1421SOL    HW115722   3.992   0.078   7.004  1.4217  1.5156 -0.0813
 1421SOL    HW215723   3.937   0.018   6.874 -0.8442  1.2593 -2.2621
 1422SOL     OW15724   1.999   2.160  13.472 -0.1292  0.6894 -0.2624
 1422SOL    HW115725   2.044   2.126  13.549 -0.8865 -0.4655 -0.3185
 1422SOL    HW215726   1.992   2.252  13.496 -1.1414 -0.1732  2.7227
 1423SOL     OW15727   1.482   1.218   4.033  0.8578  0.5208  0.4147
 1423SOL    HW115728   1.502   1.306   4.066 -2.1454  1.3189  0.0888
 1423SOL    HW215729   1.455   1.180   4.116 -2.0686 -0.3792 -0.9407
 1424SOL     OW15730   0.370   0.149  13.160  0.0596 -0.4927  0.4392
 1424SOL    HW115731   0.402   0.208  13.092 -0.8750 -1.1250 -0.5522
 1424SOL    HW215732   0.304   0.103  13.108  1.4254 -2.0849  0.0961
 1425SOL     OW15733   0.491   2.056   3.938  0.1861 -0.1363 -0.3961
 1425SOL    HW115734   0.510   2.091   3.851  1.3452  0.7699  0.2156
 1425SOL    HW215735   0.423   2.116   3.967  0.9375 -0.1684  1.4305
 1426SOL     OW15736   1.425   4.319  12.887  0.2510 -0.0050  0.1604
 1426SOL    HW115737   1.333   4.339  12.905  0.0503  0.8521 -1.8327
 1426SOL    HW215738   1.452   4.385  12.823  0.7188 -0.6464 -0.3007
 1427SOL     OW15739   4.308   1.563   6.587  0.5445  0.0982 -0.1237
 1427SOL    HW115740   4.333   1.599   6.672  2.3410  0.5454 -0.8287
 1427SOL    HW215741   4.250   1.635   6.565 -0.2262  0.1775  2.1989
 1428SOL     OW15742   2.897   3.941   4.057  0.2172 -0.4031  0.1604
 1428SOL    HW115743   2.885   3.986   4.141 -1.2923 -1.4507  0.4982
 1428SOL    HW215744   2.974   3.985   4.021 -0.2150 -1.0261 -1.5451
 1429SOL     OW15745   2.017   4.469   3.780  0.2784 -0.0095 -0.1521
 1429SOL    HW115746   2.002   4.434   3.868 -0.5962 -2.3624 -1.2332
 1429SOL    HW215747   2.113   4.472   3.777  0.0376  3.6366 -4.4852
 1430SOL     OW15748   2.943   2.703   7.637  0.2045 -0.4305  0.1721
 1430SOL    HW115749   2.914   2.789   7.669 -1.4957 -0.1697 -2.0755
 1430SOL    HW215750   2.994   2.724   7.558 -3.2105  1.0946 -1.6397
 1431SOL     OW15751   3.635   0.374   5.470  0.1211 -0.0659 -0.0646
 1431SOL    HW115752   3.709   0.348   5.415 -0.5584 -2.3627  0.1029
 1431SOL    HW215753   3.606   0.287   5.499 -2.7207  0.9662  0.1862
 1432SOL     OW15754   3.326   3.977   3.779  0.0620 -0.4795 -0.3108
 1432SOL    HW115755   3.297   3.900   3.730  0.7106 -0.5723 -0.5364
 1432SOL    HW215756   3.353   4.031   3.705 -1.6263  0.1743 -0.4576
 1433SOL     OW15757   2.750   1.118  14.999 -0.3511  0.2172  0.0204
 1433SOL    HW115758   2.793   1.181  14.942  2.7509 -0.0376  2.0313
 1433SOL    HW215759   2.714   1.050  14.943 -0.4355 -0.5050  0.9430
 1434SOL     OW15760   0.929   0.677   4.802 -0.0052  0.6264 -0.3591
 1434SOL    HW115761   1.007   0.717   4.764  1.3823  0.7195  2.5579
 1434SOL    HW215762   0.933   0.597   4.750 -0.0118  0.8103 -0.6391
 1435SOL     OW15763   0.216   0.557   3.280  0.2135  0.1373 -0.4681
 1435SOL    HW115764   0.158   0.592   3.347  3.0980  0.7297  1.7285
 1435SOL    HW215765   0.292   0.615   3.286  0.0515  0.3966 -0.8720
 1436SOL     OW15766   4.404   4.017   3.452  0.1725  0.0949  0.2259
 1436SOL    HW115767   4.385   4.094   3.507  1.8369  1.4933 -1.1475
 1436SOL    HW215768   4.494   4.035   3.427  0.3231 -1.7738 -0.5579
 1437SOL     OW15769   3.867   1.718   9.405 -0.0587 -0.6149  0.6885
 1437SOL    HW115770   3.939   1.723   9.468  0.0716 -0.3554  0.5201
 1437SOL    HW215771   3.804   1.785   9.431 -1.0760 -0.9020 -1.0051
 1438SOL     OW15772   1.327   2.945   7.146  0.4591  0.1599 -0.5825
 1438SOL    HW115773   1.293   2.860   7.177  1.2565  0.2928  0.6809
 1438SOL    HW215774   1.415   2.955   7.183 -0.9497  2.6969  2.0661
 1439SOL     OW15775   2.482   0.990  17.338  0.6044 -0.2627  0.1826
 1439SOL    HW115776   2.501   0.920  17.402  0.5102  1.4505  2.0904
 1439SOL    HW215777   2.390   1.015  17.348  0.5869 -1.7808  3.8223
 1440SOL     OW15778   4.278   2.242   5.451 -0.3577  0.0723 -0.0002
 1440SOL    HW115779   4.323   2.299   5.513  0.5712 -1.8792  1.1210
 1440SOL    HW215780   4.231   2.301   5.393  0.7768  2.9435  1.9791
 1441SOL     OW15781   2.131   2.526   7.764 -0.5562 -0.4495  0.3998
 1441SOL    HW115782   2.226   2.522   7.769 -0.4953 -0.9760 -1.4334
 1441SOL    HW215783   2.105   2.507   7.854 -4.5898  4.2229  0.2399
 1442SOL     OW15784   0.686   3.622   6.115 -0.2834 -0.1948  0.1563
 1442SOL    HW115785   0.598   3.616   6.151  0.1168  0.9450  1.3580
 1442SOL    HW215786   0.699   3.717   6.124 -1.7869 -0.0759  0.9592
 1443SOL     OW15787   4.051   3.332   9.287 -0.0311 -0.0347  0.1484
 1443SOL    HW115788   4.051   3.421   9.323  0.1515  0.8647 -2.0542
 1443SOL    HW215789   3.956   3.323   9.284  0.1689 -1.2786 -2.1668
 1444SOL     OW15790   3.163   2.183   5.800  0.1088  0.2668  0.6843
 1444SOL    HW115791   3.249   2.195   5.841  0.4886 -1.0223  0.2380
 1444SOL    HW215792   3.118   2.107   5.838 -2.3045  0.9847 -0.6975
 1445SOL     OW15793   2.060   4.483   4.592  0.5417 -0.1833  0.0903
 1445SOL    HW115794   2.008   4.409   4.561  0.7087 -0.4541  0.4641
 1445SOL    HW215795   1.999   4.557   4.587  1.0154  0.1535 -0.8294
 1446SOL     OW15796   0.867   0.608   3.284 -0.2591  0.1567 -0.1768
 1446SOL    HW115797   0.936   0.646   3.230  0.5156  1.3653  1.6716
 1446SOL    HW215798   0.833   0.691   3.317 -0.1859  0.0691  0.1194
 1447SOL     OW15799   4.213   2.274   2.269 -0.2539 -0.1560 -0.2157
 1447SOL    HW115800   4.254   2.342   2.323 -0.1394 -1.3242  1.1892
 1447SOL    HW215801   4.137   2.249   2.321  0.2326 -0.5927  0.2803
 1448SOL     OW15802   4.461   2.640   9.824 -0.5511 -0.6986 -0.0242
 1448SOL    HW115803   4.421   2.723   9.800  1.8368  1.1771  2.4118
 1448SOL    HW215804   4.435   2.628   9.915 -0.1137  1.3822  0.3817
 1449SOL     OW15805   4.527   1.274   2.814 -0.0057 -0.1110 -0.3702
 1449SOL    HW115806   4.546   1.220   2.890 -0.9578  1.0789  0.7240
 1449SOL    HW215807   4.540   1.205   2.750  1.8808 -2.6639  2.8060
 1450SOL     OW15808   3.962   2.062   6.198  0.3029  0.2579 -0.0656
 1450SOL    HW115809   3.893   2.048   6.133  0.6019 -1.2129 -0.0853
 1450SOL    HW215810   3.909   2.105   6.265 -1.4837 -1.6673 -0.2431
 1451SOL     OW15811   4.522   2.968   4.852 -0.0269 -0.2878 -0.6487
 1451SOL    HW115812   4.434   2.947   4.885 -0.0279  0.3526 -0.2392
 1451SOL    HW215813   4.503   3.054   4.814 -1.8304  0.5145  2.1280
 1452SOL     OW15814   3.876   1.913   0.820  0.2437  0.5824  0.0730
 1452SOL    HW115815   3.782   1.913   0.802  0.1451 -0.2727  0.6039
 1452SOL    HW215816   3.907   1.834   0.776  1.3510  2.2559 -2.2016
 1453SOL     OW15817   4.176   0.083   4.000  0.1467 -0.0650 -0.1770
 1453SOL    HW115818   4.256   0.033   4.016 -1.5303 -2.4412  0.7592
 1453SOL    HW215819   4.113   0.036   4.055  0.9684  1.1950  1.8350
 1454SOL     OW15820   1.218   0.006   0.809 -0.1441  0.3041  0.3973
 1454SOL    HW115821   1.134   0.050   0.819 -1.6183 -2.2144 -0.9789
 1454SOL    HW215822   1.244   4.681   0.886 -1.4849 -0.5441  0.2779
 1455SOL     OW15823   1.720   0.349   7.696  0.0219 -0.4545  0.5712
 1455SOL    HW115824   1.759   0.275   7.650  0.5602  0.7249 -0.8637
 1455SOL    HW215825   1.689   0.404   7.624  0.3527 -0.6913  0.2476
 1456SOL     OW15826   3.221   2.872   8.738  0.5149  0.5109 -0.8673
 1456SOL    HW115827   3.316   2.877   8.743  0.3934  1.2521  0.7244
 1456SOL    HW215828   3.216   2.790   8.688  0.9514 -0.9034  1.4237
 1457SOL     OW15829   1.821   0.052   9.071  0.6243 -0.4702  0.5979
 1457SOL    HW115830   1.760   0.122   9.047 -0.1487 -1.6035 -0.7195
 1457SOL    HW215831   1.882   0.113   9.112  0.1537  0.9498 -0.8674
 1458SOL     OW15832   2.896   0.015   3.175  0.2371  0.0823 -0.2449
 1458SOL    HW115833   2.843   0.095   3.184 -1.6582 -1.2029 -0.0629
 1458SOL    HW215834   2.979   0.063   3.185  1.7288 -2.0159 -2.8606
 1459SOL     OW15835   0.865   0.624   3.858 -0.3888  0.7947  0.2139
 1459SOL    HW115836   0.959   0.622   3.871 -0.8354  0.4201  3.2410
 1459SOL    HW215837   0.863   0.576   3.774 -0.2601  0.1262  0.5934
 1460SOL     OW15838   1.246   1.583  14.893 -0.2967 -0.3410  0.3836
 1460SOL    HW115839   1.285   1.588  14.806  1.5648 -1.2895  1.1488
 1460SOL    HW215840   1.330   1.559  14.932 -0.3857 -0.9898  0.1834
 1461SOL     OW15841   0.812   3.357   9.006 -0.5745  0.0752  0.0661
 1461SOL    HW115842   0.730   3.321   8.971 -1.9440  1.2623  2.0624
 1461SOL    HW215843   0.869   3.280   9.011 -0.5613  0.0798 -0.0170
 1462SOL     OW15844   2.096   2.134   9.771  0.4766  0.0761  0.5033
 1462SOL    HW115845   2.180   2.180   9.776  0.0486  0.5453  3.0599
 1462SOL    HW215846   2.049   2.204   9.814 -0.9973 -0.5040 -0.1537
 1463SOL     OW15847   2.853   1.462   2.408  0.0044  0.0601 -0.5875
 1463SOL    HW115848   2.861   1.510   2.325 -1.6524 -1.6009 -1.7023
 1463SOL    HW215849   2.939   1.478   2.447  0.6712  0.6637 -2.2931
 1464SOL     OW15850   2.558   1.148   4.779  0.2306 -0.8345  0.8234
 1464SOL    HW115851   2.523   1.073   4.828  0.1550 -2.1709 -1.2400
 1464SOL    HW215852   2.610   1.095   4.718  0.9630 -2.5937  2.9505
 1465SOL     OW15853   1.648   1.489   1.753 -0.6025  0.0900  0.4196
 1465SOL    HW115854   1.564   1.444   1.751  0.1340 -1.1445 -2.3423
 1465SOL    HW215855   1.707   1.415   1.740  1.1825  1.5190  0.3642
 1466SOL     OW15856   0.864   3.914   2.596  0.6195  0.3305 -0.2815
 1466SOL    HW115857   0.893   3.974   2.665  0.2995 -0.4194  0.5018
 1466SOL    HW215858   0.795   3.973   2.564  1.8718  0.7794 -2.1239
 1467SOL     OW15859   4.206   0.453   2.854  0.5162  0.0934 -0.2036
 1467SOL    HW115860   4.251   0.534   2.829 -0.7207  0.7967 -0.1648
 1467SOL    HW215861   4.238   0.394   2.785 -0.3140 -0.5912  0.0058
 1468SOL     OW15862   0.364   0.370   6.427 -0.4948  0.3502  0.0351
 1468SOL    HW115863   0.292   0.311   6.449  2.0102 -2.0907  1.7123
 1468SOL    HW215864   0.320   0.455   6.434  0.4116  0.7746  0.5727
 1469SOL     OW15865   3.048   3.043  17.039  0.6594  0.5683 -0.3039
 1469SOL    HW115866   3.026   3.063  17.130  2.0533  2.3917 -0.3492
 1469SOL    HW215867   2.980   3.092  16.994  0.6382  0.5561 -0.2854
 1470SOL     OW15868   3.652   2.766   9.323  0.1259 -0.1371  0.3419
 1470SOL    HW115869   3.673   2.768   9.417  0.1225 -1.7503  0.3774
 1470SOL    HW215870   3.559   2.788   9.323 -0.3757 -2.2172 -0.0696
 1471SOL     OW15871   3.878   0.513   1.106  0.1605 -0.0356 -0.9314
 1471SOL    HW115872   3.801   0.465   1.078 -0.3346 -1.5737  2.9810
 1471SOL    HW215873   3.841   0.565   1.178  0.9916 -0.0502 -0.4919
 1472SOL     OW15874   4.150   3.836   2.388  0.0024  0.5219 -0.1291
 1472SOL    HW115875   4.158   3.931   2.396 -2.2156  0.5075  2.5230
 1472SOL    HW215876   4.197   3.817   2.307  0.2588 -1.4038  0.4611
 1473SOL     OW15877   0.347   2.880   2.660 -0.0927  0.1877 -0.0445
 1473SOL    HW115878   0.425   2.856   2.610  0.3392  3.1741 -0.7918
 1473SOL    HW215879   0.278   2.864   2.595 -0.8529  1.7607  0.3765
 1474SOL     OW15880   4.492   2.090  12.789 -0.4584 -0.9617 -0.0788
 1474SOL    HW115881   4.431   2.132  12.850  0.6527 -0.2760  0.5412
 1474SOL    HW215882   4.514   2.007  12.832 -0.7234 -0.2026  1.4941
 1475SOL     OW15883   1.340   3.610   4.340 -0.5649 -0.2112 -0.2548
 1475SOL    HW115884   1.351   3.554   4.417  2.0106  1.6708  0.6997
 1475SOL    HW215885   1.380   3.559   4.269  1.3283 -0.0665  0.7105
 1476SOL     OW15886   2.264   2.464   3.470 -0.0313  0.0939  0.7032
 1476SOL    HW115887   2.329   2.529   3.495  2.2753 -2.3260  0.9015
 1476SOL    HW215888   2.299   2.437   3.385  3.2009  0.4512  1.9253
 1477SOL     OW15889   3.724   3.673   4.444 -0.0589  0.0008 -0.2325
 1477SOL    HW115890   3.634   3.649   4.419 -0.4359 -0.0734  1.1620
 1477SOL    HW215891   3.752   3.713   4.362 -2.4311 -1.6222 -1.8376
 1478SOL     OW15892   4.613   1.495   3.744  0.0348  0.0819 -0.2101
 1478SOL    HW115893   4.627   1.558   3.814  2.3079 -0.6846  0.0123
 1478SOL    HW215894   4.680   1.427   3.756  1.0988  0.9612 -1.1311
 1479SOL     OW15895   1.162   4.573   8.318  0.2331  0.4506  0.0475
 1479SOL    HW115896   1.088   4.631   8.295 -2.1065 -1.9138  1.6218
 1479SOL    HW215897   1.139   4.499   8.262 -0.5782  0.5079  0.3013
 1480SOL     OW15898   1.774   0.270   0.285  0.0094 -0.3902 -0.1637
 1480SOL    HW115899   1.682   0.249   0.301 -0.1032  0.1738 -0.0688
 1480SOL    HW215900   1.778   0.228   0.199  3.2404 -0.0277 -0.1869
 1481SOL     OW15901   3.190   3.977  16.865 -0.0576 -0.2369 -0.6609
 1481SOL    HW115902   3.154   3.891  16.843  1.1670 -1.2314  1.1836
 1481SOL    HW215903   3.136   4.023  16.801  1.9868 -0.2984 -2.4131
 1482SOL     OW15904   3.148   4.137   2.137 -0.0121 -0.0671  0.7550
 1482SOL    HW115905   3.085   4.206   2.156  2.1191  0.7715  4.7813
 1482SOL    HW215906   3.187   4.168   2.055  2.1561 -0.1856  1.7248
 1483SOL     OW15907   3.861   4.582   8.820 -0.3867 -0.6094  0.4006
 1483SOL    HW115908   3.925   4.649   8.794 -0.0732 -1.8243 -1.9468
 1483SOL    HW215909   3.886   4.516   8.755  2.9073  0.0839  0.9834
 1484SOL     OW15910   2.840   1.890  14.732 -0.5270  0.4084  0.5040
 1484SOL    HW115911   2.806   1.864  14.647 -0.3523 -1.6039  1.0539
 1484SOL    HW215912   2.803   1.822  14.788 -0.1055 -1.3002 -1.3005
 1485SOL     OW15913   4.344   0.034  17.190 -0.0785 -0.0029  0.1638
 1485SOL    HW115914   4.315   0.040  17.099  1.5885  0.7741 -0.3088
 1485SOL    HW215915   4.263   0.008  17.234 -0.6886  0.3165 -0.7846
 1486SOL     OW15916   1.844   2.441   7.453  0.1537  0.2258 -0.0250
 1486SOL    HW115917   1.919   2.497   7.430  0.5125  0.4213  1.6490
 1486SOL    HW215918   1.850   2.370   7.388  0.2251 -0.1682  0.4090
 1487SOL     OW15919   1.407   3.845  16.801 -0.0021  0.5552  0.3598
 1487SOL    HW115920   1.403   3.931  16.760  1.8066 -0.2581 -1.5419
 1487SOL    HW215921   1.499   3.820  16.792 -0.4572 -1.1797  0.5343
 1488SOL     OW15922   3.977   1.785   4.681  0.1499 -0.5471 -0.6747
 1488SOL    HW115923   4.049   1.724   4.699  0.5528 -0.3306 -1.5204
 1488SOL    HW215924   3.903   1.743   4.725 -1.0593 -1.8309 -3.9129
 1489SOL     OW15925   1.700   3.032   6.342 -0.4216 -0.4552 -0.6617
 1489SOL    HW115926   1.791   3.003   6.330 -1.1806 -3.6536  1.1087
 1489SOL    HW215927   1.699   3.023   6.437  0.6300 -1.1068 -0.7092
 1490SOL     OW15928   4.286   0.236   4.546 -0.1023 -0.1670  0.2468
 1490SOL    HW115929   4.234   0.256   4.624 -3.0653  1.6774 -2.2308
 1490SOL    HW215930   4.349   0.307   4.538 -0.7848  0.6712  2.2261
 1491SOL     OW15931   3.953   2.749   2.340  1.2011 -0.0810  0.3373
 1491SOL    HW115932   3.926   2.735   2.249 -0.6864 -1.3232  1.0757
 1491SOL    HW215933   4.012   2.674   2.349  0.5028 -0.6336  0.3275
 1492SOL     OW15934   4.513   1.321  14.793  0.0952  0.4989  0.7063
 1492SOL    HW115935   4.590   1.359  14.835  0.4248 -0.7109  1.1853
 1492SOL    HW215936   4.447   1.380  14.830  0.4519 -0.5739  3.0436
 1493SOL     OW15937   0.041   2.994  14.758  0.2599 -0.3692 -0.0512
 1493SOL    HW115938   0.062   2.990  14.851  1.8075 -0.4083 -0.3891
 1493SOL    HW215939   0.127   3.011  14.718  0.0118  0.9969  0.0006
 1494SOL     OW15940   2.593   2.298   1.067  0.4422 -0.6527 -0.2238
 1494SOL    HW115941   2.650   2.367   1.031  2.3151 -1.5949  0.9202
 1494SOL    HW215942   2.526   2.350   1.111 -2.0675 -2.8635 -1.4864
 1495SOL     OW15943   2.052   0.431  14.169 -0.1017  0.3799 -0.6526
 1495SOL    HW115944   1.987   0.370  14.134 -0.8062  1.5895 -1.4692
 1495SOL    HW215945   2.072   0.483  14.090 -0.1074  1.4360  0.0382
 1496SOL     OW15946   4.302   1.037  13.276 -0.3959  0.0740 -0.1689
 1496SOL    HW115947   4.371   0.978  13.247  1.0252  0.0315  3.3059
 1496SOL    HW215948   4.290   1.017  13.368  2.1787 -0.7682 -0.0337
 1497SOL     OW15949   0.668   1.372   1.775 -0.1757 -0.6540  0.0968
 1497SOL    HW115950   0.596   1.435   1.771  0.3633 -0.0423 -0.0819
 1497SOL    HW215951   0.749   1.424   1.775  1.3422 -3.0046  0.8358
 1498SOL     OW15952   4.550   0.041   2.554 -0.7078 -0.4271  0.1757
 1498SOL    HW115953   4.635   0.085   2.548 -1.9322  2.0074  0.6492
 1498SOL    HW215954   4.522   0.080   2.637 -1.3164  0.1774 -0.3135
 1499SOL     OW15955   2.877   4.045   4.917 -0.1979  0.3522  0.2279
 1499SOL    HW115956   2.848   4.055   4.826 -1.7219  1.6469  0.8524
 1499SOL    HW215957   2.958   3.996   4.903 -1.1662 -0.6848 -1.9159
 1500SOL     OW15958   2.135   3.703   2.755  0.1606  0.2071 -0.4266
 1500SOL    HW115959   2.119   3.779   2.700 -2.0205  1.1462  1.5395
 1500SOL    HW215960   2.229   3.692   2.737 -0.2448 -0.6988 -2.0443
 1501SOL     OW15961   0.802   1.712   4.073  0.3034  0.1151  0.4588
 1501SOL    HW115962   0.842   1.640   4.122 -1.2462 -0.0298  1.5076
 1501SOL    HW215963   0.714   1.709   4.110  0.0005  1.2651 -0.1757
 1502SOL     OW15964   2.815   0.876   9.415 -0.6561 -0.0658 -0.0820
 1502SOL    HW115965   2.830   0.848   9.506 -0.8027 -0.2354 -0.1101
 1502SOL    HW215966   2.904   0.878   9.380 -1.2129 -1.7328 -1.5734
 1503SOL     OW15967   3.493   2.011   5.028  0.5121 -0.4622 -0.0192
 1503SOL    HW115968   3.543   2.066   4.969 -0.2334 -0.6661 -0.8407
 1503SOL    HW215969   3.408   2.056   5.024  0.0540 -1.4530 -1.5640
 1504SOL     OW15970   3.655   2.162   4.865  0.3293  0.2472 -0.1050
 1504SOL    HW115971   3.674   2.255   4.881  0.1390 -0.1279  2.3705
 1504SOL    HW215972   3.746   2.134   4.854  0.0533 -0.8556  0.4383
 1505SOL     OW15973   3.658   4.174   2.786 -0.7815  0.2195  0.6409
 1505SOL    HW115974   3.579   4.124   2.765  1.0567 -1.3141 -2.5418
 1505SOL    HW215975   3.653   4.231   2.710 -1.1807  0.4898  0.8660
 1506SOL     OW15976   4.631   0.158   8.688  0.0112 -0.0943 -0.0098
 1506SOL    HW115977   4.590   0.207   8.759 -0.6571 -0.7882  0.0677
 1506SOL    HW215978   4.567   0.168   8.617 -0.4287  0.5520  0.4774
 1507SOL     OW15979   3.544   1.132  12.166 -0.2611 -0.0868  0.6498
 1507SOL    HW115980   3.573   1.119  12.256 -1.3612 -1.0797  0.8625
 1507SOL    HW215981   3.613   1.184  12.126  2.4688 -0.5784  4.7306
 1508SOL     OW15982   2.687   4.122   8.778 -0.8883  0.6144 -0.7610
 1508SOL    HW115983   2.682   4.215   8.801 -0.1123  0.1735  1.2420
 1508SOL    HW215984   2.604   4.094   8.815 -0.2405  1.8390  1.6423
 1509SOL     OW15985   0.735   1.473   6.144  0.1082  0.0741 -0.1566
 1509SOL    HW115986   0.708   1.403   6.085 -1.2218  0.9690 -0.5945
 1509SOL    HW215987   0.815   1.429   6.172 -0.5282 -2.2013 -1.9113
 1510SOL     OW15988   3.549   1.953   3.727 -0.3047  0.7224  0.0468
 1510SOL    HW115989   3.600   2.032   3.714 -0.4612  0.3780 -2.6157
 1510SOL    HW215990   3.613   1.910   3.784 -0.1320  2.6959  1.3324
 1511SOL     OW15991   4.331   1.934   9.432 -0.4482  0.0637  0.0664
 1511SOL    HW115992   4.256   1.932   9.373 -0.7006  0.5921  0.3677
 1511SOL    HW215993   4.332   2.027   9.456 -0.5859  0.5973 -2.0401
 1512SOL     OW15994   2.519   4.512   6.846  0.4319  0.3309 -0.7059
 1512SOL    HW115995   2.499   4.421   6.824  0.2648  0.2180 -0.1033
 1512SOL    HW215996   2.428   4.537   6.864  0.4505 -1.5872  1.9711
 1513SOL     OW15997   3.127   0.418   3.529  0.1144  0.0934 -0.6102
 1513SOL    HW115998   3.068   0.458   3.466  0.5526  0.2869 -0.9003
 1513SOL    HW215999   3.128   0.494   3.587 -1.7184 -0.5890  0.3189
 1514SOL     OW16000   2.726   3.106   5.190 -0.0808 -0.4351 -0.3374
 1514SOL    HW116001   2.727   3.011   5.182  2.1006 -0.5307  1.2293
 1514SOL    HW216002   2.756   3.111   5.280 -0.3187 -0.3198 -0.2630
 1515SOL     OW16003   1.700   4.373   4.229 -0.7104  0.3670 -1.2395
 1515SOL    HW116004   1.724   4.385   4.137  3.0327 -2.2679 -0.5752
 1515SOL    HW216005   1.686   4.279   4.240  0.7571  0.1159 -1.4617
 1516SOL     OW16006   2.243   3.002  12.226  0.1204 -0.3791 -0.1709
 1516SOL    HW116007   2.306   3.071  12.246  0.8220 -1.3700  1.0824
 1516SOL    HW216008   2.182   3.021  12.297  0.7106 -0.0883  0.2530
 1517SOL     OW16009   2.627   0.416   2.522 -0.4362  0.6024  0.7320
 1517SOL    HW116010   2.627   0.322   2.508 -1.3640  0.5203  1.2909
 1517SOL    HW216011   2.614   0.451   2.434 -0.0221 -0.3610  0.2851
 1518SOL     OW16012   2.721   1.262  14.217 -0.1206  0.4291 -0.6772
 1518SOL    HW116013   2.704   1.170  14.236 -0.5064  0.5042 -0.6490
 1518SOL    HW216014   2.716   1.262  14.121 -2.5018  0.1351 -0.5506
 1519SOL     OW16015   0.925   3.248  10.862  0.1491  0.1712 -0.3259
 1519SOL    HW116016   0.995   3.182  10.864 -1.6566 -1.7215  1.2205
 1519SOL    HW216017   0.968   3.323  10.821  0.5722 -0.9987 -2.0390
 1520SOL     OW16018   2.129   0.518   0.395  0.0316 -0.3368  0.3279
 1520SOL    HW116019   2.138   0.583   0.465 -0.9435 -0.8433  0.9338
 1520SOL    HW216020   2.210   0.467   0.399  0.5924  0.4714 -0.8289
 1521SOL     OW16021   0.336   0.509  16.862 -0.2584 -0.3494  0.1461
 1521SOL    HW116022   0.318   0.440  16.926 -0.0738 -0.1283  0.4401
 1521SOL    HW216023   0.250   0.549  16.854 -0.6674 -2.4160 -5.5532
 1522SOL     OW16024   0.023   2.939   9.932 -0.3899 -0.2060  0.2383
 1522SOL    HW116025   0.030   3.026   9.972 -2.4748 -0.6156  1.5194
 1522SOL    HW216026   4.690   2.904   9.998 -1.8745  1.8218  0.0134
 1523SOL     OW16027   3.605   2.299   7.604  0.4029 -0.3423 -0.1573
 1523SOL    HW116028   3.643   2.306   7.691 -0.1438 -3.6940  0.3376
 1523SOL    HW216029   3.513   2.322   7.613  0.7686  0.9316  0.3492
 1524SOL     OW16030   1.104   0.999   2.596  0.0590 -0.3332 -0.0773
 1524SOL    HW116031   1.158   1.054   2.541  0.3685 -1.2289 -0.6727
 1524SOL    HW216032   1.092   1.056   2.672  1.2779 -2.6946  1.8950
 1525SOL     OW16033   4.323   2.577   4.938 -0.1924  0.1782  0.2450
 1525SOL    HW116034   4.380   2.623   4.877 -2.7816  1.3096 -1.2995
 1525SOL    HW216035   4.329   2.629   5.018  0.1614  1.1402 -0.4118
 1526SOL     OW16036   2.491   2.947   6.500  0.2971  0.2088 -0.4313
 1526SOL    HW116037   2.492   2.862   6.455  0.1635 -0.2477  0.4290
 1526SOL    HW216038   2.399   2.949   6.527  0.4059 -0.2190 -0.0314
 1527SOL     OW16039   2.293   2.771   7.513 -0.1758 -0.0215  0.3695
 1527SOL    HW116040   2.310   2.858   7.475  1.8934 -0.8861 -0.6930
 1527SOL    HW216041   2.268   2.784   7.604 -0.1381  0.2365  0.3431
 1528SOL     OW16042   3.299   0.501   4.431  0.1083  0.2068  0.2872
 1528SOL    HW116043   3.297   0.483   4.337 -2.1710 -0.4186  0.4678
 1528SOL    HW216044   3.254   0.585   4.430 -1.2699 -0.4808  2.7695
 1529SOL     OW16045   1.277   2.548   6.400  0.1857 -0.0990 -0.2655
 1529SOL    HW116046   1.234   2.565   6.316  0.3836 -3.8815 -1.1564
 1529SOL    HW216047   1.279   2.637   6.433 -4.2244  0.7054 -2.1572
 1530SOL     OW16048   2.664   1.026  16.489 -0.0665  0.5744 -0.5922
 1530SOL    HW116049   2.659   0.966  16.414  2.8769 -1.0709  0.5366
 1530SOL    HW216050   2.588   1.006  16.543 -0.1394  0.4290 -0.7491
 1531SOL     OW16051   3.417   4.279   6.641 -0.4441 -0.4399  0.0491
 1531SOL    HW116052   3.323   4.267   6.623 -0.7948 -0.9324  2.2479
 1531SOL    HW216053   3.455   4.224   6.573 -4.1818 -1.5629 -1.1689
 1532SOL     OW16054   4.167   0.558   4.134  0.0801 -0.2242  0.4027
 1532SOL    HW116055   4.072   0.558   4.149  0.5593 -1.0887  3.3919
 1532SOL    HW216056   4.185   0.649   4.155  2.0247  0.0779 -2.5141
 1533SOL     OW16057   3.528   3.048   5.267 -0.2087 -0.0421 -0.1325
 1533SOL    HW116058   3.572   3.110   5.208  1.2347  0.3195  1.3176
 1533SOL    HW216059   3.562   3.068   5.354  1.1131 -0.4737 -0.5373
 1534SOL     OW16060   3.467   3.549   8.123 -0.0151 -0.1132 -0.2900
 1534SOL    HW116061   3.432   3.462   8.144  0.1452 -0.1067  0.0014
 1534SOL    HW216062   3.390   3.599   8.094 -0.4382  0.1082  1.2445
 1535SOL     OW16063   1.936   0.961   2.482 -0.6230  0.0298 -0.0500
 1535SOL    HW116064   2.003   0.927   2.424 -1.3827 -1.1119 -0.2663
 1535SOL    HW216065   1.946   1.055   2.467 -1.6577  0.0443 -0.6405
 1536SOL     OW16066   2.733   3.539   3.057 -0.4489  0.0716  0.4212
 1536SOL    HW116067   2.796   3.602   3.021  0.0697 -0.6293  0.0882
 1536SOL    HW216068   2.650   3.567   3.018 -0.3628  0.3585  0.4437
 1537SOL     OW16069   2.006   0.741   1.519  0.1358  0.9242 -0.0724
 1537SOL    HW116070   2.076   0.746   1.585 -1.5693  1.9953  1.6623
 1537SOL    HW216071   2.030   0.662   1.471 -3.0525 -0.2174  0.2016
 1538SOL     OW16072   4.494   4.577   8.664 -0.2507  0.5490 -0.2343
 1538SOL    HW116073   4.557   4.600   8.733  0.5094 -0.5337 -0.5694
 1538SOL    HW216074   4.559   4.557   8.597  0.1074  1.1424 -0.0691
 1539SOL     OW16075   1.765   3.704   2.771  0.1460  0.0000 -0.5388
 1539SOL    HW116076   1.728   3.785   2.735 -2.9305 -0.5130  1.5279
 1539SOL    HW216077   1.830   3.672   2.708 -1.4520 -1.2245 -1.5878
 1540SOL     OW16078   3.986   1.501  17.702 -0.8431  0.2056 -0.6276
 1540SOL    HW116079   4.055   1.456   0.045 -1.3642 -0.6088 -0.6379
 1540SOL    HW216080   4.021   1.506  17.613 -0.4148 -0.9353 -0.5265
 1541SOL     OW16081   3.719   0.800   6.966 -0.1628  0.1089 -0.0261
 1541SOL    HW116082   3.695   0.841   7.049 -1.5415 -0.3194 -0.2034
 1541SOL    HW216083   3.633   0.784   6.926 -0.2600  0.0463  0.2095
 1542SOL     OW16084   0.290   3.418   8.552  0.0490  0.2384  0.8054
 1542SOL    HW116085   0.327   3.430   8.639  0.7410  1.1111  0.3797
 1542SOL    HW216086   0.292   3.324   8.529 -0.5578  0.4054  0.0437
 1543SOL     OW16087   1.468   2.949   9.724  0.2089  0.6173 -0.0328
 1543SOL    HW116088   1.541   2.952   9.662  0.1065  0.6572 -0.1501
 1543SOL    HW216089   1.418   2.871   9.701  1.5123  0.1861 -1.4294
 1544SOL     OW16090   1.436   3.102   2.520  0.4284  0.8909  0.6458
 1544SOL    HW116091   1.463   3.191   2.542 -0.6107  1.5481 -0.7962
 1544SOL    HW216092   1.515   3.048   2.515 -0.8197 -1.1146  2.2612
 1545SOL     OW16093   1.246   2.702   7.259 -0.0226  0.4435  0.4293
 1545SOL    HW116094   1.160   2.698   7.300  0.1073 -0.6971  0.5832
 1545SOL    HW216095   1.299   2.714   7.337 -0.0301 -0.3486  0.5548
 1546SOL     OW16096   0.944   4.200   3.892 -0.3628  0.1640  0.3439
 1546SOL    HW116097   0.985   4.272   3.846 -0.4889  1.2185  1.8628
 1546SOL    HW216098   0.854   4.187   3.861 -0.2260  0.8522 -0.3137
 1547SOL     OW16099   2.579   3.928   8.217 -0.7278 -0.1295 -0.0502
 1547SOL    HW116100   2.654   3.916   8.159 -0.4891 -1.5166  0.5537
 1547SOL    HW216101   2.617   3.879   8.291 -2.2824  2.2199  2.3168
 1548SOL     OW16102   2.622   0.695   8.252  0.7317  0.2172  0.1889
 1548SOL    HW116103   2.629   0.711   8.346 -1.5643  1.9449  0.0699
 1548SOL    HW216104   2.702   0.650   8.225  1.3243  2.1346 -1.2737
 1549SOL     OW16105   4.626   3.450   2.253  0.0617 -0.1692 -0.3101
 1549SOL    HW116106   4.620   3.449   2.348 -1.1377 -1.4182 -0.4004
 1549SOL    HW216107   4.707   3.403   2.232  0.4364  0.5988 -0.5826
 1550SOL     OW16108   4.352   0.998   5.693 -0.5823  0.1177  0.4842
 1550SOL    HW116109   4.433   1.033   5.728 -0.5439 -1.2574  1.7828
 1550SOL    HW216110   4.313   0.972   5.777  0.4636  0.0408  0.9370
 1551SOL     OW16111   4.170   1.342  14.697  0.3998  0.1259 -0.1807
 1551SOL    HW116112   4.249   1.336  14.750  2.1281  0.6148 -2.7122
 1551SOL    HW216113   4.102   1.305  14.753 -1.1949  1.4232 -1.2496
 1552SOL     OW16114   1.340   0.282   6.377  0.2008  0.1830  0.0242
 1552SOL    HW116115   1.295   0.306   6.458  0.9081 -1.8575  1.0311
 1552SOL    HW216116   1.289   0.329   6.311  1.3946  2.3157  0.6096
 1553SOL     OW16117   1.238   0.537  13.391  0.3214  0.1867 -0.0867
 1553SOL    HW116118   1.165   0.528  13.452  0.4864  0.2001  0.1113
 1553SOL    HW216119   1.212   0.483  13.316  0.0870 -3.6609  2.7717
 1554SOL     OW16120   0.766   4.604   8.552 -1.2256  0.1727  0.2964
 1554SOL    HW116121   0.672   4.588   8.553 -1.0354 -0.7385  2.5288
 1554SOL    HW216122   0.770   4.619   8.647 -3.1650  0.2422  0.3648
 1555SOL     OW16123   0.514   1.000   7.560 -0.0717 -0.0616  0.0386
 1555SOL    HW116124   0.548   1.013   7.472  0.9487  0.6475  0.5444
 1555SOL    HW216125   0.575   0.939   7.602 -0.4121 -0.4187  0.0177
 1556SOL     OW16126   2.450   0.500  10.605 -0.1535  0.4120  0.1207
 1556SOL    HW116127   2.478   0.579  10.559 -0.0452  1.4202  1.9543
 1556SOL    HW216128   2.390   0.531  10.672  2.7415  2.4627  1.7455
 1557SOL     OW16129   4.601   0.174  16.012 -0.1959  0.7920 -0.2867
 1557SOL    HW116130   4.621   0.244  16.074  2.9436 -0.8845  0.5955
 1557SOL    HW216131   4.558   0.229  15.946 -2.5787 -0.8807 -0.1371
 1558SOL     OW16132   4.637   1.655   8.133  0.6798  0.2228 -0.4656
 1558SOL    HW116133   4.692   1.719   8.179 -0.7211  0.0701  1.4524
 1558SOL    HW216134   4.630   1.593   8.206 -1.2176 -2.6577 -3.1023
 1559SOL     OW16135   0.323   3.842   1.955  0.2833  0.1352 -0.0362
 1559SOL    HW116136   0.338   3.937   1.953 -0.4976  0.1817 -2.8558
 1559SOL    HW216137   0.291   3.818   1.869 -0.9809 -0.5080  0.6145
 1560SOL     OW16138   4.379   4.585   3.018  0.4086 -0.1129 -0.7936
 1560SOL    HW116139   4.290   4.561   3.044  0.4972  0.9630  0.4951
 1560SOL    HW216140   4.358   4.676   2.995  0.6157 -0.1129 -0.9867
 1561SOL     OW16141   3.346   1.524   8.945  0.2737 -0.6743  0.0822
 1561SOL    HW116142   3.374   1.612   8.919 -0.3073 -0.3176  0.6556
 1561SOL    HW216143   3.321   1.486   8.861  1.4442 -1.3560  0.0438
 1562SOL     OW16144   0.118   4.173  17.262 -0.0791 -0.0385  0.8282
 1562SOL    HW116145   0.187   4.168  17.328  0.8265  1.8161  0.0178
 1562SOL    HW216146   0.087   4.083  17.253 -2.2746  0.5142  2.7190
 1563SOL     OW16147   2.034   2.644   3.396 -0.2523  0.2437  0.2340
 1563SOL    HW116148   2.013   2.650   3.303  1.5125  0.5928 -0.1496
 1563SOL    HW216149   2.119   2.688   3.388  0.5636 -1.3279  0.1857
 1564SOL     OW16150   2.008   4.014   3.830 -0.1611  0.0623 -0.1720
 1564SOL    HW116151   1.939   3.951   3.853 -2.0014  1.1942 -2.6304
 1564SOL    HW216152   2.048   4.027   3.916 -0.1456  0.2799 -0.2124
 1565SOL     OW16153   3.545   1.365  13.552 -0.0470 -0.5716 -1.0553
 1565SOL    HW116154   3.522   1.282  13.593  3.3003 -0.3396  1.2682
 1565SOL    HW216155   3.635   1.380  13.581 -0.8047  1.8533  0.0450
 1566SOL     OW16156   2.143   2.231   3.481 -0.1177 -0.4599 -0.1769
 1566SOL    HW116157   2.203   2.211   3.552 -1.0258 -2.2606  0.0777
 1566SOL    HW216158   2.185   2.312   3.451  0.1351 -0.4632  0.1782
 1567SOL     OW16159   0.822   1.074   8.603 -0.5741  0.1889 -0.5799
 1567SOL    HW116160   0.809   1.000   8.662 -0.9468  1.4821  0.9462
 1567SOL    HW216161   0.796   1.041   8.516  0.4542  0.2971 -0.9262
 1568SOL     OW16162   1.899   3.337   5.814  0.5565  0.1189  0.6352
 1568SOL    HW116163   1.831   3.280   5.852 -2.2033  2.7236 -0.4334
 1568SOL    HW216164   1.858   3.423   5.809 -0.7471 -0.5523 -0.1379
 1569SOL     OW16165   1.499   1.570   8.225  0.0505  0.0086 -0.1302
 1569SOL    HW116166   1.539   1.485   8.244  1.8319  0.4600 -1.8345
 1569SOL    HW216167   1.580   1.619   8.209  0.1424  0.1594  0.7743
 1570SOL     OW16168   4.686   3.230  16.405 -0.0371  0.1602  0.0065
 1570SOL    HW116169   0.016   3.252  16.331  1.0877  1.7383  1.3375
 1570SOL    HW216170   0.024   3.199  16.468  0.1200 -0.9590 -0.6986
 1571SOL     OW16171   1.772   4.487  14.942  0.0472  0.1976 -0.3877
 1571SOL    HW116172   1.753   4.567  14.990 -1.1376 -0.0346 -0.4849
 1571SOL    HW216173   1.718   4.502  14.864  0.8382  2.1883 -0.5689
 1572SOL     OW16174   4.667   3.684  17.391 -0.0447  0.2094  0.4171
 1572SOL    HW116175   4.660   3.630  17.470 -1.7458  0.6930  0.5908
 1572SOL    HW216176   4.584   3.663  17.348 -0.2643 -0.7230  1.2910
 1573SOL     OW16177   4.075   0.454  13.965 -0.6947 -0.2849 -0.2470
 1573SOL    HW116178   4.126   0.435  13.886  0.2353  0.0098  0.2898
 1573SOL    HW216179   4.101   0.378  14.017 -2.3558 -1.7671 -1.5518
 1574SOL     OW16180   0.564   2.853  15.056  0.1730 -0.1632 -0.3350
 1574SOL    HW116181   0.616   2.866  15.136  1.9758  1.8971 -1.8195
 1574SOL    HW216182   0.617   2.909  15.000 -0.5825  2.2045  1.3174
 1575SOL     OW16183   0.372   4.060   9.093  0.1406  0.3634 -0.1710
 1575SOL    HW116184   0.424   3.988   9.058 -0.2081 -0.4739  1.0572
 1575SOL    HW216185   0.284   4.025   9.075  0.5830 -0.4231 -0.7913
 1576SOL     OW16186   0.045   0.016   9.514 -0.5057 -0.3258 -0.2020
 1576SOL    HW116187   0.023   0.092   9.567 -1.8123  0.3506 -1.7063
 1576SOL    HW216188   0.062   4.676   9.581  0.7880 -0.3644 -0.5748
 1577SOL     OW16189   3.186   4.132   4.846 -0.3087 -0.0841  0.2646
 1577SOL    HW116190   3.128   4.106   4.775 -1.2721  0.1353  0.9868
 1577SOL    HW216191   3.175   4.227   4.840 -0.0462 -0.1429 -1.1652
 1578SOL     OW16192   0.573   3.645   6.903  0.0828  0.6118  0.6678
 1578SOL    HW116193   0.629   3.704   6.953 -1.9015  1.5929  1.7427
 1578SOL    HW216194   0.632   3.612   6.835 -1.3020 -0.6116  0.0504
 1579SOL     OW16195   4.100   2.636   1.013 -0.3517  0.2780 -0.1885
 1579SOL    HW116196   4.053   2.617   1.094 -0.5433  1.3415 -0.0542
 1579SOL    HW216197   4.188   2.655   1.046  0.2983 -2.1979 -0.4741
 1580SOL     OW16198   4.619   4.028   4.829  0.4668 -0.1270  0.5137
 1580SOL    HW116199   4.614   3.939   4.796  0.3633 -0.3882  1.2301
 1580SOL    HW216200   4.670   4.011   4.909  1.5173  0.6870  0.0211
 1581SOL     OW16201   3.131   1.561   7.667 -0.6264 -0.9436 -0.4226
 1581SOL    HW116202   3.056   1.523   7.711  0.6721 -0.6836  1.9976
 1581SOL    HW216203   3.137   1.644   7.715  0.3400 -1.1715 -0.1441
 1582SOL     OW16204   0.224   0.160  12.674  0.1724 -0.2853  0.0624
 1582SOL    HW116205   0.156   0.097  12.699 -0.1884  0.6295  1.3652
 1582SOL    HW216206   0.289   0.091  12.665  0.7534  0.3943 -1.0822
 1583SOL     OW16207   1.942   1.010   2.123  0.2114  0.1558  0.7190
 1583SOL    HW116208   2.035   1.032   2.118  0.2075  0.0092  0.0455
 1583SOL    HW216209   1.942   0.920   2.090  1.0595  0.1253  0.7963
 1584SOL     OW16210   3.151   2.236   5.511 -0.3195  0.7532 -0.0678
 1584SOL    HW116211   3.090   2.232   5.585  2.6189 -0.1461  2.3008
 1584SOL    HW216212   3.230   2.194   5.545 -0.3594  0.6802 -0.0659
 1585SOL     OW16213   0.308   3.486   4.704  0.1301 -0.1362 -0.2277
 1585SOL    HW116214   0.343   3.501   4.616 -1.6745  0.9408 -0.7680
 1585SOL    HW216215   0.296   3.391   4.706  0.0910 -0.0762  2.3105
 1586SOL     OW16216   3.600   0.739   7.534  0.4859 -0.1084  0.1970
 1586SOL    HW116217   3.557   0.824   7.550 -0.7713 -0.6781 -0.1335
 1586SOL    HW216218   3.682   0.768   7.495 -1.5217  2.9745 -1.7014
 1587SOL     OW16219   3.322   0.868   3.451  0.3708 -0.4696  0.2631
 1587SOL    HW116220   3.370   0.803   3.399  0.5613 -0.1555  0.0405
 1587SOL    HW216221   3.233   0.861   3.416  0.9730  0.5616 -1.4943
 1588SOL     OW16222   1.327   0.175   5.068 -0.1274  0.3284  0.1662
 1588SOL    HW116223   1.343   0.264   5.097  2.3542 -0.3652  0.9463
 1588SOL    HW216224   1.408   0.150   5.022  1.3188  3.4301  1.0393
 1589SOL     OW16225   1.551   0.794   2.858 -0.0669 -0.1005  0.2263
 1589SOL    HW116226   1.639   0.820   2.830  0.2616  0.1305  1.4575
 1589SOL    HW216227   1.561   0.835   2.944  1.6118  1.1668 -0.5721
 1590SOL     OW16228   1.647   3.143  14.118  0.1626 -0.3553 -0.1139
 1590SOL    HW116229   1.566   3.191  14.137  0.1714  0.0122 -1.0294
 1590SOL    HW216230   1.664   3.157  14.025  0.1079  0.7492  0.0443
 1591SOL     OW16231   0.401   3.299   4.973 -0.2919 -0.0235  0.4716
 1591SOL    HW116232   0.421   3.292   4.880 -0.6178 -0.0316  0.4024
 1591SOL    HW216233   0.307   3.318   4.969 -0.7261 -2.4607 -0.6711
 1592SOL     OW16234   3.799   3.279  17.331 -0.3811 -0.0203 -0.1955
 1592SOL    HW116235   3.818   3.205  17.273  2.8246 -0.2804  1.1659
 1592SOL    HW216236   3.821   3.360  17.286  1.3912 -0.0660  0.5805
 1593SOL     OW16237   1.932   1.700   4.164  0.3388  0.0725 -0.2102
 1593SOL    HW116238   1.868   1.725   4.098 -0.9270 -0.4778  0.8228
 1593SOL    HW216239   1.869   1.689   4.235 -0.4472 -0.1926 -0.9450
 1594SOL     OW16240   0.433   0.163   7.934 -0.9357 -0.3508 -0.5721
 1594SOL    HW116241   0.512   0.201   7.972 -1.9101  0.3804  0.7300
 1594SOL    HW216242   0.365   0.197   7.992 -0.0709 -1.0018  0.8161
 1595SOL     OW16243   2.456   0.102   5.902  0.2114 -0.0790  0.0196
 1595SOL    HW116244   2.523   0.137   5.961 -1.0458  0.7532  0.9405
 1595SOL    HW216245   2.490   0.114   5.813  0.3516  2.8566  0.4580
 1596SOL     OW16246   2.896   0.785  14.819  0.5746 -0.4937  0.1156
 1596SOL    HW116247   2.934   0.859  14.771 -1.3516 -0.3983 -1.2757
 1596SOL    HW216248   2.970   0.763  14.875 -0.2172 -0.4864  1.1771
 1597SOL     OW16249   0.655   3.386   7.622 -0.1049 -0.2012  0.0154
 1597SOL    HW116250   0.650   3.381   7.526 -2.0042 -2.2328  0.2300
 1597SOL    HW216251   0.629   3.475   7.645 -0.8660 -0.2190 -0.7753
 1598SOL     OW16252   1.471   3.357   7.725  0.2577  0.3064 -0.0138
 1598SOL    HW116253   1.456   3.322   7.813  1.2878  0.8067  0.3657
 1598SOL    HW216254   1.503   3.444   7.753  2.3347 -1.0689  1.9486
 1599SOL     OW16255   4.209   4.245  15.806 -0.3913  0.1322  0.4494
 1599SOL    HW116256   4.129   4.221  15.760 -0.8577  0.1363  1.2527
 1599SOL    HW216257   4.271   4.200  15.749  0.3476 -1.2884  2.3532
 1600SOL     OW16258   2.830   0.508  14.396 -0.1585  0.1824  0.2484
 1600SOL    HW116259   2.916   0.496  14.437  0.1148  4.3809  0.9460
 1600SOL    HW216260   2.791   0.575  14.453  0.2407  1.5121 -1.0428
 1601SOL     OW16261   2.717   4.600   0.171  0.5326  0.5804  0.1917
 1601SOL    HW116262   2.775   4.585   0.096  1.2755 -0.4793  0.9743
 1601SOL    HW216263   2.694   4.690   0.150 -1.3379 -0.1524 -0.9042
 1602SOL     OW16264   1.300   1.524   1.920 -0.0734 -0.3869  0.8877
 1602SOL    HW116265   1.348   1.595   1.962 -0.2119  1.0724 -1.3937
 1602SOL    HW216266   1.223   1.567   1.883 -0.1914 -0.0714  1.5045
 1603SOL     OW16267   0.106   1.516   7.544  0.4152 -0.0752 -0.1310
 1603SOL    HW116268   0.051   1.500   7.621 -1.1231 -0.1062 -1.2202
 1603SOL    HW216269   0.119   1.425   7.519  3.3491  0.8017 -1.7903
 1604SOL     OW16270   2.702   2.079   3.569 -0.6357 -0.5878  0.1972
 1604SOL    HW116271   2.738   2.039   3.649  0.2405 -1.5748 -0.6982
 1604SOL    HW216272   2.775   2.082   3.507 -0.0303  0.3214  0.9581
 1605SOL     OW16273   2.573   2.335   3.524 -0.0310  0.6897  0.6227
 1605SOL    HW116274   2.557   2.373   3.610  0.3439 -1.8103  1.7851
 1605SOL    HW216275   2.633   2.261   3.537 -0.2284  0.3762 -0.2373
 1606SOL     OW16276   2.070   2.941  10.553  0.4511 -0.0797 -0.0786
 1606SOL    HW116277   2.060   3.031  10.581 -1.5944 -0.8869  1.7290
 1606SOL    HW216278   2.111   2.896  10.627 -1.7485 -0.5115  0.8609
 1607SOL     OW16279   4.509   3.573   8.929  0.4667 -0.3390 -0.8530
 1607SOL    HW116280   4.425   3.559   8.886  0.0249 -0.5236  0.0774
 1607SOL    HW216281   4.560   3.609   8.856  0.5415  0.3460 -0.4663
 1608SOL     OW16282   3.965   0.517   7.574  0.0929 -0.1827 -0.1317
 1608SOL    HW116283   3.902   0.468   7.627 -0.5981 -2.2551 -2.8731
 1608SOL    HW216284   4.035   0.518   7.640 -0.3940  0.4077  0.3773
 1609SOL     OW16285   1.648   2.607  16.954 -0.2168 -0.5380 -0.6288
 1609SOL    HW116286   1.638   2.578  17.045  1.3188 -0.4367 -0.4226
 1609SOL    HW216287   1.732   2.652  16.947  0.1243 -1.7100 -4.2409
 1610SOL     OW16288   3.523   0.404   6.105  0.1763 -0.9447 -0.4705
 1610SOL    HW116289   3.493   0.377   6.192 -2.9274  1.6196 -0.7337
 1610SOL    HW216290   3.437   0.425   6.068 -0.2152  0.1935  1.0726
 1611SOL     OW16291   3.673   4.625   9.185  0.1089  0.1312 -0.1181
 1611SOL    HW116292   3.642   4.576   9.261 -1.5619 -0.3824 -1.1357
 1611SOL    HW216293   3.621   4.706   9.182 -0.1343 -0.0696 -1.3515
 1612SOL     OW16294   1.447   0.777   7.806 -0.6135 -0.1614  0.3839
 1612SOL    HW116295   1.436   0.700   7.861 -1.4448 -0.6248 -0.4525
 1612SOL    HW216296   1.482   0.834   7.875  1.2640  2.1365 -2.4587
 1613SOL     OW16297   1.718   3.212  16.386  0.3874 -0.2534  0.2667
 1613SOL    HW116298   1.679   3.248  16.465  0.6966 -0.1756  0.3863
 1613SOL    HW216299   1.730   3.292  16.334  0.4358  0.2810  1.0887
 1614SOL     OW16300   2.920   2.016   1.780  0.1677 -0.3856 -0.1274
 1614SOL    HW116301   2.912   2.112   1.784  0.4766 -0.3810  0.5064
 1614SOL    HW216302   2.957   2.009   1.692  0.2644 -2.6407  0.1012
 1615SOL     OW16303   4.151   2.658   8.909 -0.0354 -0.2616 -0.2399
 1615SOL    HW116304   4.078   2.610   8.869  1.1377 -1.1445 -1.3362
 1615SOL    HW216305   4.124   2.748   8.891  0.4864  0.2672  1.7396
 1616SOL     OW16306   0.954   2.924   5.872  0.0377 -0.6543  0.3418
 1616SOL    HW116307   1.001   2.863   5.816 -0.6932 -1.0623  0.1725
 1616SOL    HW216308   1.029   2.968   5.914 -1.1162  0.2995  1.4278
 1617SOL     OW16309   1.901   1.887   3.897 -0.2835 -0.9764  0.5312
 1617SOL    HW116310   1.853   1.935   3.965  1.7196  1.4506  0.1988
 1617SOL    HW216311   1.929   1.961   3.844 -0.5288 -0.7962  0.6516
 1618SOL     OW16312   1.489   3.439   5.825  0.3547  0.2263 -0.5445
 1618SOL    HW116313   1.534   3.418   5.743  2.2059  1.2029  0.2357
 1618SOL    HW216314   1.552   3.409   5.890 -0.2627 -0.7850 -0.4165
 1619SOL     OW16315   0.143   2.909   8.994  0.2049  0.0532  0.8218
 1619SOL    HW116316   0.062   2.926   8.946  0.4027 -1.2936  0.0264
 1619SOL    HW216317   0.110   2.840   9.051 -1.3374 -0.6981 -0.9696
 1620SOL     OW16318   2.180   0.196  14.557 -0.2735 -0.8815  0.0955
 1620SOL    HW116319   2.117   0.131  14.525 -0.5264 -1.0098  0.8331
 1620SOL    HW216320   2.141   0.269  14.509  2.6749  0.4224 -0.2739
 1621SOL     OW16321   0.822   1.032   6.790 -0.0749 -0.0365  0.6339
 1621SOL    HW116322   0.751   0.973   6.816 -0.5946  0.7618  1.0498
 1621SOL    HW216323   0.792   1.112   6.834  0.0976 -0.2929  1.2286
 1622SOL     OW16324   3.489   2.455  17.705  0.2643  0.4464 -0.1399
 1622SOL    HW116325   3.434   2.531   0.018  0.7580  0.6512  0.4676
 1622SOL    HW216326   3.426   2.390  17.674 -0.4695  0.3283  1.5986
 1623SOL     OW16327   1.196   1.400  11.662  0.0215 -0.3533  0.2083
 1623SOL    HW116328   1.110   1.439  11.680 -0.1357 -0.8047  0.4510
 1623SOL    HW216329   1.263   1.459  11.697 -1.5971  2.2035 -0.9905
 1624SOL     OW16330   4.655   4.465   8.486 -0.1798  0.4682 -0.1913
 1624SOL    HW116331   4.667   4.370   8.484 -0.0172  0.5528 -3.7326
 1624SOL    HW216332   4.693   4.488   8.401  0.8849 -0.1420  0.1175
 1625SOL     OW16333   0.629   0.472   3.980 -0.0503 -0.5629 -0.1152
 1625SOL    HW116334   0.723   0.486   3.965 -0.1982  0.3247 -0.1959
 1625SOL    HW216335   0.620   0.514   4.066 -1.5490 -1.0251 -0.0458
 1626SOL     OW16336   0.461   0.868  11.922 -1.0775 -0.3197 -0.6951
 1626SOL    HW116337   0.455   0.804  11.993 -1.5841 -0.3337 -0.7498
 1626SOL    HW216338   0.547   0.906  11.941 -0.3613 -2.7361  0.8373
 1627SOL     OW16339   2.068   2.500   2.124  0.0946 -0.2860  0.3625
 1627SOL    HW116340   2.025   2.422   2.090  0.5628 -0.8140  0.9792
 1627SOL    HW216341   1.990   2.545   2.157 -0.0625 -1.1397  1.1778
 1628SOL     OW16342   0.498   3.562   8.708  0.2126 -0.0558 -0.2033
 1628SOL    HW116343   0.527   3.619   8.638 -0.3964 -0.0281 -0.4300
 1628SOL    HW216344   0.551   3.583   8.785 -1.8912  1.9276  0.7126
 1629SOL     OW16345   1.486   3.234   9.087  0.2142  0.5049  0.3237
 1629SOL    HW116346   1.419   3.169   9.106 -1.7366  2.1210 -1.0884
 1629SOL    HW216347   1.467   3.298   9.155  0.5756 -0.2004  1.0945
 1630SOL     OW16348   0.606   1.036   9.284 -0.1839  0.3833  0.2656
 1630SOL    HW116349   0.621   1.127   9.308  0.4009  0.0553  1.1178
 1630SOL    HW216350   0.571   1.002   9.366 -1.2397  1.0313  0.0838
 1631SOL     OW16351   1.427   3.684   3.986 -0.1860 -0.1535  0.3540
 1631SOL    HW116352   1.343   3.719   4.015 -0.9531 -0.5504 -1.4161
 1631SOL    HW216353   1.420   3.675   3.891 -1.0931  0.4866  0.3642
 1632SOL     OW16354   1.535   2.761   6.607  0.0679 -0.1336  0.1896
 1632SOL    HW116355   1.593   2.707   6.661  0.9028  1.3081  0.7029
 1632SOL    HW216356   1.447   2.741   6.638  1.0787 -3.1372  1.1178
 1633SOL     OW16357   2.181   3.139   8.748  0.1240 -0.2092 -0.5470
 1633SOL    HW116358   2.256   3.086   8.776  1.0950  0.5215 -1.7751
 1633SOL    HW216359   2.231   3.219   8.734  0.9836 -0.8409 -1.1333
 1634SOL     OW16360   3.060   0.609   3.736  0.3379 -0.2744 -0.7254
 1634SOL    HW116361   2.993   0.662   3.694  0.5766  0.3202 -0.3616
 1634SOL    HW216362   3.012   0.577   3.813  0.2366 -0.1692 -0.7457
 1635SOL     OW16363   2.785   1.865  17.263  0.3804  0.0966 -0.6145
 1635SOL    HW116364   2.791   1.919  17.342  2.8006  1.0950 -1.4802
 1635SOL    HW216365   2.720   1.918  17.216 -0.1093 -0.1975 -0.2732
 1636SOL     OW16366   1.686   4.054   5.277  0.4645  0.1582  0.0667
 1636SOL    HW116367   1.714   4.099   5.197  1.2335 -3.1913 -1.5430
 1636SOL    HW216368   1.615   4.000   5.242  0.7000 -0.9569  1.3404
 1637SOL     OW16369   4.205   2.891  12.849  0.3465 -0.8976  0.4910
 1637SOL    HW116370   4.145   2.964  12.863  2.8003  1.6302 -2.3620
 1637SOL    HW216371   4.193   2.867  12.757 -1.4592  2.5192 -0.1529
 1638SOL     OW16372   3.797   4.183   0.881 -1.3580 -0.0223  0.1073
 1638SOL    HW116373   3.730   4.188   0.949 -1.0644 -0.3001  0.4152
 1638SOL    HW216374   3.754   4.113   0.832 -0.0520 -1.9715  1.7783
 1639SOL     OW16375   1.263   3.088   2.945  0.2248  0.0276  0.1251
 1639SOL    HW116376   1.230   3.034   2.873  3.0632  1.8818 -2.5655
 1639SOL    HW216377   1.259   3.176   2.906 -1.8464 -0.0458  0.1382
 1640SOL     OW16378   4.719   4.465   2.208  0.3488  0.3836 -0.4179
 1640SOL    HW116379   0.006   4.491   2.117  2.9423 -1.1634 -0.4679
 1640SOL    HW216380   4.638   4.512   2.227  0.3026 -0.1156  0.5956
 1641SOL     OW16381   2.825   4.699   4.489  0.0449 -0.1311  0.4715
 1641SOL    HW116382   2.843   0.025   4.567 -2.2041  1.7976 -0.2996
 1641SOL    HW216383   2.906   4.708   4.440 -1.1474 -1.3502 -1.7485
 1642SOL     OW16384   3.421   2.634   2.821 -0.5469 -0.2559 -0.0444
 1642SOL    HW116385   3.401   2.584   2.742  0.7713 -1.0989  0.1577
 1642SOL    HW216386   3.468   2.706   2.778 -1.4219  0.3937  0.0871
 1643SOL     OW16387   2.056   0.973   9.652  0.2383  0.2208  0.2421
 1643SOL    HW116388   2.060   0.926   9.735  1.9277  0.7874  0.4732
 1643SOL    HW216389   2.143   0.966   9.613 -0.5008 -2.1255 -0.9822
 1644SOL     OW16390   3.561   0.906  14.307 -0.0207 -0.4800  0.1856
 1644SOL    HW116391   3.632   0.851  14.341  1.6389 -0.3454 -3.0351
 1644SOL    HW216392   3.596   0.918  14.219  0.5975 -2.0910  0.2082
 1645SOL     OW16393   3.524   0.356   7.114  0.2084 -0.5881 -0.2016
 1645SOL    HW116394   3.464   0.376   7.042  0.2037  0.4380  0.0762
 1645SOL    HW216395   3.484   0.399   7.189  1.6995  1.1601 -0.3965
 1646SOL     OW16396   1.227   1.760   4.706 -0.1367 -0.0273 -0.3393
 1646SOL    HW116397   1.254   1.750   4.615  1.1867  0.2660  0.0305
 1646SOL    HW216398   1.238   1.670   4.739 -1.1016 -0.1695 -0.3988
 1647SOL     OW16399   2.885   3.548   8.116 -0.5356 -0.2203 -0.1931
 1647SOL    HW116400   2.940   3.611   8.070  1.2406 -0.8155  1.1169
 1647SOL    HW216401   2.883   3.478   8.049 -1.0858  1.1864 -1.6468
 1648SOL     OW16402   3.268   4.721  10.114  0.2503 -0.1651  0.1879
 1648SOL    HW116403   3.345   0.033  10.156  0.1392  0.5459 -0.2451
 1648SOL    HW216404   3.295   4.632  10.092 -1.7578 -0.2300 -2.0545
 1649SOL     OW16405   3.097   3.825   6.491  0.1337 -0.1755  0.0707
 1649SOL    HW116406   3.120   3.841   6.582  2.0679  1.7295 -0.7546
 1649SOL    HW216407   3.161   3.766   6.451 -0.3721 -1.2252  0.8156
 1650SOL     OW16408   3.327   4.551   7.246 -0.3471 -0.5057 -0.3642
 1650SOL    HW116409   3.374   4.485   7.298  0.9833  1.5925  1.1294
 1650SOL    HW216410   3.392   4.578   7.182 -0.4726  1.0365  0.1461
 1651SOL     OW16411   2.954   2.259   3.766 -0.3049  0.3572 -0.4647
 1651SOL    HW116412   2.882   2.320   3.782  0.6688  1.2152  0.6096
 1651SOL    HW216413   2.993   2.293   3.685  0.6631  0.7697  0.1854
 1652SOL     OW16414   2.765   3.188   4.217 -0.0827  0.0535  0.7324
 1652SOL    HW116415   2.714   3.107   4.217 -1.9503  1.2241 -1.6353
 1652SOL    HW216416   2.827   3.179   4.145  0.4240  0.1560  1.1533
 1653SOL     OW16417   1.539   3.459  15.475  0.0856 -0.0382  0.2563
 1653SOL    HW116418   1.534   3.484  15.567  3.1196 -0.6750  0.5787
 1653SOL    HW216419   1.542   3.364  15.474 -0.1687 -0.0624  1.5611
 1654SOL     OW16420   4.016   1.554   7.578  0.4972  0.1881  0.0256
 1654SOL    HW116421   3.969   1.590   7.653  0.0483  1.5035 -0.8850
 1654SOL    HW216422   4.096   1.606   7.577  1.1169 -0.7694 -0.1820
 1655SOL     OW16423   2.993   1.438   7.435  0.4974 -0.1537  0.1704
 1655SOL    HW116424   3.069   1.450   7.377  1.3802 -0.8122  1.1805
 1655SOL    HW216425   3.005   1.490   7.514 -2.6142  0.5322  0.1855
 1656SOL     OW16426   0.331   3.939   4.891  0.1431 -0.4877 -0.1053
 1656SOL    HW116427   0.345   3.887   4.970 -1.7306  1.5460  1.5839
 1656SOL    HW216428   0.250   3.897   4.863  0.0861 -0.2476 -0.2962
 1657SOL     OW16429   3.640   1.104   6.027 -0.3972 -0.0288 -0.0838
 1657SOL    HW116430   3.629   1.009   6.016 -1.3963  0.0470  0.1991
 1657SOL    HW216431   3.574   1.126   6.093 -1.3379 -1.9022 -0.3710
 1658SOL     OW16432   0.685   1.444   7.628  0.5931 -0.6318  0.1796
 1658SOL    HW116433   0.624   1.396   7.683 -1.0351  1.9344  0.6375
 1658SOL    HW216434   0.761   1.387   7.635  0.9226 -0.3654 -1.2278
 1659SOL     OW16435   0.521   2.053  10.403  0.3603  0.1551 -0.4302
 1659SOL    HW116436   0.456   2.091  10.344 -0.5038  1.0006  1.0801
 1659SOL    HW216437   0.510   1.960  10.382  3.5075 -0.2978 -0.0054
 1660SOL     OW16438   4.694   0.902  16.881  0.2619  0.8934  0.1132
 1660SOL    HW116439   4.627   0.943  16.936  0.9913  0.7730  1.1006
 1660SOL    HW216440   4.674   0.940  16.795 -0.2031  0.5257  0.0610
 1661SOL     OW16441   3.727   0.900   3.364  0.7216 -0.7498  0.1291
 1661SOL    HW116442   3.671   0.823   3.379 -2.6662  1.6709  0.0102
 1661SOL    HW216443   3.703   0.963   3.432  2.4522 -1.0879  1.0475
 1662SOL     OW16444   2.946   1.653   3.294 -0.7250 -0.3663 -0.1086
 1662SOL    HW116445   2.906   1.701   3.366 -0.2712  2.3427 -1.6722
 1662SOL    HW216446   2.897   1.692   3.221  0.0901  4.1992  1.7704
 1663SOL     OW16447   3.996   2.725  16.986 -0.9831  0.8948  0.2823
 1663SOL    HW116448   4.090   2.719  16.966 -0.7520  1.1594  1.2441
 1663SOL    HW216449   3.964   2.784  16.918 -0.6458 -0.0543 -0.6947
 1664SOL     OW16450   2.071   0.245   0.426 -0.2006 -0.0290 -0.2705
 1664SOL    HW116451   2.147   0.260   0.370 -1.2152  0.5641 -1.4821
 1664SOL    HW216452   2.106   0.206   0.506 -1.2786  0.4187  0.4198
 1665SOL     OW16453   0.984   1.653  10.283 -0.4047 -0.0677 -0.2122
 1665SOL    HW116454   0.934   1.577  10.313  0.4311 -0.4339  0.2775
 1665SOL    HW216455   1.068   1.611  10.304  1.2191  2.3606 -1.8484
 1666SOL     OW16456   4.717   1.312  10.750 -0.3084  0.4449  0.1582
 1666SOL    HW116457   0.020   1.393  10.792 -1.7333 -0.0713  2.1538
 1666SOL    HW216458   0.005   1.327  10.657 -0.1798  1.4721  0.3435
 1667SOL     OW16459   2.178   3.889   6.891  0.5177  0.2396  0.1886
 1667SOL    HW116460   2.168   3.820   6.957  1.4313 -2.4758 -2.5480
 1667SOL    HW216461   2.151   3.836   6.816  1.0959 -0.8439  0.7514
 1668SOL     OW16462   3.540   1.331   6.287  0.2091 -0.5329  0.1108
 1668SOL    HW116463   3.486   1.261   6.250  1.6512  0.3162 -3.5758
 1668SOL    HW216464   3.601   1.280   6.340  1.2267  0.0635 -0.4873
 1669SOL     OW16465   2.031   1.712   5.889 -0.1226 -0.0112  1.1694
 1669SOL    HW116466   2.031   1.788   5.830  0.6928  0.8663  2.2978
 1669SOL    HW216467   2.115   1.673   5.864  0.3611  1.3065  0.7193
 1670SOL     OW16468   2.751   0.299   1.280 -0.2626 -0.1226  0.0210
 1670SOL    HW116469   2.693   0.223   1.270  0.1744 -0.3429 -0.8289
 1670SOL    HW216470   2.692   0.363   1.319 -2.4122 -1.8851 -0.3189
 1671SOL     OW16471   1.919   1.563   9.596  0.0000  0.6422 -0.0772
 1671SOL    HW116472   1.938   1.543   9.687  0.8077  2.8550  0.2433
 1671SOL    HW216473   1.854   1.633   9.595 -0.6465  0.0681  1.3048
 1672SOL     OW16474   2.174   3.069   3.856 -0.3763 -0.0500  0.1743
 1672SOL    HW116475   2.166   3.152   3.903  0.7961 -0.0235  0.3334
 1672SOL    HW216476   2.161   3.002   3.922  2.9804 -0.3308  0.5604
 1673SOL     OW16477   4.415   2.663   2.981 -0.1115  0.0039  0.1970
 1673SOL    HW116478   4.501   2.622   2.977  0.3928  1.1404 -0.5155
 1673SOL    HW216479   4.428   2.749   2.941  1.8096 -0.0111  0.8351
 1674SOL     OW16480   2.859   3.410  11.967  0.0639 -0.0233 -0.4086
 1674SOL    HW116481   2.855   3.505  11.967  2.9690  0.0975 -0.1770
 1674SOL    HW216482   2.771   3.389  11.936 -0.5320  1.7755  0.0701
 1675SOL     OW16483   0.769   2.480   3.572  0.4972  0.4916 -0.1222
 1675SOL    HW116484   0.723   2.560   3.549  0.6717  1.2619  2.2363
 1675SOL    HW216485   0.775   2.433   3.489 -3.3094 -2.3147  1.2219
 1676SOL     OW16486   0.237   1.478   1.979 -0.1208 -0.4129 -0.4866
 1676SOL    HW116487   0.231   1.491   1.884 -0.3147 -0.6762 -0.5086
 1676SOL    HW216488   0.220   1.384   1.979 -0.8573 -0.2811 -0.0102
 1677SOL     OW16489   1.927   0.234   3.862  0.5902 -0.3323 -0.3793
 1677SOL    HW116490   1.948   0.143   3.884  0.7305 -0.1328  0.3117
 1677SOL    HW216491   1.838   0.229   3.827 -0.5126 -0.1715  2.3890
 1678SOL     OW16492   0.470   1.635   2.401 -0.3325 -0.2572 -0.2532
 1678SOL    HW116493   0.510   1.580   2.469  1.0847  0.6232 -0.3747
 1678SOL    HW216494   0.497   1.721   2.433 -2.8624  1.2696 -2.1980
 1679SOL     OW16495   0.128   3.425   1.541 -0.5051 -0.3450 -0.1343
 1679SOL    HW116496   0.064   3.463   1.601 -0.2608  0.4955 -0.4149
 1679SOL    HW216497   0.191   3.495   1.525 -0.3889  0.0821  2.1395
 1680SOL     OW16498   3.227   4.467  10.873  0.5365  0.3215 -0.0059
 1680SOL    HW116499   3.142   4.423  10.870  1.1716 -0.7570 -2.2571
 1680SOL    HW216500   3.209   4.561  10.870 -0.7249  0.0580 -1.0186
 1681SOL     OW16501   4.073   2.266   1.063  0.7189 -1.3208  0.3395
 1681SOL    HW116502   4.006   2.311   1.114  0.0575 -4.1402  1.9481
 1681SOL    HW216503   4.034   2.181   1.042  0.4371 -1.4220  1.2733
 1682SOL     OW16504   1.557   1.887  14.150 -0.2093  0.1642  0.9963
 1682SOL    HW116505   1.502   1.868  14.075  0.1865 -0.6946  0.9248
 1682SOL    HW216506   1.537   1.811  14.204 -1.8008 -0.5117 -0.5539
 1683SOL     OW16507   3.531   4.297   8.450 -0.2366  0.0108 -0.0432
 1683SOL    HW116508   3.608   4.269   8.500 -1.4911 -1.5538  1.0102
 1683SOL    HW216509   3.505   4.213   8.412 -1.1615  0.0807  0.4333
 1684SOL     OW16510   3.714   4.528  15.803  0.0100  0.0367  0.6436
 1684SOL    HW116511   3.723   4.619  15.830 -1.1789 -0.3506  2.3122
 1684SOL    HW216512   3.623   4.511  15.827 -0.2406 -0.0068 -0.3560
 1685SOL     OW16513   4.463   2.165   9.758  0.0984 -0.3685 -0.2327
 1685SOL    HW116514   4.545   2.121   9.779 -0.3103 -0.6554  0.7383
 1685SOL    HW216515   4.398   2.095   9.760 -1.0208  0.6408 -1.1648
 1686SOL     OW16516   2.146   1.308  16.086 -0.0384  0.0106  0.0466
 1686SOL    HW116517   2.178   1.251  16.155  0.2054 -2.3251 -2.0270
 1686SOL    HW216518   2.096   1.249  16.029 -1.2095 -0.7313  1.8630
 1687SOL     OW16519   0.485   2.732   5.868 -0.1476  0.4364  0.4262
 1687SOL    HW116520   0.549   2.737   5.939  0.0762 -0.2047  0.2672
 1687SOL    HW216521   0.507   2.803   5.809 -0.6125 -0.6335 -1.0314
 1688SOL     OW16522   4.496   2.944  14.715 -0.6004 -0.2811  0.1976
 1688SOL    HW116523   4.587   2.970  14.723 -0.8260  0.1640  1.2211
 1688SOL    HW216524   4.499   2.927  14.620  1.1734  1.7113 -0.1064
 1689SOL     OW16525   4.370   4.249   1.443 -0.2528  0.1546  0.5258
 1689SOL    HW116526   4.390   4.219   1.354 -0.7863 -1.0070  0.8010
 1689SOL    HW216527   4.395   4.340   1.429  1.1356 -0.2630  0.3312
 1690SOL     OW16528   1.043   2.955   1.559 -0.2580 -0.1262  0.0661
 1690SOL    HW116529   1.121   2.907   1.585  1.0230  1.8053 -0.2101
 1690SOL    HW216530   1.032   3.008   1.638 -0.5873  0.7524 -0.5671
 1691SOL     OW16531   1.780   3.603   0.778 -0.4854  0.1217  0.3015
 1691SOL    HW116532   1.729   3.611   0.859 -1.2162  2.6391 -0.4122
 1691SOL    HW216533   1.711   3.606   0.712 -1.3095  1.5192  1.2131
 1692SOL     OW16534   3.692   2.428   4.918  0.2717 -0.1153  0.2121
 1692SOL    HW116535   3.761   2.483   4.953  2.0624 -1.8118 -0.6702
 1692SOL    HW216536   3.635   2.427   4.995 -1.0994 -0.3369 -0.7940
 1693SOL     OW16537   0.870   2.653   2.775 -0.0531  0.0851  0.2983
 1693SOL    HW116538   0.865   2.749   2.778 -1.2063  0.0440 -0.2930
 1693SOL    HW216539   0.805   2.633   2.843 -0.4696 -0.8684 -0.3864
 1694SOL     OW16540   3.253   3.629   6.402 -0.3548  0.2623 -0.2821
 1694SOL    HW116541   3.235   3.551   6.453  2.8612  0.4349  1.1552
 1694SOL    HW216542   3.279   3.594   6.317 -0.0790 -1.4274  0.5162
 1695SOL     OW16543   4.665   2.283  12.918  0.5828 -0.1910 -0.0205
 1695SOL    HW116544   4.697   2.215  12.978  0.0190 -0.0616  0.4264
 1695SOL    HW216545   4.621   2.226  12.855  0.7474 -2.3819  1.8466
 1696SOL     OW16546   1.212   2.240   7.999 -0.0446  0.1518 -0.3483
 1696SOL    HW116547   1.270   2.257   7.925 -0.4174 -0.0390 -0.6875
 1696SOL    HW216548   1.131   2.243   7.947  1.3517  1.3938 -2.4600
 1697SOL     OW16549   3.150   2.702   6.023 -0.5171 -0.3972 -0.3944
 1697SOL    HW116550   3.165   2.783   6.072 -0.5621 -1.5591  1.5292
 1697SOL    HW216551   3.164   2.631   6.086 -0.0222  0.3213  0.2994
 1698SOL     OW16552   0.348   0.572   1.933 -0.5568  0.2986  0.4552
 1698SOL    HW116553   0.373   0.612   1.850 -2.4542  0.4725 -0.0266
 1698SOL    HW216554   0.278   0.510   1.914 -1.2513  0.9771  0.8132
 1699SOL     OW16555   2.175   1.372   6.622  0.1912  0.1542  0.8805
 1699SOL    HW116556   2.233   1.397   6.551 -0.7013 -0.4940 -0.0837
 1699SOL    HW216557   2.104   1.342   6.565  0.1650  2.6811 -0.4107
 1700SOL     OW16558   1.089   1.781  14.992 -0.4207 -0.0568 -0.7014
 1700SOL    HW116559   1.155   1.850  15.000  0.8411 -1.3834  0.3268
 1700SOL    HW216560   1.137   1.709  14.952  2.0018  1.2584 -0.1169
 1701SOL     OW16561   1.053   4.242  15.117 -0.7063 -0.4072 -0.3748
 1701SOL    HW116562   1.023   4.165  15.069 -2.5880  0.8335 -1.2308
 1701SOL    HW216563   1.147   4.242  15.103 -1.2922 -0.4069 -4.4977
 1702SOL     OW16564   2.196   0.041   8.991 -0.1022  0.0549  0.0125
 1702SOL    HW116565   2.175   4.681   8.955  1.1877  0.3598 -1.4551
 1702SOL    HW216566   2.201   0.098   8.915  2.9344 -2.0562 -1.3742
 1703SOL     OW16567   1.198   1.397  11.375  0.7130 -0.0950 -0.5540
 1703SOL    HW116568   1.185   1.468  11.438  1.2238  0.7225 -1.3568
 1703SOL    HW216569   1.213   1.447  11.295  1.3220 -1.4680 -1.2962
 1704SOL     OW16570   1.829   1.657   3.755  0.5009  0.4364  0.1527
 1704SOL    HW116571   1.823   1.601   3.833  0.1240  0.0791 -0.1335
 1704SOL    HW216572   1.853   1.741   3.793  1.2010  0.0012  0.6794
 1705SOL     OW16573   3.137   0.657  11.746  0.3094 -0.0638 -0.0854
 1705SOL    HW116574   3.221   0.640  11.788  0.0803 -2.1236 -0.4615
 1705SOL    HW216575   3.173   0.663  11.657 -2.0372 -2.5554 -1.2280
 1706SOL     OW16576   0.999   0.440  14.840 -0.2073  0.3225  0.2398
 1706SOL    HW116577   1.058   0.404  14.774 -1.2392  0.4403 -0.7459
 1706SOL    HW216578   1.059   0.449  14.915  0.9042 -2.3051 -0.3237
 1707SOL     OW16579   0.423   4.358   8.099 -0.6495  0.0370  0.3438
 1707SOL    HW116580   0.483   4.407   8.155 -0.7029  0.1116  0.3363
 1707SOL    HW216581   0.434   4.408   8.018  1.5281  0.7102  1.0713
 1708SOL     OW16582   3.329   2.146   8.201  0.3758  0.7583  0.0376
 1708SOL    HW116583   3.280   2.073   8.163 -0.0054  0.4744  1.1011
 1708SOL    HW216584   3.265   2.184   8.261 -0.8682 -1.4450  0.1277
 1709SOL     OW16585   4.582   3.944   2.622 -0.3856  0.1949 -0.0646
 1709SOL    HW116586   4.564   4.031   2.658  3.3638  0.8426  0.2391
 1709SOL    HW216587   4.549   3.961   2.534 -0.9017 -0.2827  0.0402
 1710SOL     OW16588   3.930   1.045   4.448 -0.3260  0.3785 -0.0538
 1710SOL    HW116589   3.845   1.037   4.405  0.3855 -0.3255 -1.3120
 1710SOL    HW216590   3.987   1.047   4.371 -1.2160  0.9313 -0.6921
 1711SOL     OW16591   4.080   1.242  10.580  0.6822 -0.8840  0.5145
 1711SOL    HW116592   4.157   1.229  10.524  1.7713  1.2416  1.4855
 1711SOL    HW216593   4.129   1.273  10.657 -1.4764  0.3940  1.3646
 1712SOL     OW16594   4.374   1.706   8.589  0.1656 -0.3510  0.3688
 1712SOL    HW116595   4.459   1.682   8.552  0.2240  1.1066 -0.4307
 1712SOL    HW216596   4.326   1.627   8.564  0.2460  0.0777 -1.1458
 1713SOL     OW16597   2.109   3.267  13.450  0.8154 -0.9479  0.0734
 1713SOL    HW116598   2.188   3.308  13.415 -0.5347  2.0897  0.6153
 1713SOL    HW216599   2.043   3.318  13.403  1.5772 -0.5884 -0.6037
 1714SOL     OW16600   2.199   0.929   5.761 -1.1532  0.6395 -0.1142
 1714SOL    HW116601   2.184   0.878   5.682 -0.2846  0.6465 -0.2802
 1714SOL    HW216602   2.275   0.887   5.801 -0.8051  1.9679  0.6462
 1715SOL     OW16603   0.453   4.521  15.384  0.2927 -0.8835 -0.4174
 1715SOL    HW116604   0.493   4.487  15.464 -0.1015  1.4933  0.8030
 1715SOL    HW216605   0.533   4.535  15.333  0.0898  1.2106 -0.1612
 1716SOL     OW16606   3.193   0.732   2.905  0.9498  1.0448 -0.3668
 1716SOL    HW116607   3.278   0.689   2.903 -0.1407 -1.0617 -1.0279
 1716SOL    HW216608   3.208   0.820   2.941  0.5670 -0.3867  3.2769
 1717SOL     OW16609   1.226   0.023   6.124 -0.1126  0.0067  0.3089
 1717SOL    HW116610   1.233   4.725   6.031  2.1841  1.4042  0.1213
 1717SOL    HW216611   1.273   0.103   6.103 -2.0853  0.4498 -2.4170
 1718SOL     OW16612   0.881   1.482   4.189  0.1597 -0.3302 -0.1120
 1718SOL    HW116613   0.906   1.497   4.280 -2.8943 -2.0816  1.0185
 1718SOL    HW216614   0.811   1.417   4.198  0.3920 -0.3449  1.5822
 1719SOL     OW16615   2.068   3.365   7.666 -0.3398 -0.6252  0.3989
 1719SOL    HW116616   2.065   3.373   7.571 -2.0869  1.0416  0.6184
 1719SOL    HW216617   2.137   3.428   7.688  0.0191 -0.2857 -1.6275
 1720SOL     OW16618   1.473   1.478   6.198 -0.2853 -0.4320  0.3316
 1720SOL    HW116619   1.397   1.480   6.256 -1.4308  1.6919 -1.2470
 1720SOL    HW216620   1.541   1.507   6.259 -1.7134 -2.2810  2.8045
 1721SOL     OW16621   0.586   2.980   8.145 -0.5149  0.4939  0.2783
 1721SOL    HW116622   0.592   3.041   8.072 -0.5255 -0.3081 -0.3825
 1721SOL    HW216623   0.620   3.040   8.212 -2.3188  0.2491  1.4213
 1722SOL     OW16624   3.290   3.137   4.454  0.3234  0.3004  0.2208
 1722SOL    HW116625   3.244   3.199   4.398  0.9680 -0.5975 -1.3167
 1722SOL    HW216626   3.312   3.071   4.389  1.7743  0.7971  0.1894
 1723SOL     OW16627   1.069   0.551   4.402 -0.1468  0.1050  0.0015
 1723SOL    HW116628   1.006   0.583   4.466  0.6840  0.2514  0.7503
 1723SOL    HW216629   1.005   0.515   4.341 -1.0155  2.2935 -0.3635
 1724SOL     OW16630   0.110   3.436   6.860 -0.2777 -0.2321 -0.0476
 1724SOL    HW116631   0.127   3.359   6.805  0.4189  1.3113 -2.0131
 1724SOL    HW216632   0.137   3.498   6.792  0.8022 -0.7150 -0.0641
 1725SOL     OW16633   4.592   3.325   1.517 -0.4609 -0.2146  0.1029
 1725SOL    HW116634   4.587   3.375   1.598 -1.2476  1.5803 -1.0611
 1725SOL    HW216635   4.676   3.358   1.487 -2.6836  4.6919 -0.6690
 1726SOL     OW16636   4.053   1.150   9.637  0.7245  0.1588  0.4680
 1726SOL    HW116637   3.964   1.122   9.618  0.8392 -0.7710  1.2842
 1726SOL    HW216638   4.036   1.206   9.713  0.5814  0.5830  0.1162
 1727SOL     OW16639   3.750   1.996   6.013  0.2323  0.2584  0.8449
 1727SOL    HW116640   3.804   1.984   5.935  0.4392  0.1712  1.0008
 1727SOL    HW216641   3.688   1.923   6.006 -1.3109  1.7534 -0.9254
 1728SOL     OW16642   3.286   2.071   6.730 -0.8614  0.1861 -0.0217
 1728SOL    HW116643   3.316   2.110   6.648 -0.7511 -1.4038 -0.7267
 1728SOL    HW216644   3.193   2.093   6.730 -0.9943 -0.3689 -1.8445
 1729SOL     OW16645   0.184   3.286  11.675  0.2023 -0.1164 -0.2332
 1729SOL    HW116646   0.099   3.249  11.649 -0.4280  0.2033  1.3216
 1729SOL    HW216647   0.189   3.275  11.770  2.4711  1.3604 -0.1824
 1730SOL     OW16648   2.675   4.417  10.369 -0.1871  0.4853  0.3052
 1730SOL    HW116649   2.725   4.338  10.348 -0.1904  0.6925 -0.4713
 1730SOL    HW216650   2.627   4.393  10.448 -0.5789  1.4287  0.3459
 1731SOL     OW16651   4.004   3.344   3.446 -0.3970  0.2526  0.0591
 1731SOL    HW116652   3.929   3.369   3.500 -2.0469 -2.1625 -1.0847
 1731SOL    HW216653   3.963   3.339   3.360 -1.0652 -1.9809  0.5012
 1732SOL     OW16654   1.072   0.363   8.117 -0.1823  0.4674 -0.2188
 1732SOL    HW116655   1.061   0.295   8.050 -0.4758  0.6488 -0.3568
 1732SOL    HW216656   1.146   0.320   8.160  2.0967  3.2982 -1.3252
 1733SOL     OW16657   2.794   2.865   4.076  0.3645 -0.1478 -0.3406
 1733SOL    HW116658   2.836   2.832   4.155  0.1048  0.3521  0.0051
 1733SOL    HW216659   2.809   2.797   4.010  0.3108 -1.9149  1.4802
 1734SOL     OW16660   3.770   4.572  13.345 -0.2055 -0.4536 -0.1269
 1734SOL    HW116661   3.852   4.616  13.321  0.1545 -0.8546  0.3695
 1734SOL    HW216662   3.754   4.523  13.264 -1.5565  1.5870 -1.1120
 1735SOL     OW16663   1.533   4.717   5.555 -0.5466 -0.4999  0.1553
 1735SOL    HW116664   1.570   4.629   5.554  0.4376 -0.1296  2.3670
 1735SOL    HW216665   1.503   0.008   5.644 -0.5578 -4.7551  0.9538
 1736SOL     OW16666   1.362   3.616   2.659  0.3067  0.5658 -0.2435
 1736SOL    HW116667   1.442   3.565   2.675 -0.7482 -1.0817 -0.2453
 1736SOL    HW216668   1.334   3.656   2.741 -2.0916  1.0245 -1.3025
 1737SOL     OW16669   2.894   0.486  13.996  0.4510  0.0078  0.3604
 1737SOL    HW116670   2.935   0.422  14.054  0.4696  0.7048  1.1182
 1737SOL    HW216671   2.822   0.511  14.053 -0.3344  0.3743 -0.7863
 1738SOL     OW16672   1.290   1.822   3.644  0.3443  0.5857 -0.1573
 1738SOL    HW116673   1.275   1.913   3.616  2.2810  0.6459 -0.9698
 1738SOL    HW216674   1.241   1.813   3.726 -0.6551  0.7480 -0.7385
 1739SOL     OW16675   4.116   4.424  12.902 -0.0027 -0.4865  0.0008
 1739SOL    HW116676   4.092   4.333  12.918 -2.4716  0.0515 -0.6607
 1739SOL    HW216677   4.057   4.452  12.833  2.2348  0.4001 -1.5780
 1740SOL     OW16678   1.070   2.327   5.188  0.3346 -0.5469 -0.0900
 1740SOL    HW116679   1.076   2.244   5.141 -0.0909  0.0560 -1.1926
 1740SOL    HW216680   1.015   2.380   5.131  1.1184  0.1384 -0.2001
 1741SOL     OW16681   1.781   0.168   2.249  0.2633 -0.6203  0.8318
 1741SOL    HW116682   1.806   0.134   2.163 -1.7982  1.2309 -0.5213
 1741SOL    HW216683   1.742   0.094   2.295  2.0296 -0.1145  3.1179
 1742SOL     OW16684   4.215   0.244  13.349  0.6420  0.0687 -0.4725
 1742SOL    HW116685   4.183   0.158  13.323  1.6040  0.0835 -1.6834
 1742SOL    HW216686   4.142   0.270  13.406 -0.3390 -0.5177 -1.4659
 1743SOL     OW16687   1.554   1.946   8.024 -0.5177  0.0230  0.2789
 1743SOL    HW116688   1.627   1.922   8.082  0.4034  2.8633  0.3312
 1743SOL    HW216689   1.603   2.012   7.975  1.8619 -0.0262  2.5949
 1744SOL     OW16690   4.644   1.487   8.351 -0.0152 -0.5208 -0.5084
 1744SOL    HW116691   0.001   1.439   8.355  1.4564  2.0206 -0.6412
 1744SOL    HW216692   4.657   1.553   8.418  1.6426 -2.0851  0.7255
 1745SOL     OW16693   3.468   0.127   8.746 -0.1003  0.0645 -0.4743
 1745SOL    HW116694   3.530   0.073   8.795  0.8839  0.8180 -0.8638
 1745SOL    HW216695   3.434   0.059   8.688 -0.0720 -0.5368  0.2145
 1746SOL     OW16696   0.180   2.692   2.857 -0.2871 -0.2926  0.2507
 1746SOL    HW116697   0.208   2.781   2.875 -2.4914  0.4901 -0.1632
 1746SOL    HW216698   0.126   2.694   2.778 -0.6560  0.4146  0.5185
 1747SOL     OW16699   0.905   1.783   7.219 -0.0584  0.2754 -0.4260
 1747SOL    HW116700   0.855   1.702   7.230  1.4133 -0.4679  0.9415
 1747SOL    HW216701   0.872   1.808   7.133  0.6372  0.4521 -0.6375
 1748SOL     OW16702   3.539   3.215   1.950  0.1857  0.3186  0.1121
 1748SOL    HW116703   3.578   3.297   1.978 -1.9273  1.5147 -0.4963
 1748SOL    HW216704   3.608   3.175   1.896  1.0622  0.9168  0.7936
 1749SOL     OW16705   3.691   4.286   5.962  0.0880 -0.0383 -0.3014
 1749SOL    HW116706   3.752   4.359   5.973 -0.6318  0.8774 -2.3639
 1749SOL    HW216707   3.623   4.301   6.027  1.4177  0.8696  0.8700
 1750SOL     OW16708   1.853   3.591   2.506  0.5122  0.2308  0.3743
 1750SOL    HW116709   1.771   3.562   2.466  0.1553 -0.9503  1.9618
 1750SOL    HW216710   1.865   3.677   2.465  0.0476  1.3877  2.6812
 1751SOL     OW16711   2.683   4.664   5.484 -0.2296  0.3411 -0.3678
 1751SOL    HW116712   2.649   4.587   5.438 -1.2878 -0.0464  1.0304
 1751SOL    HW216713   2.775   4.655   5.460 -0.4092 -1.8369 -0.2396
 1752SOL     OW16714   3.802   0.954   7.210 -0.2693 -0.0239  0.0130
 1752SOL    HW116715   3.883   0.966   7.160 -0.0604  1.8438  0.7855
 1752SOL    HW216716   3.838   0.906   7.285 -0.6595  0.3621  0.4497
 1753SOL     OW16717   4.537   0.664  12.356 -0.2376  0.4841 -0.2613
 1753SOL    HW116718   4.569   0.736  12.301  0.0025 -0.4491 -1.3436
 1753SOL    HW216719   4.615   0.609  12.345  0.9722  2.1938 -0.2481
 1754SOL     OW16720   3.114   4.630   7.128  0.4354 -0.5833  0.6239
 1754SOL    HW116721   3.095   4.708   7.179  0.1452 -0.6684  0.6471
 1754SOL    HW216722   3.190   4.593   7.173  2.4241 -0.5116 -2.6112
 1755SOL     OW16723   1.050   3.272   5.495  0.6081 -0.0287 -0.0377
 1755SOL    HW116724   1.058   3.177   5.486  1.1449 -0.1543  1.7065
 1755SOL    HW216725   1.035   3.277   5.590 -0.0111 -1.1987 -0.0660
 1756SOL     OW16726   2.676   4.168   3.358 -0.0514 -0.1910 -0.1031
 1756SOL    HW116727   2.601   4.202   3.407 -0.2113 -0.9099  0.1416
 1756SOL    HW216728   2.747   4.159   3.422 -0.7422  3.5526  1.2066
 1757SOL     OW16729   4.087   0.795   6.276  0.3458  0.3028  0.0598
 1757SOL    HW116730   4.092   0.749   6.192 -0.3599  0.1263  0.1135
 1757SOL    HW216731   4.120   0.727   6.335  0.0223  1.0806  1.1435
 1758SOL     OW16732   3.683   3.694   8.891 -0.1959  0.2025  0.2859
 1758SOL    HW116733   3.654   3.677   8.802 -0.5097 -0.6450  0.5496
 1758SOL    HW216734   3.672   3.608   8.932  0.4298 -1.1576 -2.4224
 1759SOL     OW16735   1.239   2.085   3.574  0.0191 -0.4230  0.4449
 1759SOL    HW116736   1.148   2.062   3.559 -0.2190  1.3625 -0.7811
 1759SOL    HW216737   1.254   2.161   3.518 -1.5011 -0.5866 -0.1791
 1760SOL     OW16738   0.686   1.261  12.521 -0.0898  0.3172  0.1450
 1760SOL    HW116739   0.670   1.350  12.488  1.1646  0.3958 -0.2664
 1760SOL    HW216740   0.691   1.286  12.614 -2.2735  1.3597 -0.0130
 1761SOL     OW16741   1.304   0.208   8.250  0.4233  0.0614  0.4746
 1761SOL    HW116742   1.347   0.275   8.302  1.6300 -1.8092  1.9034
 1761SOL    HW216743   1.375   0.195   8.187  1.4908 -1.9128  2.0578
 1762SOL     OW16744   1.748   0.505  11.618  0.0716 -0.3774 -0.3132
 1762SOL    HW116745   1.812   0.530  11.685 -0.1435  0.5459 -0.4446
 1762SOL    HW216746   1.667   0.481  11.663  0.1990 -0.4494 -0.1238
 1763SOL     OW16747   3.256   0.558  12.152 -0.4712  0.3876  0.3158
 1763SOL    HW116748   3.194   0.486  12.169  1.4889 -0.8314  2.2871
 1763SOL    HW216749   3.215   0.634  12.193 -3.4094 -0.5223 -0.9662
 1764SOL     OW16750   2.399   1.531   7.954  0.0892  0.3460 -0.2250
 1764SOL    HW116751   2.393   1.581   7.873  0.2746 -0.3244 -0.6494
 1764SOL    HW216752   2.359   1.452   7.920 -0.1748 -0.8766  2.9512
 1765SOL     OW16753   0.438   2.421   3.408  0.0217  0.1359  0.0975
 1765SOL    HW116754   0.450   2.451   3.319  1.5080 -2.9916 -0.7718
 1765SOL    HW216755   0.432   2.504   3.455 -2.7325  0.4846 -0.8447
 1766SOL     OW16756   3.648   3.606   3.800 -0.1736 -0.6214  0.0123
 1766SOL    HW116757   3.695   3.654   3.869 -1.3017  0.0738  0.2943
 1766SOL    HW216758   3.648   3.669   3.728 -2.0718 -0.2387  0.3452
 1767SOL     OW16759   1.097   3.587  10.039 -0.0233 -0.1183 -0.5760
 1767SOL    HW116760   1.065   3.499  10.020  2.7222 -0.9788 -1.2473
 1767SOL    HW216761   1.054   3.640   9.971 -0.9879 -0.0451  0.0924
 1768SOL     OW16762   0.723   0.353  17.540 -0.3434  0.0088 -0.5225
 1768SOL    HW116763   0.760   0.264  17.542  1.5123  0.7868  0.0723
 1768SOL    HW216764   0.697   0.365  17.448 -1.9751 -2.7237 -0.4266
 1769SOL     OW16765   0.826   3.809   2.190 -0.4474 -0.1531 -0.3970
 1769SOL    HW116766   0.881   3.761   2.128 -0.2637  0.3539 -0.6230
 1769SOL    HW216767   0.763   3.837   2.125 -0.3610 -0.4335 -0.6035
 1770SOL     OW16768   4.271   1.103   0.126  0.1334  0.2288  0.1098
 1770SOL    HW116769   4.194   1.090   0.181  1.1185 -1.7682  1.0492
 1770SOL    HW216770   4.339   1.102   0.193  0.4603  0.6853 -0.2179
 1771SOL     OW16771   1.136   4.147  11.004  0.0161 -0.4375  0.8273
 1771SOL    HW116772   1.126   4.132  10.910 -0.6950  1.5092  0.5983
 1771SOL    HW216773   1.164   4.065  11.044  1.0863 -1.0402 -1.1351
 1772SOL     OW16774   1.041   3.658   6.107 -0.0022  0.2325  0.0653
 1772SOL    HW116775   1.129   3.695   6.115 -0.0450  0.8011 -2.1218
 1772SOL    HW216776   0.998   3.737   6.074  1.4625  0.8569 -0.3633
 1773SOL     OW16777   0.349   1.788  15.148 -0.3828 -0.0160 -0.6065
 1773SOL    HW116778   0.422   1.726  15.153  1.0956  1.7195 -0.7761
 1773SOL    HW216779   0.378   1.858  15.090  0.4212  1.0548  1.0850
 1774SOL     OW16780   1.825   2.607  11.074 -0.2003  0.2483 -0.0978
 1774SOL    HW116781   1.885   2.543  11.036  0.0441 -0.6307  1.7657
 1774SOL    HW216782   1.863   2.608  11.162 -0.9443 -0.6292  0.2298
 1775SOL     OW16783   1.861   3.021  14.438 -0.8747  0.8772  0.6608
 1775SOL    HW116784   1.933   2.976  14.482 -1.3070 -0.3766  0.1096
 1775SOL    HW216785   1.784   2.988  14.486 -0.7847  0.0321  0.2285
 1776SOL     OW16786   2.422   0.337   6.643  0.2627  0.2304 -0.1616
 1776SOL    HW116787   2.395   0.427   6.658  1.7431  0.9799 -1.8998
 1776SOL    HW216788   2.405   0.293   6.726  1.7807  0.0565  0.0591
 1777SOL     OW16789   3.017   2.934   6.632  0.5326  1.3797 -0.5900
 1777SOL    HW116790   3.020   2.974   6.545 -1.7850 -1.2125 -1.8097
 1777SOL    HW216791   2.932   2.892   6.624  0.0382  2.2658 -0.0095
 1778SOL     OW16792   0.330   3.197   1.281 -0.2274  0.0069 -0.0227
 1778SOL    HW116793   0.260   3.262   1.290 -0.4153  0.1411 -2.4426
 1778SOL    HW216794   0.377   3.194   1.365 -0.0051 -1.2388 -0.1884
 1779SOL     OW16795   2.051   0.971   4.329 -0.2755 -0.1451  0.6996
 1779SOL    HW116796   1.959   0.955   4.353 -1.5227  1.1908 -3.1670
 1779SOL    HW216797   2.096   0.977   4.413 -0.3033  0.8162  0.6407
 1780SOL     OW16798   3.557   0.873   8.525  0.1536  0.4643 -0.3520
 1780SOL    HW116799   3.513   0.922   8.595  0.4779 -1.9288  1.5358
 1780SOL    HW216800   3.647   0.895   8.547 -0.2776 -0.9115  2.7630
 1781SOL     OW16801   2.147   0.064  16.623  0.2171 -0.0577 -0.0002
 1781SOL    HW116802   2.169   4.712  16.574 -0.3777 -1.1905  1.5366
 1781SOL    HW216803   2.231   0.102  16.648  0.6950 -2.0200  1.3278
 1782SOL     OW16804   4.277   2.232   9.210  0.0367 -0.0713 -0.1551
 1782SOL    HW116805   4.301   2.316   9.169  0.1596  0.1439  0.3536
 1782SOL    HW216806   4.219   2.194   9.145 -0.9126 -1.0461  1.2714
 1783SOL     OW16807   2.439   2.672   3.558 -0.0851  0.7151  0.1039
 1783SOL    HW116808   2.527   2.636   3.567  0.9298  3.7568  2.2894
 1783SOL    HW216809   2.428   2.700   3.649 -0.6085  0.2852  0.1704
 1784SOL     OW16810   3.739   2.055  11.621  0.2840 -0.2779  0.0520
 1784SOL    HW116811   3.663   2.075  11.567 -0.4138 -2.8737  0.0359
 1784SOL    HW216812   3.736   2.131  11.678  1.5663 -1.0679  1.1925
 1785SOL     OW16813   0.075   1.529  15.815 -0.3636 -0.6698  0.0600
 1785SOL    HW116814   0.134   1.564  15.882 -0.4564 -0.6878  0.1510
 1785SOL    HW216815   0.019   1.607  15.806 -1.1256 -1.2166  0.1187
 1786SOL     OW16816   1.440   4.203   8.625 -0.2787 -0.1916  0.4848
 1786SOL    HW116817   1.490   4.157   8.692  1.3640  0.1136 -0.5486
 1786SOL    HW216818   1.496   4.255   8.567 -0.5114  1.3616  1.6423
 1787SOL     OW16819   3.764   2.366   2.793 -0.4729  0.4230  0.1583
 1787SOL    HW116820   3.703   2.308   2.746 -0.0493 -0.7991  1.1216
 1787SOL    HW216821   3.699   2.405   2.852  0.9622  0.7531  1.5153
 1788SOL     OW16822   3.011   2.803   8.362 -0.4195  0.3125  0.6679
 1788SOL    HW116823   2.946   2.774   8.297  2.3995  1.9733 -2.9148
 1788SOL    HW216824   3.018   2.724   8.416  1.7461  0.0435  0.0294
 1789SOL     OW16825   3.781   3.701   7.628  0.1970 -0.3893 -0.4040
 1789SOL    HW116826   3.787   3.734   7.538 -0.2377  0.4801 -0.1021
 1789SOL    HW216827   3.766   3.785   7.671  0.1271 -0.6388  0.0516
 1790SOL     OW16828   0.840   4.667   2.790  0.0782 -0.0940  0.1396
 1790SOL    HW116829   0.905   4.597   2.790 -0.7956 -0.9004  1.8444
 1790SOL    HW216830   0.835   4.679   2.695  2.3251  0.9244  0.1416
 1791SOL     OW16831   3.195   3.615   7.352 -0.2718  0.3559 -0.6821
 1791SOL    HW116832   3.126   3.654   7.405  1.0876  0.9602  0.6665
 1791SOL    HW216833   3.188   3.525   7.383 -2.1949 -0.0518 -2.3026
 1792SOL     OW16834   3.629   3.151   1.527  0.7437 -0.4408 -0.1491
 1792SOL    HW116835   3.661   3.108   1.606 -0.4293  0.9520  1.1020
 1792SOL    HW216836   3.623   3.240   1.564  1.1050 -0.3988 -0.1936
 1793SOL     OW16837   2.067   2.643   4.370  0.9115 -0.2032  0.0775
 1793SOL    HW116838   2.115   2.611   4.447  0.4692 -1.2254 -0.0697
 1793SOL    HW216839   2.052   2.559   4.326  0.9446 -1.6470  2.8389
 1794SOL     OW16840   3.109   0.835   8.770 -0.4020  0.4412 -0.3145
 1794SOL    HW116841   3.171   0.876   8.831  1.9660 -0.4649 -2.1075
 1794SOL    HW216842   3.029   0.868   8.812  1.7323  1.2345  3.1920
 1795SOL     OW16843   0.002   2.601   4.582 -0.6130  0.3231 -0.4097
 1795SOL    HW116844   4.700   2.511   4.601 -1.3244  0.6734  0.2117
 1795SOL    HW216845   0.084   2.587   4.535 -0.4094 -0.4985  0.1774
 1796SOL     OW16846   2.917   0.626   1.708  0.1052 -0.0721  0.2281
 1796SOL    HW116847   2.868   0.603   1.787 -1.7955 -0.8220 -1.1908
 1796SOL    HW216848   2.936   0.539   1.673 -1.6574 -0.0485 -0.8156
 1797SOL     OW16849   2.970   4.214   8.704 -0.0497 -0.3256  0.0462
 1797SOL    HW116850   2.999   4.217   8.795 -0.6189 -0.9698  0.2460
 1797SOL    HW216851   2.877   4.201   8.718  0.0402 -2.1363 -0.9574
 1798SOL     OW16852   1.482   2.889   6.899  0.1322 -0.0907 -0.1115
 1798SOL    HW116853   1.510   2.799   6.889 -0.2239 -0.0751 -1.2763
 1798SOL    HW216854   1.404   2.883   6.955  1.0453  3.2241  1.5512
 1799SOL     OW16855   0.566   2.121  10.949 -0.2169  0.0503  0.1400
 1799SOL    HW116856   0.482   2.102  10.907 -0.8821 -0.3122  1.6503
 1799SOL    HW216857   0.558   2.078  11.034  1.3533  0.2408  0.3847
 1800SOL     OW16858   4.116   0.236   7.496  0.0778 -0.3353  0.2902
 1800SOL    HW116859   4.034   0.265   7.459 -0.7550 -2.9437  0.0508
 1800SOL    HW216860   4.081   0.195   7.575 -1.6818 -0.6531 -0.6693
 1801SOL     OW16861   0.632   2.650   1.573  0.8246 -0.4784 -0.4290
 1801SOL    HW116862   0.618   2.593   1.497 -0.0212  1.6509 -1.8524
 1801SOL    HW216863   0.635   2.731   1.522 -0.1709 -0.9170 -1.1838
 1802SOL     OW16864   1.760   2.704  16.452  0.9385 -0.4120  0.6693
 1802SOL    HW116865   1.768   2.668  16.541  0.2639 -0.1552  0.8320
 1802SOL    HW216866   1.682   2.758  16.466  2.0774  1.8909 -1.9513
 1803SOL     OW16867   3.394   2.894   7.055 -0.4804 -0.1030  0.1057
 1803SOL    HW116868   3.324   2.855   7.106  1.3230 -0.3469  2.3994
 1803SOL    HW216869   3.471   2.876   7.108  0.1140  0.0017 -0.7217
 1804SOL     OW16870   1.027   3.229   5.754  0.5329  0.3363  0.2889
 1804SOL    HW116871   1.103   3.272   5.793  0.8892 -1.7246  1.8299
 1804SOL    HW216872   1.052   3.137   5.760 -1.6996 -0.2085  0.9961
 1805SOL     OW16873   2.346   2.573   4.997  0.7463 -0.1718 -0.7916
 1805SOL    HW116874   2.288   2.589   5.071 -0.5353 -1.4143 -1.5167
 1805SOL    HW216875   2.327   2.482   4.973  2.1583 -1.3318  2.5450
 1806SOL     OW16876   0.107   4.370  11.123 -0.4666  0.1930 -0.4237
 1806SOL    HW116877   0.184   4.315  11.140  0.0468  1.0785  0.0742
 1806SOL    HW216878   0.156   4.451  11.112 -1.4509  0.8971  0.4579
 1807SOL     OW16879   2.172   0.518   4.212  0.5117  0.5712  0.0454
 1807SOL    HW116880   2.148   0.597   4.164 -1.0354 -0.7354 -1.3053
 1807SOL    HW216881   2.118   0.447   4.177 -1.0545  1.2551  1.0674
 1808SOL     OW16882   1.009   2.349  11.713  0.0146 -0.2307 -0.7591
 1808SOL    HW116883   0.962   2.289  11.772  2.0797 -0.9140  0.2081
 1808SOL    HW216884   0.973   2.429  11.751  0.4091 -0.5722  0.3488
 1809SOL     OW16885   4.160   2.232   6.158 -0.1524  0.0591 -0.6813
 1809SOL    HW116886   4.083   2.175   6.162 -0.4511  0.4378 -1.0407
 1809SOL    HW216887   4.228   2.171   6.130 -0.3313 -0.6324  0.3659
 1810SOL     OW16888   1.919   3.606   5.722  0.3508 -0.1248 -0.9238
 1810SOL    HW116889   1.892   3.566   5.639  0.9053  0.2342 -1.2787
 1810SOL    HW216890   1.985   3.666   5.687 -0.3160  1.3483  0.3535
 1811SOL     OW16891   1.198   3.990   2.984  0.3045  0.1100  0.0653
 1811SOL    HW116892   1.260   4.016   3.053 -0.9149  0.4834  1.0244
 1811SOL    HW216893   1.150   3.926   3.036 -0.6482  1.0941  0.3940
 1812SOL     OW16894   3.956   3.087   3.672  0.2493  0.0501 -0.1634
 1812SOL    HW116895   3.979   3.014   3.616  0.1719 -0.8708  0.9990
 1812SOL    HW216896   3.894   3.128   3.613 -0.4082 -1.7244 -0.6974
 1813SOL     OW16897   4.230   1.936   2.457 -0.5740 -0.3845 -0.2680
 1813SOL    HW116898   4.291   1.924   2.384 -0.4037 -2.3494  0.2161
 1813SOL    HW216899   4.221   2.032   2.458 -0.6568 -0.4116  1.0657
 1814SOL     OW16900   1.133   3.343   3.654  0.4747  0.2689  0.0219
 1814SOL    HW116901   1.226   3.352   3.674  0.2941  0.5851  0.7285
 1814SOL    HW216902   1.126   3.249   3.635  0.0109 -0.1572  2.2945
 1815SOL     OW16903   2.904   4.255   7.411  0.4919 -0.0945  0.3609
 1815SOL    HW116904   2.838   4.248   7.480 -0.4689 -0.3904 -0.5852
 1815SOL    HW216905   2.852   4.284   7.336 -0.0835 -1.3413  0.2791
 1816SOL     OW16906   4.708   0.782   8.254 -0.3557  0.6276 -0.5780
 1816SOL    HW116907   0.043   0.834   8.202 -0.6932 -0.8110 -2.4163
 1816SOL    HW216908   0.038   0.708   8.273  0.3300  0.6571 -2.5334
 1817SOL     OW16909   4.167   4.037   6.278  0.0430  0.8570 -0.3049
 1817SOL    HW116910   4.183   4.128   6.253 -1.5697  1.0284 -0.7380
 1817SOL    HW216911   4.098   4.019   6.214 -1.1088  1.8612  0.6736
 1818SOL     OW16912   0.328   0.740   9.323  0.0905 -0.0000  0.3028
 1818SOL    HW116913   0.315   0.825   9.281 -0.2306  0.6078  1.6662
 1818SOL    HW216914   0.414   0.716   9.290  0.2294  1.8045 -0.6347
 1819SOL     OW16915   1.906   0.310  11.511 -0.3372  0.3532 -0.6075
 1819SOL    HW116916   1.976   0.347  11.565 -3.4301 -0.2377  3.7893
 1819SOL    HW216917   1.835   0.364  11.548 -1.8543 -0.8597 -1.7383
 1820SOL     OW16918   3.382   2.878   9.195  0.2384  0.2342 -0.2186
 1820SOL    HW116919   3.425   2.938   9.134  0.4311  0.6317  0.3103
 1820SOL    HW216920   3.318   2.934   9.239 -0.2062  0.7299 -1.5071
 1821SOL     OW16921   1.823   2.848   7.400  0.4832 -0.0660  0.2524
 1821SOL    HW116922   1.873   2.798   7.336  0.3044  0.1087 -0.0205
 1821SOL    HW216923   1.840   2.796   7.479  1.3624  3.1362  2.1652
 1822SOL     OW16924   1.927   2.054   8.198  0.0737  0.0458  0.0004
 1822SOL    HW116925   1.875   1.983   8.160  1.2756 -1.3602  0.9847
 1822SOL    HW216926   1.869   2.128   8.181 -0.1860 -0.4164 -1.1468
 1823SOL     OW16927   3.080   1.279   8.302 -0.5256  0.2642 -0.2904
 1823SOL    HW116928   3.118   1.193   8.282  2.7571  1.4471  0.9127
 1823SOL    HW216929   3.018   1.254   8.371  2.5102  1.4197  2.8036
 1824SOL     OW16930   2.720   0.377   8.349 -0.0926 -0.0101 -0.0943
 1824SOL    HW116931   2.781   0.451   8.346  0.5752 -0.5080  1.1907
 1824SOL    HW216932   2.778   0.328   8.407 -0.3610  0.8613  0.9157
 1825SOL     OW16933   1.413   4.594   6.501 -0.3918  0.3019  0.2539
 1825SOL    HW116934   1.509   4.594   6.494 -0.4348 -1.2371 -0.2435
 1825SOL    HW216935   1.389   4.601   6.409  0.5017 -1.9891 -0.1573
 1826SOL     OW16936   2.837   4.716   1.858 -0.8740  0.5069 -0.2695
 1826SOL    HW116937   2.864   0.081   1.842  0.1056  0.2322 -0.2002
 1826SOL    HW216938   2.912   4.673   1.900 -0.6186  1.2488  0.0394
 1827SOL     OW16939   3.988   2.146  11.083 -0.1919 -0.1493  0.6558
 1827SOL    HW116940   4.044   2.157  11.006 -1.4487 -0.6849 -0.3287
 1827SOL    HW216941   3.930   2.073  11.063  1.3103 -0.5196 -2.3269
 1828SOL     OW16942   2.127   2.569   2.752 -0.1481  0.0446  0.0108
 1828SOL    HW116943   2.107   2.533   2.666 -1.1340  0.6110  0.0005
 1828SOL    HW216944   2.082   2.513   2.815  2.0924 -0.0854  1.4831
 1829SOL     OW16945   0.900   2.616   4.306 -0.2354 -0.2180  0.3469
 1829SOL    HW116946   0.899   2.541   4.247 -0.7152  0.6824 -0.7884
 1829SOL    HW216947   0.992   2.621   4.331 -0.7081  3.8089  1.3425
 1830SOL     OW16948   1.019   4.406   3.739  0.8533 -0.1712 -0.0751
 1830SOL    HW116949   1.038   4.468   3.669 -1.4452 -0.5970 -1.0524
 1830SOL    HW216950   1.103   4.416   3.784 -1.1394  2.0044  3.0879
 1831SOL     OW16951   0.634   2.116  12.598 -0.0759  0.6531  0.0470
 1831SOL    HW116952   0.552   2.070  12.580  0.6981 -0.9370  0.5418
 1831SOL    HW216953   0.657   2.089  12.687 -0.3811 -0.2212 -0.1436
 1832SOL     OW16954   2.601   1.818   1.909 -0.3076 -0.0848 -0.0093
 1832SOL    HW116955   2.550   1.881   1.959  1.4297  1.1253  0.2418
 1832SOL    HW216956   2.545   1.742   1.894  1.7380 -1.7661  0.7616
 1833SOL     OW16957   4.497   0.968  14.773 -0.1266 -0.6553  0.0164
 1833SOL    HW116958   4.469   1.023  14.846 -1.2092 -0.2482 -0.7161
 1833SOL    HW216959   4.543   0.898  14.821 -0.1632 -0.3444  0.4992
 1834SOL     OW16960   3.815   4.067   4.788  0.3500 -0.0640  0.1288
 1834SOL    HW116961   3.901   4.106   4.802  0.6964 -0.0623 -2.0488
 1834SOL    HW216962   3.821   4.050   4.694 -0.6589  1.7744 -0.2772
 1835SOL     OW16963   4.022   0.879   3.926 -0.2218  0.0323  0.5057
 1835SOL    HW116964   3.954   0.816   3.903  1.3696 -1.2900 -0.5837
 1835SOL    HW216965   4.066   0.887   3.842 -1.7929 -0.2937 -0.3429
 1836SOL     OW16966   1.410   0.357   8.462  0.4324  0.0259  0.2459
 1836SOL    HW116967   1.478   0.424   8.468  1.4877 -0.9438 -0.7534
 1836SOL    HW216968   1.332   0.392   8.504  2.3551  0.7477  3.1997
 1837SOL     OW16969   2.750   0.811   3.948  0.6443 -0.3295 -0.3479
 1837SOL    HW116970   2.783   0.808   4.038 -2.3128 -0.4314  0.7202
 1837SOL    HW216971   2.798   0.740   3.905  1.0092 -0.3420  0.0772
 1838SOL     OW16972   0.638   2.772   1.242  0.0801  0.3542  0.2539
 1838SOL    HW116973   0.661   2.856   1.202  0.9518  0.1417  0.3020
 1838SOL    HW216974   0.557   2.800   1.283 -0.3226  0.2600 -0.4851
 1839SOL     OW16975   2.722   3.166   5.930  0.0648  0.1007 -0.4401
 1839SOL    HW116976   2.792   3.213   5.975  1.3285 -0.5557 -1.7187
 1839SOL    HW216977   2.649   3.219   5.961 -0.4597  0.5172 -2.4118
 1840SOL     OW16978   2.471   3.471   8.530 -0.3316  0.0037  0.4871
 1840SOL    HW116979   2.505   3.561   8.539 -0.4439 -0.1699  2.5968
 1840SOL    HW216980   2.528   3.446   8.457 -1.9744 -1.3562 -0.3096
 1841SOL     OW16981   4.603   3.892  12.230 -0.2346  0.3463  0.1973
 1841SOL    HW116982   4.556   3.812  12.255 -2.1764  1.2396 -0.5706
 1841SOL    HW216983   4.593   3.897  12.135 -2.6904 -0.0586  0.4381
 1842SOL     OW16984   4.572   4.136   9.227  0.2262  0.3962  0.2127
 1842SOL    HW116985   4.511   4.114   9.298  0.6521 -2.8345 -0.4212
 1842SOL    HW216986   4.633   4.188   9.279 -0.2938  0.1371  1.0830
 1843SOL     OW16987   1.899   4.532   4.944 -0.7413  0.6550 -0.0504
 1843SOL    HW116988   1.875   4.605   4.887  0.9543  0.1115 -1.4653
 1843SOL    HW216989   1.811   4.494   4.945  0.0071 -1.0818  0.2147
 1844SOL     OW16990   0.148   3.144   7.592  0.1961 -0.3707  0.8570
 1844SOL    HW116991   0.231   3.117   7.632  0.8319  0.1977 -0.0611
 1844SOL    HW216992   0.152   3.240   7.599  2.3903 -0.4650  0.9483
 1845SOL     OW16993   2.032   1.698  13.233 -0.1166 -0.3729  0.0098
 1845SOL    HW116994   2.023   1.686  13.327 -1.9058  0.5636 -0.0287
 1845SOL    HW216995   1.962   1.763  13.228  1.9410  1.7264 -1.8989
 1846SOL     OW16996   1.009   2.142   7.676 -0.5076 -0.4498 -0.1640
 1846SOL    HW116997   0.952   2.082   7.626 -0.6960 -0.8730  0.5620
 1846SOL    HW216998   1.091   2.098   7.651  0.6852  2.7687 -1.8202
 1847SOL     OW16999   4.463   4.500   9.527 -0.0749  0.0964  0.5189
 1847SOL    HW117000   4.372   4.516   9.551 -0.1390 -1.9267  1.6475
 1847SOL    HW217001   4.481   4.436   9.596  1.0146 -0.5793 -0.3837
 1848SOL     OW17002   0.071   2.849   5.296  0.1338  0.2187 -0.2714
 1848SOL    HW117003   4.712   2.817   5.323 -0.2064  0.3481 -1.1981
 1848SOL    HW217004   0.049   2.939   5.274  0.9125  0.7727  1.2692
 1849SOL     OW17005   4.068   2.783   7.120  0.0162 -0.2610 -0.0091
 1849SOL    HW117006   4.041   2.693   7.098 -0.9419 -0.4615  1.9337
 1849SOL    HW217007   4.157   2.765   7.150 -0.7442 -1.4164  1.5817
 1850SOL     OW17008   0.268   1.985   6.412  0.1529  0.1731 -0.0322
 1850SOL    HW117009   0.325   1.944   6.477 -0.1261 -0.0067  0.0973
 1850SOL    HW217010   0.316   2.068   6.402 -0.4908  0.8455  2.3716
 1851SOL     OW17011   0.841   1.886   6.382  0.1866  0.1152  0.2796
 1851SOL    HW117012   0.764   1.937   6.404  1.4565  1.1753  2.2409
 1851SOL    HW217013   0.850   1.905   6.288  0.1826 -1.2084  0.0123
 1852SOL     OW17014   1.402   1.305   8.789  0.2719 -0.0483 -0.4068
 1852SOL    HW117015   1.448   1.261   8.718 -1.1593 -0.9719 -0.7667
 1852SOL    HW217016   1.448   1.277   8.868  0.3664  1.9291  0.2427
 1853SOL     OW17017   1.043   3.745   1.601  0.1637  0.6644 -0.0056
 1853SOL    HW117018   1.014   3.813   1.661 -0.9269 -1.0692  1.3972
 1853SOL    HW217019   0.995   3.778   1.525 -0.9349  0.4929  0.6181
 1854SOL     OW17020   3.983   3.849   2.719 -0.0150 -0.3859  0.1500
 1854SOL    HW117021   3.987   3.944   2.714  1.1017 -0.3354  1.7736
 1854SOL    HW217022   3.912   3.836   2.657  0.6970 -0.1577 -0.7111
 1855SOL     OW17023   2.426   0.487  16.997 -0.5516 -0.0671  0.3627
 1855SOL    HW117024   2.468   0.486  16.911  1.8223 -0.5936  1.5428
 1855SOL    HW217025   2.341   0.451  16.971 -1.5995  1.1427  2.1021
 1856SOL     OW17026   1.953   3.621   6.166  0.3327 -0.1405  0.4571
 1856SOL    HW117027   1.982   3.533   6.187 -1.6241 -0.7730  0.4677
 1856SOL    HW217028   1.871   3.628   6.214 -0.8319 -0.8635 -1.3986
 1857SOL     OW17029   0.407   2.740   8.166  0.5250 -0.0632  0.3658
 1857SOL    HW117030   0.374   2.726   8.077  0.2432 -0.1476  0.4813
 1857SOL    HW217031   0.440   2.829   8.157 -1.3310  0.6535  0.5980
 1858SOL     OW17032   3.445   3.099   2.650 -0.2131  0.3255 -0.3515
 1858SOL    HW117033   3.386   3.075   2.578 -0.1639  0.1785 -0.3435
 1858SOL    HW217034   3.497   3.020   2.663 -0.8080  0.1100  0.6850
 1859SOL     OW17035   0.158   3.004   7.932  0.2025  0.6777 -0.4496
 1859SOL    HW117036   0.195   3.050   8.007  0.0258 -0.6009  0.4196
 1859SOL    HW217037   0.232   2.972   7.879  0.0779 -1.1072  0.4674
 1860SOL     OW17038   1.653   2.237   8.126 -0.8121  0.4594  0.0912
 1860SOL    HW117039   1.630   2.187   8.048  1.8238  2.2491 -1.8250
 1860SOL    HW217040   1.723   2.281   8.078 -0.9978  1.1254  0.4288
 1861SOL     OW17041   1.846   1.287   6.878  1.0120 -0.1259 -0.2297
 1861SOL    HW117042   1.938   1.263   6.869  0.6058 -0.7375 -2.7858
 1861SOL    HW217043   1.835   1.247   6.964 -0.4062  0.8503  0.0544
 1862SOL     OW17044   3.237   4.621   7.702 -0.1200  0.0916 -0.2648
 1862SOL    HW117045   3.280   4.571   7.772  0.7974 -2.1572 -2.4102
 1862SOL    HW217046   3.196   4.551   7.651  0.2451  0.7165 -1.4251
 1863SOL     OW17047   1.171   1.110   3.551 -0.0350 -0.0874 -0.3337
 1863SOL    HW117048   1.254   1.115   3.597 -1.3159 -0.0351  1.9923
 1863SOL    HW217049   1.158   1.199   3.516 -0.4612 -0.2615 -0.6208
 1864SOL     OW17050   3.109   3.962  16.297 -0.1244  0.4732  0.2864
 1864SOL    HW117051   3.107   4.018  16.219  0.2944  1.9859  1.3629
 1864SOL    HW217052   3.200   3.967  16.325 -0.0109 -0.3213  0.0705
 1865SOL     OW17053   1.963   3.500   5.173 -0.0608 -0.2287  0.1959
 1865SOL    HW117054   2.051   3.472   5.148 -0.0523  1.6672 -1.9359
 1865SOL    HW217055   1.926   3.413   5.190  1.5129 -0.9171  0.0212
 1866SOL     OW17056   3.709   3.839   6.119  0.0807 -0.1152  0.1481
 1866SOL    HW117057   3.710   3.743   6.116  0.0908 -0.2541  4.1416
 1866SOL    HW217058   3.615   3.852   6.131  0.2192 -1.4540  2.7017
 1867SOL     OW17059   3.923   0.795   5.978  0.7926 -0.4868  0.0858
 1867SOL    HW117060   3.885   0.731   5.918  0.3184 -0.4156  0.3126
 1867SOL    HW217061   4.015   0.769   5.987  1.6803  2.1543 -1.4978
 1868SOL     OW17062   3.208   0.016  13.355  0.4317  0.0716 -0.1330
 1868SOL    HW117063   3.186   4.649  13.346  0.5748  0.2368 -2.1478
 1868SOL    HW217064   3.301   0.019  13.377 -0.3271  1.0253  2.9145
 1869SOL     OW17065   3.619   3.907   4.897  0.0258 -0.2830 -0.2335
 1869SOL    HW117066   3.683   3.955   4.844 -2.7176  1.3653 -2.0286
 1869SOL    HW217067   3.681   3.888   4.967 -0.2539  0.4138  0.2103
 1870SOL     OW17068   2.891   2.319   2.318  0.5442  0.4598 -0.4954
 1870SOL    HW117069   2.796   2.326   2.329  0.6738  0.3313  0.7052
 1870SOL    HW217070   2.891   2.275   2.233 -1.0420  0.0567 -0.2733
 1871SOL     OW17071   2.513   3.732  13.092  0.1720 -0.7538  0.1880
 1871SOL    HW117072   2.470   3.671  13.152  0.3834 -0.8017  0.2929
 1871SOL    HW217073   2.463   3.812  13.104  0.9399 -0.6170  2.6896
 1872SOL     OW17074   2.240   0.506  12.809  1.1105 -0.8468 -0.6030
 1872SOL    HW117075   2.203   0.418  12.798 -2.3124  0.7172 -1.2084
 1872SOL    HW217076   2.247   0.506  12.905  0.4458  0.2615 -0.5652
 1873SOL     OW17077   0.190   0.785   8.916 -0.4596 -0.4071 -0.3385
 1873SOL    HW117078   0.139   0.741   8.984 -1.6692  1.0374 -0.3025
 1873SOL    HW217079   0.266   0.730   8.897  0.1201  0.4064 -0.3635
 1874SOL     OW17080   2.708   1.183   6.222  0.6578 -0.4654  0.2991
 1874SOL    HW117081   2.711   1.278   6.225 -2.5966 -0.2847 -1.5560
 1874SOL    HW217082   2.627   1.186   6.171  0.0260  0.8194  1.4053
 1875SOL     OW17083   4.525   3.868   5.370 -0.5271  0.1138 -0.0667
 1875SOL    HW117084   4.439   3.828   5.357 -0.0946 -0.9435  0.3155
 1875SOL    HW217085   4.501   3.938   5.430 -1.7628  0.4616 -0.9599
 1876SOL     OW17086   0.748   3.411   3.913  0.1038 -0.1052 -0.1446
 1876SOL    HW117087   0.817   3.456   3.961  2.0753 -0.5658 -2.5633
 1876SOL    HW217088   0.775   3.320   3.924  1.5287  0.0850 -1.9783
 1877SOL     OW17089   1.612   0.354   6.998 -0.2492  0.7700  0.4427
 1877SOL    HW117090   1.700   0.355   6.958 -0.1357 -0.0211  0.6925
 1877SOL    HW217091   1.595   0.267   6.963 -1.3972  1.5492 -0.9508
 1878SOL     OW17092   0.032   2.916  15.042  0.0035  0.4322 -0.1575
 1878SOL    HW117093   0.107   2.923  15.100 -0.9832  1.6080  0.9879
 1878SOL    HW217094   0.011   2.824  15.056  0.8824  0.5091  1.6306
 1879SOL     OW17095   0.443   1.180   3.208 -0.1830 -0.6804 -0.3771
 1879SOL    HW117096   0.441   1.085   3.209  0.5300 -0.6730  2.0556
 1879SOL    HW217097   0.533   1.180   3.239 -0.4382  0.7894  0.3442
 1880SOL     OW17098   1.471   2.386   5.070 -0.9256  0.1935 -0.1735
 1880SOL    HW117099   1.429   2.452   5.015  0.6894  1.5834  0.2699
 1880SOL    HW217100   1.419   2.403   5.149  0.2554 -1.0234  0.8559
 1881SOL     OW17101   2.562   0.615   5.174  0.2213  0.8037  0.7008
 1881SOL    HW117102   2.508   0.587   5.247  2.3903  0.2791  2.0988
 1881SOL    HW217103   2.491   0.641   5.115  0.9221 -1.1399 -1.0038
 1882SOL     OW17104   3.427   1.088   3.246  0.5262  1.1522  0.5534
 1882SOL    HW117105   3.381   1.124   3.322  1.0498 -1.4501  2.1157
 1882SOL    HW217106   3.431   1.165   3.190 -0.3242  1.5678  1.0663
 1883SOL     OW17107   2.406   2.731   8.158 -0.2416 -0.2051  0.1563
 1883SOL    HW117108   2.342   2.774   8.101  1.5686  3.4123  0.8671
 1883SOL    HW217109   2.489   2.738   8.110 -0.8257 -2.5511 -1.1647
 1884SOL     OW17110   2.872   0.570   6.354  0.6020 -0.3940  0.2542
 1884SOL    HW117111   2.802   0.627   6.321  0.2051 -0.8908  0.2363
 1884SOL    HW217112   2.945   0.630   6.369  0.1390 -0.2679  2.0061
 1885SOL     OW17113   1.933   0.570  15.719 -0.1356 -0.5062 -0.6270
 1885SOL    HW117114   1.907   0.565  15.811  0.7072  0.1503 -0.3594
 1885SOL    HW217115   2.025   0.546  15.731  0.1693 -0.4224 -2.7208
 1886SOL     OW17116   3.451   3.304  16.755 -0.4924 -0.2615  0.2626
 1886SOL    HW117117   3.496   3.273  16.834  0.4855 -0.2566 -0.3005
 1886SOL    HW217118   3.361   3.277  16.772 -1.4777  1.4289 -2.2992
 1887SOL     OW17119   1.961   3.494   4.672  0.2428  0.1159 -0.0856
 1887SOL    HW117120   2.016   3.570   4.691  0.1153 -0.3543  2.1526
 1887SOL    HW217121   2.026   3.430   4.699 -0.2523  0.1384  1.1251
 1888SOL     OW17122   0.294   3.280  12.473 -0.3168 -0.2624 -0.4338
 1888SOL    HW117123   0.220   3.315  12.424  0.4580  2.0796  0.0748
 1888SOL    HW217124   0.246   3.215  12.524 -1.8884  1.1866 -0.0923
 1889SOL     OW17125   2.394   0.848   2.037  0.2326 -0.0580 -0.0842
 1889SOL    HW117126   2.427   0.758   2.041  1.9775  0.6702  1.6450
 1889SOL    HW217127   2.406   0.875   1.946 -0.3980  0.0438 -0.1395
 1890SOL     OW17128   3.372   2.208   4.279  0.2199 -0.2636  0.0577
 1890SOL    HW117129   3.396   2.298   4.256  1.6620 -0.5976  0.2612
 1890SOL    HW217130   3.453   2.180   4.322 -1.3787 -1.9787  1.9332
 1891SOL     OW17131   1.232   4.189   4.041  0.0749 -0.2461 -0.4567
 1891SOL    HW117132   1.227   4.257   4.108 -0.4351  0.3871 -1.1443
 1891SOL    HW217133   1.150   4.151   4.010 -0.2720 -0.7938  1.1690
 1892SOL     OW17134   2.135   1.632   6.760 -0.1564  0.1087 -0.4527
 1892SOL    HW117135   2.126   1.551   6.710 -1.1027  0.8038 -1.3966
 1892SOL    HW217136   2.045   1.662   6.774 -0.0915 -0.6975  1.7132
 1893SOL     OW17137   0.786   0.686   7.736  0.0843  0.5186  0.4078
 1893SOL    HW117138   0.859   0.736   7.774  0.0951  0.0860  0.9483
 1893SOL    HW217139   0.799   0.602   7.780  2.2517  0.4489 -0.3770
 1894SOL     OW17140   0.338   2.288  11.378  0.2214 -0.4743  0.3748
 1894SOL    HW117141   0.344   2.316  11.469  0.0019 -1.4166  0.6798
 1894SOL    HW217142   0.273   2.217  11.380 -2.1591  1.7891  2.1329
 1895SOL     OW17143   0.840   2.631   1.080  0.3126 -0.4249  0.1945
 1895SOL    HW117144   0.908   2.699   1.071  0.0172 -0.1206  0.2779
 1895SOL    HW217145   0.789   2.668   1.153  1.4584  0.4944  0.5396
 1896SOL     OW17146   1.302   4.019   6.048  0.0263 -0.4993  0.1060
 1896SOL    HW117147   1.252   4.070   6.112  3.2587  2.1961  0.5017
 1896SOL    HW217148   1.356   4.093   6.019 -0.4802 -0.4177 -0.6103
 1897SOL     OW17149   4.181   4.058   4.391  0.9628  0.0160 -0.1483
 1897SOL    HW117150   4.263   4.101   4.415  1.4481 -1.3101  0.5592
 1897SOL    HW217151   4.146   4.133   4.343 -0.8441 -0.4303  0.4775
 1898SOL     OW17152   2.476   2.182   0.679 -0.1866 -0.0499 -0.1003
 1898SOL    HW117153   2.504   2.118   0.613 -0.0298  1.7646 -1.7712
 1898SOL    HW217154   2.381   2.187   0.670 -0.4989 -2.0531  2.0085
 1899SOL     OW17155   3.285   2.119   3.588 -0.0762  0.1696 -0.8278
 1899SOL    HW117156   3.350   2.149   3.524  0.2889  1.3461  0.0848
 1899SOL    HW217157   3.325   2.139   3.672  0.5710 -1.0801 -0.8483
 1900SOL     OW17158   0.482   3.896   6.399 -0.8929  0.0176  0.4345
 1900SOL    HW117159   0.396   3.911   6.360 -0.3281  0.9336 -0.4321
 1900SOL    HW217160   0.530   3.970   6.362 -0.5399 -1.0765 -1.3050
 1901SOL     OW17161   2.602   1.457   6.208 -0.2084 -0.2891  0.1367
 1901SOL    HW117162   2.562   1.535   6.170  1.9679  0.4794 -0.5703
 1901SOL    HW217163   2.572   1.475   6.298 -0.3570 -1.2058  0.2700
 1902SOL     OW17164   1.144   1.805   8.625 -0.6254  0.2722  0.6482
 1902SOL    HW117165   1.091   1.813   8.705 -1.2434  0.0026  0.2702
 1902SOL    HW217166   1.114   1.880   8.575 -1.5598 -2.0070 -2.2280
 1903SOL     OW17167   4.303   0.003   3.450  0.4480  0.4497 -0.1273
 1903SOL    HW117168   4.298   0.056   3.529  3.3112  0.6398 -0.0453
 1903SOL    HW217169   4.348   4.650   3.482  1.4912  1.3194  0.5452
 1904SOL     OW17170   3.562   0.767  14.001  0.1548  0.2720  0.5958
 1904SOL    HW117171   3.471   0.795  13.989 -0.0202 -0.2710  0.6492
 1904SOL    HW217172   3.548   0.689  14.055  1.7081  0.0189  0.6152
 1905SOL     OW17173   0.348   4.067   7.675  0.1087 -0.0926 -0.4006
 1905SOL    HW117174   0.266   4.038   7.635  0.6333 -1.2570 -0.6357
 1905SOL    HW217175   0.334   4.110   7.759  0.7492  0.8660 -0.7840
 1906SOL     OW17176   0.273   0.257   8.158  0.4233  0.1338 -0.1231
 1906SOL    HW117177   0.189   0.285   8.194  0.2593  0.2325 -0.5744
 1906SOL    HW217178   0.307   0.334   8.111  1.2883 -0.3339 -0.2675
 1907SOL     OW17179   0.901   1.249  15.810 -0.4045  0.2069 -0.3684
 1907SOL    HW117180   0.889   1.237  15.904 -2.8466  1.8234 -0.4690
 1907SOL    HW217181   0.966   1.181  15.794  0.2238  0.8549 -0.5927
 1908SOL     OW17182   3.983   1.638   0.377  0.1469  0.1632  0.1665
 1908SOL    HW117183   3.919   1.569   0.392  1.2350 -0.9961 -0.5278
 1908SOL    HW217184   4.064   1.603   0.415 -0.0759 -1.1707 -0.5896
 1909SOL     OW17185   1.683   2.321   5.819 -0.1972 -0.1044 -0.2026
 1909SOL    HW117186   1.778   2.317   5.826 -0.2750  0.3491  1.0971
 1909SOL    HW217187   1.657   2.274   5.898 -1.5907 -0.0758 -0.6447
 1910SOL     OW17188   2.029   0.929   7.405 -0.3238 -0.2930 -0.4501
 1910SOL    HW117189   2.004   0.969   7.488  0.2825 -1.2445  0.1954
 1910SOL    HW217190   2.030   1.012   7.357 -2.9266 -0.8018 -1.4143
 1911SOL     OW17191   1.632   3.277   4.325 -0.1428 -0.1998 -1.1078
 1911SOL    HW117192   1.674   3.192   4.338  0.1380 -0.0085 -0.7808
 1911SOL    HW217193   1.669   3.329   4.396 -1.6129 -1.4396  0.5534
 1912SOL     OW17194   3.890   3.389   7.840 -0.0822 -0.1333 -0.7346
 1912SOL    HW117195   3.963   3.397   7.901  0.4618 -1.8156 -1.1614
 1912SOL    HW217196   3.827   3.440   7.890 -1.0656 -0.7531 -1.3273
 1913SOL     OW17197   3.927   0.777   7.410 -0.1564 -0.2607  0.2829
 1913SOL    HW117198   3.925   0.687   7.442 -1.2643 -0.4136 -0.2204
 1913SOL    HW217199   4.003   0.805   7.461  0.1668 -1.2426  0.3368
 1914SOL     OW17200   2.897   0.616   0.266 -0.1922  0.0548 -0.4142
 1914SOL    HW117201   2.863   0.527   0.266 -1.0256  0.3655  0.6230
 1914SOL    HW217202   2.959   0.616   0.193  2.3081  0.2326  1.6973
 1915SOL     OW17203   4.693   0.022   3.551 -0.1963 -0.1854  0.4698
 1915SOL    HW117204   4.635   0.069   3.611  0.1013  0.3379  0.3498
 1915SOL    HW217205   4.672   0.070   3.471 -0.7875 -0.5217  0.4239
 1916SOL     OW17206   1.268   0.395   7.342  0.3309  0.3928  0.4208
 1916SOL    HW117207   1.173   0.407   7.348  0.3271  0.0621  1.0063
 1916SOL    HW217208   1.300   0.485   7.347 -0.7410  0.8949 -1.6671
 1917SOL     OW17209   0.601   2.094   8.294 -0.1596 -0.6323 -0.0998
 1917SOL    HW117210   0.692   2.068   8.276  1.1284  3.7071  0.1926
 1917SOL    HW217211   0.607   2.114   8.388  0.1610  3.5750 -1.0243
 1918SOL     OW17212   4.666   1.663   8.561  0.4981 -0.6443 -0.0466
 1918SOL    HW117213   4.705   1.750   8.550 -0.1139 -0.1909  1.4063
 1918SOL    HW217214   4.718   1.632   8.635 -0.2915  0.9055  1.1474
 1919SOL     OW17215   1.183   1.542  11.986  0.2194  0.0753  0.1478
 1919SOL    HW117216   1.191   1.570  11.894 -1.4351 -1.3534 -0.4356
 1919SOL    HW217217   1.218   1.453  11.980 -0.1284 -0.0534  0.0662
 1920SOL     OW17218   4.206   1.293   3.145  0.0454 -0.0785 -0.2260
 1920SOL    HW117219   4.224   1.354   3.216  0.4122  0.5497 -0.8603
 1920SOL    HW217220   4.279   1.233   3.159  0.2965  0.9254  2.7793
 1921SOL     OW17221   1.570   0.179   0.595 -0.1444 -0.0354  0.1104
 1921SOL    HW117222   1.582   0.111   0.662 -0.4955  1.1418  1.3653
 1921SOL    HW217223   1.478   0.161   0.579  0.3027 -0.0799 -2.4277
 1922SOL     OW17224   0.689   2.830  12.577  0.4495  0.2891  0.1536
 1922SOL    HW117225   0.699   2.771  12.503 -0.5004 -0.9248  0.9870
 1922SOL    HW217226   0.731   2.912  12.552 -0.1837 -0.3432 -2.9320
 1923SOL     OW17227   3.459   0.090  13.118 -0.1352  0.2574 -0.7931
 1923SOL    HW117228   3.431   0.100  13.027 -0.6683  0.0190 -0.6596
 1923SOL    HW217229   3.413   0.160  13.165 -0.0945  0.3986 -0.9641
 1924SOL     OW17230   0.817   2.040  11.721  0.0999  0.1382 -0.1439
 1924SOL    HW117231   0.762   2.037  11.643  1.2011 -0.4542 -0.8987
 1924SOL    HW217232   0.909   2.035  11.695  0.2786 -0.3660  0.5953
 1925SOL     OW17233   1.404   3.394   0.810 -0.1567  0.0062 -0.0360
 1925SOL    HW117234   1.338   3.450   0.851 -2.7905 -2.1258 -1.3602
 1925SOL    HW217235   1.366   3.317   0.852  0.5553  0.8424  2.1035
 1926SOL     OW17236   0.702   1.377   9.337 -0.1445 -0.7001 -0.8569
 1926SOL    HW117237   0.770   1.438   9.307 -0.4879 -0.2822 -0.8010
 1926SOL    HW217238   0.701   1.386   9.432  0.0091 -0.9341 -0.8361
 1927SOL     OW17239   4.161   4.075   6.661  0.7682 -0.2080 -0.0971
 1927SOL    HW117240   4.223   4.124   6.715  0.2294  0.9024 -0.4895
 1927SOL    HW217241   4.208   3.992   6.664  2.9015  1.1083  2.6809
 1928SOL     OW17242   3.946   2.243   5.900 -0.3444  0.3032 -0.1212
 1928SOL    HW117243   3.944   2.161   5.850  0.5620 -0.1897  0.6354
 1928SOL    HW217244   3.856   2.274   5.898  0.0769  1.3309 -3.1351
 1929SOL     OW17245   4.102   2.231   7.191  0.1993  0.0910  0.1281
 1929SOL    HW117246   4.060   2.218   7.276  1.4708  1.5153  0.9679
 1929SOL    HW217247   4.033   2.236   7.125  0.0845  0.4259  0.2727
 1930SOL     OW17248   0.253   4.677   4.387  0.1029  0.6005 -0.5278
 1930SOL    HW117249   0.303   0.008   4.329  0.9946 -1.1573 -1.4637
 1930SOL    HW217250   0.255   4.586   4.358 -0.3734  0.8275 -1.2636
 1931SOL     OW17251   0.874   2.299   6.883 -0.1101 -0.1928  0.5572
 1931SOL    HW117252   0.816   2.276   6.955 -1.9833 -1.6346 -1.4135
 1931SOL    HW217253   0.959   2.263   6.909 -0.5844  1.1714  4.0941
 1932SOL     OW17254   2.535   2.061   7.384  0.2323  0.4560  0.1433
 1932SOL    HW117255   2.612   2.100   7.342 -0.5216  0.9750 -0.7405
 1932SOL    HW217256   2.568   2.060   7.474  2.3333  0.9140 -0.6130
 1933SOL     OW17257   0.484   1.729   5.327  0.0372 -0.3532 -0.2340
 1933SOL    HW117258   0.546   1.800   5.342  0.3762 -1.0835  1.7840
 1933SOL    HW217259   0.408   1.761   5.375 -1.1159 -3.0740 -0.2130
 1934SOL     OW17260   3.584   1.249   7.057 -0.5024 -0.2098  0.0508
 1934SOL    HW117261   3.567   1.204   7.139  0.4232 -0.7930 -0.0780
 1934SOL    HW217262   3.657   1.309   7.074  0.6511 -1.7191  0.4539
 1935SOL     OW17263   1.675   3.340   8.721  0.4880 -0.2939  0.9531
 1935SOL    HW117264   1.755   3.303   8.684  0.2252  1.1745 -1.0998
 1935SOL    HW217265   1.707   3.361   8.809  1.6455 -0.0852  0.4891
 1936SOL     OW17266   4.127   0.005   5.598 -0.2206  0.0276 -0.5082
 1936SOL    HW117267   4.076   0.035   5.523 -2.0182 -0.3866  0.5506
 1936SOL    HW217268   4.182   0.084   5.603  1.7838 -1.2895 -2.2226
 1937SOL     OW17269   4.706   1.440   2.682 -0.1302 -0.6218  0.5907
 1937SOL    HW117270   4.681   1.529   2.707  2.1895  0.6062 -1.4405
 1937SOL    HW217271   4.644   1.378   2.720 -1.1307  0.1640  0.2424
 1938SOL     OW17272   0.524   3.750   9.737 -0.0320 -0.4923 -0.4456
 1938SOL    HW117273   0.529   3.674   9.795 -1.2545  1.2879  2.0312
 1938SOL    HW217274   0.608   3.744   9.692  0.4160  0.2936  0.2610
 1939SOL     OW17275   0.840   1.799  14.833 -0.0469 -0.1882 -0.1468
 1939SOL    HW117276   0.935   1.800  14.845  0.0351 -0.3070 -0.7545
 1939SOL    HW217277   0.809   1.800  14.923 -0.4212 -1.9413 -0.2634
 1940SOL     OW17278   0.176   2.656   6.562 -0.4827 -0.2048 -0.7608
 1940SOL    HW117279   0.239   2.692   6.625 -1.5166  1.1203 -0.4971
 1940SOL    HW217280   0.232   2.602   6.506  0.2348 -0.8766  0.6039
 1941SOL     OW17281   2.235   3.007  14.271  0.0722 -0.2341 -0.5223
 1941SOL    HW117282   2.155   3.005  14.323  0.0007 -2.9983 -0.7000
 1941SOL    HW217283   2.215   3.081  14.214  0.2082  0.8311  0.8152
 1942SOL     OW17284   3.964   1.597  11.100  0.3463 -0.6889 -0.1525
 1942SOL    HW117285   4.011   1.676  11.128 -0.2306 -0.4562  0.1794
 1942SOL    HW217286   3.886   1.630  11.056  1.1565  1.3598 -0.0538
 1943SOL     OW17287   4.616   0.780   7.489  0.1135  0.2959 -0.9452
 1943SOL    HW117288   4.699   0.756   7.448  0.9297  0.4328  0.6319
 1943SOL    HW217289   4.632   0.873   7.507  0.8340  0.0866 -0.4962
 1944SOL     OW17290   0.329   2.887  16.794 -0.1967 -0.2027 -0.8561
 1944SOL    HW117291   0.339   2.799  16.830  1.2230 -0.2257 -1.3311
 1944SOL    HW217292   0.413   2.905  16.752 -1.9409  1.5612 -3.5870
 1945SOL     OW17293   1.757   1.566   5.951 -0.1662 -0.0044 -0.3422
 1945SOL    HW117294   1.786   1.648   5.914  0.4153  0.2324  0.6355
 1945SOL    HW217295   1.841   1.533   5.982  0.1864  0.3672 -0.9256
 1946SOL     OW17296   0.877   1.071   3.531 -0.3579  0.0589  0.3394
 1946SOL    HW117297   0.971   1.056   3.516 -0.2023  1.1346  0.2593
 1946SOL    HW217298   0.879   1.150   3.585  1.4094 -0.7407  1.4321
 1947SOL     OW17299   4.401   1.821   0.721 -0.4440 -0.5224  0.0751
 1947SOL    HW117300   4.403   1.870   0.804 -0.8239 -1.2264  0.4981
 1947SOL    HW217301   4.373   1.734   0.749  0.1627 -0.7234  0.0509
 1948SOL     OW17302   3.183   3.299  17.574  0.3607  0.2191  1.1518
 1948SOL    HW117303   3.255   3.235  17.570 -0.4664 -0.5207 -1.9919
 1948SOL    HW217304   3.223   3.385  17.584 -0.5713  0.8831 -0.7732
 1949SOL     OW17305   0.279   1.770   3.274  0.5791  0.1085 -0.2099
 1949SOL    HW117306   0.247   1.820   3.198 -0.0954  1.3252  0.8806
 1949SOL    HW217307   0.200   1.721   3.296  1.2420 -0.7225  0.3102
 1950SOL     OW17308   4.161   3.641   2.807 -0.2171 -0.0879  0.0442
 1950SOL    HW117309   4.082   3.695   2.808  0.8015  1.3798  1.0655
 1950SOL    HW217310   4.209   3.701   2.750 -0.1954 -1.9738 -1.9090
 1951SOL     OW17311   4.398   2.558   8.026 -0.5652 -0.0100 -0.3807
 1951SOL    HW117312   4.482   2.513   8.035 -1.1660 -0.4318  3.1074
 1951SOL    HW217313   4.385   2.557   7.931 -2.7633 -3.0938 -0.0638
 1952SOL     OW17314   3.195   1.617   5.886 -0.6772 -0.1338 -0.3029
 1952SOL    HW117315   3.186   1.691   5.947 -0.0326 -0.4059  0.1222
 1952SOL    HW217316   3.157   1.540   5.928  2.1485 -1.8300 -0.8437
 1953SOL     OW17317   2.848   3.466  17.301 -0.2801 -0.2665 -0.4448
 1953SOL    HW117318   2.815   3.427  17.381  1.6819 -3.7738 -1.3340
 1953SOL    HW217319   2.932   3.423  17.284  0.4948  1.2518 -0.4867
 1954SOL     OW17320   3.747   1.264  10.869 -0.3798 -0.2188  0.6536
 1954SOL    HW117321   3.840   1.244  10.866 -0.8387 -2.2026 -0.3848
 1954SOL    HW217322   3.708   1.186  10.830  1.0978 -2.0881  2.9083
 1955SOL     OW17323   4.062   2.560  10.023 -0.2292  0.4430 -0.6068
 1955SOL    HW117324   4.103   2.599  10.100 -1.0547 -4.0489  2.1587
 1955SOL    HW217325   3.988   2.505  10.048 -1.1139  1.7195 -0.4064
 1956SOL     OW17326   0.815   0.608   2.132  0.6669  0.6724  0.0828
 1956SOL    HW117327   0.877   0.624   2.062  1.0742 -0.4147  0.1946
 1956SOL    HW217328   0.742   0.564   2.089 -0.5574  2.2398  0.5312
 1957SOL     OW17329   0.344   1.680   6.843 -0.0293 -0.4963 -0.0632
 1957SOL    HW117330   0.262   1.727   6.856  0.3198  0.2422 -0.5290
 1957SOL    HW217331   0.334   1.588   6.869 -1.1536 -0.1017  0.8792
 1958SOL     OW17332   0.666   2.996   4.230  0.7663  0.4913 -0.2433
 1958SOL    HW117333   0.760   3.013   4.224  1.1406 -0.9779  1.5070
 1958SOL    HW217334   0.671   2.911   4.186  2.3120 -0.1034  1.1083
 1959SOL     OW17335   0.003   2.441  15.511 -0.1761  0.1563 -0.1613
 1959SOL    HW117336   0.018   2.352  15.481 -1.7689  0.6790 -2.4615
 1959SOL    HW217337   4.694   2.483  15.432  0.2303  1.1150  0.1591
 1960SOL     OW17338   4.508   4.163   8.191  0.0718  0.2564  0.1239
 1960SOL    HW117339   4.473   4.242   8.230  0.3593 -0.2909  1.4888
 1960SOL    HW217340   4.433   4.104   8.200  2.2133 -2.6522 -0.9352
 1961SOL     OW17341   4.397   0.423   4.062  0.5154  0.2552 -0.0573
 1961SOL    HW117342   4.321   0.461   4.106 -0.3057 -1.5468  0.0913
 1961SOL    HW217343   4.366   0.417   3.972 -3.3965  3.9647  1.0624
 1962SOL     OW17344   0.215   1.586   5.300 -0.8461 -0.2587  0.3662
 1962SOL    HW117345   0.207   1.506   5.249  1.0401  0.0464 -0.4159
 1962SOL    HW217346   0.238   1.648   5.231 -2.7292  0.2794  0.2310
 1963SOL     OW17347   4.032   0.098   2.487  0.0035  0.3457 -0.2042
 1963SOL    HW117348   3.988   0.064   2.410  1.3571 -0.0397 -0.8018
 1963SOL    HW217349   4.072   0.017   2.517  0.3747  0.9966  1.0536
 1964SOL     OW17350   1.658   3.744  10.540  0.3833 -0.2383  0.3410
 1964SOL    HW117351   1.747   3.778  10.531 -0.2696  1.1743 -0.8614
 1964SOL    HW217352   1.635   3.716  10.451  1.3352  2.3078 -0.6935
 1965SOL     OW17353   4.081   1.398   9.012 -0.6986  0.0843 -0.8007
 1965SOL    HW117354   4.040   1.406   9.099  1.8713  0.1553  0.3969
 1965SOL    HW217355   4.142   1.328   9.033  0.6331  1.1046 -1.2616
 1966SOL     OW17356   2.406   3.807   3.577 -0.1431  0.6137 -0.2197
 1966SOL    HW117357   2.373   3.896   3.565 -1.1207  0.2965  0.1151
 1966SOL    HW217358   2.432   3.778   3.489 -0.5197  1.8694 -0.7433
 1967SOL     OW17359   0.015   2.985   7.036 -0.3899 -0.2613 -0.9546
 1967SOL    HW117360   4.653   2.965   7.005 -0.5350  0.1949 -0.8458
 1967SOL    HW217361   0.063   2.987   6.953  3.2360  0.5464  1.1311
 1968SOL     OW17362   3.767   0.004   5.674  0.3629  0.3799  0.2352
 1968SOL    HW117363   3.743   0.023   5.765  0.3856  1.1278  0.0812
 1968SOL    HW217364   3.701   0.054   5.626  1.4242  1.4868 -0.0595
 1969SOL     OW17365   0.495   0.177   4.665  0.3625 -0.3739  0.5505
 1969SOL    HW117366   0.535   0.185   4.578 -3.3056 -0.9089 -1.1939
 1969SOL    HW217367   0.445   0.096   4.655 -1.3509  0.7635  0.0669
 1970SOL     OW17368   2.198   3.979   3.005 -0.4262  0.4058 -0.1047
 1970SOL    HW117369   2.273   3.941   2.959 -0.5752 -2.4920  2.0576
 1970SOL    HW217370   2.239   4.050   3.055  0.4099  0.6294 -1.1020
 1971SOL     OW17371   4.712   3.606   4.471  0.3204  0.4582 -0.3705
 1971SOL    HW117372   0.036   3.524   4.480 -1.0103 -0.3377 -0.2239
 1971SOL    HW217373   4.647   3.599   4.541  0.2212  0.7666 -0.4316
 1972SOL     OW17374   3.723   2.570  16.783 -0.8174  0.2613 -0.7439
 1972SOL    HW117375   3.731   2.666  16.786 -2.1474  0.4119 -1.7588
 1972SOL    HW217376   3.657   2.555  16.851  1.4533 -1.4495  1.0728
 1973SOL     OW17377   0.811   3.712   5.308  0.6124  0.1720 -0.4325
 1973SOL    HW117378   0.771   3.748   5.387  1.2904  0.4794 -0.2264
 1973SOL    HW217379   0.865   3.645   5.348  2.1825  0.4624 -2.0817
 1974SOL     OW17380   0.581   3.086   3.546 -0.3575 -0.1123 -0.0623
 1974SOL    HW117381   0.619   3.170   3.518 -1.2807  0.6728  1.0207
 1974SOL    HW217382   0.490   3.108   3.528 -1.1603 -1.0727  2.8302
 1975SOL     OW17383   2.348   0.272   3.654  0.3594  0.4968 -0.7368
 1975SOL    HW117384   2.315   0.361   3.641  0.1259  0.4820 -0.2570
 1975SOL    HW217385   2.318   0.230   3.573  0.0915 -1.9877  0.6502
 1976SOL     OW17386   4.138   2.781  10.732  0.3400  0.3270 -0.3278
 1976SOL    HW117387   4.083   2.708  10.759 -0.0506  0.5275 -0.5920
 1976SOL    HW217388   4.144   2.825  10.817  1.4705  1.7500 -1.1442
 1977SOL     OW17389   1.237   0.033   2.689  0.6105 -0.0292  0.0340
 1977SOL    HW117390   1.285   4.725   2.764  0.9686 -0.0226 -0.1929
 1977SOL    HW217391   1.223   4.681   2.637  0.4426  0.1906 -0.2482
 1978SOL     OW17392   3.653   0.135   7.459  0.4013  0.5269 -0.1435
 1978SOL    HW117393   3.640   0.043   7.480  1.6216  0.4915  0.4010
 1978SOL    HW217394   3.620   0.129   7.369  0.6736 -1.5612 -0.1068
 1979SOL     OW17395   0.668   0.870   5.682 -0.1143  0.1799  0.5979
 1979SOL    HW117396   0.693   0.927   5.755  1.4590 -0.3608  0.4750
 1979SOL    HW217397   0.749   0.867   5.633 -0.8278 -0.1037 -0.5600
 1980SOL     OW17398   1.397   1.458   6.649  0.0376 -0.1847 -0.0600
 1980SOL    HW117399   1.462   1.406   6.696 -0.0742 -0.4419 -0.1900
 1980SOL    HW217400   1.323   1.459   6.710  0.5791 -0.8562  0.6124
 1981SOL     OW17401   2.904   4.403  14.901  0.0668  0.4124 -0.2266
 1981SOL    HW117402   2.815   4.435  14.911  1.0037  2.7858  0.4043
 1981SOL    HW217403   2.915   4.395  14.806  3.8153  1.1420  0.1518
 1982SOL     OW17404   2.862   2.901   5.823 -0.0044  0.0701  0.0148
 1982SOL    HW117405   2.892   2.956   5.895  1.6769  1.2765 -1.5899
 1982SOL    HW217406   2.769   2.880   5.831  0.0612 -0.9451 -1.7293
 1983SOL     OW17407   3.698   4.480   2.794 -0.4909  0.2924 -0.3755
 1983SOL    HW117408   3.763   4.448   2.857 -1.5050 -0.2228  0.3953
 1983SOL    HW217409   3.698   4.574   2.815 -0.8860  0.3153 -0.4856
 1984SOL     OW17410   2.817   1.371  11.274  0.1830  0.2393 -0.4242
 1984SOL    HW117411   2.753   1.442  11.268  0.4051  0.4720 -0.0627
 1984SOL    HW217412   2.883   1.420  11.323  0.0055  1.1806 -1.1224
 1985SOL     OW17413   2.212   2.831   4.009 -0.1128  0.3998  0.1351
 1985SOL    HW117414   2.136   2.775   4.027 -1.7162  3.1239  1.7354
 1985SOL    HW217415   2.272   2.821   4.083  0.0576  0.0811 -0.0421
 1986SOL     OW17416   2.916   0.593   4.725  0.2360 -0.5251 -0.4825
 1986SOL    HW117417   2.855   0.583   4.798 -1.2584  2.1651 -1.3895
 1986SOL    HW217418   2.991   0.540   4.753 -0.1609 -0.3006  1.0158
 1987SOL     OW17419   3.619   3.193   5.504  0.8119  0.0041 -0.5195
 1987SOL    HW117420   3.535   3.232   5.527  1.6465  1.6243 -0.2523
 1987SOL    HW217421   3.654   3.153   5.583 -0.8962 -0.5497 -0.0359
 1988SOL     OW17422   2.075   1.695   2.620 -0.3076  0.0835 -0.3620
 1988SOL    HW117423   1.999   1.701   2.562 -0.7654 -1.7595  0.0584
 1988SOL    HW217424   2.135   1.692   2.545 -0.5346 -0.3758 -0.5255
 1989SOL     OW17425   2.732   2.449   6.288  0.1544  0.0726 -0.1637
 1989SOL    HW117426   2.774   2.482   6.368 -0.4489  0.3629  0.0312
 1989SOL    HW217427   2.783   2.485   6.216  0.9690  2.7432  1.7520
 1990SOL     OW17428   2.370   1.698   7.731  0.0671 -0.2864  0.0393
 1990SOL    HW117429   2.428   1.765   7.696  0.2358 -0.3707  0.1572
 1990SOL    HW217430   2.285   1.742   7.744  0.6793  1.1093 -0.7009
 1991SOL     OW17431   3.202   1.805   1.228  0.2927  0.6030 -0.4423
 1991SOL    HW117432   3.173   1.766   1.311  2.5817 -0.6242 -0.2162
 1991SOL    HW217433   3.188   1.731   1.170 -2.3643 -0.0846  1.0944
 1992SOL     OW17434   3.534   3.202   2.944 -0.1286 -0.5526  0.3001
 1992SOL    HW117435   3.540   3.232   2.854 -0.0380  0.8117  0.7691
 1992SOL    HW217436   3.491   3.278   2.982 -1.0972 -0.5334 -0.8555
 1993SOL     OW17437   4.684   1.539   3.484 -0.2052  0.2159 -0.0764
 1993SOL    HW117438   4.604   1.572   3.445  0.3453 -0.2092 -1.5405
 1993SOL    HW217439   4.655   1.524   3.574  0.1793  2.5772  0.4291
 1994SOL     OW17440   1.835   0.030   2.844  0.1073 -0.7855 -0.5681
 1994SOL    HW117441   1.928   0.052   2.834 -0.0869 -0.5304 -1.8343
 1994SOL    HW217442   1.826   4.700   2.767 -0.6568 -2.0276  0.4288
 1995SOL     OW17443   4.464   1.691   5.149  0.1265  0.3171  0.3156
 1995SOL    HW117444   4.433   1.711   5.061 -2.8752 -2.8872  0.6420
 1995SOL    HW217445   4.437   1.599   5.156 -0.1014  0.4291  0.8576
 1996SOL     OW17446   2.344   3.710   5.315  0.1621 -0.1126  0.5616
 1996SOL    HW117447   2.282   3.778   5.343  0.2837  0.8683 -1.5611
 1996SOL    HW217448   2.286   3.664   5.255  0.0753 -2.7345  2.6758
 1997SOL     OW17449   2.669   1.446  10.161 -0.3298  0.0596  0.3137
 1997SOL    HW117450   2.735   1.462  10.228 -0.9995 -0.8852  1.2009
 1997SOL    HW217451   2.588   1.483  10.196 -0.7374  0.5838 -1.1891
 1998SOL     OW17452   4.492   0.008  16.350  0.5072  0.2812  0.0117
 1998SOL    HW117453   4.537   4.651  16.335  0.0271  0.2143 -1.0192
 1998SOL    HW217454   4.438   4.718  16.427  0.2318 -3.0383 -0.8959
 1999SOL     OW17455   1.244   1.181   2.429  0.0043  0.3066 -0.4485
 1999SOL    HW117456   1.223   1.154   2.339 -3.5324  0.6237  0.2669
 1999SOL    HW217457   1.281   1.267   2.411  1.8334 -0.2642  0.6085
 2000SOL     OW17458   2.354   0.208   1.075 -0.7700  0.3777 -0.3589
 2000SOL    HW117459   2.338   0.296   1.110 -1.4548  0.0961  0.0446
 2000SOL    HW217460   2.397   0.235   0.994  0.5211 -0.2736  0.1217
 2001SOL     OW17461   2.048   4.249  11.524 -0.1111 -0.0831  0.1840
 2001SOL    HW117462   2.009   4.328  11.486 -1.5522 -0.5318  0.7438
 2001SOL    HW217463   2.113   4.281  11.587 -0.2329 -0.4687  0.5025
 2002SOL     OW17464   0.965   2.378   2.078 -0.3456 -0.0424  0.1736
 2002SOL    HW117465   1.001   2.436   2.145  0.7082 -0.5266  0.0229
 2002SOL    HW217466   0.931   2.442   2.015  0.2283  1.8523  1.7651
 2003SOL     OW17467   4.075   4.556   3.775 -0.0060  0.8284 -0.0218
 2003SOL    HW117468   4.090   4.625   3.840 -0.6892 -0.1840  1.1997
 2003SOL    HW217469   3.998   4.589   3.729 -1.4507 -1.5976  0.6209
 2004SOL     OW17470   3.341   0.543  13.903 -0.2866  0.3683 -0.0138
 2004SOL    HW117471   3.378   0.478  13.843 -1.3876 -0.1142 -0.1730
 2004SOL    HW217472   3.249   0.535  13.879  0.0860 -0.3302 -1.2030
 2005SOL     OW17473   2.643   0.149   9.437  0.7490  0.3863 -0.3192
 2005SOL    HW117474   2.565   0.204   9.426 -1.0069 -1.8906  0.6468
 2005SOL    HW217475   2.618   0.088   9.506  0.8377  1.4349  0.6318
 2006SOL     OW17476   2.937   3.217   8.920 -0.2078  0.6467 -0.0080
 2006SOL    HW117477   3.002   3.196   8.853 -0.2125 -0.2425  0.2711
 2006SOL    HW217478   2.982   3.196   9.001 -1.8671 -0.3272  0.6573
 2007SOL     OW17479   3.797   1.160   2.429  0.0555  0.4346  0.1294
 2007SOL    HW117480   3.832   1.167   2.340  1.5651  1.7329  0.8230
 2007SOL    HW217481   3.839   1.232   2.475  0.8898  0.6603 -0.9965
 2008SOL     OW17482   0.074   4.648   8.875 -0.1365 -0.3824 -0.3681
 2008SOL    HW117483   0.102   0.014   8.874 -1.7336  0.1127 -0.4734
 2008SOL    HW217484   4.724   4.653   8.933  1.4395  1.3322  1.5669
 2009SOL     OW17485   2.041   0.710   3.380  0.7969  0.1153  0.3204
 2009SOL    HW117486   1.995   0.634   3.346 -2.4712  1.6872  1.1420
 2009SOL    HW217487   2.101   0.726   3.308 -0.0674  2.4865  0.1158
 2010SOL     OW17488   4.135   0.406   5.250  0.2145  0.5861  0.1244
 2010SOL    HW117489   4.199   0.447   5.309  0.0674 -0.9148  1.3170
 2010SOL    HW217490   4.188   0.422   5.172  1.5833 -0.5587  0.8290
 2011SOL     OW17491   4.042   2.589   9.731  0.0388  0.1493 -0.4930
 2011SOL    HW117492   4.052   2.589   9.826 -1.4622 -1.0257 -0.3390
 2011SOL    HW217493   3.959   2.637   9.723  0.1314  0.7238  2.0252
 2012SOL     OW17494   0.681   3.191   3.234  0.3626 -0.0490 -0.0688
 2012SOL    HW117495   0.699   3.284   3.246  0.1765  0.0965 -0.9075
 2012SOL    HW217496   0.612   3.205   3.169 -0.3729 -0.0098  0.7041
 2013SOL     OW17497   4.360   0.692   7.552 -0.0801 -0.8192 -0.4827
 2013SOL    HW117498   4.440   0.732   7.518  0.8361 -3.0357 -0.9822
 2013SOL    HW217499   4.379   0.646   7.634  0.5386  1.0555  0.4229
 2014SOL     OW17500   4.225   1.004   6.934 -0.6607 -0.3107 -0.5867
 2014SOL    HW117501   4.211   0.974   7.024 -0.0933 -1.7107 -0.9709
 2014SOL    HW217502   4.162   0.952   6.885 -0.0968 -0.7353 -0.8656
 2015SOL     OW17503   1.822   4.500  11.670  0.4818 -0.6724 -0.2260
 2015SOL    HW117504   1.758   4.571  11.665  2.8757  1.4989 -0.5439
 2015SOL    HW217505   1.792   4.440  11.602  1.8869 -0.0231 -1.4198
 2016SOL     OW17506   3.771   4.481  15.537 -0.2702  0.8166  0.4905
 2016SOL    HW117507   3.708   4.408  15.532 -0.1488  0.7842 -0.4213
 2016SOL    HW217508   3.743   4.524  15.618 -2.3524  1.0583 -0.3504
 2017SOL     OW17509   0.731   2.960   1.479 -0.2140  0.7049 -0.2405
 2017SOL    HW117510   0.784   3.030   1.442  0.1321  1.1708  1.1364
 2017SOL    HW217511   0.743   2.896   1.408  2.5582 -0.0911  0.9383
 2018SOL     OW17512   1.772   2.327   5.011  0.1335 -0.0178 -0.6061
 2018SOL    HW117513   1.844   2.390   5.012  0.3691 -0.3381  1.6605
 2018SOL    HW217514   1.701   2.381   5.045 -0.1634 -0.1649 -0.9853
 2019SOL     OW17515   1.387   2.129   2.046  0.3805 -0.0491 -0.4304
 2019SOL    HW117516   1.300   2.129   2.007  0.3483  2.5663 -0.3501
 2019SOL    HW217517   1.389   2.215   2.089 -1.8112 -0.4930  0.5617
 2020SOL     OW17518   3.896   0.159   4.496  0.4311 -0.4461 -0.7901
 2020SOL    HW117519   3.906   0.066   4.517  0.9521 -0.7806 -2.5990
 2020SOL    HW217520   3.801   0.171   4.490  0.5326 -0.0020 -1.4483
 2021SOL     OW17521   3.605   0.691   2.071  0.1537 -0.3902  0.0025
 2021SOL    HW117522   3.659   0.637   2.129 -0.5714 -0.2351  0.8265
 2021SOL    HW217523   3.529   0.708   2.126  0.1007 -1.2049  0.1799
 2022SOL     OW17524   2.334   0.900  12.570 -0.2751 -0.5452  0.4481
 2022SOL    HW117525   2.407   0.934  12.621 -0.7970  1.5566 -0.1866
 2022SOL    HW217526   2.344   0.960  12.496 -0.1675 -1.0028  0.0917
 2023SOL     OW17527   4.620   3.425  11.388 -0.7929  0.0475 -0.3059
 2023SOL    HW117528   4.574   3.481  11.451 -1.6818 -2.5018  1.3446
 2023SOL    HW217529   4.555   3.356  11.402  0.1723 -0.1636  3.2463
 2024SOL     OW17530   2.387   2.529  14.499  0.5122 -0.1097  0.3841
 2024SOL    HW117531   2.372   2.453  14.556  0.6899  0.0642  0.6623
 2024SOL    HW217532   2.466   2.502  14.451  0.8475 -0.6857  1.2607
 2025SOL     OW17533   2.490   3.578   1.445 -0.6200  0.2179 -0.3793
 2025SOL    HW117534   2.574   3.565   1.401  0.9791 -0.4328  2.8583
 2025SOL    HW217535   2.502   3.639   1.518 -1.4592 -0.1964  0.1163
 2026SOL     OW17536   2.499   3.906   8.850  0.2315  0.3585 -0.9430
 2026SOL    HW117537   2.446   3.912   8.929 -1.1805  0.0869 -1.8681
 2026SOL    HW217538   2.564   3.839   8.872 -1.8714 -1.4150 -0.1111
 2027SOL     OW17539   4.155   2.445   7.337  0.2289 -0.1731  0.5854
 2027SOL    HW117540   4.139   2.388   7.262 -0.4739 -2.8265  2.7201
 2027SOL    HW217541   4.180   2.383   7.406  2.2662  0.6438  0.5799
 2028SOL     OW17542   3.261   3.367   6.545  0.5715  0.0840  0.4082
 2028SOL    HW117543   3.169   3.365   6.571 -0.0238  1.7388 -1.5803
 2028SOL    HW217544   3.292   3.280   6.570 -0.4927 -0.7180 -1.0656
 2029SOL     OW17545   0.978   1.275   5.773  0.4528 -0.3562  0.1042
 2029SOL    HW117546   0.887   1.277   5.745  0.5980 -0.7663 -0.3853
 2029SOL    HW217547   1.025   1.234   5.700  1.3708 -1.4929  1.3393
 2030SOL     OW17548   1.138   0.403   5.952  0.0710 -0.3080  0.2743
 2030SOL    HW117549   1.173   0.324   5.909 -0.1651 -1.7363  2.7093
 2030SOL    HW217550   1.128   0.459   5.875  0.1602 -1.6344 -0.7154
 2031SOL     OW17551   3.924   3.888   3.454 -1.1437 -0.0005 -0.2066
 2031SOL    HW117552   3.951   3.796   3.452 -0.4004  0.1787  1.7825
 2031SOL    HW217553   3.992   3.931   3.505 -1.0968 -1.5784  1.0384
 2032SOL     OW17554   3.836   2.367   1.205  0.7128 -0.2337 -0.0634
 2032SOL    HW117555   3.746   2.337   1.188  0.5186 -0.0150  0.5652
 2032SOL    HW217556   3.822   2.459   1.183  0.5352 -0.7851 -2.2410
 2033SOL     OW17557   0.039   2.994   4.626 -0.2530 -0.1339  0.3685
 2033SOL    HW117558   0.097   2.943   4.682 -1.6782 -0.9796  1.0794
 2033SOL    HW217559   4.680   2.959   4.652  0.1793 -1.8733 -0.5178
 2034SOL     OW17560   2.158   2.200  15.099  0.2675 -0.2440 -0.8320
 2034SOL    HW117561   2.127   2.119  15.139 -1.3626  1.7519  1.9955
 2034SOL    HW217562   2.080   2.251  15.124  1.4548  0.4974  1.3971
 2035SOL     OW17563   1.461   0.647  12.500 -0.2180 -0.0024  0.0862
 2035SOL    HW117564   1.539   0.689  12.465 -0.3258  1.5028  1.6547
 2035SOL    HW217565   1.399   0.658  12.428 -2.0119  2.3063  1.9396
 2036SOL     OW17566   3.913   2.216  14.638 -0.1117  0.2745  0.8776
 2036SOL    HW117567   3.908   2.300  14.683 -0.2803  0.3227  0.7719
 2036SOL    HW217568   3.992   2.247  14.594 -0.1399 -1.0983 -0.1599
 2037SOL     OW17569   1.716   2.249   3.937 -0.4885 -0.0811 -0.3170
 2037SOL    HW117570   1.703   2.265   3.843  0.9463  1.4904 -0.2314
 2037SOL    HW217571   1.810   2.262   3.938 -0.3715 -0.7363 -2.1411
 2038SOL     OW17572   3.583   0.488   8.616  0.1159 -0.6530  0.4582
 2038SOL    HW117573   3.628   0.417   8.662 -0.4668 -2.6365 -1.9879
 2038SOL    HW217574   3.644   0.561   8.607  0.0742 -0.7929 -1.0532
 2039SOL     OW17575   2.405   0.775  10.555 -0.7717 -0.0921 -0.1923
 2039SOL    HW117576   2.312   0.786  10.538 -1.0895 -2.3443  0.1715
 2039SOL    HW217577   2.430   0.851  10.502 -0.3840  0.0260  0.1611
 2040SOL     OW17578   0.671   4.211   2.469  0.4190  0.0965  0.3436
 2040SOL    HW117579   0.750   4.160   2.448  0.6288  1.1978 -1.5410
 2040SOL    HW217580   0.701   4.299   2.450 -1.4417  0.5591 -0.4270
 2041SOL     OW17581   4.269   0.197   3.660 -0.2809 -0.1573  0.5571
 2041SOL    HW117582   4.215   0.274   3.642  0.7350  0.4987  0.3161
 2041SOL    HW217583   4.247   0.167   3.748 -0.3938  0.6706  0.8080
 2042SOL     OW17584   2.485   2.939   4.448 -0.2779  0.1401  0.0672
 2042SOL    HW117585   2.488   2.976   4.360  1.0889 -0.1443 -0.0003
 2042SOL    HW217586   2.394   2.948   4.475 -0.4524  0.2165 -0.5463
 2043SOL     OW17587   4.033   2.399   4.059 -0.7053  0.1044 -0.2465
 2043SOL    HW117588   3.961   2.335   4.062  1.0538 -1.7477  1.7706
 2043SOL    HW217589   3.989   2.484   4.053 -0.5434  0.0567 -2.3896
 2044SOL     OW17590   2.733   4.043  13.239 -0.4485 -0.3757 -0.1260
 2044SOL    HW117591   2.808   4.084  13.282 -1.1120  1.0616 -0.3463
 2044SOL    HW217592   2.656   4.072  13.286 -0.9743 -1.6877 -0.1655
 2045SOL     OW17593   1.145   4.253   5.142 -0.1180  0.2983  0.3242
 2045SOL    HW117594   1.230   4.284   5.110 -0.4317 -1.9215 -2.5927
 2045SOL    HW217595   1.102   4.232   5.060  0.3114 -1.0138  0.4264
 2046SOL     OW17596   0.229   1.418   1.378  0.3327  0.1259  0.3133
 2046SOL    HW117597   0.230   1.391   1.470 -1.3787  1.0777  0.6181
 2046SOL    HW217598   0.169   1.355   1.338  0.0172 -0.2661  1.3964
 2047SOL     OW17599   0.415   0.438  10.910 -0.0864  0.1128 -0.6194
 2047SOL    HW117600   0.356   0.382  10.960  0.2859 -0.5477 -0.9081
 2047SOL    HW217601   0.402   0.400  10.823  1.1609 -4.0188  1.0034
 2048SOL     OW17602   4.171   2.360   5.775 -0.5799 -0.3028 -0.3154
 2048SOL    HW117603   4.110   2.316   5.833 -0.5881  1.7098  1.2352
 2048SOL    HW217604   4.118   2.356   5.696  1.8335  0.6262 -2.0063
 2049SOL     OW17605   1.091   0.161   8.428 -0.0157 -0.1717 -0.0504
 2049SOL    HW117606   1.030   0.122   8.365  0.6427 -0.4967 -0.4862
 2049SOL    HW217607   1.174   0.157   8.380 -0.3074  0.1139 -0.5802
 2050SOL     OW17608   2.844   0.973   4.982 -0.4044  0.1041 -0.8921
 2050SOL    HW117609   2.749   0.980   4.970 -0.4889 -0.5085 -0.5967
 2050SOL    HW217610   2.857   0.887   5.023 -2.0864  0.4670  0.4140
 2051SOL     OW17611   1.527   2.204   4.691 -0.2356  0.1876 -0.3185
 2051SOL    HW117612   1.435   2.229   4.701  0.0856  1.3402 -0.2493
 2051SOL    HW217613   1.529   2.169   4.602  0.0113 -0.9258  0.1338
 2052SOL     OW17614   2.101   4.298   5.554  0.2264 -0.0593  0.2726
 2052SOL    HW117615   2.015   4.256   5.549  0.1607 -0.0305  1.1538
 2052SOL    HW217616   2.159   4.228   5.522 -1.4434  0.2417 -3.3959
 2053SOL     OW17617   1.970   0.647   8.123  0.1110  0.1714 -0.8504
 2053SOL    HW117618   2.018   0.671   8.202  0.7828 -0.1840 -1.1536
 2053SOL    HW217619   2.028   0.604   8.061 -0.4903 -0.9521 -0.6463
 2054SOL     OW17620   1.953   3.051   7.068  0.3761  0.4913 -0.0314
 2054SOL    HW117621   2.034   3.001   7.084 -0.3609 -0.5420  0.4941
 2054SOL    HW217622   1.978   3.140   7.091 -0.2891  0.5002  0.6769
 2055SOL     OW17623   0.450   1.639   6.597 -0.3750 -0.0560  0.3575
 2055SOL    HW117624   0.535   1.674   6.622 -1.2747  2.7728 -0.5907
 2055SOL    HW217625   0.408   1.669   6.677 -1.3709  0.7675 -0.4863
 2056SOL     OW17626   1.031   2.022   5.349  0.4093  0.3582 -0.0546
 2056SOL    HW117627   0.997   1.933   5.349  0.4118  0.3428  2.0137
 2056SOL    HW217628   0.995   2.071   5.423 -0.9770 -0.8496  0.0755
 2057SOL     OW17629   0.657   3.117  10.619  0.3615 -0.1611 -0.6365
 2057SOL    HW117630   0.721   3.055  10.654 -1.3567 -3.1303 -2.7040
 2057SOL    HW217631   0.600   3.136  10.694  2.3297  1.3665  0.4726
 2058SOL     OW17632   0.783   0.509  10.846 -0.5400 -0.1347  0.2234
 2058SOL    HW117633   0.778   0.581  10.783 -3.0106 -0.1191  0.4660
 2058SOL    HW217634   0.868   0.528  10.887  0.1107 -1.0887 -0.6617
 2059SOL     OW17635   4.151   3.592  17.524  0.5104  0.6494 -0.3986
 2059SOL    HW117636   4.097   3.514  17.535  0.2813  0.4218 -3.0602
 2059SOL    HW217637   4.086   3.659  17.504 -0.9490 -1.3853 -2.4437
 2060SOL     OW17638   2.362   4.539  17.079  0.7387  0.4851 -0.2309
 2060SOL    HW117639   2.271   4.532  17.049  0.9328  0.5855 -0.8556
 2060SOL    HW217640   2.354   4.602  17.150 -3.0427 -0.2116 -0.0259
 2061SOL     OW17641   3.519   4.033   9.203  0.3611 -0.7183  0.1594
 2061SOL    HW117642   3.544   3.942   9.217  0.1643 -0.5351  1.6911
 2061SOL    HW217643   3.469   4.049   9.283 -1.5586 -3.6602 -0.4593
 2062SOL     OW17644   4.498   2.447  11.901 -0.4889  0.1574 -0.6392
 2062SOL    HW117645   4.459   2.522  11.946  1.6423  0.3472  0.8443
 2062SOL    HW217646   4.438   2.448  11.826 -2.2310 -1.4899  0.7100
 2063SOL     OW17647   0.078   3.736   7.285 -0.0073 -0.1551 -0.1792
 2063SOL    HW117648   0.124   3.711   7.205 -1.3732 -1.4547 -0.5579
 2063SOL    HW217649   0.080   3.655   7.336  0.6656 -0.0341 -0.0198
 2064SOL     OW17650   3.188   4.563  17.352 -0.1067  0.1359  0.3599
 2064SOL    HW117651   3.154   4.479  17.380  0.5900  0.1211  1.1718
 2064SOL    HW217652   3.114   4.606  17.310 -2.1571 -0.9828  2.8673
 2065SOL     OW17653   2.538   4.483   4.776 -0.0398  0.0289 -0.2889
 2065SOL    HW117654   2.461   4.428   4.758 -1.3579  1.7658  0.1052
 2065SOL    HW217655   2.576   4.485   4.688  0.4517  0.0079 -0.0764
 2066SOL     OW17656   2.175   3.403  17.090 -0.4937  0.1910  0.0099
 2066SOL    HW117657   2.213   3.404  17.003  0.8727  0.9287  0.6067
 2066SOL    HW217658   2.109   3.334  17.083  2.8281 -3.1076  1.7180
 2067SOL     OW17659   3.790   3.248   6.549 -0.4749  0.3962  0.4933
 2067SOL    HW117660   3.868   3.297   6.524 -1.0638  1.1304  0.0879
 2067SOL    HW217661   3.828   3.161   6.557  0.5147  0.6130 -1.9149
 2068SOL     OW17662   1.676   3.071   7.989  0.0313 -0.2797 -0.1800
 2068SOL    HW117663   1.631   3.131   7.929  0.5685  0.1044 -0.2060
 2068SOL    HW217664   1.667   3.119   8.071  1.3038 -1.3398  0.5701
 2069SOL     OW17665   2.643   1.301   6.531 -0.3443  0.3812 -0.5710
 2069SOL    HW117666   2.554   1.271   6.510 -0.2068 -1.4930  1.5123
 2069SOL    HW217667   2.619   1.369   6.595  1.4203  0.8928 -0.4504
 2070SOL     OW17668   1.915   2.523   5.131 -0.1620 -0.1077 -0.3150
 2070SOL    HW117669   2.005   2.510   5.163 -0.2951 -0.9839 -0.3158
 2070SOL    HW217670   1.929   2.596   5.071 -0.9361  0.6076  0.3743
 2071SOL     OW17671   0.919   0.809   1.568 -0.0125 -0.3736 -0.2509
 2071SOL    HW117672   0.983   0.753   1.611  0.4140  0.2438 -0.0884
 2071SOL    HW217673   0.957   0.893   1.595 -0.3953  0.1760 -1.4419
 2072SOL     OW17674   4.345   0.237   8.776 -0.4491  0.9450  0.4745
 2072SOL    HW117675   4.378   0.230   8.866 -0.8454  0.0778  0.5436
 2072SOL    HW217676   4.278   0.301   8.801 -0.3791  1.1607  0.1189
 2073SOL     OW17677   1.706   2.628  13.773 -0.5522 -0.1743  0.2551
 2073SOL    HW117678   1.682   2.540  13.744  1.6608 -0.3491 -1.0996
 2073SOL    HW217679   1.784   2.598  13.819  1.3004  1.8949 -1.5038
 2074SOL     OW17680   3.426   0.796   4.227  0.3309 -0.0580 -0.0660
 2074SOL    HW117681   3.441   0.863   4.293 -0.5473  0.1684 -0.1037
 2074SOL    HW217682   3.430   0.839   4.141 -2.0109  0.1743 -0.0713
 2075SOL     OW17683   3.453   3.320   1.708 -0.0876 -0.7036 -0.5024
 2075SOL    HW117684   3.357   3.330   1.711 -0.2433 -2.0552 -0.8043
 2075SOL    HW217685   3.461   3.258   1.781 -1.9211 -1.5072 -0.9822
 2076SOL     OW17686   2.492   0.054  16.407  0.3290 -0.1524 -0.3345
 2076SOL    HW117687   2.509   0.131  16.354 -0.2744 -1.8657 -3.0112
 2076SOL    HW217688   2.539   4.714  16.356 -0.4087  0.1304 -1.3747
 2077SOL     OW17689   3.446   3.707   7.458 -0.3473 -0.2588 -0.3399
 2077SOL    HW117690   3.374   3.682   7.401 -1.3954  2.4493 -0.1830
 2077SOL    HW217691   3.450   3.801   7.440 -0.0178 -0.0692  0.7246
 2078SOL     OW17692   4.547   0.735   7.102 -0.4916  0.2077 -0.0475
 2078SOL    HW117693   4.492   0.742   7.024 -1.5286  0.0570  0.6653
 2078SOL    HW217694   4.474   0.709   7.159  0.7948 -1.4890  0.8190
 2079SOL     OW17695   3.954   3.138   5.335  0.4273  0.0534  0.1229
 2079SOL    HW117696   3.916   3.212   5.382  1.6925  0.1956  0.9360
 2079SOL    HW217697   3.976   3.187   5.255 -0.5784  0.6378  0.2086
 2080SOL     OW17698   4.309   0.381  15.010  0.2978  0.5928 -0.0936
 2080SOL    HW117699   4.241   0.387  14.944 -0.8826 -1.6271  0.9061
 2080SOL    HW217700   4.280   0.445  15.075  0.7641 -0.6764  1.3922
 2081SOL     OW17701   0.302   0.802   8.412 -0.0595  0.3419  0.0927
 2081SOL    HW117702   0.277   0.710   8.415  1.4445 -0.0867 -0.6418
 2081SOL    HW217703   0.280   0.819   8.321  0.6113  0.1733 -0.0990
 2082SOL     OW17704   4.539   3.414   6.898  0.2631  0.0879 -0.0026
 2082SOL    HW117705   4.589   3.489   6.866  0.3297 -0.4820 -1.1997
 2082SOL    HW217706   4.447   3.430   6.876  1.0819 -1.3021 -4.3576
 2083SOL     OW17707   0.180   2.566  13.334 -0.2935 -0.2268  0.1759
 2083SOL    HW117708   0.248   2.592  13.272 -0.2070  2.7215  1.4977
 2083SOL    HW217709   0.176   2.651  13.377 -0.4059 -0.4833  0.6766
 2084SOL     OW17710   3.695   1.873   3.982  0.1216  0.2120 -0.2793
 2084SOL    HW117711   3.722   1.785   3.957 -0.8770  0.6071 -2.7322
 2084SOL    HW217712   3.785   1.906   3.989  0.1112  0.3569 -0.8159
 2085SOL     OW17713   0.360   3.730   5.056 -0.0701  0.2042 -1.3653
 2085SOL    HW117714   0.333   3.639   5.047  2.1491 -0.6116  0.2264
 2085SOL    HW217715   0.336   3.741   5.148 -0.9117 -1.4496 -1.3844
 2086SOL     OW17716   2.983   0.841   6.437 -0.2811 -0.0947 -0.2205
 2086SOL    HW117717   2.961   0.922   6.391 -0.5774 -0.1760 -0.2234
 2086SOL    HW217718   3.020   0.881   6.516 -0.5610 -1.3649  0.5698
 2087SOL     OW17719   2.801   2.954   7.668 -0.0349  0.5560  0.2874
 2087SOL    HW117720   2.824   3.017   7.737 -0.6196  1.7231 -0.5866
 2087SOL    HW217721   2.708   2.943   7.686 -0.2553 -0.5987 -1.6991
 2088SOL     OW17722   0.620   2.198   0.646 -1.5917 -0.2387  0.0541
 2088SOL    HW117723   0.631   2.118   0.698  1.1304 -0.1967 -0.4706
 2088SOL    HW217724   0.546   2.239   0.690 -1.5586  0.2110 -0.3049
 2089SOL     OW17725   1.663   1.927  13.090  0.0560  0.1780 -0.3495
 2089SOL    HW117726   1.578   1.920  13.133 -0.3620  0.0719 -1.1912
 2089SOL    HW217727   1.729   1.902  13.155 -0.7610  0.8749  0.7446
 2090SOL     OW17728   2.364   2.378   7.500 -0.0749  0.0090 -0.2902
 2090SOL    HW117729   2.422   2.425   7.559  2.6160 -1.0255 -2.1010
 2090SOL    HW217730   2.345   2.299   7.550 -0.0899 -0.5213 -1.1214
 2091SOL     OW17731   0.709   3.215   2.818 -0.1112 -0.0823 -0.5585
 2091SOL    HW117732   0.680   3.273   2.888  0.4573  1.3565 -1.5328
 2091SOL    HW217733   0.774   3.162   2.864 -2.2533 -1.2160  1.1922
 2092SOL     OW17734   3.648   3.438   5.242  0.4488 -0.8870  0.8788
 2092SOL    HW117735   3.558   3.427   5.211  0.0983 -0.0943  1.6227
 2092SOL    HW217736   3.691   3.416   5.159 -0.8400 -1.5337  0.3775
 2093SOL     OW17737   3.087   0.508  13.822  0.2594 -0.2673  0.0704
 2093SOL    HW117738   3.047   0.527  13.736 -0.5810 -1.3101  0.2206
 2093SOL    HW217739   3.009   0.501  13.877 -0.4080 -0.5186 -0.8908
 2094SOL     OW17740   2.649   3.193  12.528 -0.7003  0.2455 -0.5498
 2094SOL    HW117741   2.612   3.176  12.614 -1.1280  1.5329 -0.4687
 2094SOL    HW217742   2.718   3.250  12.562 -0.9615 -0.0049  0.3858
 2095SOL     OW17743   0.414   3.649  15.563  0.0761  0.3322 -0.2047
 2095SOL    HW117744   0.466   3.572  15.588 -2.0731 -0.9355  0.3515
 2095SOL    HW217745   0.405   3.683  15.652  1.1938 -0.9161  0.3871
 2096SOL     OW17746   3.613   3.886  14.675 -0.0424 -0.5343  0.2354
 2096SOL    HW117747   3.671   3.922  14.609 -0.4240  0.8025  0.6240
 2096SOL    HW217748   3.673   3.866  14.747  0.9114  0.4996 -0.2962
 2097SOL     OW17749   0.144   3.914   8.361 -0.2437  0.0393  0.4279
 2097SOL    HW117750   0.059   3.876   8.340  0.7749 -2.0463  0.0878
 2097SOL    HW217751   0.195   3.834   8.377  0.3335 -0.1471 -2.3961
 2098SOL     OW17752   1.866   3.638  12.239 -0.2275 -0.2888 -0.5353
 2098SOL    HW117753   1.885   3.544  12.232  0.5163 -0.2046  0.3722
 2098SOL    HW217754   1.799   3.641  12.307  0.0523 -0.0336 -0.2707
 2099SOL     OW17755   3.485   1.597   3.776  0.5211 -0.4223 -0.4542
 2099SOL    HW117756   3.433   1.570   3.701  0.3805 -0.8993 -0.1878
 2099SOL    HW217757   3.576   1.576   3.755  1.0485  0.6756  0.6900
 2100SOL     OW17758   0.092   4.591  12.081 -0.0917 -0.3170  0.2200
 2100SOL    HW117759   0.075   4.557  12.169  0.3691 -2.7253 -0.6358
 2100SOL    HW217760   0.184   4.570  12.064 -0.2181 -1.6024  1.1635
 2101SOL     OW17761   2.909   0.711   9.138  0.1191  0.1819 -0.4820
 2101SOL    HW117762   2.986   0.655   9.146 -1.6238 -2.2717 -0.7783
 2101SOL    HW217763   2.932   0.776   9.204  0.1351 -2.0619  1.7299
 2102SOL     OW17764   1.908   0.726   1.971  0.1666  0.2905  0.2492
 2102SOL    HW117765   1.937   0.635   1.965 -0.2310  0.2070 -0.3866
 2102SOL    HW217766   1.842   0.737   1.903  0.1367  2.6532  0.6818
 2103SOL     OW17767   3.422   4.672   5.792  0.6377 -0.1059 -0.2729
 2103SOL    HW117768   3.332   4.685   5.822  0.4065 -2.9207  0.2145
 2103SOL    HW217769   3.406   4.591   5.745  0.2772 -0.4622  0.4664
 2104SOL     OW17770   4.468   3.226   2.172  0.6072 -0.0977 -0.4441
 2104SOL    HW117771   4.488   3.201   2.082 -0.7514  1.9842 -1.3419
 2104SOL    HW217772   4.449   3.320   2.165  0.1996 -0.2669 -1.5120
 2105SOL     OW17773   3.582   2.596   6.840  0.6622  0.0782  0.5497
 2105SOL    HW117774   3.580   2.558   6.928  2.2294 -0.1098  0.5066
 2105SOL    HW217775   3.590   2.514   6.792 -2.4473 -0.1569  0.4572
 2106SOL     OW17776   1.522   0.421   5.927 -0.2517  0.2067  0.3067
 2106SOL    HW117777   1.604   0.381   5.957  0.4569  0.4208 -1.3441
 2106SOL    HW217778   1.552   0.460   5.845  0.9550 -2.9210 -0.7626
 2107SOL     OW17779   2.496   0.692   6.151  0.0217  0.6189 -0.0913
 2107SOL    HW117780   2.577   0.736   6.176  0.1240  0.5584 -0.3164
 2107SOL    HW217781   2.455   0.694   6.238  1.1729  0.0642  0.4676
 2108SOL     OW17782   1.753   3.578  14.945  0.7834  0.6733  0.0262
 2108SOL    HW117783   1.788   3.522  15.014  2.5057  1.1205 -0.4838
 2108SOL    HW217784   1.708   3.646  14.995 -1.2129  0.9156 -2.1313
 2109SOL     OW17785   2.938   1.981   5.834 -0.6335 -0.1019  0.0511
 2109SOL    HW117786   2.925   1.886   5.839  1.6142 -0.3504  1.1089
 2109SOL    HW217787   2.933   1.992   5.739  1.3399 -1.0321 -0.1509
 2110SOL     OW17788   3.163   4.183   6.584  0.1096  0.0933 -0.2620
 2110SOL    HW117789   3.164   4.097   6.627 -1.4646 -0.1486 -0.7397
 2110SOL    HW217790   3.126   4.237   6.654  0.5311  0.6205 -0.4447
 2111SOL     OW17791   1.230   2.979   2.700 -0.0633 -1.1092 -0.3331
 2111SOL    HW117792   1.304   2.992   2.641 -0.0380  0.4856  0.0657
 2111SOL    HW217793   1.252   2.897   2.746  0.7344 -1.5783 -1.5463
 2112SOL     OW17794   3.294   2.337   2.929 -0.4187 -0.0635 -0.3728
 2112SOL    HW117795   3.237   2.413   2.927 -1.0967 -0.5442  0.3898
 2112SOL    HW217796   3.336   2.347   3.015 -2.0771  0.6829  0.3496
 2113SOL     OW17797   3.517   1.209   2.466 -0.1353 -0.1551 -0.0719
 2113SOL    HW117798   3.604   1.185   2.498 -0.9974 -0.0458  2.3579
 2113SOL    HW217799   3.457   1.158   2.520 -0.8364 -1.5831 -2.2120
 2114SOL     OW17800   3.551   2.864   4.703 -0.2988 -0.1769  0.2456
 2114SOL    HW117801   3.630   2.892   4.658 -1.1195  0.6613 -0.6932
 2114SOL    HW217802   3.522   2.940   4.754 -0.7800  0.2964 -0.7246
 2115SOL     OW17803   4.424   1.884   0.262  0.1439 -0.2756 -0.4972
 2115SOL    HW117804   4.392   1.818   0.200 -3.4862 -0.2069  1.2471
 2115SOL    HW217805   4.472   1.948   0.209 -1.1396  0.6116 -0.6031
 2116SOL     OW17806   2.355   4.428   7.176 -0.1629 -0.1451 -0.1659
 2116SOL    HW117807   2.279   4.371   7.175  0.2284 -0.6312 -2.1924
 2116SOL    HW217808   2.326   4.492   7.241  1.4842  0.3963  0.0402
 2117SOL     OW17809   4.695   3.423   3.658  0.3917 -0.0990  0.0667
 2117SOL    HW117810   0.040   3.467   3.705 -0.0772 -1.5165  2.1560
 2117SOL    HW217811   0.018   3.371   3.595 -0.3243 -0.1615 -0.4308
 2118SOL     OW17812   3.422   3.841  12.542  0.0839 -0.0715 -0.4426
 2118SOL    HW117813   3.429   3.890  12.624  0.4514  0.1786 -0.6218
 2118SOL    HW217814   3.357   3.895  12.496 -1.3727 -0.1346  1.5525
 2119SOL     OW17815   4.437   3.373   3.553  0.1167  0.1371 -0.4583
 2119SOL    HW117816   4.520   3.398   3.593 -0.5206 -1.2415  1.7161
 2119SOL    HW217817   4.446   3.383   3.458  2.8947 -2.9046 -0.5068
 2120SOL     OW17818   4.110   1.353  13.054 -0.3695  0.2211  0.5007
 2120SOL    HW117819   4.160   1.273  13.035 -1.0593  0.2453 -1.4105
 2120SOL    HW217820   4.056   1.329  13.129 -1.7701 -0.6823 -0.8000
 2121SOL     OW17821   4.504   0.977   7.713  0.0504  0.1557  0.4268
 2121SOL    HW117822   4.469   0.901   7.760 -2.4315  1.7328  1.1374
 2121SOL    HW217823   4.483   1.056   7.763 -0.0233  0.1510  0.4040
 2122SOL     OW17824   1.506   0.005   4.429 -0.9024 -0.4034  0.2957
 2122SOL    HW117825   1.569   4.693   4.368 -1.0689  1.6493 -1.1813
 2122SOL    HW217826   1.533   0.096   4.433 -1.5509 -0.1740 -0.5319
 2123SOL     OW17827   3.710   0.716   9.619  0.0691  0.4917  0.1512
 2123SOL    HW117828   3.637   0.674   9.574  1.3860 -1.7900  0.1245
 2123SOL    HW217829   3.667   0.798   9.641 -1.5195 -0.8365  2.0245
 2124SOL     OW17830   2.474   4.559   8.362  0.0552 -0.6183 -0.0293
 2124SOL    HW117831   2.390   4.568   8.407  0.6788  1.7197  0.6045
 2124SOL    HW217832   2.440   4.506   8.289  0.5541 -0.5196 -0.3355
 2125SOL     OW17833   1.649   0.732   0.309 -0.1655 -0.4511  0.0409
 2125SOL    HW117834   1.659   0.709   0.217  0.2850  0.3943 -0.1159
 2125SOL    HW217835   1.722   0.684   0.347 -0.3262 -1.8787 -1.4576
 2126SOL     OW17836   0.241   3.873   9.490 -0.8110  0.0235  0.8703
 2126SOL    HW117837   0.303   3.810   9.454 -0.6460  1.5285 -1.4510
 2126SOL    HW217838   0.258   3.944   9.429 -0.4722 -1.3278 -0.5956
 2127SOL     OW17839   1.064   3.038  12.669  0.2277 -0.3003  0.5863
 2127SOL    HW117840   0.986   3.027  12.614  1.8854  2.5220 -2.3503
 2127SOL    HW217841   1.124   3.083  12.609  0.4415  0.9454  1.7537
 2128SOL     OW17842   0.260   2.005  13.517 -0.6273  0.4264 -0.0658
 2128SOL    HW117843   0.265   2.089  13.564  0.0700 -0.5517  1.6165
 2128SOL    HW217844   0.199   1.952  13.568  2.4169 -1.0445  2.0409
 2129SOL     OW17845   1.442   2.895   4.433  0.3233 -0.1636  0.3535
 2129SOL    HW117846   1.452   2.989   4.450 -0.3761  0.2401 -1.5501
 2129SOL    HW217847   1.424   2.896   4.339  2.2987 -0.3316 -0.0315
 2130SOL     OW17848   3.063   4.139   3.353 -0.7578 -0.4939  0.6517
 2130SOL    HW117849   2.999   4.093   3.408 -0.7974  0.5064  1.4474
 2130SOL    HW217850   3.058   4.092   3.270  1.6203  2.1408 -0.9656
 2131SOL     OW17851   0.050   4.606  16.314 -0.2686 -0.3194 -0.1409
 2131SOL    HW117852   0.009   4.609  16.227 -1.3347  1.0376  0.4002
 2131SOL    HW217853   0.101   4.526  16.305 -1.2368 -1.0610  0.9811
 2132SOL     OW17854   4.304   1.428   3.394 -0.4710  0.0866 -0.4208
 2132SOL    HW117855   4.391   1.390   3.383 -0.8475 -0.6159 -0.9778
 2132SOL    HW217856   4.334   1.519   3.392  1.0496 -0.4482 -2.0331
 2133SOL     OW17857   1.364   1.857   3.348 -0.5497  0.3220  0.2238
 2133SOL    HW117858   1.338   1.799   3.419 -2.5935  0.7917 -0.1218
 2133SOL    HW217859   1.418   1.921   3.395  0.9367  0.3332 -1.4764
 2134SOL     OW17860   0.250   2.100   1.740 -0.6138  0.0721 -0.2190
 2134SOL    HW117861   0.179   2.164   1.745 -0.6868  0.1116 -1.7487
 2134SOL    HW217862   0.315   2.134   1.679 -1.1717  2.3208  0.4452
 2135SOL     OW17863   2.266   2.249   7.793  0.0893  0.2671  0.2828
 2135SOL    HW117864   2.231   2.172   7.837 -0.5807  1.5173  1.9124
 2135SOL    HW217865   2.244   2.310   7.864  1.3040  0.9144  0.1045
 2136SOL     OW17866   0.072   2.072   9.659 -0.1009 -0.3341 -0.4575
 2136SOL    HW117867   0.036   2.028   9.736  1.6780 -1.3098 -0.1789
 2136SOL    HW217868   0.134   2.013   9.617  0.4401 -0.3067  0.2974
 2137SOL     OW17869   4.623   3.399   5.909  0.0466  0.1145  0.6765
 2137SOL    HW117870   4.705   3.351   5.899 -0.0101  0.0759  0.3889
 2137SOL    HW217871   4.570   3.321   5.892 -0.5360  1.1429 -2.2330
 2138SOL     OW17872   0.119   0.258  11.321 -0.1900  0.5508  0.4218
 2138SOL    HW117873   0.057   0.191  11.351  0.7297  0.0005  1.0662
 2138SOL    HW217874   0.187   0.237  11.384  0.9910  3.1602  0.0250
 2139SOL     OW17875   0.042   4.005  13.435 -0.0804  0.5414 -0.7120
 2139SOL    HW117876   0.018   4.017  13.527 -0.2889  1.1123 -0.8393
 2139SOL    HW217877   0.006   3.919  13.414 -0.3187  1.0090 -2.2454
 2140SOL     OW17878   1.394   3.157  15.683  0.3407  0.0189  0.1232
 2140SOL    HW117879   1.364   3.075  15.645 -1.5754  1.4754 -1.5262
 2140SOL    HW217880   1.472   3.173  15.631  0.2131  1.4823  0.3694
 2141SOL     OW17881   2.001   3.128  12.553 -0.1976 -0.8184 -0.9178
 2141SOL    HW117882   1.992   3.166  12.641 -3.3125  0.8945 -1.9617
 2141SOL    HW217883   1.912   3.100  12.532 -0.2948 -1.3265  0.1667
 2142SOL     OW17884   1.644   4.643   2.308 -0.1202 -0.2553  0.8484
 2142SOL    HW117885   1.570   4.607   2.356 -0.5157 -1.6102 -0.7721
 2142SOL    HW217886   1.601   4.658   2.224  0.8360 -3.3580 -0.2011
 2143SOL     OW17887   1.073   1.718   2.184  0.0390 -0.0596  0.6765
 2143SOL    HW117888   1.070   1.796   2.238  2.1854  0.7587 -0.3726
 2143SOL    HW217889   1.165   1.696   2.199  0.0066 -1.7413 -1.5291
 2144SOL     OW17890   0.871   4.070   2.349  0.1823  0.1723  0.2268
 2144SOL    HW117891   0.868   3.976   2.331 -1.6424 -0.0183  1.6213
 2144SOL    HW217892   0.942   4.096   2.290 -0.4563  0.4813 -0.4121
 2145SOL     OW17893   2.917   0.375   1.903  0.6028 -0.1282  0.2789
 2145SOL    HW117894   2.936   0.367   1.809  0.6388  0.6623  0.2120
 2145SOL    HW217895   2.826   0.402   1.908  0.3272 -1.5216  2.4194
 2146SOL     OW17896   0.192   3.528   7.461  0.2041 -0.4246 -0.5766
 2146SOL    HW117897   0.252   3.485   7.522 -0.0747 -0.2923 -0.2091
 2146SOL    HW217898   0.249   3.544   7.385 -1.7743 -0.9126 -2.1509
 2147SOL     OW17899   0.641   1.903   6.157 -0.3670  0.0509 -0.6682
 2147SOL    HW117900   0.596   1.822   6.183 -2.1467  0.6294 -1.9748
 2147SOL    HW217901   0.648   1.957   6.236  0.5185 -2.1797  0.7915
 2148SOL     OW17902   2.025   4.388   4.061 -0.3416  0.1052 -0.4896
 2148SOL    HW117903   2.072   4.306   4.043 -1.6835 -0.6756 -0.4208
 2148SOL    HW217904   1.935   4.357   4.056 -0.8139  1.5890 -1.0249
 2149SOL     OW17905   0.387   3.062  14.976 -0.0905  0.2302 -0.4687
 2149SOL    HW117906   0.413   3.058  14.884 -3.8320 -0.9884 -1.4529
 2149SOL    HW217907   0.401   2.972  15.005 -0.4249  0.6904  1.1775
 2150SOL     OW17908   1.323   4.597   2.885  0.0237 -0.0786  0.9827
 2150SOL    HW117909   1.312   4.505   2.907 -2.2882 -0.2501 -0.8482
 2150SOL    HW217910   1.418   4.602   2.897  0.3459  0.4542 -1.6354
 2151SOL     OW17911   1.023   0.845   7.910 -0.1576 -0.1686  0.5007
 2151SOL    HW117912   1.009   0.915   7.974 -1.8588 -0.8490  0.8640
 2151SOL    HW217913   1.041   0.767   7.963 -1.3130  0.8174  2.3502
 2152SOL     OW17914   3.822   3.557   9.514 -0.1411  0.0022 -0.2868
 2152SOL    HW117915   3.893   3.599   9.466  0.7052 -0.0395  0.9088
 2152SOL    HW217916   3.744   3.598   9.478 -0.1538  0.4717  0.2733
 2153SOL     OW17917   0.726   2.798   8.481  0.0456  0.3217 -0.9150
 2153SOL    HW117918   0.763   2.723   8.528 -0.4927  1.8890  2.0259
 2153SOL    HW217919   0.720   2.771   8.389 -0.9124  0.5510 -0.9240
 2154SOL     OW17920   1.619   0.974   6.562 -0.4848  0.0384  0.0653
 2154SOL    HW117921   1.682   0.902   6.561  1.0969  1.4481 -0.4205
 2154SOL    HW217922   1.668   1.046   6.522  0.0357  0.6726  1.8441
 2155SOL     OW17923   1.634   0.699   4.676  0.1421  0.2185 -0.5114
 2155SOL    HW117924   1.599   0.612   4.658 -5.1334  2.5118 -1.4928
 2155SOL    HW217925   1.634   0.693   4.772  0.3263 -1.0561 -0.5837
 2156SOL     OW17926   0.120   0.666   9.135 -0.4086  0.3895  0.0453
 2156SOL    HW117927   0.100   0.576   9.161 -0.9962  0.2517 -0.8957
 2156SOL    HW217928   0.204   0.680   9.179  1.3772 -1.5882 -2.7479
 2157SOL     OW17929   4.487   4.226  12.537 -0.6594  0.2901  0.1712
 2157SOL    HW117930   4.499   4.136  12.568  0.4322  0.3978  0.0300
 2157SOL    HW217931   4.541   4.270  12.603  1.8163 -0.9796 -1.0158
 2158SOL     OW17932   0.033   0.317   3.304 -0.3266 -0.1367 -0.2444
 2158SOL    HW117933   0.061   0.380   3.238 -1.5425 -1.1583 -1.7482
 2158SOL    HW217934   4.665   0.335   3.303 -0.2718  0.1913  0.3364
 2159SOL     OW17935   1.297   3.569   8.758 -0.2490  0.0799  0.7292
 2159SOL    HW117936   1.243   3.505   8.711 -1.6821  1.0762  1.0181
 2159SOL    HW217937   1.375   3.555   8.704 -1.1028 -1.8985 -0.0066
 2160SOL     OW17938   3.679   2.566   4.411  0.6997 -0.1338  0.0568
 2160SOL    HW117939   3.752   2.580   4.471  1.2304  0.0510 -0.6318
 2160SOL    HW217940   3.602   2.555   4.466  0.2570 -1.5378 -0.8436
 2161SOL     OW17941   3.273   0.795   3.748  0.1559 -0.2733  0.3000
 2161SOL    HW117942   3.219   0.861   3.705  2.2742  0.6021 -0.9922
 2161SOL    HW217943   3.213   0.721   3.740  0.2079 -0.1656 -1.0266
 2162SOL     OW17944   0.512   1.577   8.811  0.6837  0.0705 -0.1325
 2162SOL    HW117945   0.471   1.491   8.815 -1.0840  0.9773  1.1351
 2162SOL    HW217946   0.482   1.597   8.722 -0.8140  1.1558  0.6108
 2163SOL     OW17947   3.949   2.400  15.742 -0.4468  0.5956 -0.4168
 2163SOL    HW117948   3.970   2.391  15.649 -2.2813 -0.0486 -0.7677
 2163SOL    HW217949   3.869   2.451  15.728 -2.1839 -1.6889  1.0820
 2164SOL     OW17950   0.543   4.722  13.281 -0.5104  0.0653  0.0664
 2164SOL    HW117951   0.510   4.702  13.369 -0.7382  0.5711  0.0938
 2164SOL    HW217952   0.471   0.047  13.243  0.2978  0.8983 -0.3377
 2165SOL     OW17953   1.425   2.295   5.698 -0.0636  0.5820 -0.0916
 2165SOL    HW117954   1.424   2.219   5.639 -1.6701 -0.7195  1.6187
 2165SOL    HW217955   1.515   2.286   5.730 -1.0235  0.4534  2.5798
 2166SOL     OW17956   1.243   0.794   1.414  0.3908 -0.0576  0.0104
 2166SOL    HW117957   1.334   0.801   1.444  0.3991 -1.6918  0.3830
 2166SOL    HW217958   1.258   0.748   1.332  1.7648  0.3503  0.0382
 2167SOL     OW17959   3.569   0.123   6.466  0.1321 -0.6282  0.1273
 2167SOL    HW117960   3.570   0.108   6.371 -0.2344 -0.5319  0.1076
 2167SOL    HW217961   3.572   0.219   6.467  1.2311 -0.6504 -0.6710
 2168SOL     OW17962   4.386   4.111   7.539 -0.0227  0.4927 -0.2272
 2168SOL    HW117963   4.434   4.065   7.470 -0.7316 -0.7674  0.1267
 2168SOL    HW217964   4.323   4.144   7.476  0.7136 -0.0119 -1.2296
 2169SOL     OW17965   0.161   2.430   5.341  1.0645 -0.1554 -0.2116
 2169SOL    HW117966   0.156   2.474   5.257 -0.6711  1.6279  0.8249
 2169SOL    HW217967   0.210   2.492   5.395 -2.0577  2.5600 -0.5271
 2170SOL     OW17968   1.406   0.470   3.023  0.0320  0.5479  0.7637
 2170SOL    HW117969   1.318   0.472   2.985  0.6954 -0.4257 -0.8051
 2170SOL    HW217970   1.401   0.411   3.099 -0.6401  0.0123  0.3025
 2171SOL     OW17971   0.942   3.932   7.715  0.2831  0.3536 -0.3606
 2171SOL    HW117972   0.983   4.014   7.745 -0.2785  0.5555 -0.1418
 2171SOL    HW217973   0.852   3.964   7.705 -0.3865 -1.6352 -0.7051
 2172SOL     OW17974   3.525   2.950  16.699 -0.0313 -0.5504  0.1511
 2172SOL    HW117975   3.497   3.035  16.665 -0.3438 -0.7947 -0.1997
 2172SOL    HW217976   3.462   2.887  16.663  1.9348 -1.9122 -0.9110
 2173SOL     OW17977   3.039   3.931   5.770  0.3425  0.0972  0.0383
 2173SOL    HW117978   3.126   3.939   5.730  0.6463  0.6453  0.8139
 2173SOL    HW217979   3.054   3.959   5.861  1.5903  4.5964 -1.5495
 2174SOL     OW17980   3.931   2.276   5.060 -0.0139 -0.6030 -0.5108
 2174SOL    HW117981   3.977   2.350   5.019 -0.8670  0.5796  0.6507
 2174SOL    HW217982   3.909   2.228   4.981 -0.3280  0.3874 -1.0290
 2175SOL     OW17983   1.211   0.042   7.262  0.3338 -0.2588  0.0746
 2175SOL    HW117984   1.293   0.086   7.286  0.2368 -1.0594  1.9056
 2175SOL    HW217985   1.246   4.708   7.196 -1.4702  0.5929 -1.6362
 2176SOL     OW17986   2.035   4.717   7.019  0.5431 -0.4534 -0.2881
 2176SOL    HW117987   2.014   0.010   6.928 -0.5052 -0.6803 -0.0968
 2176SOL    HW217988   2.057   0.080   7.044  0.5849 -0.1130 -1.5775
 2177SOL     OW17989   1.081   4.128   9.129 -0.2393  0.1475 -0.4933
 2177SOL    HW117990   1.137   4.204   9.148 -2.4836  0.6769  3.8939
 2177SOL    HW217991   1.004   4.172   9.092 -0.5409  1.0958  1.2536
 2178SOL     OW17992   3.506   3.539  12.216  0.7465 -0.2220  0.6335
 2178SOL    HW117993   3.592   3.526  12.176  0.0304 -1.4680 -0.4922
 2178SOL    HW217994   3.487   3.448  12.240 -2.7651  0.4294  0.3842
 2179SOL     OW17995   2.062   1.668   5.452 -0.0343 -0.3970  0.0635
 2179SOL    HW117996   2.002   1.741   5.437  1.6723  0.9760 -0.2066
 2179SOL    HW217997   2.143   1.701   5.411 -0.0390 -0.5439 -0.0637
 2180SOL     OW17998   3.419   3.673   6.731  0.1361 -0.2628 -0.4613
 2180SOL    HW117999   3.496   3.716   6.769 -1.8314  1.6713  1.3959
 2180SOL    HW218000   3.462   3.615   6.669  0.5155 -0.4477 -0.0238
 2181SOL     OW18001   1.598   1.950  13.423 -0.9320  0.2703 -0.2766
 2181SOL    HW118002   1.549   1.909  13.494  0.4612 -2.1662 -0.7142
 2181SOL    HW218003   1.551   1.901  13.356 -2.2954 -1.8758  2.2505
 2182SOL     OW18004   2.160   0.798   7.127 -0.0521  0.2194 -0.2173
 2182SOL    HW118005   2.221   0.724   7.127  0.0359  0.2921 -1.1179
 2182SOL    HW218006   2.135   0.817   7.218 -0.8359 -2.6359  0.1631
 2183SOL     OW18007   2.515   2.059   1.180 -0.1769 -0.0309  0.0871
 2183SOL    HW118008   2.546   2.139   1.137 -0.5096 -0.8923 -1.7275
 2183SOL    HW218009   2.435   2.085   1.225  0.1719  0.3889  0.4757
 2184SOL     OW18010   2.233   1.754   6.261  0.3268 -0.3916  0.5969
 2184SOL    HW118011   2.194   1.831   6.219 -1.3721 -1.7447 -0.3219
 2184SOL    HW218012   2.159   1.702   6.293  0.5506 -0.7989  0.4584
 2185SOL     OW18013   2.261   2.091   7.319  0.5075  0.2954 -0.5056
 2185SOL    HW118014   2.353   2.072   7.337  1.4764  3.3344 -2.2904
 2185SOL    HW218015   2.270   2.166   7.260 -1.2290  1.3544  0.5733
 2186SOL     OW18016   2.015   0.025  16.323 -0.5843  0.5697 -0.1305
 2186SOL    HW118017   2.073   0.101  16.324  1.3290 -0.9128  0.9958
 2186SOL    HW218018   2.069   4.692  16.271 -0.9069  0.3935 -0.2600
 2187SOL     OW18019   1.118   4.256   6.742  0.1584  0.3305 -0.7291
 2187SOL    HW118020   1.032   4.228   6.711  0.7542 -1.0214 -1.1629
 2187SOL    HW218021   1.121   4.350   6.720  0.2764  0.5991  0.4496
 2188SOL     OW18022   0.453   3.288   2.314  0.1419 -0.4318  0.3702
 2188SOL    HW118023   0.460   3.313   2.222 -0.2983  1.2054  0.7700
 2188SOL    HW218024   0.365   3.249   2.315  0.4513 -1.1307 -0.3185
 2189SOL     OW18025   0.581   2.402   8.772 -0.2598 -0.1310 -0.1405
 2189SOL    HW118026   0.519   2.443   8.712  0.9918  0.4814 -1.0110
 2189SOL    HW218027   0.591   2.313   8.739  0.5346  0.0214 -0.2963
 2190SOL     OW18028   3.239   2.820   2.535 -0.2152  0.3305  0.1427
 2190SOL    HW118029   3.146   2.812   2.558 -0.2236  0.7697  0.2516
 2190SOL    HW218030   3.276   2.786   2.616  0.5201 -0.0298 -0.3400
 2191SOL     OW18031   0.489   2.099   4.763  0.1060 -0.4430 -0.8091
 2191SOL    HW118032   0.396   2.081   4.775  0.0569  0.4868  0.2753
 2191SOL    HW218033   0.507   2.146   4.845  0.2003  0.7988 -1.5359
 2192SOL     OW18034   1.631   3.682  12.678 -0.4517 -0.2861  0.0827
 2192SOL    HW118035   1.664   3.605  12.725  2.5732  0.2957 -1.1010
 2192SOL    HW218036   1.573   3.646  12.610  0.2187 -0.0603 -0.6045
 2193SOL     OW18037   0.529   4.081  16.565 -0.1416 -0.1079  0.0048
 2193SOL    HW118038   0.619   4.109  16.548  0.5657 -3.2600 -1.3489
 2193SOL    HW218039   0.536   3.986  16.566  1.4757  0.0025 -0.8326
 2194SOL     OW18040   1.701   4.608  14.682 -0.1620 -0.1942  0.4960
 2194SOL    HW118041   1.725   4.529  14.633 -2.5111 -0.5809 -0.0295
 2194SOL    HW218042   1.787   4.650  14.688 -0.2648  0.1400 -0.4007
 2195SOL     OW18043   2.201   3.115   6.307  0.1410  0.1357  0.0452
 2195SOL    HW118044   2.206   3.024   6.277  1.7384  1.1331 -2.7439
 2195SOL    HW218045   2.286   3.135   6.345  0.1495  0.3918 -0.1064
 2196SOL     OW18046   2.556   4.705   7.103 -0.1295 -0.4932 -0.5567
 2196SOL    HW118047   2.480   0.008   7.153  1.1299  1.1467  0.4292
 2196SOL    HW218048   2.522   4.656   7.028  0.9327 -0.6220 -0.9482
 2197SOL     OW18049   2.908   0.578   8.351  0.0941  0.0348 -0.5543
 2197SOL    HW118050   2.978   0.532   8.304 -0.4555 -0.3307 -1.0233
 2197SOL    HW218051   2.951   0.651   8.394 -0.8333 -0.8643  1.9100
 2198SOL     OW18052   3.360   2.047   7.798 -0.2110  0.2734 -0.2399
 2198SOL    HW118053   3.333   2.134   7.768  1.1047  1.1660  1.2144
 2198SOL    HW218054   3.293   1.991   7.758  0.3228 -0.1341 -0.5732
 2199SOL     OW18055   0.776   1.191  13.044 -0.0792  0.2879 -0.1583
 2199SOL    HW118056   0.823   1.269  13.075 -0.5955 -0.7676  3.3003
 2199SOL    HW218057   0.685   1.203  13.072  0.1779  1.0275  0.3801
 2200SOL     OW18058   2.803   3.003   0.972 -0.3388  0.4326  0.0894
 2200SOL    HW118059   2.887   3.038   1.001 -0.4069 -0.8019  1.7558
 2200SOL    HW218060   2.816   2.910   0.989 -2.9657  0.4885  2.3515
 2201SOL     OW18061   1.358   4.358  12.361 -0.1747 -0.5135  0.7324
 2201SOL    HW118062   1.389   4.435  12.313  0.4345 -2.1731 -1.5503
 2201SOL    HW218063   1.354   4.385  12.452 -1.6052 -0.3414  0.6222
 2202SOL     OW18064   3.539   0.064   6.752 -0.0536 -0.5567  0.5834
 2202SOL    HW118065   3.503   0.136   6.804  0.2925  0.4424 -0.5391
 2202SOL    HW218066   3.541   0.094   6.661 -0.3537  1.3150  1.1850
 2203SOL     OW18067   0.000   1.448   9.759 -0.1631  0.5325  0.1208
 2203SOL    HW118068   4.669   1.521   9.736 -0.9927  0.1924  1.1229
 2203SOL    HW218069   0.001   1.443   9.854 -1.0027  0.7733  0.1363
 2204SOL     OW18070   4.037   3.108  14.370 -0.4767  0.6911  0.3007
 2204SOL    HW118071   4.018   3.021  14.406 -0.0476  0.6366  0.4002
 2204SOL    HW218072   4.028   3.160  14.450  0.1019  0.3401  0.5957
 2205SOL     OW18073   3.635   1.368  11.163 -0.1524 -0.2516 -0.1495
 2205SOL    HW118074   3.583   1.440  11.129  1.1032  1.4678  1.5660
 2205SOL    HW218075   3.665   1.330  11.080 -1.1010 -0.2861 -0.4717
 2206SOL     OW18076   1.098   3.011   5.525 -0.1043  0.1805 -0.3907
 2206SOL    HW118077   1.046   2.931   5.531  0.3084 -0.1291 -0.9482
 2206SOL    HW218078   1.175   2.983   5.475  0.2920  0.6214 -0.0261
 2207SOL     OW18079   2.880   1.420  13.096 -0.4587  0.1891  0.9686
 2207SOL    HW118080   2.862   1.415  13.189  1.3312  0.2391  1.3121
 2207SOL    HW218081   2.875   1.515  13.083  1.6286  0.0577 -0.8879
 2208SOL     OW18082   0.459   4.712   7.696  0.5074 -0.2857 -0.8283
 2208SOL    HW118083   0.446   0.069   7.742 -0.3031  0.5056 -2.4884
 2208SOL    HW218084   0.551   0.002   7.674  0.4284 -1.6640 -2.1608
 2209SOL     OW18085   1.742   0.833   2.684  0.0677 -0.1249 -1.0300
 2209SOL    HW118086   1.800   0.883   2.626  0.5595 -0.9796 -1.2730
 2209SOL    HW218087   1.740   0.746   2.644  1.3163 -0.8556  0.5095
 2210SOL     OW18088   2.031   1.626  12.951 -0.0231  0.2573 -0.3988
 2210SOL    HW118089   2.100   1.565  12.925  0.3036  0.4722 -0.0239
 2210SOL    HW218090   2.034   1.685  12.875 -2.5955  1.2950  0.2935
 2211SOL     OW18091   0.824   0.420   5.877 -0.2250 -0.1813 -0.2681
 2211SOL    HW118092   0.893   0.383   5.822 -0.2854  0.6228 -0.8755
 2211SOL    HW218093   0.871   0.392   5.956  0.0827  0.9158 -0.0722
 2212SOL     OW18094   0.123   1.021   8.468  0.2559 -0.2532  0.6883
 2212SOL    HW118095   0.098   1.007   8.560  2.1977  2.0778  1.5724
 2212SOL    HW218096   0.124   0.931   8.438 -1.8737 -0.4305  1.1194
 2213SOL     OW18097   1.526   4.717   0.809  0.0406  0.1044 -0.5790
 2213SOL    HW118098   1.492   4.641   0.761 -0.5233 -0.1744  0.2761
 2213SOL    HW218099   1.446   0.025   0.848 -1.4633  0.3241 -3.8288
 2214SOL     OW18100   2.007   3.107  16.346 -0.2538  0.0321  0.0726
 2214SOL    HW118101   1.926   3.134  16.392  0.0971  0.3154  0.5264
 2214SOL    HW218102   1.977   3.122  16.256 -1.5758 -0.7240  0.3837
 2215SOL     OW18103   2.458   0.541  16.008 -0.0173  0.3781  0.5921
 2215SOL    HW118104   2.495   0.539  15.920 -0.5473 -0.3250  0.3911
 2215SOL    HW218105   2.536   0.553  16.063 -1.6430  1.5529  2.6831
 2216SOL     OW18106   3.256   1.317   7.603  0.0817  0.3113 -0.3612
 2216SOL    HW118107   3.177   1.263   7.610 -0.6388  1.3538 -0.5633
 2216SOL    HW218108   3.224   1.406   7.616  1.5233  0.8841 -0.7525
 2217SOL     OW18109   1.378   4.079   6.451 -0.1650  0.4181  0.0885
 2217SOL    HW118110   1.344   3.997   6.415 -1.2705  1.0977 -0.4086
 2217SOL    HW218111   1.343   4.137   6.384  2.3378 -0.1176 -1.7000
 2218SOL     OW18112   1.689   0.491  15.589 -0.1643  0.1147 -0.5733
 2218SOL    HW118113   1.684   0.396  15.583  1.2579  0.2063 -3.2093
 2218SOL    HW218114   1.780   0.493  15.621  0.0892 -2.7235 -1.1629
 2219SOL     OW18115   2.456   3.699   8.062  0.2297  0.3402  1.0059
 2219SOL    HW118116   2.364   3.714   8.084  0.3900 -0.9364  2.5728
 2219SOL    HW218117   2.506   3.773   8.096 -1.3886  1.4520  1.0037
 2220SOL     OW18118   1.254   2.475   9.088  0.0221  0.3327 -0.4242
 2220SOL    HW118119   1.295   2.389   9.084 -2.2377 -0.7855  1.0245
 2220SOL    HW218120   1.273   2.511   9.001 -2.2013  0.3564 -0.8865
 2221SOL     OW18121   2.406   2.352   6.203  0.1089  1.0008 -0.0424
 2221SOL    HW118122   2.437   2.379   6.289  1.7439  0.0558 -0.3273
 2221SOL    HW218123   2.457   2.273   6.186  0.3997  0.9439  1.1282
 2222SOL     OW18124   1.110   4.078   4.407  0.6367 -0.0194 -0.1031
 2222SOL    HW118125   1.094   4.009   4.342 -1.0837  0.1186  0.1635
 2222SOL    HW218126   1.023   4.119   4.410  0.0651 -1.4916  3.6915
 2223SOL     OW18127   1.299   2.882   2.314  0.4936  0.7813 -0.3762
 2223SOL    HW118128   1.235   2.849   2.376  0.3561 -0.1540 -1.0281
 2223SOL    HW218129   1.289   2.804   2.259 -0.9034  0.3943  0.4363
 2224SOL     OW18130   1.265   0.250  11.411  0.0238 -0.5599 -0.5083
 2224SOL    HW118131   1.305   0.259  11.497  0.4779 -0.7962 -0.6922
 2224SOL    HW218132   1.173   0.238  11.434  0.4163 -2.7874 -0.0328
 2225SOL     OW18133   4.304   3.528   6.808 -0.4988 -0.0982 -0.0592
 2225SOL    HW118134   4.217   3.493   6.828  0.3165 -2.1381 -0.0235
 2225SOL    HW218135   4.284   3.580   6.730  0.2034  0.6915  0.2888
 2226SOL     OW18136   2.033   1.716  12.106 -0.0297 -0.0105  0.1732
 2226SOL    HW118137   2.075   1.716  12.192  0.7904 -1.7132 -0.2147
 2226SOL    HW218138   1.995   1.628  12.104 -1.5935  0.6345  2.2348
 2227SOL     OW18139   3.554   0.406   6.427 -0.3427 -0.2270  0.1582
 2227SOL    HW118140   3.481   0.445   6.378 -0.5453 -2.7080 -1.5329
 2227SOL    HW218141   3.535   0.431   6.517  1.1027  0.8602  0.1684
 2228SOL     OW18142   1.668   4.253  16.351  0.0295  0.1389  0.7138
 2228SOL    HW118143   1.636   4.297  16.430 -0.7216 -1.1593  1.1410
 2228SOL    HW218144   1.760   4.236  16.368  0.7198  0.0394 -3.0112
 2229SOL     OW18145   1.657   2.623   9.323 -0.4053  0.5915  0.7190
 2229SOL    HW118146   1.591   2.684   9.290  1.2359  3.1499  2.1426
 2229SOL    HW218147   1.624   2.540   9.290  2.6847 -0.6314  0.6641
 2230SOL     OW18148   0.709   3.334   4.297 -0.2984  0.6886 -0.2284
 2230SOL    HW118149   0.749   3.417   4.270 -0.0044  1.3867  2.3731
 2230SOL    HW218150   0.748   3.328   4.384 -0.2285 -1.0185 -0.3942
 2231SOL     OW18151   1.208   0.777   8.533 -0.5476  0.3383 -0.1791
 2231SOL    HW118152   1.239   0.865   8.514  3.5489 -1.5079 -2.1126
 2231SOL    HW218153   1.240   0.753   8.620  1.3848  1.0861 -0.6834
 2232SOL     OW18154   4.101   2.452   4.648 -0.4870  0.1887  0.7218
 2232SOL    HW118155   4.092   2.450   4.743  0.8486  0.8076  0.8682
 2232SOL    HW218156   4.171   2.515   4.631 -1.7751  0.3023 -4.2088
 2233SOL     OW18157   1.965   0.477   3.243 -0.1595 -0.3825 -0.1792
 2233SOL    HW118158   1.936   0.431   3.164  0.0228 -0.1574 -0.3795
 2233SOL    HW218159   1.974   0.404   3.304 -0.1654 -0.2368 -0.0061
 2234SOL     OW18160   3.549   0.113   5.557  0.2975  0.0956 -0.0475
 2234SOL    HW118161   3.499   0.108   5.476 -1.7623  0.1525  1.2215
 2234SOL    HW218162   3.493   0.073   5.623  2.5418  0.7067  2.2410
 2235SOL     OW18163   2.970   3.045  17.331 -0.7911 -0.0864 -0.2854
 2235SOL    HW118164   3.017   3.128  17.337  0.7050 -0.7667 -2.4114
 2235SOL    HW218165   2.890   3.081  17.370 -0.4269  0.3555  0.0527
 2236SOL     OW18166   0.039   2.336   0.413  0.0929  0.0385  0.2645
 2236SOL    HW118167   4.691   2.385   0.448 -0.4036 -0.5638  0.0665
 2236SOL    HW218168   0.007   2.291   0.335 -0.9979 -2.2064  1.9878
 2237SOL     OW18169   4.243   4.330   6.324  0.3292  0.6109 -0.0751
 2237SOL    HW118170   4.215   4.338   6.416 -0.0464 -0.6327 -0.0853
 2237SOL    HW218171   4.211   4.410   6.283  1.8366  0.7531 -0.9811
 2238SOL     OW18172   4.372   1.322   9.747  0.2834  0.2281  0.0870
 2238SOL    HW118173   4.418   1.289   9.824  1.2012 -1.5782 -1.2405
 2238SOL    HW218174   4.436   1.368   9.692 -0.2292 -0.9452 -1.4781
 2239SOL     OW18175   2.624   2.267   3.959  0.3261  0.0117 -0.0121
 2239SOL    HW118176   2.647   2.181   3.923  4.6185 -0.0254  2.7865
 2239SOL    HW218177   2.529   2.260   3.968  0.1014  2.3446 -0.5245
 2240SOL     OW18178   3.600   1.692   0.204 -0.3798 -0.4254  0.3286
 2240SOL    HW118179   3.520   1.740   0.181  1.0127  2.8144  2.1989
 2240SOL    HW218180   3.631   1.653   0.122 -1.0590 -0.1476 -0.0572
 2241SOL     OW18181   4.369   2.428   6.698 -0.3021  0.0623  0.1820
 2241SOL    HW118182   4.410   2.347   6.727 -0.3280 -0.2606 -0.6700
 2241SOL    HW218183   4.275   2.411   6.696 -0.2272 -0.5873  3.0748
 2242SOL     OW18184   3.135   3.028  12.351  0.1273  0.9565  0.2126
 2242SOL    HW118185   3.208   2.974  12.321 -2.5713 -2.8298  0.5478
 2242SOL    HW218186   3.075   3.049  12.279  0.7078  0.3519 -0.4475
 2243SOL     OW18187   1.490   3.694   9.148 -0.2091  0.6372 -0.8168
 2243SOL    HW118188   1.507   3.645   9.229  0.4517 -1.0722 -1.9703
 2243SOL    HW218189   1.395   3.694   9.140 -0.2385  0.9904 -0.4455
 2244SOL     OW18190   0.343   1.364   8.832 -0.2158  0.0569 -0.2829
 2244SOL    HW118191   0.329   1.352   8.738 -0.3563 -0.3164 -0.2148
 2244SOL    HW218192   0.254   1.353   8.865 -0.7167  0.7620 -1.4164
 2245SOL     OW18193   1.827   2.357   3.102  0.2302 -0.5991  0.1415
 2245SOL    HW118194   1.860   2.290   3.043  0.1512 -0.9538  0.4994
 2245SOL    HW218195   1.886   2.433   3.098  0.5960 -0.7866  2.0154
 2246SOL     OW18196   3.641   1.551   1.045  0.2618 -0.3300  0.3028
 2246SOL    HW118197   3.546   1.536   1.042  0.2162 -0.2282  1.2061
 2246SOL    HW218198   3.657   1.536   0.952 -0.7711 -0.8648  0.2119
 2247SOL     OW18199   0.064   2.312   2.488 -0.2652 -0.1603 -0.4123
 2247SOL    HW118200   0.115   2.368   2.430 -0.9240  2.2685  1.3064
 2247SOL    HW218201   4.725   2.277   2.427 -1.4451  0.5385  0.4301
 2248SOL     OW18202   2.402   2.559   4.295  0.5029  0.3133 -0.0063
 2248SOL    HW118203   2.371   2.471   4.274  1.6163 -0.1063  0.0879
 2248SOL    HW218204   2.459   2.535   4.368  0.5705 -1.0997 -0.5265
 2249SOL     OW18205   2.146   3.500   8.556 -0.4387  0.5404 -0.0229
 2249SOL    HW118206   2.146   3.536   8.644  0.5063  0.9192 -0.1875
 2249SOL    HW218207   2.228   3.452   8.564 -1.3427 -0.9214  0.6089
 2250SOL     OW18208   4.445   1.399  10.680  0.0092  0.0474 -0.0590
 2250SOL    HW118209   4.485   1.326  10.726 -0.0942 -1.3973 -2.2319
 2250SOL    HW218210   4.353   1.394  10.705  0.2308  1.9474  1.1149
 2251SOL     OW18211   0.226   4.535   9.136  0.1031 -0.3239 -0.0719
 2251SOL    HW118212   0.300   4.592   9.115 -0.2787 -0.4349 -1.6919
 2251SOL    HW218213   0.246   4.536   9.230 -2.3903  1.7415  0.4306
 2252SOL     OW18214   3.662   4.529   1.351  0.7306  0.1366  0.2762
 2252SOL    HW118215   3.687   4.528   1.259 -1.9914 -0.9507 -0.4319
 2252SOL    HW218216   3.596   4.599   1.352  0.0309 -0.5175 -0.2903
 2253SOL     OW18217   1.672   4.141   4.884  0.2339  0.0650 -0.5862
 2253SOL    HW118218   1.667   4.077   4.813 -2.0462  0.2561 -0.5982
 2253SOL    HW218219   1.755   4.116   4.925  0.8393  0.6067 -1.4601
 2254SOL     OW18220   2.825   3.353   1.498 -0.3030  0.0927 -0.6833
 2254SOL    HW118221   2.863   3.282   1.446  2.3888  0.7660  0.3757
 2254SOL    HW218222   2.802   3.414   1.428  0.0243 -1.2362 -1.9503
 2255SOL     OW18223   4.525   1.148  10.323 -0.1327 -0.0640 -1.0542
 2255SOL    HW118224   4.577   1.203  10.265  1.9966 -0.2384  0.7203
 2255SOL    HW218225   4.568   1.065  10.305  0.9337  0.1553  0.5158
 2256SOL     OW18226   4.148   4.710   6.319 -0.4680  0.4488 -0.1891
 2256SOL    HW118227   4.177   0.065   6.277 -0.4969  0.6585  0.1934
 2256SOL    HW218228   4.153   4.637   6.257  1.0963  0.9972 -0.7230
 2257SOL     OW18229   1.898   0.250   6.423  0.0646 -0.6808  0.0823
 2257SOL    HW118230   1.897   0.327   6.479 -0.4533 -0.3202 -0.4213
 2257SOL    HW218231   1.823   0.202   6.460  0.3261 -0.8152  0.4384
 2258SOL     OW18232   3.034   1.933   8.746  0.0238  0.2346 -0.6001
 2258SOL    HW118233   2.943   1.962   8.750  0.2080  0.6484  0.4486
 2258SOL    HW218234   3.017   1.844   8.777 -0.3791  0.3685 -0.4366
 2259SOL     OW18235   4.606   2.015  12.270  0.0880 -0.2474 -0.0192
 2259SOL    HW118236   4.574   1.959  12.199  0.0565  1.5374 -1.4143
 2259SOL    HW218237   4.522   2.049  12.302 -0.6209 -1.3361 -0.6851
 2260SOL     OW18238   4.585   4.234   5.431  0.2129 -0.1923  0.1537
 2260SOL    HW118239   4.658   4.255   5.373  0.3941 -0.0784  0.4249
 2260SOL    HW218240   4.583   4.314   5.483 -2.7868  0.6389 -1.1921
 2261SOL     OW18241   2.955   2.575   8.539 -0.2415  0.0379 -0.4323
 2261SOL    HW118242   2.906   2.618   8.609 -0.4054 -1.4715  0.3685
 2261SOL    HW218243   2.884   2.537   8.487  0.3647  2.7230 -3.2272
 2262SOL     OW18244   1.216   2.010   7.202  0.5448 -0.4257  0.3751
 2262SOL    HW118245   1.149   2.060   7.155 -0.4620 -1.6943  0.4497
 2262SOL    HW218246   1.297   2.060   7.194  0.4341 -0.3764 -0.3563
 2263SOL     OW18247   0.967   0.896   4.324 -0.0751  0.1166  0.2490
 2263SOL    HW118248   0.984   0.875   4.232  0.8839 -0.6157  0.5855
 2263SOL    HW218249   1.041   0.845   4.358  0.5542  2.9652  3.1765
 2264SOL     OW18250   4.085   0.439   2.389  0.0366  0.1138  0.3197
 2264SOL    HW118251   4.066   0.503   2.321 -1.7117 -1.2928 -0.4900
 2264SOL    HW218252   4.143   0.376   2.346 -0.4843  1.7161 -2.7258
 2265SOL     OW18253   1.884   0.661   9.449 -1.1111  0.0993 -0.1275
 2265SOL    HW118254   1.832   0.694   9.523 -0.2243 -0.8874  0.9355
 2265SOL    HW218255   1.817   0.604   9.411  2.5072 -3.2444 -1.5121
 2266SOL     OW18256   0.599   3.831   8.163 -0.3330 -0.1459  0.2033
 2266SOL    HW118257   0.582   3.920   8.132 -0.4411 -0.4132 -0.5154
 2266SOL    HW218258   0.677   3.863   8.209  0.3707  0.3838 -1.3493
 2267SOL     OW18259   3.734   3.042   2.434 -0.0232  0.4871  0.4775
 2267SOL    HW118260   3.706   2.951   2.446 -0.4033  0.5377 -0.0326
 2267SOL    HW218261   3.662   3.062   2.374 -2.0687 -0.7109  2.5361
 2268SOL     OW18262   0.376   3.936   9.929 -0.1858 -0.0829 -0.4621
 2268SOL    HW118263   0.311   3.975   9.871 -1.2572 -0.0362  0.7623
 2268SOL    HW218264   0.419   3.865   9.881 -3.3481 -3.4547  1.6950
 2269SOL     OW18265   2.262   3.438  11.213 -0.1047  0.3164  0.3033
 2269SOL    HW118266   2.346   3.484  11.211  0.3448 -0.5923 -1.3473
 2269SOL    HW218267   2.300   3.352  11.196  0.3664  0.5603  0.1208
 2270SOL     OW18268   1.127   2.353   0.360 -0.2626 -0.1868  0.3639
 2270SOL    HW118269   1.104   2.410   0.433 -1.3640  0.9820 -0.8758
 2270SOL    HW218270   1.209   2.397   0.336 -0.6136 -1.0594 -2.4564
 2271SOL     OW18271   2.008   1.497   6.051 -0.1164 -0.4228  0.0349
 2271SOL    HW118272   2.019   1.533   6.139  0.2105 -0.2179 -0.0924
 2271SOL    HW218273   2.022   1.580   6.006  0.9718 -0.2374  0.7063
 2272SOL     OW18274   3.179   2.855   2.837 -0.3549 -0.3927  0.3579
 2272SOL    HW118275   3.198   2.948   2.828 -0.3823 -0.5679 -1.3756
 2272SOL    HW218276   3.104   2.844   2.780 -0.0047  0.3533 -0.2418
 2273SOL     OW18277   3.738   0.895   4.250  0.0465 -0.4285  0.5185
 2273SOL    HW118278   3.737   0.827   4.183  1.0971 -0.2999  0.3675
 2273SOL    HW218279   3.693   0.965   4.202  0.9401  0.5106  1.0628
 2274SOL     OW18280   2.727   2.617   2.378  0.5398 -0.6609  0.3743
 2274SOL    HW118281   2.731   2.545   2.441  0.6809  1.7359  3.1038
 2274SOL    HW218282   2.724   2.573   2.294  0.7981  1.4383 -0.7309
 2275SOL     OW18283   1.125   4.649   1.060  0.0900  0.0170  0.5372
 2275SOL    HW118284   1.039   4.647   1.019  1.5006 -0.5518 -2.3635
 2275SOL    HW218285   1.102   4.707   1.133 -1.5234  0.8525 -0.6271
 2276SOL     OW18286   3.249   3.895   6.732 -0.0161 -0.1556 -0.1349
 2276SOL    HW118287   3.226   3.918   6.822  1.6629  1.4430 -0.1263
 2276SOL    HW218288   3.282   3.806   6.745  1.1968  0.5601  1.6307
 2277SOL     OW18289   3.374   2.894  12.247 -0.3569 -0.3973  0.2790
 2277SOL    HW118290   3.392   2.816  12.299  0.7996  0.4160  1.0628
 2277SOL    HW218291   3.376   2.859  12.158  1.2822  2.2619 -0.7292
 2278SOL     OW18292   0.433   0.150   4.285  0.0271  0.1007  0.0009
 2278SOL    HW118293   0.500   0.104   4.234 -0.7012 -0.7233 -0.2208
 2278SOL    HW218294   0.386   0.191   4.213  2.0347 -0.0764 -1.4061
 2279SOL     OW18295   0.822   4.573   6.143 -0.0621  0.5799  0.1959
 2279SOL    HW118296   0.833   4.668   6.151  1.7430  0.5532 -1.8276
 2279SOL    HW218297   0.728   4.557   6.138 -0.0369  0.0830  1.4205
 2280SOL     OW18298   2.202   2.444   8.734 -0.3871  0.1432 -0.2590
 2280SOL    HW118299   2.134   2.396   8.783 -0.7361  0.9664  0.0656
 2280SOL    HW218300   2.171   2.534   8.740 -1.0543 -0.1692  1.0940
 2281SOL     OW18301   0.863   3.906  12.345  0.0396  0.3675  0.4275
 2281SOL    HW118302   0.924   3.834  12.331 -1.2912 -0.5741 -0.4896
 2281SOL    HW218303   0.809   3.901  12.266  0.4803 -2.1414  0.2801
 2282SOL     OW18304   3.227   2.018   3.274  0.0087  0.0785 -0.2553
 2282SOL    HW118305   3.223   1.933   3.319 -1.4279  0.2845 -0.0020
 2282SOL    HW218306   3.143   2.012   3.229  0.1737 -0.2235 -0.5182
 2283SOL     OW18307   4.391   2.620  10.074 -0.0335 -0.6366 -0.0120
 2283SOL    HW118308   4.329   2.591  10.141 -0.0504 -2.0335 -0.6417
 2283SOL    HW218309   4.408   2.535  10.034  1.8996 -1.2326  2.0512
 2284SOL     OW18310   3.612   1.747   5.934 -0.1098  0.2021 -0.1900
 2284SOL    HW118311   3.617   1.683   6.005  2.4528 -0.5061 -1.0373
 2284SOL    HW218312   3.691   1.724   5.886  0.3869 -1.6105  1.5395
 2285SOL     OW18313   0.715   2.299  17.590 -0.3522  0.1162 -0.1254
 2285SOL    HW118314   0.627   2.284  17.624  0.1630  1.3913  1.7660
 2285SOL    HW218315   0.765   2.271  17.666  0.8484 -0.8385 -1.2817
 2286SOL     OW18316   0.678   2.929   5.775  0.9415 -0.1259 -0.0396
 2286SOL    HW118317   0.768   2.953   5.797  0.5048  0.5471  1.0323
 2286SOL    HW218318   0.692   2.899   5.685 -0.9606  0.2869 -0.4668
 2287SOL     OW18319   1.449   3.560   9.631 -0.6179 -0.0912 -0.3713
 2287SOL    HW118320   1.490   3.596   9.710  0.4624  1.0231 -1.4397
 2287SOL    HW218321   1.369   3.518   9.664  1.2086 -1.5125  2.1813
 2288SOL     OW18322   2.109   3.654   7.011 -0.0283 -0.4439 -0.6668
 2288SOL    HW118323   2.157   3.682   7.089 -0.4663  0.2212 -0.6262
 2288SOL    HW218324   2.147   3.567   7.003  0.4678 -0.2597 -0.2793
 2289SOL     OW18325   0.384   4.314   8.959 -0.1207 -0.0595  0.1016
 2289SOL    HW118326   0.411   4.300   9.050  1.7600 -2.9219 -0.9034
 2289SOL    HW218327   0.397   4.231   8.913  0.4203 -0.9744  1.8857
 2290SOL     OW18328   2.006   1.443   4.849  0.3139 -0.1018  0.1112
 2290SOL    HW118329   2.083   1.406   4.805  0.7638  1.3938 -0.3363
 2290SOL    HW218330   2.008   1.534   4.820  0.4195 -0.8432 -2.2850
 2291SOL     OW18331   3.217   3.172   6.218  0.0712  0.0776 -0.4680
 2291SOL    HW118332   3.310   3.194   6.215  0.5984 -2.0416 -0.0069
 2291SOL    HW218333   3.164   3.235   6.169 -1.1273  1.6127  2.8016
 2292SOL     OW18334   2.738   3.023  13.222 -0.4771  0.3891  0.9857
 2292SOL    HW118335   2.804   2.965  13.259  0.2604 -0.1016 -1.0604
 2292SOL    HW218336   2.665   2.963  13.211 -1.4831  1.6069  1.0276
 2293SOL     OW18337   1.557   0.026  17.458 -0.2900 -0.7472 -0.9501
 2293SOL    HW118338   1.627   4.695  17.426 -0.1359 -2.7499  2.9805
 2293SOL    HW218339   1.488   4.700  17.499  0.3099 -0.7770  0.0334
 2294SOL     OW18340   0.738   4.442   8.289 -0.4315  0.4756  0.3371
 2294SOL    HW118341   0.767   4.507   8.353 -2.1258 -1.5175  3.1719
 2294SOL    HW218342   0.672   4.491   8.240  0.9164  1.6721 -0.2597
 2295SOL     OW18343   0.342   2.565   5.506 -0.5486  0.6106  0.2661
 2295SOL    HW118344   0.328   2.642   5.450 -2.9911 -0.2149 -0.2711
 2295SOL    HW218345   0.432   2.581   5.533 -0.2568 -2.1860  0.9558
 2296SOL     OW18346   4.447   1.400   4.540  0.7374 -0.2726 -0.9096
 2296SOL    HW118347   4.385   1.469   4.517 -0.5204 -1.6456 -1.6340
 2296SOL    HW218348   4.405   1.317   4.519  0.9665 -0.8514  0.9193
 2297SOL     OW18349   4.595   2.354   7.916  0.2400  0.0781  0.3128
 2297SOL    HW118350   4.557   2.373   7.830  0.6311  0.1932  0.1652
 2297SOL    HW218351   4.687   2.373   7.898  0.5216 -0.2306  1.4370
 2298SOL     OW18352   4.703   2.162   5.316  0.1281  0.0744  0.2236
 2298SOL    HW118353   0.050   2.155   5.378  1.3232 -1.6138 -1.3497
 2298SOL    HW218354   4.627   2.137   5.367 -0.1450  0.7917  0.1704
 2299SOL     OW18355   0.647   1.873   8.835  0.0905  0.3873 -0.6934
 2299SOL    HW118356   0.693   1.957   8.841 -1.9529  1.3057  1.8928
 2299SOL    HW218357   0.636   1.863   8.740 -0.3972 -0.9214 -0.4936
 2300SOL     OW18358   3.029   2.913   4.533 -0.2682 -0.0834 -0.3612
 2300SOL    HW118359   2.960   2.848   4.547 -1.1016  0.6544 -1.0085
 2300SOL    HW218360   3.039   2.908   4.438 -2.2828 -3.0347 -0.4213
 2301SOL     OW18361   0.059   3.545   9.025 -0.5342 -0.1705 -0.0768
 2301SOL    HW118362   4.711   3.494   8.992  0.7572 -2.7605  1.1157
 2301SOL    HW218363   0.135   3.488   9.020 -0.1420  0.2055  1.7371
 2302SOL     OW18364   0.758   2.403  12.724 -0.4979  0.1730 -0.2664
 2302SOL    HW118365   0.789   2.339  12.787  2.3187  0.2253 -1.5990
 2302SOL    HW218366   0.825   2.386  12.658  0.6861  3.1071  0.1447
 2303SOL     OW18367   3.029   0.324   2.661 -0.2601 -0.1712  0.6208
 2303SOL    HW118368   3.024   0.241   2.615  0.8395 -0.1443  0.4749
 2303SOL    HW218369   3.090   0.301   2.731 -0.1250  1.2840  0.9910
 2304SOL     OW18370   3.149   3.034   2.165  0.0453 -0.5149  0.0969
 2304SOL    HW118371   3.184   2.955   2.124  2.0811  1.0467 -1.1624
 2304SOL    HW218372   3.097   2.995   2.236  1.5492 -0.8888  1.0024
 2305SOL     OW18373   1.677   2.386   9.840 -0.0433 -0.0093 -0.2265
 2305SOL    HW118374   1.631   2.305   9.862 -0.8081  0.4750 -0.0613
 2305SOL    HW218375   1.625   2.409   9.763 -1.1448  1.0738  0.8362
 2306SOL     OW18376   3.516   2.900  10.117  0.1992 -0.3974 -0.4464
 2306SOL    HW118377   3.590   2.850  10.150  1.0659  0.2914 -1.3472
 2306SOL    HW218378   3.558   2.986  10.118  1.9906 -1.2676 -1.3093
 2307SOL     OW18379   2.826   1.558   5.117 -0.1326 -0.1179  0.6143
 2307SOL    HW118380   2.826   1.494   5.046 -0.1916  1.5331 -0.8798
 2307SOL    HW218381   2.920   1.560   5.138  0.3279 -0.1786 -1.4470
 2308SOL     OW18382   2.002   1.287   5.876  0.1773 -0.2613  0.0159
 2308SOL    HW118383   1.908   1.270   5.875  0.0907  0.1945  0.9456
 2308SOL    HW218384   2.000   1.359   5.938 -3.6371  0.4755 -0.9645
 2309SOL     OW18385   3.521   0.195  12.250 -0.0087 -0.0344 -0.0790
 2309SOL    HW118386   3.536   0.201  12.345  2.0605 -0.0892 -0.3841
 2309SOL    HW218387   3.517   0.290  12.235 -0.5051  0.1447  1.2205
 2310SOL     OW18388   2.173   2.744   1.134  0.4899  0.2321  0.1742
 2310SOL    HW118389   2.241   2.760   1.070 -0.1229  2.7654  0.1612
 2310SOL    HW218390   2.215   2.790   1.206  0.6369 -0.9055  0.8138
 2311SOL     OW18391   3.114   1.383   5.988  0.3742 -0.4171  0.4516
 2311SOL    HW118392   3.086   1.304   5.942 -1.5050 -0.4597  1.6505
 2311SOL    HW218393   3.105   1.345   6.075 -1.3673 -1.8212 -0.3419
 2312SOL     OW18394   3.965   2.917  16.514  0.6771 -0.3552 -0.3505
 2312SOL    HW118395   4.002   2.950  16.432 -0.4062 -1.2071 -1.1952
 2312SOL    HW218396   3.934   2.833  16.480 -1.2157  0.8683 -1.6894
 2313SOL     OW18397   1.819   2.567   6.515  0.1548  0.5595 -0.1228
 2313SOL    HW118398   1.736   2.571   6.469  0.4809  3.0068 -0.4941
 2313SOL    HW218399   1.812   2.484   6.562  0.0942  0.1510 -0.8526
 2314SOL     OW18400   4.457   3.075   6.286 -0.1972 -0.2068 -0.8780
 2314SOL    HW118401   4.505   3.086   6.368  2.4468 -0.0815 -2.4530
 2314SOL    HW218402   4.533   3.068   6.228 -1.9662 -1.7107 -3.0225
 2315SOL     OW18403   4.351   0.471  16.160 -0.4523 -0.3219  0.1151
 2315SOL    HW118404   4.287   0.509  16.099 -0.1466  0.6072  0.3722
 2315SOL    HW218405   4.341   0.376  16.155 -0.4497 -0.3160 -0.0119
 2316SOL     OW18406   3.813   2.069   7.668 -0.0878  0.0334  0.2410
 2316SOL    HW118407   3.898   2.036   7.638  0.4543 -0.7302  2.6579
 2316SOL    HW218408   3.766   2.101   7.591  1.2376 -0.8816 -0.9576
 2317SOL     OW18409   3.911   0.235   3.171 -0.2527 -0.2820 -0.1485
 2317SOL    HW118410   3.840   0.277   3.218 -0.5283 -1.1683  0.2216
 2317SOL    HW218411   3.984   0.296   3.184  0.2109 -1.3384  2.2615
 2318SOL     OW18412   3.399   4.480   3.477 -0.2275 -0.4924  0.2448
 2318SOL    HW118413   3.334   4.409   3.480  0.4603 -1.1842 -1.3207
 2318SOL    HW218414   3.341   4.549   3.509  0.5114 -0.8626  2.3694
 2319SOL     OW18415   3.014   1.787   3.767 -0.4297 -0.0791 -0.2831
 2319SOL    HW118416   3.006   1.876   3.732 -2.1230 -1.0925 -2.4092
 2319SOL    HW218417   3.105   1.773   3.740  0.5206  3.5989  0.9235
 2320SOL     OW18418   1.154   4.127   8.075  0.4340 -0.4671 -0.1649
 2320SOL    HW118419   1.115   4.192   8.134 -1.1316 -0.5453 -1.0983
 2320SOL    HW218420   1.240   4.109   8.111  0.2141 -2.1132 -0.4818
 2321SOL     OW18421   3.236   4.264   2.770 -0.0920  0.4622  0.1371
 2321SOL    HW118422   3.309   4.321   2.750  1.0320 -0.4480  1.6558
 2321SOL    HW218423   3.277   4.221   2.845  0.5802  0.5959 -0.1543
 2322SOL     OW18424   3.568   2.708  15.991  0.1485 -0.2468  0.6412
 2322SOL    HW118425   3.616   2.787  15.966  1.6171 -1.9674 -1.9676
 2322SOL    HW218426   3.505   2.737  16.057  0.9079  0.8855  0.8650
 2323SOL     OW18427   2.505   1.593   8.535  0.4993  0.6217 -0.4590
 2323SOL    HW118428   2.577   1.655   8.550  1.5117 -0.2046 -1.8353
 2323SOL    HW218429   2.552   1.525   8.487 -0.3593 -0.1536 -0.2102
 2324SOL     OW18430   0.269   3.178   3.004 -0.2362 -0.4339  0.8634
 2324SOL    HW118431   0.242   3.257   2.957 -0.5803 -1.2392 -0.2804
 2324SOL    HW218432   0.202   3.166   3.072 -1.7576 -1.8483 -0.8900
 2325SOL     OW18433   2.759   0.204   6.558 -0.2596  0.4996 -0.0947
 2325SOL    HW118434   2.693   0.211   6.626 -1.7560 -3.2768 -1.1358
 2325SOL    HW218435   2.828   0.176   6.619 -0.8861  0.5446  0.6291
 2326SOL     OW18436   0.922   0.710   6.828 -0.1692  0.4396 -0.2342
 2326SOL    HW118437   0.918   0.804   6.809  1.0827  0.3021 -1.1535
 2326SOL    HW218438   0.923   0.687   6.735 -1.8686  0.9997 -0.3865
 2327SOL     OW18439   0.447   0.709  16.545 -1.0541  0.5241 -0.4264
 2327SOL    HW118440   0.456   0.616  16.569  3.0511  0.9417 -0.3616
 2327SOL    HW218441   0.351   0.708  16.543 -1.0405 -0.4668 -0.8692
 2328SOL     OW18442   4.668   1.618   1.309  0.1134 -0.1541  0.0855
 2328SOL    HW118443   4.575   1.633   1.296  0.0902 -1.3213 -1.1216
 2328SOL    HW218444   4.677   1.552   1.240  1.7662 -0.1330  0.2840
 2329SOL     OW18445   2.899   0.496   9.407 -0.2449  0.4978  0.4019
 2329SOL    HW118446   2.907   0.401   9.409 -1.3505  0.4027  0.1744
 2329SOL    HW218447   2.866   0.511   9.318 -0.2503  2.7535  0.7685
 2330SOL     OW18448   4.112   0.487   3.845  0.4559 -0.7164  0.5655
 2330SOL    HW118449   4.146   0.517   3.929  2.2017 -0.4837 -0.2172
 2330SOL    HW218450   4.176   0.523   3.783  0.4876  0.0731  1.0589
 2331SOL     OW18451   2.641   1.134   1.943  0.6002  0.2423  0.2435
 2331SOL    HW118452   2.586   1.066   1.904  0.8679  0.1176  0.0803
 2331SOL    HW218453   2.704   1.084   1.996 -2.2419 -2.7562  0.8055
 2332SOL     OW18454   4.368   1.075  14.992 -0.0409 -0.4642 -0.2644
 2332SOL    HW118455   4.307   1.138  15.030  1.4782  0.5197  0.5250
 2332SOL    HW218456   4.353   1.000  15.049 -1.3701 -1.2049 -1.5894
 2333SOL     OW18457   4.193   1.316   6.522  0.4892  0.2441  0.0045
 2333SOL    HW118458   4.249   1.393   6.513  0.9816  0.0618  1.5067
 2333SOL    HW218459   4.130   1.326   6.450  0.4666 -3.0110 -0.4288
 2334SOL     OW18460   0.939   0.782   6.303  0.4658 -1.0260  0.2567
 2334SOL    HW118461   1.032   0.773   6.281  0.3394 -1.2676 -0.1651
 2334SOL    HW218462   0.937   0.875   6.327 -0.0602 -0.6897 -1.1076
 2335SOL     OW18463   1.336   2.547   7.887  0.1168 -0.1293  0.2862
 2335SOL    HW118464   1.392   2.520   7.960 -1.1968  0.2473  1.4424
 2335SOL    HW218465   1.335   2.640   7.909 -1.3148  0.0455 -0.5484
 2336SOL     OW18466   2.874   0.211   4.677 -0.0212 -0.6495  0.8892
 2336SOL    HW118467   2.909   0.172   4.757  0.2099 -0.2387  0.9885
 2336SOL    HW218468   2.789   0.169   4.663  0.8570 -1.2955 -2.4661
 2337SOL     OW18469   4.547   2.943   4.038  0.0705  0.4858  0.3209
 2337SOL    HW118470   4.498   3.021   4.012 -0.2095 -0.9800 -3.5535
 2337SOL    HW218471   4.632   2.975   4.068  0.8526 -1.3382  0.0422
 2338SOL     OW18472   0.239   4.562   6.228  0.6912  0.8349  0.0633
 2338SOL    HW118473   0.229   4.567   6.323  1.8464 -1.8871  0.3263
 2338SOL    HW218474   0.181   4.631   6.197  0.9719  1.7873  1.6796
 2339SOL     OW18475   3.812   4.600   6.561 -0.3188 -0.1232  0.5062
 2339SOL    HW118476   3.796   4.685   6.602 -0.7442 -0.0812  0.2514
 2339SOL    HW218477   3.749   4.537   6.594 -0.5308 -1.2113 -1.9956
 2340SOL     OW18478   1.398   3.058   6.317 -0.3261 -0.0965  0.2179
 2340SOL    HW118479   1.491   3.078   6.330  0.1620 -3.1958  1.3543
 2340SOL    HW218480   1.356   3.113   6.382  1.4318  0.7576  0.6360
 2341SOL     OW18481   3.635   1.260   9.464 -0.3120  0.1188  0.7286
 2341SOL    HW118482   3.681   1.344   9.454  2.2837 -1.2993  0.7626
 2341SOL    HW218483   3.548   1.299   9.464 -0.2141  0.3526 -0.4909
 2342SOL     OW18484   3.662   1.964  15.033  0.1395  0.1549 -0.1091
 2342SOL    HW118485   3.666   2.005  15.119  1.3022 -2.2679  0.9970
 2342SOL    HW218486   3.716   2.021  14.979 -0.6344  1.0089  0.0282
 2343SOL     OW18487   2.709   0.398   1.698 -0.0438  0.1047  0.0752
 2343SOL    HW118488   2.798   0.376   1.672  0.2392 -0.5263  1.5519
 2343SOL    HW218489   2.676   0.318   1.656 -0.3229 -0.3089  1.0706
 2344SOL     OW18490   2.088   3.335  11.017  0.2293  0.4669  0.6940
 2344SOL    HW118491   2.122   3.385  11.091 -1.4177  1.5991  0.6795
 2344SOL    HW218492   2.030   3.395  10.970  0.7875 -0.5624 -1.3078
 2345SOL     OW18493   3.035   0.458   7.142 -0.0705  0.3908 -0.4381
 2345SOL    HW118494   3.130   0.448   7.133 -0.0479 -0.8387  1.1557
 2345SOL    HW218495   3.003   0.411   7.065 -1.1800  0.1305  0.1794
 2346SOL     OW18496   3.031   1.112   9.426  0.1804  0.0942  0.0896
 2346SOL    HW118497   3.048   1.117   9.520 -2.8572 -1.3079  0.7164
 2346SOL    HW218498   3.028   1.204   9.398 -0.0141 -0.0611 -0.4027
 2347SOL     OW18499   1.680   4.215   2.552 -0.7093 -0.0373 -0.3063
 2347SOL    HW118500   1.740   4.274   2.505 -1.0177  1.7562  1.5506
 2347SOL    HW218501   1.599   4.220   2.500 -1.0261 -1.0962  0.0819
 2348SOL     OW18502   2.148   3.373  13.186 -0.3236  0.2031  0.0131
 2348SOL    HW118503   2.121   3.390  13.096  1.3214 -0.1685 -0.5398
 2348SOL    HW218504   2.069   3.390  13.237 -1.1377 -1.5983 -0.6426
 2349SOL     OW18505   4.607   0.458   2.837 -0.3657  0.2212 -0.0140
 2349SOL    HW118506   4.543   0.437   2.769  1.6235  2.8394 -2.6772
 2349SOL    HW218507   4.680   0.436   2.778 -0.7471  0.8945 -0.7226
 2350SOL     OW18508   3.768   3.017   9.465  0.3143  0.1715 -0.0794
 2350SOL    HW118509   3.700   2.961   9.504  1.1919  1.1036  2.7742
 2350SOL    HW218510   3.770   3.096   9.519 -0.4642 -0.7935  1.3828
 2351SOL     OW18511   0.712   4.488   2.443  0.0325  0.0440 -1.3609
 2351SOL    HW118512   0.661   4.532   2.375  0.5235  1.7441 -0.6228
 2351SOL    HW218513   0.662   4.509   2.521  1.9659 -2.0384  0.4567
 2352SOL     OW18514   4.595   0.154   4.387 -0.0620 -0.3654 -0.0275
 2352SOL    HW118515   4.609   0.078   4.331 -2.0314 -0.2658 -0.6251
 2352SOL    HW218516   4.683   0.166   4.423  0.2433 -1.0206 -0.5657
 2353SOL     OW18517   4.529   0.259   6.070 -0.0847 -0.0452  0.8662
 2353SOL    HW118518   4.480   0.244   5.989  1.3724 -0.7259  0.1261
 2353SOL    HW218519   4.579   0.178   6.067  1.8642  1.2470 -1.5349
 2354SOL     OW18520   3.888   0.928   9.388 -0.0215  0.5847  0.0404
 2354SOL    HW118521   3.890   1.006   9.332  0.3721  1.0049  0.6430
 2354SOL    HW218522   3.844   0.970   9.461 -0.0860 -1.2608  1.0609
 2355SOL     OW18523   2.036   1.454   0.182  0.3575  0.7778 -0.6016
 2355SOL    HW118524   2.048   1.365   0.149  0.0579  0.8177 -0.8193
 2355SOL    HW218525   2.102   1.502   0.132  1.2519 -0.1157 -0.2672
 2356SOL     OW18526   4.656   2.597  13.730 -0.5811 -0.0718 -0.4640
 2356SOL    HW118527   4.679   2.611  13.822 -1.2531  0.1333 -0.3271
 2356SOL    HW218528   0.003   2.545  13.698  1.1995  1.9223  0.4075
 2357SOL     OW18529   4.203   1.632   4.735  0.6975  0.1112 -0.7752
 2357SOL    HW118530   4.150   1.607   4.811  1.1307  0.7215 -0.2731
 2357SOL    HW218531   4.283   1.599   4.775  1.5214  1.5126 -1.2976
 2358SOL     OW18532   2.073   4.624  12.443  0.1058 -0.0663  0.7306
 2358SOL    HW118533   2.082   4.634  12.538  0.5125 -2.2296  0.9402
 2358SOL    HW218534   2.088   4.717  12.430  0.9437 -0.9793 -4.8063
 2359SOL     OW18535   3.873   0.131   6.237  0.2533  0.4483 -0.4478
 2359SOL    HW118536   3.946   0.107   6.295 -0.0469 -0.1281 -0.3135
 2359SOL    HW218537   3.839   0.213   6.275 -0.7446  0.1952 -0.8141
 2360SOL     OW18538   1.054   0.037   4.467  0.1075  0.0932 -0.0434
 2360SOL    HW118539   1.002   4.716   4.532  0.5454  2.0820  1.7441
 2360SOL    HW218540   1.094   4.693   4.415 -1.2588 -0.2096 -0.6919
 2361SOL     OW18541   2.916   3.993  16.463  0.4837  0.2900  0.5624
 2361SOL    HW118542   2.988   3.979  16.401 -0.0530  0.3956 -0.0838
 2361SOL    HW218543   2.921   4.089  16.454  0.8829  0.0364 -2.0605
 2362SOL     OW18544   2.901   0.027  17.565 -0.0908 -0.0749 -0.5554
 2362SOL    HW118545   2.874   0.118  17.578  0.6652  0.1600 -0.6090
 2362SOL    HW218546   2.887   4.708  17.649 -0.3785 -0.0126 -0.5695
 2363SOL     OW18547   0.126   4.315   5.731  0.6892  0.2234 -0.3044
 2363SOL    HW118548   0.125   4.262   5.811  1.6750  0.3281 -0.2248
 2363SOL    HW218549   0.127   4.242   5.669  0.4663  0.9092 -1.1166
 2364SOL     OW18550   1.256   3.159   8.549 -0.7467  0.0635 -0.0889
 2364SOL    HW118551   1.265   3.202   8.633 -2.5333 -0.4996  0.3937
 2364SOL    HW218552   1.345   3.136   8.523 -0.9174 -1.9193  1.1457
 2365SOL     OW18553   3.749   4.637   6.892  0.1267  0.8509  0.0803
 2365SOL    HW118554   3.671   4.679   6.857 -0.5298  0.9413  1.6807
 2365SOL    HW218555   3.732   4.550   6.854  1.1754  0.8903 -0.4998
 2366SOL     OW18556   1.625   3.916   2.232  0.4933 -0.6669  0.5390
 2366SOL    HW118557   1.592   3.852   2.296  0.6194 -2.4348 -1.1592
 2366SOL    HW218558   1.661   3.853   2.169 -0.6927  0.3311 -1.1173
 2367SOL     OW18559   1.758   3.442  13.980 -0.4664 -0.1161 -0.1522
 2367SOL    HW118560   1.809   3.364  13.960  1.3358  0.7678  0.9738
 2367SOL    HW218561   1.794   3.511  13.924  0.6517  0.5384  1.3516
 2368SOL     OW18562   2.859   1.516  15.037 -0.5133  0.5513 -0.4228
 2368SOL    HW118563   2.837   1.605  15.012 -0.5947  0.9127  0.9154
 2368SOL    HW218564   2.851   1.467  14.955 -1.6534  1.2358 -0.7213
 2369SOL     OW18565   3.661   3.310   3.767 -0.7772  0.6015 -0.0239
 2369SOL    HW118566   3.691   3.295   3.677 -1.0670 -1.6668  0.2704
 2369SOL    HW218567   3.654   3.406   3.767 -0.3151  0.6371 -0.2308
 2370SOL     OW18568   2.455   4.490  13.836  0.2867  0.1113 -0.1954
 2370SOL    HW118569   2.450   4.506  13.930  2.1124  0.2362 -0.1104
 2370SOL    HW218570   2.364   4.474  13.812  1.1741 -2.0088 -2.1780
 2371SOL     OW18571   1.276   4.347   6.385  0.1308 -0.6730  0.6142
 2371SOL    HW118572   1.313   4.420   6.335 -1.5169  0.4447  1.0180
 2371SOL    HW218573   1.197   4.385   6.424  0.9914  0.0874  1.6336
 2372SOL     OW18574   1.143   0.343  10.952 -0.0511 -0.0439  0.0129
 2372SOL    HW118575   1.104   0.305  11.031  0.8955 -0.6943  0.1642
 2372SOL    HW218576   1.078   0.407  10.921 -0.0643 -0.3757 -0.6457
 2373SOL     OW18577   4.269   2.230   7.783 -0.8436 -0.2477 -0.3799
 2373SOL    HW118578   4.208   2.216   7.855 -2.7577  0.2997 -1.9105
 2373SOL    HW218579   4.343   2.177   7.812  0.5671  0.8956 -1.9083
 2374SOL     OW18580   0.103   4.119   9.638 -0.1159 -0.5652  0.2599
 2374SOL    HW118581   0.136   4.101   9.550 -4.2050 -1.6925 -1.0671
 2374SOL    HW218582   0.158   4.196   9.653 -2.3947  1.1738 -0.3098
 2375SOL     OW18583   0.709   4.233   6.882 -0.2971 -0.1930  0.2358
 2375SOL    HW118584   0.653   4.229   6.804 -0.6821  0.6068  0.4689
 2375SOL    HW218585   0.641   4.268   6.940 -1.1311  0.4299 -1.0901
 2376SOL     OW18586   0.452   3.256   5.770  0.1240  0.2491 -0.1806
 2376SOL    HW118587   0.433   3.215   5.685 -0.9024  2.9399 -1.2351
 2376SOL    HW218588   0.547   3.250   5.774  0.1515  0.1379 -1.1317
 2377SOL     OW18589   0.058   3.571   1.960 -0.2378 -0.2362  0.5632
 2377SOL    HW118590   0.059   3.489   2.009 -2.7404 -0.2988  0.5171
 2377SOL    HW218591   0.089   3.623   2.034 -0.6663  0.9674 -0.1175
 2378SOL     OW18592   0.287   1.680   2.909 -0.0470 -0.0888 -0.2829
 2378SOL    HW118593   0.291   1.663   2.815 -1.3729  1.5585 -0.6337
 2378SOL    HW218594   0.313   1.772   2.917  0.4456 -0.1735 -0.9489
 2379SOL     OW18595   0.727   2.531   7.026 -0.2618  0.1317  0.0746
 2379SOL    HW118596   0.635   2.549   7.007 -0.1182  0.1010 -0.6265
 2379SOL    HW218597   0.762   2.502   6.942 -0.6482 -0.5749  0.1643
 2380SOL     OW18598   4.008   3.886   9.093 -0.2201 -0.2035 -0.3835
 2380SOL    HW118599   3.976   3.946   9.160 -1.6729 -1.3788  0.0018
 2380SOL    HW218600   4.083   3.933   9.059 -1.0106 -0.6458 -2.7574
 2381SOL     OW18601   2.955   0.345  15.672 -0.0199  0.1107 -0.0798
 2381SOL    HW118602   2.938   0.263  15.625 -0.6392 -0.2452  0.7804
 2381SOL    HW218603   2.992   0.400  15.602 -2.8704  1.6741 -0.3452
 2382SOL     OW18604   2.277   2.693  14.177  0.5487 -0.0292 -0.4805
 2382SOL    HW118605   2.266   2.782  14.211  0.2620 -0.4147  0.4248
 2382SOL    HW218606   2.371   2.677  14.188  0.8509  0.9970 -1.4805
 2383SOL     OW18607   0.184   0.990   4.163 -0.2136 -0.3471 -0.7212
 2383SOL    HW118608   0.241   1.050   4.210 -0.9379 -0.3807  0.1971
 2383SOL    HW218609   0.122   0.949   4.223  1.2189  0.8072  1.5579
 2384SOL     OW18610   1.833   1.615   0.034 -0.5064 -0.1982 -0.1453
 2384SOL    HW118611   1.887   1.580   0.105 -0.1599 -0.7549 -0.6900
 2384SOL    HW218612   1.820   1.703   0.068  1.1640  0.1654 -0.4697
 2385SOL     OW18613   0.681   4.187   4.734  0.6200  0.3198 -0.2069
 2385SOL    HW118614   0.721   4.138   4.806  0.9013  2.6651  1.2101
 2385SOL    HW218615   0.683   4.277   4.765  1.2535  0.4063 -0.5081
 2386SOL     OW18616   3.473   3.597   1.539  0.4164  0.7274  0.1621
 2386SOL    HW118617   3.443   3.548   1.462  1.1184  1.2182 -0.4307
 2386SOL    HW218618   3.432   3.681   1.519 -0.0825 -0.1336 -2.5263
 2387SOL     OW18619   0.225   1.388   4.205 -0.2196 -0.1855  0.0460
 2387SOL    HW118620   0.243   1.428   4.120 -0.0586 -0.6771 -0.1527
 2387SOL    HW218621   0.204   1.464   4.260 -1.3697  0.7013 -1.6397
 2388SOL     OW18622   4.393   3.678   7.443 -0.4906  0.1904  0.0157
 2388SOL    HW118623   4.313   3.630   7.463  0.0547 -0.6102  0.2655
 2388SOL    HW218624   4.416   3.657   7.352 -0.4529  0.7884 -0.1192
 2389SOL     OW18625   2.037   0.677  10.731  0.5653  0.1929 -0.9410
 2389SOL    HW118626   1.981   0.718  10.797  0.5855  0.4724 -1.1015
 2389SOL    HW218627   1.979   0.612  10.690  1.3839 -0.5670 -0.8946
 2390SOL     OW18628   2.099   0.275   4.457  0.3291  0.7291 -0.4639
 2390SOL    HW118629   2.077   0.278   4.550  2.1184 -0.0259 -0.0025
 2390SOL    HW218630   2.180   0.325   4.472  0.5483 -0.2232  1.5137
 2391SOL     OW18631   0.449   3.361  14.519  0.6412 -0.1300  0.1950
 2391SOL    HW118632   0.396   3.375  14.440 -0.6767 -0.8621  0.9505
 2391SOL    HW218633   0.507   3.436  14.504  2.0418 -1.2762 -0.0507
 2392SOL     OW18634   3.350   0.889   5.111  0.7731  0.3574 -0.2579
 2392SOL    HW118635   3.349   0.947   5.035 -0.1336  0.5107 -0.1207
 2392SOL    HW218636   3.257   0.877   5.127  1.1322  0.0047  1.5395
 2393SOL     OW18637   4.094   4.346   2.970 -0.4013 -0.0867 -0.0809
 2393SOL    HW118638   4.081   4.441   2.963  2.2075  0.1444 -1.7080
 2393SOL    HW218639   4.013   4.330   3.019 -1.4040 -1.4268 -2.1580
 2394SOL     OW18640   4.202   3.896  14.435  0.3085  0.5555  0.2013
 2394SOL    HW118641   4.290   3.862  14.420  0.9181  2.3786 -0.2771
 2394SOL    HW218642   4.200   3.986  14.403  0.5533  1.3344  2.4404
 2395SOL     OW18643   4.268   2.920   4.442  0.4834  0.6305 -0.3072
 2395SOL    HW118644   4.290   2.900   4.351  0.6474 -0.2687 -0.0712
 2395SOL    HW218645   4.354   2.925   4.484  0.0932 -3.6403  1.0415
 2396SOL     OW18646   4.117   2.412   5.326  0.4411 -0.0083 -0.1333
 2396SOL    HW118647   4.106   2.502   5.298  1.3410  0.4736  1.0472
 2396SOL    HW218648   4.038   2.413   5.380  0.2176 -1.8379 -0.4124
 2397SOL     OW18649   1.820   1.712  14.586 -0.6106 -0.8786  0.7379
 2397SOL    HW118650   1.812   1.645  14.518 -2.4058 -0.6374  0.7150
 2397SOL    HW218651   1.738   1.715  14.635 -0.6970 -0.4980  0.5700
 2398SOL     OW18652   0.963   0.225   0.641  0.1731  0.0571  0.1635
 2398SOL    HW118653   0.961   0.182   0.727 -0.7341  0.2647  0.2386
 2398SOL    HW218654   0.976   0.312   0.678 -0.7948 -0.1413  0.9685
 2399SOL     OW18655   2.500   0.974   2.508 -0.1290  0.0234  0.0174
 2399SOL    HW118656   2.488   1.031   2.584 -0.8343  0.5756 -0.5112
 2399SOL    HW218657   2.527   0.895   2.554 -2.5939 -1.3399 -0.8697
 2400SOL     OW18658   3.409   1.457   4.868 -0.5068  0.1934  0.3800
 2400SOL    HW118659   3.347   1.463   4.794 -1.0799 -0.0169  0.8415
 2400SOL    HW218660   3.368   1.514   4.933 -2.0840 -0.8116  0.2856
 2401SOL     OW18661   2.946   0.813  15.263  0.3437 -0.2559 -0.9286
 2401SOL    HW118662   2.856   0.804  15.296  1.1139 -2.7602  0.5260
 2401SOL    HW218663   2.960   0.908  15.258  0.8976 -0.3253 -0.7154
 2402SOL     OW18664   4.671   2.542   3.920 -0.0765  0.8826  1.0833
 2402SOL    HW118665   4.605   2.612   3.920  0.0946  1.0512  2.6736
 2402SOL    HW218666   4.656   2.508   3.832 -0.5602  2.2053  0.6595
 2403SOL     OW18667   3.336   1.988   4.728  0.5391 -0.1196  0.4468
 2403SOL    HW118668   3.284   2.066   4.748 -0.9231 -0.7858 -0.7666
 2403SOL    HW218669   3.267   1.927   4.702  2.1636 -1.6033 -0.3490
 2404SOL     OW18670   4.673   1.067   5.063  0.4689  0.0123  0.2185
 2404SOL    HW118671   4.704   1.040   4.977  0.1892 -3.5023  1.2256
 2404SOL    HW218672   4.582   1.088   5.042  0.5905 -2.1924 -2.3966
 2405SOL     OW18673   4.601   3.203   9.648 -0.0788 -0.3944  0.7068
 2405SOL    HW118674   4.543   3.219   9.574  1.3788  0.3611 -0.2627
 2405SOL    HW218675   4.548   3.130   9.681 -1.8302 -0.3297 -2.0318
 2406SOL     OW18676   2.340   2.007  15.234 -0.3270  0.2272 -0.6913
 2406SOL    HW118677   2.298   1.924  15.213 -1.8452  1.6138 -3.1634
 2406SOL    HW218678   2.282   2.035  15.304  0.1723 -1.3785  0.3550
 2407SOL     OW18679   0.749   4.694   7.687  0.7713 -0.4372  0.5482
 2407SOL    HW118680   0.763   4.655   7.601 -1.5844  0.6361 -0.3170
 2407SOL    HW218681   0.793   4.639   7.752  0.8814 -0.8935  0.0902
 2408SOL     OW18682   2.105   1.694   4.795 -0.4676  0.5037 -0.1128
 2408SOL    HW118683   2.104   1.742   4.712 -1.3492 -0.3194 -0.5714
 2408SOL    HW218684   2.171   1.751   4.835 -2.5915  1.3644  2.1385
 2409SOL     OW18685   0.706   4.158   8.288 -0.2631 -0.1610 -0.2284
 2409SOL    HW118686   0.621   4.152   8.245  0.6560  0.3645 -2.1430
 2409SOL    HW218687   0.727   4.252   8.284  2.5897 -0.8526 -1.3145
 2410SOL     OW18688   2.913   3.869   8.721  0.1789  0.1062 -0.1013
 2410SOL    HW118689   2.896   3.858   8.814  1.5946  1.1432  0.2820
 2410SOL    HW218690   2.835   3.913   8.688  0.5579 -0.0397 -1.2133
 2411SOL     OW18691   1.184   0.986   8.978  0.4103 -0.1190  0.4980
 2411SOL    HW118692   1.200   1.058   8.917  0.4319  0.1515  0.8273
 2411SOL    HW218693   1.150   1.033   9.054 -2.0675  0.9857 -1.3026
 2412SOL     OW18694   3.006   1.875   4.447  0.5738 -0.0571  0.0688
 2412SOL    HW118695   3.066   1.833   4.385 -2.2558 -0.9806 -2.0568
 2412SOL    HW218696   3.047   1.956   4.476 -1.3427  0.7921  0.3685
 2413SOL     OW18697   0.407   4.549  15.955 -0.3109 -0.4083  0.1272
 2413SOL    HW118698   0.456   4.473  15.985 -1.1742 -0.0790  2.3348
 2413SOL    HW218699   0.316   4.522  15.968 -0.1139 -0.9766  0.3414
 2414SOL     OW18700   2.110   4.520  12.185  0.0423 -0.2732  0.3516
 2414SOL    HW118701   2.204   4.501  12.193  0.7511  1.8483 -2.7325
 2414SOL    HW218702   2.095   4.571  12.264 -3.5753 -1.6666  0.5517
 2415SOL     OW18703   3.207   3.972   7.643 -0.3222 -0.6487  0.0844
 2415SOL    HW118704   3.199   3.994   7.550  0.1120 -0.5805  0.0610
 2415SOL    HW218705   3.232   4.057   7.679 -1.1804 -0.3017 -0.1620
 2416SOL     OW18706   2.883   2.641   3.987 -0.2300  0.2771 -0.5341
 2416SOL    HW118707   2.865   2.556   4.027 -0.4488  0.4914 -0.1707
 2416SOL    HW218708   2.903   2.613   3.898 -1.5296 -0.3452 -0.6269
 2417SOL     OW18709   0.337   4.155   2.072 -0.4381  0.5970  0.0248
 2417SOL    HW118710   0.252   4.159   2.116 -0.7397  2.5402 -0.7441
 2417SOL    HW218711   0.365   4.247   2.073  0.1925  0.4009  1.5512
 2418SOL     OW18712   0.862   4.194   4.492  0.1441 -0.2841 -0.3801
 2418SOL    HW118713   0.795   4.175   4.558  0.4687 -0.1488 -0.0124
 2418SOL    HW218714   0.805   4.209   4.416  0.1617 -3.0754 -0.9370
 2419SOL     OW18715   4.301   2.526   1.499 -0.1829  0.4619  0.3284
 2419SOL    HW118716   4.384   2.548   1.542 -0.9140  1.9415  0.9560
 2419SOL    HW218717   4.245   2.580   1.554  0.2410  0.2479  0.9819
 2420SOL     OW18718   1.060   2.155   4.213 -0.9151 -0.0332  0.3470
 2420SOL    HW118719   1.114   2.207   4.154  0.5537 -1.9613 -0.0196
 2420SOL    HW218720   1.006   2.091   4.167  1.9232 -1.2536 -1.3028
 2421SOL     OW18721   2.645   2.609  14.800  0.0834  0.0795 -0.5086
 2421SOL    HW118722   2.736   2.603  14.772 -0.5073  0.8701 -2.5318
 2421SOL    HW218723   2.623   2.520  14.828  0.9384  0.0674  0.1409
 2422SOL     OW18724   1.647   0.122   9.749  0.1150 -0.0926 -0.3882
 2422SOL    HW118725   1.697   0.173   9.813  1.0847 -2.7699  0.9898
 2422SOL    HW218726   1.555   0.136   9.768  0.9719 -0.4495  4.0630
 2423SOL     OW18727   1.066   3.484   1.874 -0.3322  0.5407  0.0820
 2423SOL    HW118728   1.155   3.454   1.890 -1.0574 -1.3933  0.3928
 2423SOL    HW218729   1.040   3.438   1.794  1.6041 -0.3819 -0.0101
 2424SOL     OW18730   3.642   4.200  17.085  0.4585 -0.1451 -0.3849
 2424SOL    HW118731   3.654   4.115  17.127  0.6927  1.0301  1.8995
 2424SOL    HW218732   3.556   4.180  17.046 -0.4999  0.8242  1.2474
 2425SOL     OW18733   2.169   0.766  12.744  0.0962 -0.2535  0.3509
 2425SOL    HW118734   2.214   0.786  12.662 -0.0835  0.1586  0.3508
 2425SOL    HW218735   2.200   0.677  12.759  0.4094 -0.1237  0.5001
 2426SOL     OW18736   1.529   4.180   9.044 -0.5409  0.1942 -0.0647
 2426SOL    HW118737   1.518   4.125   9.122  1.8238  0.3934  0.4191
 2426SOL    HW218738   1.488   4.261   9.074 -0.5437  0.4781 -0.8238
 2427SOL     OW18739   0.920   0.544   2.967 -0.2497 -0.1483  0.2436
 2427SOL    HW118740   0.919   0.479   3.037  0.6668 -0.2186  0.1928
 2427SOL    HW218741   0.977   0.492   2.909  1.5956  2.2572 -0.1196
 2428SOL     OW18742   0.057   4.450   4.463 -0.1082 -0.8182  0.3780
 2428SOL    HW118743   0.033   4.399   4.540 -2.4668  1.4641  1.1461
 2428SOL    HW218744   0.057   4.538   4.500 -2.6388 -1.4647  1.9054
 2429SOL     OW18745   3.641   3.670   8.310 -0.2301 -0.1970 -0.1135
 2429SOL    HW118746   3.700   3.740   8.283  1.9551 -2.0535 -0.0826
 2429SOL    HW218747   3.561   3.671   8.258 -0.7241 -2.6129  0.5886
 2430SOL     OW18748   4.347   2.424   2.464 -0.1189  0.3351  0.4865
 2430SOL    HW118749   4.388   2.462   2.542  1.6239  0.9188 -0.7048
 2430SOL    HW218750   4.383   2.481   2.395 -0.1224 -0.9691 -0.5812
 2431SOL     OW18751   0.648   1.725   8.366  0.0889 -0.2846 -0.0304
 2431SOL    HW118752   0.640   1.688   8.278  3.0572  1.9253 -1.2274
 2431SOL    HW218753   0.743   1.712   8.366 -0.0888 -1.5583 -0.5488
 2432SOL     OW18754   0.681   4.013   7.766 -0.2769 -0.1637 -0.9875
 2432SOL    HW118755   0.610   3.955   7.738 -0.4301 -0.5990  0.3009
 2432SOL    HW218756   0.638   4.078   7.822  1.1871 -1.5140  1.7250
 2433SOL     OW18757   0.876   2.549  11.847 -0.4944  0.1122  0.2533
 2433SOL    HW118758   0.880   2.575  11.939  0.4258  0.9586 -0.0211
 2433SOL    HW218759   0.898   2.628  11.799  2.7245 -0.3513  0.9572
 2434SOL     OW18760   0.423   3.578   1.872  0.1187  0.2017 -0.5285
 2434SOL    HW118761   0.346   3.607   1.822 -0.4226 -0.8989 -0.3348
 2434SOL    HW218762   0.427   3.647   1.939  0.1531  1.3392 -1.6983
 2435SOL     OW18763   1.205   0.479   2.124  0.2224 -0.0107  0.2457
 2435SOL    HW118764   1.175   0.569   2.138 -0.3398 -0.1363 -0.2082
 2435SOL    HW218765   1.220   0.475   2.030  1.2689  0.1876  0.4034
 2436SOL     OW18766   0.704   2.115   8.549 -0.3020 -0.3938 -0.0916
 2436SOL    HW118767   0.731   2.155   8.633 -2.8016  2.5223 -0.6900
 2436SOL    HW218768   0.679   2.026   8.571 -2.4705  0.0822 -0.7073
 2437SOL     OW18769   4.003   2.842   4.487  0.1467  0.4229  0.7625
 2437SOL    HW118770   4.088   2.850   4.445 -0.3005 -1.7373 -0.5597
 2437SOL    HW218771   3.951   2.844   4.407  0.7715  2.2754  0.4222
 2438SOL     OW18772   4.268   2.923   3.307 -0.4462  0.5788  0.7948
 2438SOL    HW118773   4.234   2.879   3.230  0.9520  0.6168  0.1613
 2438SOL    HW218774   4.350   2.873   3.307 -2.0861 -2.0912  0.7010
 2439SOL     OW18775   2.230   3.844   2.195 -0.3945 -0.1932  0.6397
 2439SOL    HW118776   2.194   3.920   2.241 -1.9780 -1.6518  1.8268
 2439SOL    HW218777   2.151   3.794   2.175 -1.9453  1.0165  3.8046
 2440SOL     OW18778   2.634   2.644   7.189 -0.1997 -0.5951  0.0548
 2440SOL    HW118779   2.661   2.734   7.171 -1.4269  0.1149  1.6981
 2440SOL    HW218780   2.593   2.653   7.275  1.4527 -1.7455  0.9529
 2441SOL     OW18781   1.459   3.187   2.212 -0.0642 -0.2353  0.2963
 2441SOL    HW118782   1.545   3.224   2.230 -0.2743  0.6796 -0.5821
 2441SOL    HW218783   1.472   3.094   2.231 -4.4499 -0.9277 -0.0102
 2442SOL     OW18784   3.150   3.604   3.030 -0.3153 -0.3950  0.5795
 2442SOL    HW118785   3.206   3.679   3.012  0.7236 -1.2913  0.0649
 2442SOL    HW218786   3.063   3.636   3.007 -0.2216  0.0961  0.9221
 2443SOL     OW18787   1.960   2.220   6.892 -0.2446 -0.2840  0.4274
 2443SOL    HW118788   1.965   2.154   6.822  0.8431  0.1299  0.1042
 2443SOL    HW218789   1.869   2.200   6.911 -1.1231  1.7557 -1.6120
 2444SOL     OW18790   1.333   1.078   1.458  0.3896  0.1953 -0.4652
 2444SOL    HW118791   1.386   1.012   1.415 -1.4122 -0.9496 -0.9335
 2444SOL    HW218792   1.365   1.154   1.409  1.2404  0.2672  0.2007
 2445SOL     OW18793   0.963   2.803   3.059  0.0192  0.9561  0.5480
 2445SOL    HW118794   0.929   2.713   3.061 -1.2632  1.3695 -2.7107
 2445SOL    HW218795   1.053   2.774   3.044  0.1065  1.4194  0.1922
 2446SOL     OW18796   4.706   0.105  11.744 -0.0725 -0.3217 -0.3287
 2446SOL    HW118797   4.694   0.012  11.762 -1.0636 -0.1735 -0.2458
 2446SOL    HW218798   0.047   0.108  11.676  1.5569 -2.7672  1.1507
 2447SOL     OW18799   2.851   3.672  12.155  0.2236 -0.2157  0.3940
 2447SOL    HW118800   2.796   3.714  12.221 -0.3270 -0.1417 -0.1178
 2447SOL    HW218801   2.825   3.727  12.081 -0.6233 -1.8154 -0.4981
 2448SOL     OW18802   3.845   0.955   0.901  0.3606 -0.5273 -0.3010
 2448SOL    HW118803   3.834   0.952   0.997 -3.3695 -3.1144 -0.8250
 2448SOL    HW218804   3.916   0.899   0.871  1.1068  1.5023 -2.3110
 2449SOL     OW18805   3.020   0.574   9.663 -0.6590  0.1395  0.1706
 2449SOL    HW118806   2.969   0.545   9.587 -1.2831  1.3800  0.1139
 2449SOL    HW218807   2.954   0.541   9.724 -0.5166 -2.0205 -0.8493
 2450SOL     OW18808   3.555   1.274   4.715 -0.2157  0.3731 -0.0442
 2450SOL    HW118809   3.541   1.199   4.772  0.7474 -1.0869 -1.7148
 2450SOL    HW218810   3.513   1.346   4.762  0.8946 -1.1842  3.3025
 2451SOL     OW18811   2.866   3.386   8.326  0.3407 -0.1811  0.3640
 2451SOL    HW118812   2.891   3.454   8.389 -0.4311  0.5448 -0.1104
 2451SOL    HW218813   2.900   3.433   8.249  0.7413  2.1934  2.0047
 2452SOL     OW18814   2.061   3.149   9.475  0.1151  0.4658  0.3311
 2452SOL    HW118815   2.141   3.175   9.521  0.2974  1.0129 -0.3069
 2452SOL    HW218816   2.032   3.087   9.542  0.3775  2.4591  2.2866
 2453SOL     OW18817   1.907   4.258  14.999  0.7273 -0.2043 -0.0354
 2453SOL    HW118818   1.932   4.204  14.923  0.7217  0.1059 -0.2562
 2453SOL    HW218819   1.851   4.330  14.973 -1.0088 -1.2598  0.8275
 2454SOL     OW18820   3.118   2.592   3.323 -0.1467 -0.2748  0.7007
 2454SOL    HW118821   3.201   2.639   3.314 -0.4772 -0.1464 -1.6153
 2454SOL    HW218822   3.150   2.504   3.339  2.3437  0.4720 -0.2632
 2455SOL     OW18823   0.846   1.522   2.541 -0.0893 -0.1407 -0.9256
 2455SOL    HW118824   0.863   1.470   2.462  0.0696 -2.4550  0.6163
 2455SOL    HW218825   0.840   1.611   2.507 -1.0135  0.0598 -0.2579
 2456SOL     OW18826   1.843   1.473   5.303 -0.9246  0.4935  0.5114
 2456SOL    HW118827   1.930   1.433   5.310 -0.8280  0.4760 -0.7832
 2456SOL    HW218828   1.870   1.533   5.233  1.5246 -0.7116  0.4148
 2457SOL     OW18829   2.330   1.983  16.351 -0.0349 -0.2605  0.2833
 2457SOL    HW118830   2.363   1.919  16.287 -0.5960 -1.2077  0.9396
 2457SOL    HW218831   2.400   1.976  16.416  0.1431  0.5390  0.1825
 2458SOL     OW18832   2.724   3.284   5.407  0.5123  0.3984  0.0352
 2458SOL    HW118833   2.792   3.349   5.422  0.0452  1.4471 -2.4032
 2458SOL    HW218834   2.705   3.250   5.494  1.8788 -0.4905 -0.0132
 2459SOL     OW18835   0.703   3.947   8.680 -0.4089  0.5573 -0.0072
 2459SOL    HW118836   0.716   4.041   8.686  1.2883  0.3193 -0.1686
 2459SOL    HW218837   0.785   3.912   8.713 -1.3720 -0.2544  1.5026
 2460SOL     OW18838   2.284   0.983  14.132  0.0203  0.4063 -0.3433
 2460SOL    HW118839   2.190   0.986  14.113 -0.0981 -0.2352  0.1406
 2460SOL    HW218840   2.301   1.069  14.094 -0.9192  0.0374 -1.6064
 2461SOL     OW18841   1.492   1.340   1.587  0.0992 -0.0690  0.5010
 2461SOL    HW118842   1.419   1.386   1.544 -0.3670  0.5936  2.0260
 2461SOL    HW218843   1.559   1.392   1.542  2.7881 -1.5428  2.8376
 2462SOL     OW18844   0.956   4.215   9.616  0.3053  0.9271 -0.6118
 2462SOL    HW118845   0.863   4.210   9.633  0.6244  0.0390  0.8255
 2462SOL    HW218846   0.960   4.148   9.548 -2.1173 -0.2367  0.4261
 2463SOL     OW18847   2.866   2.132  14.843 -0.3774 -0.1217 -0.0711
 2463SOL    HW118848   2.790   2.143  14.900  0.3886  1.3116  0.6946
 2463SOL    HW218849   2.851   2.047  14.802  1.6431 -2.0747  3.3179
 2464SOL     OW18850   1.379   4.466   4.798 -0.0485  0.6088  0.1042
 2464SOL    HW118851   1.290   4.448   4.827 -1.0879  1.1448 -2.7448
 2464SOL    HW218852   1.394   4.559   4.814  2.5013  0.0493  1.0054
 2465SOL     OW18853   0.912   3.670   2.985 -0.0675 -0.3652 -0.4038
 2465SOL    HW118854   0.952   3.719   3.057  1.6923 -0.0198 -1.5929
 2465SOL    HW218855   0.984   3.622   2.944  0.1441  0.6311 -1.2271
 2466SOL     OW18856   3.523   3.586  15.878  0.1074  0.6038 -0.3953
 2466SOL    HW118857   3.529   3.620  15.967 -0.4537  3.6318 -1.5107
 2466SOL    HW218858   3.566   3.655  15.827  0.9186  1.2139  1.1208
 2467SOL     OW18859   0.472   4.580   5.787  0.5241  0.0702 -0.0619
 2467SOL    HW118860   0.423   4.631   5.723 -0.6414  2.2910  2.5746
 2467SOL    HW218861   0.415   4.598   5.862 -0.5453 -0.1416 -0.8290
 2468SOL     OW18862   1.258   3.456   9.741 -0.2000  0.1658  0.6233
 2468SOL    HW118863   1.244   3.401   9.818 -3.5329 -1.0935 -0.8612
 2468SOL    HW218864   1.167   3.482   9.723  0.4012  1.7654 -0.0696
 2469SOL     OW18865   1.039   4.179   7.815 -0.3141 -0.7443 -0.1043
 2469SOL    HW118866   1.038   4.272   7.794  0.4072 -0.6902  0.0971
 2469SOL    HW218867   1.097   4.179   7.891 -0.8846 -0.6597  0.3301
 2470SOL     OW18868   0.906   0.457   8.332 -0.0284  0.0049 -0.1159
 2470SOL    HW118869   0.920   0.549   8.353  1.3983 -0.4053  0.6979
 2470SOL    HW218870   0.984   0.433   8.281  0.7209  2.4922 -0.1293
 2471SOL     OW18871   0.312   0.167  16.875  0.6153  0.3911  0.1277
 2471SOL    HW118872   0.236   0.195  16.924  1.2222  2.3658 -0.0871
 2471SOL    HW218873   0.373   0.157  16.948 -0.3201 -0.9494  0.7308
 2472SOL     OW18874   0.056   1.827  16.068 -0.6002  0.1427 -0.0824
 2472SOL    HW118875   0.145   1.804  16.040  0.8470  0.4991  4.2803
 2472SOL    HW218876   0.043   1.757  16.131  1.8806 -1.1359 -0.9429
 2473SOL     OW18877   3.485   4.291  15.591 -0.3119 -0.1490 -0.3680
 2473SOL    HW118878   3.505   4.216  15.647 -2.0447 -2.5748 -3.0065
 2473SOL    HW218879   3.427   4.339  15.650 -0.5882  0.1198 -0.8505
 2474SOL     OW18880   1.219   1.722   7.237  0.2733  0.3099  0.2975
 2474SOL    HW118881   1.145   1.729   7.296  0.6902  0.5380  0.7898
 2474SOL    HW218882   1.239   1.814   7.219  2.1759 -0.0646  0.4837
 2475SOL     OW18883   4.036   0.051   7.252  0.3548  0.3156  0.0271
 2475SOL    HW118884   3.993   4.698   7.284  2.5201 -1.2835 -0.9914
 2475SOL    HW218885   3.980   0.125   7.274 -1.9914 -1.1980 -0.8734
 2476SOL     OW18886   2.667   3.702   8.897 -0.1230  0.4054  0.4574
 2476SOL    HW118887   2.704   3.626   8.853 -0.0105  0.0824  1.1044
 2476SOL    HW218888   2.750   3.734   8.934 -0.2930 -0.2792  1.4449
 2477SOL     OW18889   0.068   3.743   6.720  0.1228 -0.0699  0.4438
 2477SOL    HW118890   0.101   3.818   6.671  0.6331  0.4864  1.6375
 2477SOL    HW218891   0.123   3.672   6.686  0.2058  0.4009 -0.4069
 2478SOL     OW18892   1.171   1.182   7.596 -0.0439  0.5211 -0.7179
 2478SOL    HW118893   1.127   1.103   7.565  0.6044 -0.0643 -0.1583
 2478SOL    HW218894   1.251   1.143   7.633 -0.1093  0.7692 -0.3097
 2479SOL     OW18895   2.432   4.365  13.549  0.5518  0.2614 -0.4706
 2479SOL    HW118896   2.483   4.407  13.618 -0.0229  0.5064 -0.1938
 2479SOL    HW218897   2.356   4.328  13.595 -0.4405  1.4730 -1.1284
 2480SOL     OW18898   0.526   4.440  15.642  0.4267  0.2688  0.0956
 2480SOL    HW118899   0.506   4.532  15.660  0.8641  0.3622  0.0927
 2480SOL    HW218900   0.465   4.402  15.705 -0.0535  1.6151  0.4541
 2481SOL     OW18901   4.365   0.254   8.487  0.0921  0.2367  0.2317
 2481SOL    HW118902   4.351   0.264   8.581 -1.6860  3.1760 -0.3488
 2481SOL    HW218903   4.346   0.162   8.469 -0.8209  0.2835  1.0094
 2482SOL     OW18904   2.950   3.570  12.998  0.4269  0.7411 -0.1526
 2482SOL    HW118905   2.870   3.617  12.976 -0.6657 -1.3811 -0.7588
 2482SOL    HW218906   2.922   3.480  13.015 -0.1072  1.2278  1.5222
 2483SOL     OW18907   1.685   1.059   7.627  0.0475  0.3311  0.1728
 2483SOL    HW118908   1.642   1.135   7.587 -1.0883  0.5884  1.8696
 2483SOL    HW218909   1.773   1.097   7.632  0.4789 -0.6223 -0.2400
 2484SOL     OW18910   1.273   2.005   2.880 -0.6980  0.1919 -0.4742
 2484SOL    HW118911   1.260   1.944   2.953 -0.3875 -0.0005 -0.5816
 2484SOL    HW218912   1.298   2.085   2.926  0.5930 -0.9299  0.7887
 2485SOL     OW18913   3.520   0.885  12.105  0.0820  0.6705  0.2228
 2485SOL    HW118914   3.537   0.975  12.132  0.3935  1.0698 -1.3228
 2485SOL    HW218915   3.504   0.896  12.011  1.3309  1.7476  0.1311
 2486SOL     OW18916   2.277   3.138  15.133  0.3791 -0.6595 -0.2977
 2486SOL    HW118917   2.325   3.179  15.205 -0.1000 -0.6520  0.0195
 2486SOL    HW218918   2.353   3.092  15.096  1.2371 -1.4089  2.3851
 2487SOL     OW18919   0.309   2.278   8.608  0.1961 -0.0752  0.5992
 2487SOL    HW118920   0.323   2.269   8.514  0.9132  0.6214  0.6380
 2487SOL    HW218921   0.321   2.372   8.617 -2.1914  0.3641 -0.9153
 2488SOL     OW18922   2.534   3.610  12.063  0.4269  0.1168 -0.9101
 2488SOL    HW118923   2.593   3.558  12.009 -0.4192 -1.8109  0.0178
 2488SOL    HW218924   2.497   3.537  12.113  0.7662 -0.2152 -1.1464
 2489SOL     OW18925   2.914   0.061   6.805 -0.3060  0.4851  0.2592
 2489SOL    HW118926   2.861   4.710   6.822  0.6962  0.3425  2.7579
 2489SOL    HW218927   3.003   0.026   6.798 -0.4036  0.2984 -0.0480
 2490SOL     OW18928   3.415   1.313   8.676  0.3243 -0.5444 -0.2713
 2490SOL    HW118929   3.320   1.325   8.673  0.1808 -2.1582 -1.8374
 2490SOL    HW218930   3.449   1.340   8.591  0.2974  0.5496  0.0668
 2491SOL     OW18931   3.621   4.261   5.705 -0.4068 -0.6333  0.1079
 2491SOL    HW118932   3.657   4.261   5.794  1.7648 -0.9971 -0.7612
 2491SOL    HW218933   3.667   4.332   5.659 -2.6473  1.1141  0.5860
 2492SOL     OW18934   4.038   1.169  11.697  0.3960  0.5211  0.0737
 2492SOL    HW118935   3.960   1.160  11.642  0.4127  0.7103  0.0182
 2492SOL    HW218936   4.048   1.077  11.722 -0.7475  0.2735 -0.4023
 2493SOL     OW18937   0.118   1.169   8.194 -0.0096 -0.0908 -0.1442
 2493SOL    HW118938   0.117   1.190   8.287 -0.7578 -0.3159 -0.1041
 2493SOL    HW218939   0.152   1.255   8.170 -0.1969 -0.3558 -1.3420
 2494SOL     OW18940   0.201   1.355   3.299  0.2419  0.1084 -0.1604
 2494SOL    HW118941   0.240   1.282   3.251 -0.3263 -0.2431 -0.0913
 2494SOL    HW218942   0.194   1.418   3.227  1.4762  2.5375  1.8811
 2495SOL     OW18943   2.708   0.296   7.138 -0.0776 -0.3782 -0.1400
 2495SOL    HW118944   2.768   0.353   7.186 -0.7150  2.3771 -2.6247
 2495SOL    HW218945   2.759   0.223   7.104 -0.4555 -0.8967  0.3999
 2496SOL     OW18946   3.932   2.893   5.181 -0.3820  0.0454  0.1402
 2496SOL    HW118947   3.860   2.911   5.121 -1.4588  0.0612  1.4432
 2496SOL    HW218948   3.934   2.969   5.239 -0.5543  0.5003 -0.4454
 2497SOL     OW18949   4.182   2.942   4.902  0.0861 -0.3543 -0.3226
 2497SOL    HW118950   4.095   2.975   4.879  0.4097 -0.8826 -2.3197
 2497SOL    HW218951   4.174   2.903   4.989 -1.4341  1.8073  0.5172
 2498SOL     OW18952   3.917   3.759  17.516 -0.4321 -0.0160 -0.4657
 2498SOL    HW118953   3.855   3.686  17.526 -0.0577 -0.0766  1.3619
 2498SOL    HW218954   3.853   3.825  17.489  2.0997  2.9193  0.8157
 2499SOL     OW18955   1.598   3.152  17.355 -0.3523 -0.3453 -0.0166
 2499SOL    HW118956   1.567   3.061  17.352 -1.7331  0.1759 -1.2040
 2499SOL    HW218957   1.521   3.198  17.391 -0.7046 -0.8805 -0.0817
 2500SOL     OW18958   3.467   2.305  16.199  0.1999  0.5668  0.3590
 2500SOL    HW118959   3.402   2.359  16.154  1.7930  1.6805 -0.5768
 2500SOL    HW218960   3.552   2.340  16.173  0.7992 -1.8331 -0.9204
 2501SOL     OW18961   1.438   3.828  10.708 -1.2664 -0.0089 -0.2922
 2501SOL    HW118962   1.433   3.914  10.665 -0.5974  0.1084 -0.1298
 2501SOL    HW218963   1.512   3.787  10.665 -0.4532 -0.3998  1.4722
 2502SOL     OW18964   1.585   1.376   2.417  0.1033  0.2195  0.1942
 2502SOL    HW118965   1.573   1.407   2.327 -0.5358 -2.6544 -0.7298
 2502SOL    HW218966   1.647   1.308   2.390  0.6021  0.6793  0.1803
 2503SOL     OW18967   3.761   1.462  11.468 -0.0351 -0.7227 -1.2223
 2503SOL    HW118968   3.814   1.453  11.389 -1.3054  0.3546 -2.1898
 2503SOL    HW218969   3.836   1.462  11.528 -0.7836  1.2997 -0.2656
 2504SOL     OW18970   3.443   0.032   5.308 -0.1599  0.1137 -0.0856
 2504SOL    HW118971   3.508   0.093   5.273  1.7254 -0.7228  1.9565
 2504SOL    HW218972   3.450   4.689   5.243 -0.4628  0.2239 -0.2358
 2505SOL     OW18973   4.112   1.073   6.624 -0.1493  0.1506  0.0759
 2505SOL    HW118974   4.030   1.088   6.576 -0.3848  0.3591  0.5438
 2505SOL    HW218975   4.154   1.159   6.619  2.5818 -1.2933 -1.8938
 2506SOL     OW18976   0.003   3.954   3.688 -0.0266 -0.0816 -0.1600
 2506SOL    HW118977   4.723   4.049   3.677  2.0551 -0.1158 -1.5310
 2506SOL    HW218978   4.717   3.947   3.783  0.7764 -3.2390 -0.2923
 2507SOL     OW18979   1.345   3.585   7.017 -0.2645  0.3625  0.6770
 2507SOL    HW118980   1.251   3.572   7.004 -0.4341  0.3830  1.8093
 2507SOL    HW218981   1.360   3.672   6.981 -0.9855 -0.1406 -0.8250
 2508SOL     OW18982   2.429   2.102   8.223 -0.1117  0.1308 -0.5364
 2508SOL    HW118983   2.422   2.010   8.196  1.9958  0.5869 -2.6369
 2508SOL    HW218984   2.477   2.137   8.148 -0.5226  0.7084 -0.5267
 2509SOL     OW18985   2.794   2.540   5.338 -0.1619 -0.1960  0.6126
 2509SOL    HW118986   2.727   2.539   5.270 -1.1740  2.3404  1.5317
 2509SOL    HW218987   2.859   2.590   5.289 -0.3447 -1.1820 -0.6146
 2510SOL     OW18988   3.410   1.427   4.385  0.0512  0.0861 -0.3980
 2510SOL    HW118989   3.341   1.490   4.365 -0.1508  0.4570  1.4717
 2510SOL    HW218990   3.487   1.483   4.383  0.5597 -0.6169 -0.4257
 2511SOL     OW18991   0.400   1.931   4.240  0.0311  0.5907 -0.5193
 2511SOL    HW118992   0.363   2.019   4.235 -1.3377  0.1766  2.4557
 2511SOL    HW218993   0.367   1.895   4.323  1.0300  0.2747 -0.2493
 2512SOL     OW18994   2.255   4.329  10.161  0.4056 -0.1648 -0.0747
 2512SOL    HW118995   2.269   4.278  10.082 -0.6715  1.3147 -1.2204
 2512SOL    HW218996   2.166   4.365  10.153  0.4983 -0.4548 -2.3678
 2513SOL     OW18997   1.604   1.523  17.018  0.0088 -0.4330  0.6041
 2513SOL    HW118998   1.522   1.515  16.969  1.0272 -1.6499 -0.8662
 2513SOL    HW218999   1.660   1.470  16.963 -0.4018 -0.7130  0.4564
 2514SOL     OW19000   1.311   0.436   7.826 -0.2366 -0.6429 -0.0855
 2514SOL    HW119001   1.349   0.505   7.881 -1.9347  0.5407 -0.3696
 2514SOL    HW219002   1.345   0.358   7.869  1.8829  1.0629  1.3371
 2515SOL     OW19003   2.569   2.058   3.302 -0.1405 -0.3170  0.0990
 2515SOL    HW119004   2.619   2.043   3.383  0.5901  0.2306 -0.2566
 2515SOL    HW219005   2.611   2.133   3.261 -1.2201  0.3164  0.1260
 2516SOL     OW19006   2.814   3.683   1.950  0.0202 -0.1264 -0.2701
 2516SOL    HW119007   2.840   3.593   1.930  1.7744  0.5584 -1.1784
 2516SOL    HW219008   2.872   3.730   1.889  1.1324 -1.9131 -0.5786
 2517SOL     OW19009   1.726   1.760   9.527 -0.1063 -0.2843  0.0626
 2517SOL    HW119010   1.654   1.806   9.568  0.2776  1.8996 -1.7346
 2517SOL    HW219011   1.751   1.813   9.451  0.1984 -1.8166 -0.9139
 2518SOL     OW19012   3.228   0.307  17.366  0.0453  0.1133  0.1877
 2518SOL    HW119013   3.242   0.218  17.398  1.8987  0.6096  0.7252
 2518SOL    HW219014   3.156   0.332  17.424  0.9744  0.4391  1.1993
 2519SOL     OW19015   3.629   4.704   8.880  0.5624  0.2710  0.3631
 2519SOL    HW119016   3.653   4.713   8.972  0.1058  0.3090  0.4780
 2519SOL    HW219017   3.718   4.692   8.848 -0.3388  0.1394 -2.1054
 2520SOL     OW19018   3.115   0.280  10.533 -0.5806 -0.2092 -0.2771
 2520SOL    HW119019   3.079   0.271  10.444  1.3980  2.9793 -1.4151
 2520SOL    HW219020   3.035   0.276  10.585 -0.0191 -2.2922  0.3982
 2521SOL     OW19021   2.468   0.868   4.212  0.0905  0.3826 -0.5669
 2521SOL    HW119022   2.435   0.947   4.169 -1.4260  1.0737  1.8790
 2521SOL    HW219023   2.463   0.807   4.139  0.6311 -1.6280  1.0647
 2522SOL     OW19024   4.025   1.386   8.331  0.4057  0.2825 -0.0002
 2522SOL    HW119025   4.012   1.310   8.389 -1.8028  0.8626  0.2977
 2522SOL    HW219026   3.937   1.422   8.345  0.6159  0.0508  2.0184
 2523SOL     OW19027   3.514   2.328   8.869  0.1817 -0.1149  0.1520
 2523SOL    HW119028   3.482   2.331   8.959  0.9812 -0.1039  0.4400
 2523SOL    HW219029   3.481   2.240   8.853 -0.3343 -0.0069  0.6262
 2524SOL     OW19030   0.611   4.420   0.306  0.0844 -0.3069 -0.4687
 2524SOL    HW119031   0.583   4.481   0.238  2.6400  1.8422  0.3812
 2524SOL    HW219032   0.583   4.335   0.271 -0.2441  0.4173 -1.9524
 2525SOL     OW19033   4.276   1.608   2.386 -0.3881  0.1057  0.0681
 2525SOL    HW119034   4.286   1.700   2.361  0.2265  0.4598  1.5693
 2525SOL    HW219035   4.320   1.567   2.311  0.7797 -0.2256  0.9245
 2526SOL     OW19036   4.175   1.126   6.196  0.5482 -0.4000  0.3244
 2526SOL    HW119037   4.086   1.160   6.202  0.2723 -1.3150  1.5277
 2526SOL    HW219038   4.184   1.160   6.107 -2.4111  0.5713  0.4122
 2527SOL     OW19039   0.088   4.325   4.922  0.1046  0.7728  0.1495
 2527SOL    HW119040   0.024   4.395   4.921  2.3671  2.8074 -2.6318
 2527SOL    HW219041   0.079   4.269   4.999 -0.5840  0.0599 -0.4522
 2528SOL     OW19042   3.262   4.381   5.977 -0.5207 -0.0051  0.7745
 2528SOL    HW119043   3.316   4.437   5.920  2.8509 -0.6956  3.2802
 2528SOL    HW219044   3.215   4.325   5.916  2.9280 -2.2641  0.1545
 2529SOL     OW19045   0.041   0.318   7.110 -0.1995 -0.1152 -0.5017
 2529SOL    HW119046   4.724   0.285   7.031 -3.0021 -1.5054  1.6020
 2529SOL    HW219047   4.699   0.360   7.162  2.2416  2.9117  0.2579
 2530SOL     OW19048   2.311   0.981   3.168  0.0493 -0.2962 -0.0748
 2530SOL    HW119049   2.358   0.946   3.092  0.2013 -2.4583  1.0072
 2530SOL    HW219050   2.329   1.074   3.155  2.3956 -0.8429 -0.7341
 2531SOL     OW19051   3.228   0.651  11.477  0.5599 -0.5483  0.1227
 2531SOL    HW119052   3.189   0.683  11.395  0.0470  1.2070  1.0395
 2531SOL    HW219053   3.316   0.667  11.445 -0.7852  1.6570 -2.4918
 2532SOL     OW19054   3.133   2.121   4.449  0.1005 -0.0340 -0.3684
 2532SOL    HW119055   3.209   2.123   4.391 -0.8013  1.4537 -1.4822
 2532SOL    HW219056   3.141   2.202   4.499 -2.1366  0.3941 -0.7217
 2533SOL     OW19057   2.551   3.004   4.178 -0.0438  0.9338 -0.3020
 2533SOL    HW119058   2.503   3.079   4.142 -0.2051  1.0659  0.1838
 2533SOL    HW219059   2.528   2.938   4.113  2.2846  0.5612 -0.7517
 2534SOL     OW19060   0.361   2.986  12.286 -0.6784 -0.1673  0.3823
 2534SOL    HW119061   0.366   2.910  12.343 -1.4240  0.9963  1.9896
 2534SOL    HW219062   0.409   2.958  12.208 -1.4224  1.1217 -0.5330
 2535SOL     OW19063   3.699   1.367  16.490 -0.5492  0.1591 -0.7865
 2535SOL    HW119064   3.724   1.425  16.561  1.4182 -0.5611 -0.8841
 2535SOL    HW219065   3.723   1.423  16.416  0.6665 -1.6406 -1.7642
 2536SOL     OW19066   1.911   2.329   1.127  0.0023 -0.1992 -0.9327
 2536SOL    HW119067   1.972   2.375   1.185 -0.3600 -0.8315 -0.0365
 2536SOL    HW219068   1.863   2.405   1.094  0.7074  0.8157  0.3829
 2537SOL     OW19069   3.191   3.259   4.056  0.0885  0.0401 -0.4382
 2537SOL    HW119070   3.111   3.207   4.047 -1.5733  2.6014 -0.4771
 2537SOL    HW219071   3.228   3.281   3.970 -0.0676 -2.1028 -1.0408
 2538SOL     OW19072   3.101   2.155  10.358 -0.2424  0.0912  0.2012
 2538SOL    HW119073   3.189   2.119  10.347 -0.3698 -0.2520  0.3123
 2538SOL    HW219074   3.065   2.173  10.271 -0.0087 -0.1545  0.0523
 2539SOL     OW19075   4.155   1.557   9.536  0.0045  0.0093  0.1144
 2539SOL    HW119076   4.228   1.616   9.556  1.5691 -1.9458  0.1718
 2539SOL    HW219077   4.128   1.516   9.618 -0.0101 -2.2692 -1.0332
 2540SOL     OW19078   3.877   4.496   5.947  0.2763 -0.2511  0.3403
 2540SOL    HW119079   3.912   4.504   5.858  2.1679  0.2236  1.1403
 2540SOL    HW219080   3.872   4.589   5.969  1.2354 -0.5434  1.7571
 2541SOL     OW19081   2.314   3.964   8.657 -0.7976  0.1307 -0.1077
 2541SOL    HW119082   2.350   4.050   8.681 -1.4318  0.9033 -1.9438
 2541SOL    HW219083   2.333   3.907   8.732 -4.3017 -0.1708  0.5184
 2542SOL     OW19084   1.905   0.746   3.764  0.2493 -0.2880 -0.2595
 2542SOL    HW119085   1.937   0.668   3.717  1.4906  0.9499 -1.4954
 2542SOL    HW219086   1.989   0.791   3.774  0.1572 -0.1392 -0.1593
 2543SOL     OW19087   4.086   3.176   6.475 -0.4658 -0.1347 -0.0898
 2543SOL    HW119088   4.127   3.213   6.396 -1.5202 -0.6947 -0.9069
 2543SOL    HW219089   4.147   3.107   6.501 -0.9002  0.3802  2.3088
 2544SOL     OW19090   3.901   4.575   7.842  0.1626  0.1031 -0.2147
 2544SOL    HW119091   3.978   4.577   7.898 -0.0253  2.4009 -0.0293
 2544SOL    HW219092   3.935   4.542   7.759 -0.5421 -0.5848 -0.2366
 2545SOL     OW19093   0.028   0.892   7.239  0.0091  0.7315 -0.2710
 2545SOL    HW119094   4.706   0.809   7.229  0.0943  0.9437 -2.5076
 2545SOL    HW219095   0.119   0.868   7.221 -0.1010  0.8348 -0.9680
 2546SOL     OW19096   2.413   3.195   8.380 -0.3530 -0.1935  0.0574
 2546SOL    HW119097   2.322   3.177   8.405 -0.2694 -1.4214 -0.5587
 2546SOL    HW219098   2.458   3.187   8.464  0.3005 -0.8604 -0.3495
 2547SOL     OW19099   2.551   0.845   9.482  0.2721  0.1109  0.1017
 2547SOL    HW119100   2.643   0.859   9.458  0.2588 -1.6131 -0.9557
 2547SOL    HW219101   2.523   0.768   9.431 -1.7026  0.3271  0.8823
 2548SOL     OW19102   2.417   4.380   4.238  0.1296  0.2709  0.5584
 2548SOL    HW119103   2.482   4.424   4.184 -0.3082 -1.5324 -1.4137
 2548SOL    HW219104   2.342   4.439   4.239 -0.0347  0.0655 -0.0200
 2549SOL     OW19105   0.763   4.686  10.494 -0.2190  0.4354  0.0169
 2549SOL    HW119106   0.729   4.712  10.579 -1.1959 -0.3515 -0.1275
 2549SOL    HW219107   0.791   0.045  10.461  3.0412 -0.6297  0.0693
 2550SOL     OW19108   4.094   4.023   2.931 -0.2946 -0.1132 -0.2503
 2550SOL    HW119109   4.007   3.986   2.944 -0.4483  0.4113  0.2071
 2550SOL    HW219110   4.069   4.104   2.886 -0.0233 -0.3285 -0.7916
 2551SOL     OW19111   2.770   4.556  16.604 -0.1237  0.0941 -0.4731
 2551SOL    HW119112   2.827   4.629  16.579 -1.2205  0.5914 -1.5100
 2551SOL    HW219113   2.773   4.568  16.699 -1.1038  0.4785 -0.4910
 2552SOL     OW19114   0.316   1.479   7.037 -0.0269 -0.0800 -0.4041
 2552SOL    HW119115   0.249   1.436   7.091 -0.0407 -0.7631 -0.9636
 2552SOL    HW219116   0.350   1.535   7.106 -0.7277 -0.8282  0.5433
 2553SOL     OW19117   3.903   1.582   7.060 -1.0841 -0.0589 -0.1267
 2553SOL    HW119118   3.962   1.567   6.987 -3.2092 -0.9378 -1.6818
 2553SOL    HW219119   3.943   1.529   7.129  0.8713  0.5100 -0.8283
 2554SOL     OW19120   3.813   1.947  10.990 -0.3384  0.1901  0.0927
 2554SOL    HW119121   3.770   1.876  11.038  0.0932 -1.1164 -1.4470
 2554SOL    HW219122   3.786   1.921  10.902 -3.8431 -0.2934  1.2924
 2555SOL     OW19123   3.319   2.502   7.374  0.5183 -0.1668  0.1020
 2555SOL    HW119124   3.357   2.456   7.299  2.6166  0.2790  0.8883
 2555SOL    HW219125   3.267   2.435   7.417  0.9728 -0.5321  0.0863
 2556SOL     OW19126   0.937   0.990  15.233 -0.5471 -0.5809 -0.2434
 2556SOL    HW119127   1.012   0.995  15.175  0.2422  1.0623  0.9098
 2556SOL    HW219128   0.968   1.024  15.317  0.0962  2.3419 -1.6976
 2557SOL     OW19129   0.619   1.305   2.289  0.2753 -0.6227  0.5503
 2557SOL    HW119130   0.555   1.324   2.357 -1.1573 -0.5970 -0.8042
 2557SOL    HW219131   0.594   1.217   2.258  0.2412 -0.8677  1.2898
 2558SOL     OW19132   1.528   1.323   5.097 -0.9337 -0.4716 -0.2894
 2558SOL    HW119133   1.528   1.417   5.079  1.7339 -0.7323 -1.5696
 2558SOL    HW219134   1.610   1.305   5.051 -1.0730  0.9758 -1.1228
 2559SOL     OW19135   4.635   0.971  16.628 -0.4872  0.2612  0.2299
 2559SOL    HW119136   4.611   0.981  16.536 -0.8960  1.1916  0.4374
 2559SOL    HW219137   0.003   0.950  16.625 -0.6797 -0.2920 -1.7127
 2560SOL     OW19138   2.753   1.815  10.923 -0.0359  0.3118  0.2253
 2560SOL    HW119139   2.796   1.731  10.910  0.2909  0.3713  0.9633
 2560SOL    HW219140   2.710   1.828  10.838 -1.6958 -1.0152  0.8612
 2561SOL     OW19141   4.186   1.404   7.716  0.2821  0.0493  0.5147
 2561SOL    HW119142   4.135   1.333   7.754 -3.3099  2.1931 -0.2387
 2561SOL    HW219143   4.131   1.431   7.642  0.7442 -1.0756 -0.2421
 2562SOL     OW19144   0.827   0.034   9.096  0.4183 -0.5779 -0.5663
 2562SOL    HW119145   0.753   0.095   9.090  0.8162 -0.0805 -0.4612
 2562SOL    HW219146   0.875   0.063   9.019  0.9087  0.0428 -0.0302
 2563SOL     OW19147   1.824   2.959  11.150  0.0392  0.0172 -0.1783
 2563SOL    HW119148   1.869   2.898  11.092 -1.3122 -0.6985 -0.4677
 2563SOL    HW219149   1.844   2.919  11.234  0.2554 -1.9510 -1.1808
 2564SOL     OW19150   1.419   2.308   6.369 -0.4587 -0.1727 -0.1542
 2564SOL    HW119151   1.358   2.275   6.304 -0.5413  0.8329 -0.5958
 2564SOL    HW219152   1.378   2.392   6.390  1.5689  0.9170 -0.5322
 2565SOL     OW19153   1.732   3.557   3.389  0.0314  0.2422 -0.6153
 2565SOL    HW119154   1.808   3.616   3.399 -0.6743  0.8752  0.9294
 2565SOL    HW219155   1.667   3.614   3.431  0.1380 -0.2950  0.2773
 2566SOL     OW19156   0.290   3.788   5.302 -0.0860  0.3060 -0.2632
 2566SOL    HW119157   0.320   3.713   5.353 -2.4526  0.4677  1.3548
 2566SOL    HW219158   0.198   3.793   5.327 -0.7426  0.2171 -2.7091
 2567SOL     OW19159   0.096   1.039  10.800 -0.3637 -0.3725  0.0911
 2567SOL    HW119160   0.037   0.980  10.754  0.4311 -2.8988  2.2963
 2567SOL    HW219161   0.064   1.119  10.759 -3.5217 -3.0831 -2.7041
 2568SOL     OW19162   1.035   0.611   2.616 -0.1921 -0.1330  0.3299
 2568SOL    HW119163   1.024   0.593   2.523 -0.6577  0.6021  0.2424
 2568SOL    HW219164   0.945   0.634   2.640 -1.0137 -0.8048 -2.1073
 2569SOL     OW19165   4.352   3.464   4.564 -0.0578  0.3581  0.2706
 2569SOL    HW119166   4.317   3.531   4.505  1.4511 -1.3049 -2.5336
 2569SOL    HW219167   4.316   3.507   4.641 -0.4249  1.7274 -0.6746
 2570SOL     OW19168   3.231   0.848  16.179 -0.2130 -0.0684 -0.4770
 2570SOL    HW119169   3.188   0.913  16.123 -0.3121  0.2019 -0.0907
 2570SOL    HW219170   3.171   0.850  16.254  0.5403 -0.4440  0.1349
 2571SOL     OW19171   0.456   1.042   6.016 -0.8061 -0.1938 -0.3659
 2571SOL    HW119172   0.423   0.987   5.945 -1.7397  0.2833 -0.2936
 2571SOL    HW219173   0.443   1.131   5.982  1.0026  1.2616  2.7402
 2572SOL     OW19174   0.425   2.146   5.915  0.2876 -0.8743 -0.6620
 2572SOL    HW119175   0.396   2.141   5.824  1.5581  1.9307 -1.2199
 2572SOL    HW219176   0.383   2.067   5.949  1.2106 -0.1371  2.1575
 2573SOL     OW19177   1.175   2.502  11.862 -0.2475 -0.0288 -0.2040
 2573SOL    HW119178   1.126   2.460  11.791  3.7243 -0.3053 -2.7728
 2573SOL    HW219179   1.173   2.593  11.831 -0.4742  0.4015  1.0593
 2574SOL     OW19180   0.048   4.597   7.456  0.6034  0.1974 -0.3465
 2574SOL    HW119181   0.076   4.659   7.524 -2.0659  1.6464 -0.5395
 2574SOL    HW219182   4.686   4.630   7.437  0.1382 -0.7836  0.1141
 2575SOL     OW19183   3.179   1.737   9.533  0.1584 -0.2070  0.3411
 2575SOL    HW119184   3.261   1.688   9.537  1.8215  2.7095  1.7217
 2575SOL    HW219185   3.120   1.719   9.606 -1.5633  1.8046 -0.5315
 2576SOL     OW19186   1.555   0.417   0.464  0.0431 -0.2978 -0.1929
 2576SOL    HW119187   1.543   0.331   0.504  0.8255 -0.8972 -1.2464
 2576SOL    HW219188   1.487   0.409   0.396  0.4316  1.9664 -0.8493
 2577SOL     OW19189   4.075   3.181   3.009 -0.4438 -0.3112 -0.1963
 2577SOL    HW119190   4.123   3.234   2.946  1.3600 -0.2440  1.2115
 2577SOL    HW219191   4.152   3.136   3.044 -0.8187 -0.5456  0.3200
 2578SOL     OW19192   1.994   2.051   8.892 -0.3017 -0.0718 -0.0254
 2578SOL    HW119193   2.023   1.969   8.853  0.9550 -0.6375  2.1042
 2578SOL    HW219194   1.916   2.028   8.943 -1.0258  1.6335 -0.3484
 2579SOL     OW19195   0.060   3.963   2.358 -0.6593  0.2988  0.2106
 2579SOL    HW119196   0.132   4.022   2.335  0.0660 -0.4984  0.4520
 2579SOL    HW219197   0.099   3.917   2.432  0.2714 -0.8216 -0.9734
 2580SOL     OW19198   2.730   0.404  11.780  0.7379 -0.5257  0.4225
 2580SOL    HW119199   2.810   0.432  11.826  0.9222  1.0606 -0.8543
 2580SOL    HW219200   2.685   0.378  11.860  1.2359  0.5232  1.0527
 2581SOL     OW19201   3.464   2.441  13.679 -0.2245  0.1720 -0.6509
 2581SOL    HW119202   3.410   2.412  13.606 -2.0595 -0.3082  0.9119
 2581SOL    HW219203   3.543   2.395  13.650  0.2000 -0.1210  0.9481
 2582SOL     OW19204   3.992   1.142   1.212  0.3632  0.1075  0.3216
 2582SOL    HW119205   3.989   1.148   1.308 -2.5604  1.1410  0.1514
 2582SOL    HW219206   4.075   1.181   1.184 -0.2267  1.8559  1.0130
 2583SOL     OW19207   2.273   0.653  16.163 -0.1738  0.4287 -0.0879
 2583SOL    HW119208   2.314   0.622  16.243 -0.6478 -2.2515 -0.8693
 2583SOL    HW219209   2.343   0.620  16.106 -0.3860  0.3832 -0.3251
 2584SOL     OW19210   2.502   1.293   5.071  0.1889  0.3347  0.1273
 2584SOL    HW119211   2.539   1.206   5.056 -4.2870 -1.7786  1.3884
 2584SOL    HW219212   2.542   1.311   5.157 -2.4905  0.0082  1.4323
 2585SOL     OW19213   0.168   1.904   6.829  0.0223 -0.0892 -0.5706
 2585SOL    HW119214   0.153   1.920   6.922 -1.4478 -3.5832 -0.2102
 2585SOL    HW219215   0.106   1.973   6.803 -0.7928 -0.6155 -0.0517
 2586SOL     OW19216   4.187   3.882   9.688  0.1165  0.1401  0.1057
 2586SOL    HW119217   4.252   3.947   9.712  0.9127 -0.3489 -0.7531
 2586SOL    HW219218   4.106   3.920   9.722 -0.3979  0.3120 -1.2801
 2587SOL     OW19219   3.723   2.599   5.288 -0.2219 -0.5395  0.1533
 2587SOL    HW119220   3.642   2.588   5.238 -0.0920  0.7400 -0.3434
 2587SOL    HW219221   3.709   2.689   5.318 -0.6849  0.4793 -3.0560
 2588SOL     OW19222   2.216   4.171   7.811 -0.3259 -0.3668  0.1999
 2588SOL    HW119223   2.136   4.147   7.859  1.2711 -0.9077  2.5955
 2588SOL    HW219224   2.280   4.111   7.851 -2.1510 -1.8551  0.9112
 2589SOL     OW19225   0.790   2.100  17.390 -0.0241  0.1779  0.1892
 2589SOL    HW119226   0.846   2.159  17.440  0.0861  0.9387 -0.8375
 2589SOL    HW219227   0.712   2.129  17.437 -0.5890  1.5287 -1.5675
 2590SOL     OW19228   0.288   1.838   4.463  0.1393  0.8461 -0.5581
 2590SOL    HW119229   0.321   1.832   4.553  0.5728 -1.8440 -0.8933
 2590SOL    HW219230   0.223   1.907   4.474  0.7715  1.3062  0.3652
 2591SOL     OW19231   3.434   4.291  13.199  0.5344 -0.2944 -1.0070
 2591SOL    HW119232   3.368   4.321  13.261  1.0515  1.3991 -1.2887
 2591SOL    HW219233   3.458   4.375  13.159  1.6389  0.6626  1.7157
 2592SOL     OW19234   0.545   0.950   9.543 -0.4186 -0.0702  0.5515
 2592SOL    HW119235   0.569   0.874   9.595  0.5623 -0.3524 -0.2951
 2592SOL    HW219236   0.531   1.022   9.605  1.1995  0.1512  0.6598
 2593SOL     OW19237   2.549   0.894   9.756  0.9120  0.2628 -0.0277
 2593SOL    HW119238   2.644   0.883   9.758  1.0107  1.0703 -0.4140
 2593SOL    HW219239   2.540   0.877   9.662  4.4163  1.4301 -0.5800
 2594SOL     OW19240   0.249   2.180   7.927  0.5312 -0.6027 -0.4718
 2594SOL    HW119241   0.308   2.175   8.002 -0.0454 -2.6318 -0.1357
 2594SOL    HW219242   0.297   2.240   7.871  0.9163 -1.1027 -0.6711
 2595SOL     OW19243   3.253   0.339   5.042 -0.5860  0.4247 -0.0951
 2595SOL    HW119244   3.319   0.408   5.036 -0.6085  0.4009 -0.6849
 2595SOL    HW219245   3.299   0.259   5.017  0.9759  0.9945  0.9461
 2596SOL     OW19246   4.028   2.136   2.598  0.0353 -0.2579  1.0477
 2596SOL    HW119247   4.062   2.211   2.647 -1.9153  1.2893  0.0238
 2596SOL    HW219248   4.012   2.167   2.509  1.1386 -0.5013  0.7622
 2597SOL     OW19249   4.536   3.722   7.206 -0.0472  0.3594 -0.1421
 2597SOL    HW119250   4.550   3.758   7.118  2.4101  2.0441  0.9447
 2597SOL    HW219251   4.623   3.687   7.223 -0.5504 -1.4024 -1.1413
 2598SOL     OW19252   0.671   0.004   4.213 -0.0850  0.1345  0.0129
 2598SOL    HW119253   0.761   0.002   4.180 -0.1563 -2.2133 -0.0269
 2598SOL    HW219254   0.635   4.651   4.174 -0.0698  1.9332 -3.6289
 2599SOL     OW19255   4.194   1.874   6.254  0.0384  0.3794  0.1429
 2599SOL    HW119256   4.212   1.953   6.202  0.6462 -0.8839 -1.5482
 2599SOL    HW219257   4.098   1.876   6.245 -0.0723  0.7974  1.4722
 2600SOL     OW19258   2.066   1.139  13.167 -0.0819 -0.2774 -0.4909
 2600SOL    HW119259   2.153   1.158  13.133 -0.0483  0.3213 -0.0836
 2600SOL    HW219260   2.023   1.220  13.138  1.9390  1.2425  0.7564
 2601SOL     OW19261   1.645   1.638  13.572  0.6021 -0.0282  0.0699
 2601SOL    HW119262   1.674   1.677  13.654  0.8625  0.2045 -0.1299
 2601SOL    HW219263   1.557   1.673  13.559 -0.1647 -0.6532  3.8023
 2602SOL     OW19264   3.554   1.980   0.451  0.3081 -0.4761 -0.1111
 2602SOL    HW119265   3.461   2.003   0.442  0.7570  0.7615 -1.5429
 2602SOL    HW219266   3.578   1.979   0.358  0.8492 -0.5981  0.0313
 2603SOL     OW19267   0.758   1.403   5.011 -0.3681  0.2803 -0.1460
 2603SOL    HW119268   0.852   1.423   5.010 -0.5535  1.0377 -2.1103
 2603SOL    HW219269   0.733   1.454   5.087  2.2955 -0.1585  1.0240
 2604SOL     OW19270   0.510   1.254   2.948 -0.4065 -0.0302 -0.8804
 2604SOL    HW119271   0.559   1.337   2.954  1.7562 -1.1883 -2.8874
 2604SOL    HW219272   0.491   1.242   3.041 -2.5138 -0.0923 -1.3334
 2605SOL     OW19273   4.726   3.254   2.827  0.4547 -0.3112 -0.7686
 2605SOL    HW119274   4.678   3.216   2.901  0.2623  0.8305 -0.2931
 2605SOL    HW219275   0.055   3.325   2.861  0.5084 -0.1002 -1.3052
 2606SOL     OW19276   4.434   2.178   2.453 -0.1923  0.4487 -0.1084
 2606SOL    HW119277   4.454   2.180   2.359 -0.7715  0.1809 -0.2389
 2606SOL    HW219278   4.400   2.268   2.460  1.4572  1.1106 -0.7367
 2607SOL     OW19279   2.642   0.094   0.055  0.1505 -0.1552  0.0632
 2607SOL    HW119280   2.661   0.124  17.672  1.9549 -0.9698  0.1807
 2607SOL    HW219281   2.552   0.119   0.076 -0.1224 -0.1293 -1.1582
 2608SOL     OW19282   4.548   3.637  11.555 -0.7628 -0.4649  0.2061
 2608SOL    HW119283   4.469   3.652  11.606 -0.5446  0.3438  0.3060
 2608SOL    HW219284   4.618   3.623  11.620 -1.0898  1.4466  0.9710
 2609SOL     OW19285   1.813   2.613   0.101 -0.6530  0.3473 -0.8189
 2609SOL    HW119286   1.749   2.578   0.038 -0.5220 -0.5650 -0.4394
 2609SOL    HW219287   1.820   2.536   0.156  0.4793  1.1056  0.0971
 2610SOL     OW19288   2.499   4.254   5.539  0.6969 -0.2034  0.4846
 2610SOL    HW119289   2.563   4.212   5.482  1.4421 -0.2385  1.3493
 2610SOL    HW219290   2.472   4.324   5.478 -0.1072 -1.1436 -0.2351
 2611SOL     OW19291   1.987   3.072   6.660 -0.0717 -0.4010 -0.3929
 2611SOL    HW119292   1.931   3.004   6.698  0.0105  0.4871  1.2864
 2611SOL    HW219293   1.966   3.049   6.569 -0.1556  0.5406 -0.6034
 2612SOL     OW19294   1.702   4.551   7.584  0.3022  0.1809  0.3666
 2612SOL    HW119295   1.614   4.552   7.545  0.1925  2.8601  0.7453
 2612SOL    HW219296   1.743   4.616   7.527 -0.0634  1.5866  1.7449
 2613SOL     OW19297   3.757   1.538   6.442  0.3826 -0.0732  0.0284
 2613SOL    HW119298   3.756   1.567   6.534  1.2172 -0.5390  0.1865
 2613SOL    HW219299   3.673   1.494   6.433  0.1346  1.0795 -3.3230
 2614SOL     OW19300   3.336   3.095   6.567 -0.1279 -0.1739 -0.1526
 2614SOL    HW119301   3.414   3.110   6.513  0.2211 -1.0188  0.1074
 2614SOL    HW219302   3.274   3.059   6.503  1.6683  3.1461 -3.7529
 2615SOL     OW19303   3.953   4.147   9.246  0.0346  0.8935 -0.6528
 2615SOL    HW119304   3.883   4.198   9.288 -0.7753  1.0638 -2.2033
 2615SOL    HW219305   4.009   4.124   9.320 -1.9225  0.5678  0.7167
 2616SOL     OW19306   3.098   0.853   4.171 -0.1120  0.0430 -0.7202
 2616SOL    HW119307   3.008   0.824   4.157 -0.3501  0.0550  0.7895
 2616SOL    HW219308   3.095   0.943   4.140 -3.1577 -0.2210 -1.2097
 2617SOL     OW19309   2.277   1.438   3.144 -0.8785  0.1751 -0.3037
 2617SOL    HW119310   2.351   1.455   3.087  0.1677  1.1206  1.3326
 2617SOL    HW219311   2.211   1.419   3.077 -1.6816  0.5076  0.3896
 2618SOL     OW19312   4.639   2.949   3.224 -0.0067 -0.0081 -0.1590
 2618SOL    HW119313   4.568   2.896   3.261 -2.5022  1.2824 -3.0396
 2618SOL    HW219314   4.699   2.875   3.227 -1.7837 -1.3218  2.5342
 2619SOL     OW19315   0.748   3.601  10.944  0.2304  0.3233  0.0650
 2619SOL    HW119316   0.807   3.676  10.940  0.4291  0.2051  0.7820
 2619SOL    HW219317   0.697   3.616  11.024 -1.6358 -1.9407 -0.7037
 2620SOL     OW19318   0.704   3.052   8.363 -0.6264 -0.0795 -0.1112
 2620SOL    HW119319   0.798   3.065   8.378 -0.6741 -1.5730  1.4691
 2620SOL    HW219320   0.677   3.029   8.452  1.4138  2.3823  1.1443
 2621SOL     OW19321   0.797   3.950   9.811  0.4311 -0.2675 -0.2719
 2621SOL    HW119322   0.809   3.908   9.896  0.1475 -0.2467 -0.2196
 2621SOL    HW219323   0.812   3.874   9.754  2.0509  0.3922 -0.7132
 2622SOL     OW19324   1.895   4.153   5.484  0.2633  0.2315  0.4990
 2622SOL    HW119325   1.807   4.129   5.452  0.3975 -0.9882  1.0664
 2622SOL    HW219326   1.934   4.066   5.477 -0.9915 -0.2240 -1.0199
 2623SOL     OW19327   3.037   2.203   6.661  0.5454 -0.0294 -0.5045
 2623SOL    HW119328   2.963   2.165   6.613 -1.2850  2.4759  0.3400
 2623SOL    HW219329   2.986   2.258   6.721  0.4062 -1.2473  0.4828
 2624SOL     OW19330   4.439   3.697   9.308  0.4723  0.5898 -0.1021
 2624SOL    HW119331   4.520   3.654   9.336  1.3472  1.1105 -1.7979
 2624SOL    HW219332   4.410   3.758   9.376  0.1712  1.2844 -0.8450
 2625SOL     OW19333   1.235   2.891   1.325 -0.2498  0.1317 -0.1216
 2625SOL    HW119334   1.240   2.900   1.420  1.1713 -0.0303 -0.1728
 2625SOL    HW219335   1.330   2.885   1.319 -0.2170  0.7014 -0.2369
 2626SOL     OW19336   3.185   2.561   8.694  0.2373 -0.2722 -0.2198
 2626SOL    HW119337   3.226   2.475   8.689  0.4731 -0.0395 -2.3054
 2626SOL    HW219338   3.117   2.560   8.626 -0.6947  0.3664  0.6943
 2627SOL     OW19339   0.769   0.588   6.219 -0.2218  0.6850  0.4097
 2627SOL    HW119340   0.712   0.665   6.217 -1.6808 -0.3785  0.9384
 2627SOL    HW219341   0.846   0.637   6.249  1.1858 -0.7731 -0.7895
 2628SOL     OW19342   1.082   1.299  12.882 -0.3810 -0.3192 -0.5047
 2628SOL    HW119343   1.141   1.263  12.949 -0.6075 -1.9833 -1.1866
 2628SOL    HW219344   1.052   1.221  12.834 -1.2086  0.4927 -1.3063
 2629SOL     OW19345   3.989   4.697  13.600 -0.4378 -0.1907  0.0919
 2629SOL    HW119346   3.901   4.712  13.635 -0.2877  1.6144 -0.3065
 2629SOL    HW219347   3.967   4.719  13.509 -1.8155  0.1236  0.5025
 2630SOL     OW19348   2.320   2.260   9.815 -0.5872  0.1855  0.2059
 2630SOL    HW119349   2.406   2.217   9.821 -0.9490 -0.2706  2.1830
 2630SOL    HW219350   2.293   2.256   9.907 -0.5600 -2.8384  0.0969
 2631SOL     OW19351   1.107   2.337   6.693 -0.9079  0.8601  0.3355
 2631SOL    HW119352   1.033   2.397   6.699 -0.2364  1.9501 -2.3956
 2631SOL    HW219353   1.066   2.258   6.657  1.6995 -0.4018  0.0970
 2632SOL     OW19354   2.702   0.515  14.161 -0.1986 -0.5898 -0.0159
 2632SOL    HW119355   2.628   0.568  14.192  1.4952  1.2493  0.8109
 2632SOL    HW219356   2.743   0.505  14.246  0.1223 -0.9893 -0.2184
 2633SOL     OW19357   1.694   2.380   3.702 -0.3873  0.3123  0.2709
 2633SOL    HW119358   1.784   2.409   3.689 -1.0179  1.7244 -0.9234
 2633SOL    HW219359   1.649   2.450   3.655 -0.0691  0.6274  0.4341
 2634SOL     OW19360   0.874   4.124  11.244 -0.6091  0.4709 -0.6195
 2634SOL    HW119361   0.862   4.034  11.215 -0.0623 -0.0448  0.7571
 2634SOL    HW219362   0.949   4.113  11.302  0.0818  1.1135 -1.3904
 2635SOL     OW19363   3.653   1.736  10.805 -0.2657 -0.6494  0.3128
 2635SOL    HW119364   3.668   1.697  10.892 -0.4452 -1.4699 -0.0232
 2635SOL    HW219365   3.729   1.704  10.758  0.1598  1.5285 -0.4471
 2636SOL     OW19366   2.320   2.435   8.238 -0.3286  0.4084 -0.1794
 2636SOL    HW119367   2.321   2.425   8.334  0.5631  1.2564 -0.0944
 2636SOL    HW219368   2.342   2.528   8.236 -1.3720  0.6322 -1.0199
 2637SOL     OW19369   4.147   2.364   8.411 -0.2802 -0.4434  0.2785
 2637SOL    HW119370   4.073   2.367   8.350  1.5220 -0.1471 -1.8875
 2637SOL    HW219371   4.151   2.269   8.422  0.7940 -0.4450 -0.0842
 2638SOL     OW19372   1.843   4.132   6.238  0.3863 -0.3417  0.0885
 2638SOL    HW119373   1.860   4.129   6.332  0.2693  0.0585  0.1234
 2638SOL    HW219374   1.763   4.081   6.229 -0.8995  1.8764 -1.0462
 2639SOL     OW19375   0.245   0.353   4.279  0.0218 -0.2261 -0.1875
 2639SOL    HW119376   0.183   0.309   4.336 -0.7633  0.8651 -0.1953
 2639SOL    HW219377   0.330   0.328   4.316 -0.6374  1.0367  2.1911
 2640SOL     OW19378   3.258   3.574   0.861  0.0988 -0.0794  0.3923
 2640SOL    HW119379   3.324   3.617   0.806 -0.5388 -0.9848 -1.0775
 2640SOL    HW219380   3.201   3.554   0.787 -0.6026  0.2812  0.8299
 2641SOL     OW19381   0.888   2.010   4.079 -0.1198 -0.7548  0.1535
 2641SOL    HW119382   0.888   1.919   4.049  0.0448  0.1851 -2.6941
 2641SOL    HW219383   0.809   2.009   4.134 -0.4331  0.3810 -0.2693
 2642SOL     OW19384   2.454   1.704   4.009  0.1860  0.1499 -0.5480
 2642SOL    HW119385   2.414   1.651   4.078  0.9478  1.7776  1.1350
 2642SOL    HW219386   2.379   1.731   3.957  1.0165  0.6525 -1.4909
 2643SOL     OW19387   1.254   1.177   7.120 -0.0504 -0.2203 -0.3056
 2643SOL    HW119388   1.326   1.164   7.058  0.9740  2.1442  0.3946
 2643SOL    HW219389   1.230   1.087   7.143 -0.1882  0.4244  2.0247
 2644SOL     OW19390   2.008   2.521   2.474  0.0338  0.4322  0.1326
 2644SOL    HW119391   2.057   2.604   2.472  1.6467 -0.5025  0.9484
 2644SOL    HW219392   1.924   2.539   2.431 -0.4236 -0.6439  0.5976
 2645SOL     OW19393   4.531   1.945   6.591 -0.7761 -0.8812  0.1072
 2645SOL    HW119394   4.494   2.033   6.593  2.9661  0.7132 -0.6228
 2645SOL    HW219395   4.592   1.955   6.664 -1.7096 -0.0358  0.7604
 2646SOL     OW19396   2.565   4.441   5.896 -0.1736  0.5334  0.4367
 2646SOL    HW119397   2.583   4.506   5.963 -1.3225  2.5444 -1.2256
 2646SOL    HW219398   2.582   4.363   5.949  0.1221  1.4161  1.6316
 2647SOL     OW19399   1.579   3.301   7.224 -0.0127  0.7413 -0.0219
 2647SOL    HW119400   1.569   3.342   7.310  4.9027  1.4764  0.1914
 2647SOL    HW219401   1.661   3.252   7.232 -0.5823 -0.3855 -1.1397
 2648SOL     OW19402   0.585   3.281   1.134 -0.5307  0.1109 -0.5063
 2648SOL    HW119403   0.605   3.271   1.041 -2.5727 -1.5596 -0.7530
 2648SOL    HW219404   0.493   3.253   1.133  0.1446 -2.1006 -0.3902
 2649SOL     OW19405   3.484   0.287  14.143  0.4412 -0.1171  0.1473
 2649SOL    HW119406   3.506   0.291  14.050 -2.4187  0.3673 -0.5191
 2649SOL    HW219407   3.443   0.372  14.162 -0.4342 -0.4788 -0.1029
 2650SOL     OW19408   2.184   2.183   0.528  0.3469  0.1986  0.2371
 2650SOL    HW119409   2.127   2.147   0.459 -1.9832  0.7867  1.8693
 2650SOL    HW219410   2.242   2.243   0.481 -1.5096 -0.4791 -2.9255
 2651SOL     OW19411   4.350   4.080  10.142 -0.1636 -0.2688  0.0302
 2651SOL    HW119412   4.390   4.124  10.068 -1.1961 -0.0775 -0.4169
 2651SOL    HW219413   4.430   4.034  10.166 -0.6366 -1.3704 -0.5141
 2652SOL     OW19414   4.011   0.131   2.914 -0.1931  0.1787 -0.5145
 2652SOL    HW119415   3.977   0.175   2.992  3.0239  0.7325  0.5896
 2652SOL    HW219416   3.934   0.117   2.858  0.4442 -0.0052 -1.3580
 2653SOL     OW19417   3.033   2.585   6.854 -0.1898 -0.4700  0.4018
 2653SOL    HW119418   3.118   2.626   6.841 -1.0339  0.6418 -1.6296
 2653SOL    HW219419   3.046   2.538   6.936  0.8396 -2.0608 -0.6713
 2654SOL     OW19420   4.352   1.679   3.313  0.2689  0.0457  0.0815
 2654SOL    HW119421   4.289   1.723   3.256  0.8447  0.7488 -0.0102
 2654SOL    HW219422   4.420   1.658   3.249 -0.5977 -1.9458 -0.1817
 2655SOL     OW19423   3.585   1.981   7.016 -0.1250  0.4538  0.1032
 2655SOL    HW119424   3.594   1.948   6.927 -0.0729 -0.2742  0.3769
 2655SOL    HW219425   3.635   1.915   7.065 -3.0496 -1.4573  0.5241
 2656SOL     OW19426   0.750   3.875   4.138  0.2189  0.7958  0.1258
 2656SOL    HW119427   0.714   3.798   4.182 -1.2339  2.2242  1.3900
 2656SOL    HW219428   0.682   3.906   4.079 -0.2303  2.4251  1.5188
 2657SOL     OW19429   0.541   1.257  13.115  0.3814  0.4772  0.3660
 2657SOL    HW119430   0.495   1.204  13.180  0.7338  0.3159  0.4810
 2657SOL    HW219431   0.466   1.271  13.056 -0.6086 -1.0939  1.2485
 2658SOL     OW19432   4.260   3.672   9.116 -0.2446 -0.0473  0.4069
 2658SOL    HW119433   4.270   3.765   9.095  2.3177 -0.2686  0.6252
 2658SOL    HW219434   4.335   3.660   9.174 -1.6351 -1.0933  1.9833
 2659SOL     OW19435   2.280   0.799  10.276 -0.0848 -0.1126  0.5831
 2659SOL    HW119436   2.230   0.752  10.209  0.4073  0.6183 -0.3008
 2659SOL    HW219437   2.239   0.763  10.355 -0.9142  2.3220  1.2492
 2660SOL     OW19438   3.468   4.092   4.032  0.3058 -0.0948 -1.2685
 2660SOL    HW119439   3.423   4.046   3.962 -0.9964 -1.1239  0.2269
 2660SOL    HW219440   3.434   4.181   4.032 -0.0851 -0.2538 -2.6293
 2661SOL     OW19441   2.463   1.563   4.932 -0.7501 -0.4735 -0.2182
 2661SOL    HW119442   2.487   1.480   4.973  0.1953 -0.6873 -1.2085
 2661SOL    HW219443   2.511   1.628   4.984  1.6501 -2.6101  0.2565
 2662SOL     OW19444   2.729   3.286   3.618 -0.6028 -0.1402  0.1687
 2662SOL    HW119445   2.693   3.213   3.568 -2.0635  0.7556 -0.0993
 2662SOL    HW219446   2.781   3.239   3.683 -1.2768  1.3771  1.8369
 2663SOL     OW19447   0.978   1.724   7.669  0.0995  0.2831 -0.2998
 2663SOL    HW119448   0.991   1.788   7.600 -3.4316  0.4079 -0.8429
 2663SOL    HW219449   0.902   1.682   7.629  1.8381 -1.5072 -1.6885
 2664SOL     OW19450   1.487   3.060   4.004 -0.8282  0.3156 -0.0150
 2664SOL    HW119451   1.574   3.024   3.988 -0.1065  2.0392 -0.0059
 2664SOL    HW219452   1.502   3.137   3.948  1.0430  0.4756  0.7181
 2665SOL     OW19453   3.586   2.555   3.338  0.2718 -0.0525 -0.1746
 2665SOL    HW119454   3.615   2.516   3.420 -0.4182  1.3013  0.7200
 2665SOL    HW219455   3.659   2.616   3.326  0.6458 -0.4559  0.0582
 2666SOL     OW19456   2.811   2.093   8.726  0.3227 -0.1778  0.3177
 2666SOL    HW119457   2.852   2.163   8.776 -0.0804 -1.0861  1.9220
 2666SOL    HW219458   2.728   2.088   8.774  1.4674 -1.3560  2.1914
 2667SOL     OW19459   3.290   1.893   4.046  0.2483  0.0170  0.4475
 2667SOL    HW119460   3.225   1.961   4.029 -0.4808 -0.7163  0.3069
 2667SOL    HW219461   3.296   1.845   3.963  2.6132  0.6106  0.2693
 2668SOL     OW19462   1.374   4.180   4.801 -0.3930  0.2206  0.0159
 2668SOL    HW119463   1.370   4.272   4.774  0.1625  0.4153  0.6003
 2668SOL    HW219464   1.281   4.177   4.819 -0.2861  2.9834  1.0507
 2669SOL     OW19465   4.010   1.637   2.293  0.1756  0.0046  0.0642
 2669SOL    HW119466   4.047   1.643   2.205  4.5847  1.3038  2.0187
 2669SOL    HW219467   4.080   1.583   2.329  0.6854  1.0508  0.6609
 2670SOL     OW19468   2.948   0.932   8.973 -0.0697 -0.5234  0.3818
 2670SOL    HW119469   2.951   0.858   9.033  0.5336 -1.6035 -0.9890
 2670SOL    HW219470   2.891   0.992   9.021 -0.8868 -0.6887 -0.3724
 2671SOL     OW19471   0.660   1.560  11.833 -0.0062 -0.0213  0.4464
 2671SOL    HW119472   0.605   1.586  11.907 -0.4188 -0.2268  0.2091
 2671SOL    HW219473   0.613   1.484  11.799  0.1725  0.3764 -0.7007
 2672SOL     OW19474   0.172   2.307   9.348 -0.1674  0.9088  0.6066
 2672SOL    HW119475   0.264   2.285   9.329 -1.0486 -0.1827 -2.4037
 2672SOL    HW219476   0.132   2.339   9.267 -0.3686  0.6410  0.5983
 2673SOL     OW19477   2.164   3.376   5.034 -0.3726 -0.8536 -0.5059
 2673SOL    HW119478   2.141   3.326   4.956  0.7717 -2.3631  0.1310
 2673SOL    HW219479   2.208   3.452   4.996  1.6243 -2.7146 -1.8458
 2674SOL     OW19480   2.766   2.993   3.466  0.1249  0.0920 -0.1033
 2674SOL    HW119481   2.676   3.002   3.497  0.4508 -0.4020  0.9795
 2674SOL    HW219482   2.752   2.922   3.404 -1.7718  1.6265 -1.4145
 2675SOL     OW19483   4.240   4.247   5.662 -0.6131 -0.1483  0.3879
 2675SOL    HW119484   4.207   4.309   5.597 -2.4010 -2.0568 -0.4940
 2675SOL    HW219485   4.308   4.302   5.702  0.4735 -0.4300 -1.0558
 2676SOL     OW19486   2.569   3.781  11.305 -0.4496 -0.0106 -0.0848
 2676SOL    HW119487   2.662   3.771  11.283 -0.1022 -0.0904  1.4352
 2676SOL    HW219488   2.557   3.742  11.391  0.5104 -1.8181 -0.7691
 2677SOL     OW19489   2.544   4.165  14.814  0.7486 -0.3818 -0.4981
 2677SOL    HW119490   2.569   4.253  14.840 -3.9429  0.3259  1.5477
 2677SOL    HW219491   2.609   4.151  14.745  0.5003 -0.0568 -0.7993
 2678SOL     OW19492   3.881   1.184  12.674 -0.3457  0.1855 -0.3151
 2678SOL    HW119493   3.955   1.172  12.615 -0.2362 -1.0730  0.0700
 2678SOL    HW219494   3.902   1.129  12.750 -2.2282 -0.3479 -0.1690
 2679SOL     OW19495   0.077   1.695   9.993  0.3933 -0.1725 -0.4121
 2679SOL    HW119496   4.715   1.734   9.988  0.2627 -0.4064  0.0945
 2679SOL    HW219497   0.059   1.601   9.990 -0.2648 -0.0166 -1.5518
 2680SOL     OW19498   2.324   4.677   2.065 -0.1101  0.5127  0.4846
 2680SOL    HW119499   2.410   4.670   2.023  0.2687 -1.3844  1.5485
 2680SOL    HW219500   2.269   4.705   1.992  0.7467 -0.8516 -0.6784
 2681SOL     OW19501   0.979   4.440   2.397 -0.5168 -0.1446 -0.5054
 2681SOL    HW119502   1.018   4.527   2.384  0.1932 -0.3587  0.2338
 2681SOL    HW219503   0.889   4.467   2.419 -1.3022 -3.7881  0.6899
 2682SOL     OW19504   1.403   0.425   1.592  0.0457 -0.9499  0.0348
 2682SOL    HW119505   1.423   0.518   1.600 -1.0086 -0.6569 -0.7128
 2682SOL    HW219506   1.385   0.429   1.497 -3.0812  0.6189  0.6768
 2683SOL     OW19507   3.056   4.532   9.561  0.0347  1.1584 -0.2235
 2683SOL    HW119508   3.023   4.459   9.612 -1.9924  0.8184 -2.0301
 2683SOL    HW219509   3.067   4.491   9.475  0.2668 -0.9116  0.7944
 2684SOL     OW19510   2.495   3.065   3.497 -0.5365 -0.0122  0.2362
 2684SOL    HW119511   2.470   3.126   3.566  1.3441  0.3303  0.6039
 2684SOL    HW219512   2.446   3.091   3.419  0.6678 -2.5799 -1.3596
 2685SOL     OW19513   0.794   3.874   1.670  0.3644 -0.2835 -0.1277
 2685SOL    HW119514   0.726   3.933   1.703  0.1564 -0.3003 -0.5264
 2685SOL    HW219515   0.863   3.888   1.736 -1.4897  0.6553  1.5971
 2686SOL     OW19516   3.099   4.551   8.401  0.1410  0.2891  0.5534
 2686SOL    HW119517   3.135   4.492   8.467  4.0148  1.3016 -0.6194
 2686SOL    HW219518   3.152   4.630   8.412 -0.4583  0.4471  2.1896
 2687SOL     OW19519   1.357   2.567   8.845 -0.5494 -0.5347 -0.2524
 2687SOL    HW119520   1.379   2.660   8.849 -1.2446 -0.3400 -0.9653
 2687SOL    HW219521   1.441   2.526   8.824 -0.2907  0.1471 -0.5498
 2688SOL     OW19522   2.610   0.144   4.636  0.4603  0.3343  0.2225
 2688SOL    HW119523   2.553   0.218   4.654  1.5180  1.4234 -0.8778
 2688SOL    HW219524   2.571   0.108   4.557 -0.8758 -1.8891  1.8782
 2689SOL     OW19525   1.230   3.851   3.899  0.4212 -0.1108  0.0581
 2689SOL    HW119526   1.141   3.876   3.876  0.4852  1.6568  1.6752
 2689SOL    HW219527   1.247   3.790   3.828 -1.7326 -2.1319  1.2462
 2690SOL     OW19528   4.012   0.412   4.503 -0.2656 -0.6880  0.0183
 2690SOL    HW119529   3.958   0.450   4.572  1.5328  1.1678  0.3890
 2690SOL    HW219530   3.982   0.321   4.507  0.5557 -0.8831  2.0449
 2691SOL     OW19531   4.194   1.562  13.306  0.2926 -1.0684  0.5783
 2691SOL    HW119532   4.263   1.594  13.365  0.1731 -0.8341  0.5936
 2691SOL    HW219533   4.220   1.471  13.297  2.4376 -0.7073  3.2490
 2692SOL     OW19534   2.022   0.836  17.039 -0.0519  0.5091 -0.3235
 2692SOL    HW119535   1.931   0.865  17.026 -0.2048 -0.2796 -1.0694
 2692SOL    HW219536   2.042   0.827  16.945  2.8469  1.3524  0.2331
 2693SOL     OW19537   4.140   4.367   3.602 -0.3358  0.4716  0.0133
 2693SOL    HW119538   4.123   4.436   3.666 -2.3374  1.5318 -1.6281
 2693SOL    HW219539   4.102   4.415   3.528 -1.9819  0.0691  0.5789
 2694SOL     OW19540   2.967   0.225   9.444  0.7772 -0.6702 -0.2563
 2694SOL    HW119541   3.062   0.234   9.445  0.7778 -0.9720  1.6714
 2694SOL    HW219542   2.949   0.163   9.514  0.4860  0.0377  0.2925
 2695SOL     OW19543   2.206   3.930   8.237 -0.1358  0.2856  0.2381
 2695SOL    HW119544   2.249   3.870   8.298  0.1992  1.3080  1.0010
 2695SOL    HW219545   2.162   3.995   8.292  1.3715 -2.5121  4.7793
 2696SOL     OW19546   0.971   3.223   2.047 -0.3782 -0.5316 -0.1848
 2696SOL    HW119547   1.044   3.169   2.081  1.1202  1.3602 -0.4017
 2696SOL    HW219548   0.954   3.277   2.124  0.9028  0.3126 -0.4906
 2697SOL     OW19549   0.439   2.360   2.638 -0.7001 -0.3062 -0.3982
 2697SOL    HW119550   0.371   2.325   2.696 -0.3642  0.8437  0.6801
 2697SOL    HW219551   0.413   2.306   2.563  2.0357 -0.7665 -1.0188
 2698SOL     OW19552   2.404   0.326   4.685 -0.2913  0.5585 -0.3566
 2698SOL    HW119553   2.463   0.384   4.733 -0.5928 -0.1587  0.8866
 2698SOL    HW219554   2.394   0.375   4.604 -1.0840 -0.0923 -0.6522
 2699SOL     OW19555   0.928   2.722  17.427 -0.6342  0.0419 -0.2499
 2699SOL    HW119556   0.859   2.668  17.465 -0.6185  0.5375  0.4843
 2699SOL    HW219557   0.956   2.657  17.361  2.1311  1.5151 -0.5438
 2700SOL     OW19558   1.356   2.294   2.925  0.2369 -0.1823 -0.3540
 2700SOL    HW119559   1.435   2.346   2.940 -0.1863  0.1285  0.7232
 2700SOL    HW219560   1.289   2.345   2.970  2.8752  4.1452 -1.3054
 2701SOL     OW19561   4.176   2.795   3.076  0.4374  0.1162  0.4684
 2701SOL    HW119562   4.241   2.769   3.010  1.0707  1.9062  0.4004
 2701SOL    HW219563   4.107   2.728   3.072 -0.9937  1.5351  1.2024
 2702SOL     OW19564   3.226   1.403  13.604  0.8618 -0.0814  0.2208
 2702SOL    HW119565   3.141   1.386  13.643  0.2249 -0.6214 -1.3933
 2702SOL    HW219566   3.203   1.417  13.512  1.7195 -0.3045 -0.0298
 2703SOL     OW19567   2.502   3.017   1.215 -0.2189  0.0720  0.2412
 2703SOL    HW119568   2.468   2.941   1.262  0.5268  0.0160  0.6892
 2703SOL    HW219569   2.588   2.986   1.245 -1.9592 -1.1401  4.0320
 2704SOL     OW19570   0.705   0.424   5.481 -0.0530 -0.1595  0.1486
 2704SOL    HW119571   0.610   0.434   5.491 -0.1169  0.4866 -1.2082
 2704SOL    HW219572   0.714   0.329   5.474 -1.2458 -0.1870 -1.0745
 2705SOL     OW19573   2.446   1.339   1.935 -1.1360 -0.3572 -0.5538
 2705SOL    HW119574   2.508   1.289   1.988 -1.6566 -1.7725 -1.2944
 2705SOL    HW219575   2.498   1.414   1.906 -0.5168 -1.4636 -2.3201
 2706SOL     OW19576   0.004   3.285   8.664  0.4476 -0.5972 -0.3989
 2706SOL    HW119577   4.676   3.248   8.733  0.2872 -0.9543 -0.7164
 2706SOL    HW219578   0.077   3.322   8.714 -0.9465 -0.0669  1.2374
 2707SOL     OW19579   0.975   2.712   8.336  0.3470  0.8937  0.3144
 2707SOL    HW119580   1.036   2.702   8.409 -0.3260  1.1603  0.9181
 2707SOL    HW219581   0.922   2.787   8.362 -0.6711  0.2873 -0.0188
 2708SOL     OW19582   3.609   4.165   6.478 -0.0759  0.0778 -0.0612
 2708SOL    HW119583   3.698   4.153   6.509 -0.0750 -0.1777 -0.1627
 2708SOL    HW219584   3.613   4.132   6.388 -1.8794  1.5405 -0.6939
 2709SOL     OW19585   0.421   1.954  12.551 -0.2663 -0.1269  0.3508
 2709SOL    HW119586   0.328   1.974  12.542 -0.5697 -1.1273  1.2101
 2709SOL    HW219587   0.430   1.864  12.521  0.6733 -0.4658  1.6431
 2710SOL     OW19588   0.165   0.918   3.362  0.7688  0.1362 -0.4277
 2710SOL    HW119589   0.191   0.990   3.419 -0.3411 -0.6514  1.0760
 2710SOL    HW219590   0.249   0.873   3.354  0.3417 -1.0325  1.7000
 2711SOL     OW19591   0.878   0.646   5.493  0.3304 -0.3297  0.0747
 2711SOL    HW119592   0.965   0.612   5.473 -0.2221 -1.5335 -0.2403
 2711SOL    HW219593   0.818   0.574   5.475  0.0007  0.3824 -1.5962
 2712SOL     OW19594   0.172   1.164   1.299 -0.4090  0.1514 -0.5185
 2712SOL    HW119595   0.178   1.104   1.225  2.2082  0.1001 -0.2677
 2712SOL    HW219596   0.101   1.128   1.351 -0.3049  1.8423  0.8068
 2713SOL     OW19597   1.745   2.924   9.690 -0.4128 -0.6446  0.1022
 2713SOL    HW119598   1.748   2.869   9.769 -1.8418 -0.5396  0.2279
 2713SOL    HW219599   1.835   2.909   9.660 -0.4164 -0.3507 -0.0567
 2714SOL     OW19600   2.397   4.143   5.030 -0.2512  0.2642 -0.2874
 2714SOL    HW119601   2.401   4.239   5.029  1.3228  0.2085  1.2614
 2714SOL    HW219602   2.425   4.134   5.121  1.5435 -0.3159 -0.9058
 2715SOL     OW19603   4.175   3.720   8.421  0.5474 -0.6404 -0.5268
 2715SOL    HW119604   4.104   3.657   8.415 -0.1020  0.1186 -0.8620
 2715SOL    HW219605   4.160   3.752   8.331  0.0205 -0.8180 -0.5005
 2716SOL     OW19606   2.609   4.340  14.104  0.5275 -0.2491  0.5922
 2716SOL    HW119607   2.552   4.416  14.095 -0.6727 -1.4118 -1.5997
 2716SOL    HW219608   2.692   4.383  14.124  0.3674  0.4260 -0.1892
 2717SOL     OW19609   0.783   1.636   6.481  0.0593  0.6142 -0.0343
 2717SOL    HW119610   0.799   1.719   6.437  0.9985  0.5926  0.2599
 2717SOL    HW219611   0.784   1.672   6.570  0.8947  0.5416 -0.0153
 2718SOL     OW19612   2.855   4.605   7.554 -0.0103 -0.1298 -0.0302
 2718SOL    HW119613   2.839   4.671   7.622 -0.1677 -0.9098  0.6804
 2718SOL    HW219614   2.774   4.588   7.507  0.4036  0.3024 -0.9052
 2719SOL     OW19615   1.473   4.148  16.763  0.1926 -0.4237  0.2449
 2719SOL    HW119616   1.536   4.219  16.755  0.7756 -0.8046  1.4642
 2719SOL    HW219617   1.400   4.205  16.741  0.4525 -0.1166  0.1660
 2720SOL     OW19618   1.375   1.471   7.905 -0.1788  0.1178 -0.0156
 2720SOL    HW119619   1.377   1.541   7.840 -2.9416 -1.1927 -1.5759
 2720SOL    HW219620   1.398   1.510   7.989 -1.5419  0.4172  0.2297
 2721SOL     OW19621   4.636   3.577   1.662  0.2688 -0.2655 -0.1308
 2721SOL    HW119622   4.589   3.631   1.598  0.8383 -1.4374 -1.5450
 2721SOL    HW219623   4.673   3.649   1.712 -2.8134 -0.0954  1.8742
 2722SOL     OW19624   0.367   4.451   5.046  0.1463  0.3370 -0.0090
 2722SOL    HW119625   0.402   4.369   5.012 -1.7363 -0.4278 -0.1223
 2722SOL    HW219626   0.280   4.420   5.071 -0.5003 -0.1473 -2.8049
 2723SOL     OW19627   3.994   0.828   2.335  0.3395 -0.4115  0.0567
 2723SOL    HW119628   3.899   0.834   2.327  0.1733  0.6184  3.0615
 2723SOL    HW219629   4.005   0.743   2.292  0.7501 -0.6072  0.5543
 2724SOL     OW19630   0.203   1.408   2.254  0.4972  0.1380 -0.2776
 2724SOL    HW119631   0.215   1.499   2.225  2.5326 -0.1380 -0.2527
 2724SOL    HW219632   0.255   1.359   2.191  0.0114  0.8628 -1.2509
 2725SOL     OW19633   2.089   1.086  12.845  0.1359 -0.4614 -0.5104
 2725SOL    HW119634   2.042   1.168  12.826  0.9092  0.2241  0.5495
 2725SOL    HW219635   2.169   1.101  12.794 -0.1137  0.4135 -0.6412
 2726SOL     OW19636   3.397   4.139  16.978  0.3820 -0.0034 -0.0594
 2726SOL    HW119637   3.347   4.216  17.004  1.2519  1.4713 -2.7694
 2726SOL    HW219638   3.333   4.074  16.946 -0.6400  0.5510  0.8570
 2727SOL     OW19639   1.506   1.846   4.274 -0.1068  0.1422  0.3037
 2727SOL    HW119640   1.543   1.913   4.217 -0.8876  2.2529  2.2622
 2727SOL    HW219641   1.576   1.780   4.270  0.0356  0.3155 -0.0305
 2728SOL     OW19642   0.666   2.400   3.805  0.1577  0.2711 -0.1262
 2728SOL    HW119643   0.701   2.415   3.717  0.5400  0.5666  0.0792
 2728SOL    HW219644   0.727   2.332   3.835 -1.6446 -1.4260 -0.3059
 2729SOL     OW19645   0.116   4.430   2.846  0.1027 -0.0045  0.0042
 2729SOL    HW119646   0.077   4.437   2.759  0.8536  0.0034 -0.3321
 2729SOL    HW219647   0.170   4.508   2.853  1.8629 -1.1850 -0.5784
 2730SOL     OW19648   2.817   2.097   6.545  0.1949 -0.0183  0.1262
 2730SOL    HW119649   2.746   2.057   6.594  0.3263 -0.3714  0.0268
 2730SOL    HW219650   2.778   2.148   6.475 -0.1529  0.7343  0.8657
 2731SOL     OW19651   0.725   0.755   8.604 -0.0661 -0.2768 -0.3360
 2731SOL    HW119652   0.711   0.660   8.601  0.5718 -0.3804 -0.1846
 2731SOL    HW219653   0.652   0.789   8.554 -1.1651 -1.0267  0.7690
 2732SOL     OW19654   4.475   1.149   8.706 -0.3330 -0.1012  0.2221
 2732SOL    HW119655   4.380   1.146   8.701 -0.5140  0.6743  3.3254
 2732SOL    HW219656   4.502   1.120   8.619  3.7246 -2.3017  2.2207
 2733SOL     OW19657   1.675   0.546  15.213  0.0821  0.1700 -0.3754
 2733SOL    HW119658   1.644   0.475  15.269  0.1389 -0.9901 -1.8357
 2733SOL    HW219659   1.649   0.513  15.128  0.5033 -0.0272 -0.4314
 2734SOL     OW19660   0.766   0.148   3.361  0.3550  0.2794  0.6103
 2734SOL    HW119661   0.671   0.153   3.368  0.2333  2.1164 -2.2505
 2734SOL    HW219662   0.784   0.078   3.299 -2.2784 -0.0187  0.1815
 2735SOL     OW19663   4.445   1.599   9.343  0.1714  0.1706  0.2047
 2735SOL    HW119664   4.412   1.517   9.381  1.2322  0.0147  0.7922
 2735SOL    HW219665   4.369   1.646   9.309  0.1027  0.1467  0.3234
 2736SOL     OW19666   4.487   1.104  10.750  0.4084  0.4908 -0.1081
 2736SOL    HW119667   4.423   1.090  10.820 -0.2032  1.6006 -0.4530
 2736SOL    HW219668   4.518   1.016  10.728 -2.0846 -0.2662 -0.6014
 2737SOL     OW19669   3.468   3.888   0.854  0.4287 -0.0929  0.0516
 2737SOL    HW119670   3.407   3.844   0.795  0.0063  0.4695  0.0735
 2737SOL    HW219671   3.406   3.922   0.919  1.2071  0.5522  0.4576
 2738SOL     OW19672   2.439   2.431   7.242 -0.3660  0.0499  0.1237
 2738SOL    HW119673   2.489   2.503   7.280  2.6222 -0.3947 -3.0297
 2738SOL    HW219674   2.419   2.379   7.320 -0.1760  1.7011  1.2932
 2739SOL     OW19675   2.655   3.655   7.113  0.5658  0.1500 -0.3808
 2739SOL    HW119676   2.658   3.750   7.126  0.4041 -0.1157  1.5961
 2739SOL    HW219677   2.596   3.646   7.038  0.3045  2.3649 -0.4396
 2740SOL     OW19678   0.882   1.402  15.270 -0.1248  0.4406 -0.0589
 2740SOL    HW119679   0.951   1.405  15.204 -1.7337 -0.2094 -1.7777
 2740SOL    HW219680   0.808   1.396  15.210 -0.4561  0.0681  0.3787
 2741SOL     OW19681   4.033   1.221  12.445  1.0577 -0.0185 -0.2307
 2741SOL    HW119682   4.079   1.304  12.439 -1.7560  1.3623 -2.8203
 2741SOL    HW219683   3.943   1.235  12.413  0.9293  2.2408  1.1571
 2742SOL     OW19684   4.273   0.151   4.870 -0.0634  0.0404  0.4016
 2742SOL    HW119685   4.232   0.237   4.863  1.0989  0.5463 -0.2139
 2742SOL    HW219686   4.237   0.108   4.793 -0.4556  0.4873  0.3359
 2743SOL     OW19687   3.469   2.853   8.635  0.0108 -0.0480 -0.2847
 2743SOL    HW119688   3.475   2.942   8.602  1.5986  0.6881  1.9589
 2743SOL    HW219689   3.558   2.836   8.668 -1.4191 -0.8955  3.0866
 2744SOL     OW19690   0.164   2.101   7.061  0.2067 -0.5710  0.0991
 2744SOL    HW119691   0.176   2.049   7.141  1.1256  0.2499  0.4980
 2744SOL    HW219692   0.126   2.181   7.097  2.2229  0.1523  0.6085
 2745SOL     OW19693   0.157   1.124  12.606  0.4155  0.5721 -0.9057
 2745SOL    HW119694   0.130   1.047  12.656  2.1209 -0.2077 -1.2002
 2745SOL    HW219695   0.251   1.106  12.600 -0.0237 -2.1561  0.3440
 2746SOL     OW19696   2.537   0.567  17.216  0.5545 -0.0725  0.2805
 2746SOL    HW119697   2.487   0.550  17.136 -1.4620  3.6390  0.7750
 2746SOL    HW219698   2.602   0.614  17.164 -1.2863  3.1488  0.9044
 2747SOL     OW19699   2.371   1.671   2.139  0.1348  0.5042  0.0799
 2747SOL    HW119700   2.356   1.759   2.104  2.6995  0.6708 -0.6082
 2747SOL    HW219701   2.335   1.619   2.066  0.8946 -1.9845  1.4848
 2748SOL     OW19702   4.572   3.767   4.127 -0.1289 -0.1834  0.1278
 2748SOL    HW119703   4.645   3.705   4.126 -0.0699 -0.1017 -1.1087
 2748SOL    HW219704   4.598   3.806   4.210  0.8169  0.1321 -0.3255
 2749SOL     OW19705   2.441   3.867   1.685 -0.4403 -0.3377 -0.0296
 2749SOL    HW119706   2.468   3.831   1.769 -0.7716 -2.9262 -1.0029
 2749SOL    HW219707   2.524   3.852   1.638 -0.2259 -0.6958  0.4631
 2750SOL     OW19708   1.809   2.484   6.151 -1.3720  0.5606  0.4510
 2750SOL    HW119709   1.845   2.443   6.229  1.3420  0.1508 -0.9998
 2750SOL    HW219710   1.846   2.422   6.088  0.9786 -0.3120  2.7105
 2751SOL     OW19711   2.849   0.062   2.772  0.2635 -0.2617  0.2763
 2751SOL    HW119712   2.839   0.074   2.677  4.2679  1.2262  0.0677
 2751SOL    HW219713   2.807   4.703   2.786  0.8570 -0.6316 -0.1563
 2752SOL     OW19714   4.521   3.932   8.731 -0.0505 -1.0210  0.1929
 2752SOL    HW119715   4.594   3.973   8.777 -1.2459  0.5108  0.7315
 2752SOL    HW219716   4.570   3.852   8.710  1.7072  0.2026 -0.3360
 2753SOL     OW19717   3.933   1.385   2.586 -0.5603  0.1198 -0.0685
 2753SOL    HW119718   3.897   1.472   2.603  1.1227  0.7629  0.2812
 2753SOL    HW219719   3.980   1.393   2.503 -1.0311  2.3635 -0.1043
 2754SOL     OW19720   0.469   0.451  16.272 -0.1960  0.1101 -0.1495
 2754SOL    HW119721   0.397   0.414  16.322  0.4009  0.3250  0.8811
 2754SOL    HW219722   0.442   0.542  16.257  3.6298  1.0354 -1.7327
 2755SOL     OW19723   3.069   2.600   7.877 -0.1281  0.2588 -0.5488
 2755SOL    HW119724   3.040   2.690   7.894  0.2172  0.0924  0.9173
 2755SOL    HW219725   3.038   2.588   7.787 -1.4343  0.2935 -0.1023
 2756SOL     OW19726   0.133   2.020  12.596 -0.3134 -0.3294  0.2618
 2756SOL    HW119727   0.152   1.966  12.673 -1.6437 -0.2148  0.6659
 2756SOL    HW219728   0.042   2.049  12.602 -0.0105  0.3230  1.8476
 2757SOL     OW19729   2.781   1.349   1.800  0.7944 -0.2366 -0.1997
 2757SOL    HW119730   2.758   1.332   1.709  0.2972  1.3802 -0.3635
 2757SOL    HW219731   2.727   1.278   1.837 -0.8075 -0.5485 -3.1282
 2758SOL     OW19732   1.421   2.095   2.326  0.1027 -0.4503  0.4260
 2758SOL    HW119733   1.446   2.144   2.247 -3.0275  0.0869 -0.2315
 2758SOL    HW219734   1.391   2.020   2.274 -0.2390  0.2064 -0.3311
 2759SOL     OW19735   2.297   0.362   8.957  0.2294  0.5618  0.2674
 2759SOL    HW119736   2.222   0.329   8.908  0.3506 -2.3030  2.0133
 2759SOL    HW219737   2.358   0.294   8.932  0.8814  0.8834  0.9680
 2760SOL     OW19738   0.256   4.657  13.977  0.2229  0.6840  0.2192
 2760SOL    HW119739   0.177   4.701  14.008  1.4263  1.2218  2.5375
 2760SOL    HW219740   0.287   4.698  13.896 -1.2156 -1.1896 -1.2774
 2761SOL     OW19741   0.717   0.063  17.623 -0.1810  0.5622 -0.1078
 2761SOL    HW119742   0.638   0.014  17.601  0.9295 -0.2353 -2.3323
 2761SOL    HW219743   0.790   0.011  17.589 -0.8801 -0.9201  0.6812
 2762SOL     OW19744   0.454   0.371   3.828 -0.7512  0.0895  0.5463
 2762SOL    HW119745   0.511   0.430   3.878  1.0396 -2.5761  1.6532
 2762SOL    HW219746   0.425   0.423   3.753 -3.9291 -1.1693  0.9232
 2763SOL     OW19747   3.199   3.375   1.745 -0.1898  0.1229  0.3389
 2763SOL    HW119748   3.185   3.412   1.832 -0.7579 -2.4727  1.3501
 2763SOL    HW219749   3.153   3.438   1.688 -0.3106 -1.0463 -0.8463
 2764SOL     OW19750   1.328   3.222  14.757  0.2209 -0.5794 -0.2127
 2764SOL    HW119751   1.241   3.250  14.787  0.2139  0.0653 -0.8419
 2764SOL    HW219752   1.320   3.126  14.764  1.9519 -0.6374  0.7725
 2765SOL     OW19753   2.275   0.508   3.413 -0.1963  0.7813  0.4572
 2765SOL    HW119754   2.371   0.515   3.417  0.0248 -0.9416 -1.7388
 2765SOL    HW219755   2.256   0.540   3.325  2.5633  0.1840 -0.3532
 2766SOL     OW19756   1.635   1.558  15.276  0.1700 -0.0666  0.1031
 2766SOL    HW119757   1.726   1.551  15.249 -0.1985  0.3009 -1.2432
 2766SOL    HW219758   1.643   1.652  15.288  0.7077  0.2333 -2.5666
 2767SOL     OW19759   1.452   2.158  14.908 -0.1659 -0.3841  0.2047
 2767SOL    HW119760   1.397   2.194  14.838  0.4634  1.1635  0.5213
 2767SOL    HW219761   1.538   2.194  14.886 -1.0521  0.5906 -1.6629
 2768SOL     OW19762   0.977   0.263   3.115 -0.7558 -0.4387 -0.0493
 2768SOL    HW119763   1.031   0.235   3.189 -0.7641  0.1807  0.1913
 2768SOL    HW219764   0.975   0.189   3.055  0.7407  0.0678 -0.7239
 2769SOL     OW19765   0.764   1.913   2.062 -0.1760 -0.2134 -0.3209
 2769SOL    HW119766   0.677   1.896   2.025 -1.0607 -2.2434  2.6967
 2769SOL    HW219767   0.772   2.008   2.069  2.8325 -0.4270 -1.0544
 2770SOL     OW19768   3.906   0.520  15.091  0.2557  0.0853 -0.2181
 2770SOL    HW119769   3.828   0.528  15.038  0.5945  3.0458 -0.2646
 2770SOL    HW219770   3.927   0.604  15.134  1.1904 -0.5988  0.6808
 2771SOL     OW19771   0.769   4.086   0.173  0.7407 -0.3524  0.0974
 2771SOL    HW119772   0.761   4.054   0.262  0.0801  2.4322  1.0406
 2771SOL    HW219773   0.686   4.129   0.150  0.9665  1.8584  3.4491
 2772SOL     OW19774   0.884   1.659  15.394 -0.1344  0.3397  0.3252
 2772SOL    HW119775   0.941   1.640  15.469  0.6807 -2.2217 -0.9578
 2772SOL    HW219776   0.869   1.569  15.366 -1.1337  0.2339  1.2142
 2773SOL     OW19777   2.277   4.699  11.857 -0.0281  0.1224 -0.2633
 2773SOL    HW119778   2.205   0.035  11.844 -0.9595 -0.8324  0.3818
 2773SOL    HW219779   2.352   0.030  11.869 -1.0130  1.5173 -0.7633
 2774SOL     OW19780   1.499   3.728   2.430 -0.4624 -0.0322 -0.2117
 2774SOL    HW119781   1.466   3.721   2.519 -1.6077  3.7928 -0.3492
 2774SOL    HW219782   1.436   3.787   2.389  1.1044  0.0672 -2.5246
 2775SOL     OW19783   3.231   1.149   4.687 -0.2262  0.0344  0.0107
 2775SOL    HW119784   3.289   1.138   4.612  0.0522  0.7555  0.1255
 2775SOL    HW219785   3.146   1.181   4.657 -0.1013  0.3404 -0.0084
 2776SOL     OW19786   3.203   3.651  13.056 -0.0655  0.6964  0.4684
 2776SOL    HW119787   3.113   3.618  13.062 -0.1232  0.8595  0.5057
 2776SOL    HW219788   3.250   3.597  13.119 -0.1235  1.6859  1.3658
 2777SOL     OW19789   0.854   0.773   8.196  0.7291  0.6961 -0.3938
 2777SOL    HW119790   0.899   0.722   8.129  0.7851  1.0800 -0.6545
 2777SOL    HW219791   0.905   0.759   8.275  0.7181  1.2120 -0.2906
 2778SOL     OW19792   3.009   1.107  12.055  0.0754  0.3925 -0.3406
 2778SOL    HW119793   3.005   1.022  12.013  0.4816  0.9380 -1.4930
 2778SOL    HW219794   2.986   1.085  12.146 -1.0168  1.8722 -0.2544
 2779SOL     OW19795   1.308   3.372   6.549  0.5198 -0.1764  0.1654
 2779SOL    HW119796   1.283   3.379   6.641  1.7956  0.5389  0.4658
 2779SOL    HW219797   1.320   3.278   6.543 -0.4637 -0.5275  3.6102
 2780SOL     OW19798   0.932   2.628   1.941 -0.5393 -0.4501 -0.2290
 2780SOL    HW119799   0.983   2.688   1.996 -2.8528 -0.0881  1.5274
 2780SOL    HW219800   0.863   2.679   1.900 -0.1821  0.4019  0.2141
 2781SOL     OW19801   2.426   1.212   1.687 -0.5955 -0.2988 -0.3818
 2781SOL    HW119802   2.447   1.241   1.598 -0.0097  1.3562  0.3013
 2781SOL    HW219803   2.428   1.294   1.736 -1.5970  0.7881 -2.1758
 2782SOL     OW19804   1.543   3.335   2.586  0.1593  0.2157 -0.0609
 2782SOL    HW119805   1.572   3.395   2.516 -1.9560 -1.7325 -2.6174
 2782SOL    HW219806   1.610   3.352   2.652 -0.6730 -0.6808  1.0115
 2783SOL     OW19807   4.209   1.914   7.841 -0.2061 -0.1081  0.0826
 2783SOL    HW119808   4.301   1.927   7.860 -0.6833  0.5539  1.9201
 2783SOL    HW219809   4.174   1.945   7.924 -1.4891  0.2598 -0.5920
 2784SOL     OW19810   0.150   0.199   8.920  0.1753 -0.3602  0.0531
 2784SOL    HW119811   0.098   0.276   8.895  2.5233  1.2579  0.0660
 2784SOL    HW219812   0.160   0.220   9.013 -0.8084  2.4005 -0.4614
 2785SOL     OW19813   3.178   2.539   3.791  0.4363  0.5968  0.5550
 2785SOL    HW119814   3.119   2.601   3.747 -0.9102 -1.2985 -0.2981
 2785SOL    HW219815   3.253   2.536   3.731 -0.1666  0.4817 -0.1895
 2786SOL     OW19816   0.969   3.165   3.337  0.0011 -0.1236  0.2113
 2786SOL    HW119817   0.993   3.173   3.430  0.2131  3.2805 -0.1184
 2786SOL    HW219818   0.878   3.137   3.335 -0.2576  0.7731 -0.7390
 2787SOL     OW19819   4.014   3.255   6.113  0.0288  0.5460  0.0247
 2787SOL    HW119820   4.102   3.235   6.146 -0.4068  0.9988  1.4716
 2787SOL    HW219821   3.975   3.170   6.098  1.4918  0.1397 -1.4925
 2788SOL     OW19822   3.130   4.063   3.985 -0.0460 -0.4902  0.7340
 2788SOL    HW119823   3.178   4.079   4.066  2.1578 -2.9162 -0.0934
 2788SOL    HW219824   3.193   4.027   3.923 -0.6700  0.8928 -0.6936
 2789SOL     OW19825   2.046   2.382   8.425  0.2374  0.3752  0.3566
 2789SOL    HW119826   2.114   2.359   8.361 -0.5092 -0.6970 -0.0605
 2789SOL    HW219827   2.029   2.293   8.455 -0.7922  0.0386 -1.2247
 2790SOL     OW19828   2.501   0.403   3.196  0.0735 -0.2185 -0.4580
 2790SOL    HW119829   2.517   0.482   3.144  2.7456  0.7975  1.9299
 2790SOL    HW219830   2.589   0.377   3.224 -0.2851  0.6461  1.4948
 2791SOL     OW19831   1.095   2.476   1.076  0.4406  0.0391  0.3261
 2791SOL    HW119832   1.165   2.495   1.139  0.9060 -0.4670 -0.0300
 2791SOL    HW219833   1.009   2.487   1.116 -0.0997 -1.1403 -0.4849
 2792SOL     OW19834   4.511   3.792   1.516 -0.2675  0.3389  0.1503
 2792SOL    HW119835   4.442   3.847   1.479 -1.0654  0.2788  1.5475
 2792SOL    HW219836   4.546   3.861   1.573 -0.9154  1.1688 -0.4639
 2793SOL     OW19837   0.332   2.365   4.592  0.2145 -0.2984  0.2520
 2793SOL    HW119838   0.394   2.293   4.575 -0.3267 -1.4151  3.0892
 2793SOL    HW219839   0.341   2.380   4.686  0.8844 -1.9374  0.4571
 2794SOL     OW19840   4.484   0.144   2.811 -0.1707 -0.1242 -0.0203
 2794SOL    HW119841   4.553   0.206   2.832 -0.8510  1.5246 -2.6460
 2794SOL    HW219842   4.422   0.147   2.884  0.4155 -1.6819  0.5603
 2795SOL     OW19843   0.625   2.574   5.577 -0.2222 -0.6566  0.1559
 2795SOL    HW119844   0.662   2.631   5.510  1.4454 -0.5368  1.1734
 2795SOL    HW219845   0.688   2.584   5.648 -2.5580  2.3455  1.8373
 2796SOL     OW19846   2.117   1.517   2.845  0.2815 -0.3176 -0.5799
 2796SOL    HW119847   2.044   1.512   2.907 -0.1042  1.2796 -0.8994
 2796SOL    HW219848   2.079   1.554   2.765 -0.0657 -2.0959 -1.2409
 2797SOL     OW19849   1.075   2.615   7.759  0.3501 -0.0586 -0.4264
 2797SOL    HW119850   1.158   2.579   7.791  0.7707  1.1662 -0.1674
 2797SOL    HW219851   1.018   2.589   7.832  1.1501 -1.3742 -0.2609
 2798SOL     OW19852   4.102   3.047   7.112 -0.3291  0.3494  0.1071
 2798SOL    HW119853   4.022   3.068   7.160  0.4749 -0.2735  1.7220
 2798SOL    HW219854   4.093   2.954   7.132 -0.5961  0.1432 -0.9857
 2799SOL     OW19855   4.344   1.665   3.761 -0.1344  0.1779 -0.1960
 2799SOL    HW119856   4.378   1.578   3.780 -2.0824 -0.5494  0.0514
 2799SOL    HW219857   4.336   1.701   3.850 -0.5041 -0.0824 -0.1257
 2800SOL     OW19858   4.639   4.195   8.434 -0.1158 -0.5952 -0.1747
 2800SOL    HW119859   4.618   4.186   8.341 -0.1585 -4.4593  0.2171
 2800SOL    HW219860   4.561   4.176   8.485 -1.8412  0.6421 -2.3811
 2801SOL     OW19861   0.417   3.172   8.666 -0.6799 -0.0945  0.3075
 2801SOL    HW119862   0.438   3.079   8.665  1.0459  0.2992  0.1284
 2801SOL    HW219863   0.474   3.196   8.593 -1.1614  0.0676 -0.0159
 2802SOL     OW19864   4.241   4.323  10.501  0.5629 -0.3057  0.2451
 2802SOL    HW119865   4.192   4.242  10.491 -0.0534 -0.2760  2.9228
 2802SOL    HW219866   4.321   4.281  10.530  1.5349  1.8896  0.7844
 2803SOL     OW19867   3.794   2.586   7.251 -0.7126 -0.0128  0.1470
 2803SOL    HW119868   3.789   2.497   7.287 -0.9641 -0.6062 -1.3198
 2803SOL    HW219869   3.858   2.627   7.308 -0.8323  0.0267  0.2534
 2804SOL     OW19870   1.147   3.841   5.504  0.3564  0.2662  0.0480
 2804SOL    HW119871   1.081   3.851   5.436 -0.2796 -0.4383  0.5667
 2804SOL    HW219872   1.111   3.765   5.549  0.1085  2.0658  2.8401
 2805SOL     OW19873   3.953   0.341   8.028 -0.1508 -0.0450 -0.1926
 2805SOL    HW119874   3.891   0.289   7.977 -0.5084  1.3087 -1.1567
 2805SOL    HW219875   3.879   0.397   8.053  0.5552 -0.4308  2.7014
 2806SOL     OW19876   3.510   0.721   6.409  0.5523 -0.0202  0.3714
 2806SOL    HW119877   3.603   0.733   6.391  0.8323 -2.7044  0.0758
 2806SOL    HW219878   3.521   0.652   6.474 -3.2103 -1.9490 -1.0962
 2807SOL     OW19879   3.001   0.496   6.652  0.2718  0.1804 -0.2655
 2807SOL    HW119880   2.928   0.479   6.592  0.6404 -1.9121 -0.1160
 2807SOL    HW219881   2.956   0.542   6.722 -0.5638 -1.8197  0.5127
 2808SOL     OW19882   2.130   3.779   5.685 -0.6504  0.0376  0.3852
 2808SOL    HW119883   2.196   3.710   5.685  0.7046  1.3513 -0.8240
 2808SOL    HW219884   2.169   3.853   5.732 -0.4460  0.2666 -0.1417
 2809SOL     OW19885   0.958   0.910  14.041 -0.3814  0.2428  0.0965
 2809SOL    HW119886   0.877   0.909  14.093  0.3607 -1.4683  1.2065
 2809SOL    HW219887   0.996   0.998  14.042 -1.3372  0.6372  1.8992
 2810SOL     OW19888   0.289   1.761   5.043 -0.6328 -0.3429  0.5869
 2810SOL    HW119889   0.237   1.837   5.071 -1.1781 -0.4632 -0.0875
 2810SOL    HW219890   0.223   1.717   4.989 -0.5805  0.1622  0.1111
 2811SOL     OW19891   1.666   3.027   6.602 -0.0677  0.4725 -0.5344
 2811SOL    HW119892   1.641   3.067   6.685 -3.7697  0.0282 -1.4396
 2811SOL    HW219893   1.630   2.939   6.613 -0.5391  1.0234  2.2778
 2812SOL     OW19894   0.582   2.399   8.273  0.1046 -0.3060 -0.0388
 2812SOL    HW119895   0.662   2.436   8.310  0.5173  0.3687 -1.6160
 2812SOL    HW219896   0.593   2.402   8.178 -0.5542 -0.5819 -0.1213
 2813SOL     OW19897   3.751   1.180   5.237  0.0365  0.0889  0.3342
 2813SOL    HW119898   3.671   1.231   5.236 -0.7417 -1.0951  1.1762
 2813SOL    HW219899   3.735   1.111   5.173  1.1294  0.2641 -0.1340
 2814SOL     OW19900   3.302   0.652   4.732 -0.0361 -0.2510 -0.0926
 2814SOL    HW119901   3.314   0.661   4.826  1.1490  3.0054 -0.5293
 2814SOL    HW219902   3.360   0.579   4.710 -0.0114 -0.1765 -0.2786
 2815SOL     OW19903   1.547   0.476  14.998 -0.0536  0.3373  0.3450
 2815SOL    HW119904   1.502   0.404  14.955 -1.3359  1.1206  0.3628
 2815SOL    HW219905   1.488   0.549  14.981 -0.8985 -0.1651  1.1406
 2816SOL     OW19906   2.550   2.840  13.165 -0.0299  0.1544 -0.8496
 2816SOL    HW119907   2.579   2.752  13.142  1.8783  0.6763 -0.4396
 2816SOL    HW219908   2.487   2.817  13.234 -0.1126 -0.1149 -1.0180
 2817SOL     OW19909   1.037   3.452   9.437 -0.0938 -0.4716  0.1875
 2817SOL    HW119910   0.979   3.392   9.391  0.9561  0.4783 -2.3938
 2817SOL    HW219911   1.107   3.387   9.429 -0.8640 -0.9776 -2.3024
 2818SOL     OW19912   3.402   0.981  17.631  0.1398  0.2189  0.0884
 2818SOL    HW119913   3.431   1.004  17.542  1.9458  0.7019  0.8047
 2818SOL    HW219914   3.367   1.063  17.666  1.0975  0.7577 -0.2255
 2819SOL     OW19915   2.865   0.784   1.481  0.5617 -0.2004 -0.2832
 2819SOL    HW119916   2.855   0.736   1.563 -0.7570  0.8525  0.1894
 2819SOL    HW219917   2.771   0.799   1.469  0.5132  0.2437  0.6011
 2820SOL     OW19918   4.595   3.275   0.402 -0.2922 -0.1722  0.5595
 2820SOL    HW119919   4.503   3.252   0.392 -0.5847  2.3258 -2.5831
 2820SOL    HW219920   4.579   3.364   0.433  1.5438  0.1034  0.7304
 2821SOL     OW19921   1.428   3.283  14.154  0.1115 -0.1851 -0.8630
 2821SOL    HW119922   1.392   3.294  14.242 -0.1786 -0.9213 -0.8896
 2821SOL    HW219923   1.353   3.284  14.094 -0.2253 -0.8033 -0.4479
 2822SOL     OW19924   0.266   0.756   1.712 -0.3893  0.8503 -0.3505
 2822SOL    HW119925   0.174   0.749   1.686 -0.3619 -0.6264 -0.0610
 2822SOL    HW219926   0.311   0.708   1.642  1.1461 -0.7085  1.7150
 2823SOL     OW19927   3.307   4.371   9.434 -0.4115 -0.1790  0.4681
 2823SOL    HW119928   3.232   4.429   9.426  0.1440  0.6686  1.5533
 2823SOL    HW219929   3.386   4.422   9.417  0.6560 -2.1472 -0.5918
 2824SOL     OW19930   3.665   2.003  11.991 -0.5528 -0.2905 -0.1438
 2824SOL    HW119931   3.702   2.082  11.951  0.0181 -1.2227 -1.4660
 2824SOL    HW219932   3.575   2.033  12.000 -0.3886  0.1331  0.1000
 2825SOL     OW19933   4.403   1.034  12.235  0.4772  0.2581  0.0440
 2825SOL    HW119934   4.419   0.944  12.205 -0.3914  0.8409 -2.1559
 2825SOL    HW219935   4.465   1.078  12.177  0.1720  0.5880 -0.0310
 2826SOL     OW19936   2.108   4.644  12.737  0.8911 -0.2453 -0.4185
 2826SOL    HW119937   2.043   4.584  12.775  0.9861 -0.9737 -1.4217
 2826SOL    HW219938   2.181   4.584  12.724  0.2881 -0.7123 -1.6809
 2827SOL     OW19939   0.951   2.827   9.120 -0.2235  0.1014 -1.2114
 2827SOL    HW119940   1.022   2.822   9.057 -0.3947 -1.1981 -1.2922
 2827SOL    HW219941   0.958   2.755   9.183  0.4436  0.1751 -1.1990
 2828SOL     OW19942   4.716   4.013   3.956  0.1409 -0.2478 -0.0649
 2828SOL    HW119943   0.031   3.943   4.007  3.2695  0.5050 -1.5621
 2828SOL    HW219944   4.643   4.049   4.007 -0.9914  0.3020 -2.1056
 2829SOL     OW19945   1.953   1.060   1.676  0.0459 -0.0940 -0.2481
 2829SOL    HW119946   2.011   1.137   1.672 -0.2759  0.2134  0.8153
 2829SOL    HW219947   2.017   0.994   1.703 -0.4763 -0.3040  0.4585
 2830SOL     OW19948   3.707   4.183  15.187  0.1196  0.4406 -0.0863
 2830SOL    HW119949   3.652   4.183  15.108 -1.8670  0.2436  1.2972
 2830SOL    HW219950   3.670   4.110  15.237  0.0131 -0.6377 -1.7060
 2831SOL     OW19951   1.980   2.764   7.722  0.2353  0.3405 -0.5020
 2831SOL    HW119952   2.063   2.809   7.710  0.7584 -0.6992 -0.7582
 2831SOL    HW219953   2.014   2.677   7.703 -0.1611  0.2270 -0.7112
 2832SOL     OW19954   2.439   0.344   7.247 -0.0089 -0.2158  0.0864
 2832SOL    HW119955   2.456   0.351   7.341 -2.1630 -1.0181  0.5349
 2832SOL    HW219956   2.531   0.347   7.220 -0.5635 -0.9246 -1.9379
 2833SOL     OW19957   4.121   4.560   2.572  0.2308  0.7813  0.1041
 2833SOL    HW119958   4.170   4.616   2.633 -0.7510  1.2431  0.4795
 2833SOL    HW219959   4.139   4.476   2.613 -1.5288  0.7881  0.8902
 2834SOL     OW19960   2.250   0.664   3.185 -0.2024  0.1150  0.3908
 2834SOL    HW119961   2.210   0.638   3.102  0.6779 -3.0021  0.9417
 2834SOL    HW219962   2.339   0.680   3.155 -0.4083  0.8160  0.1609
 2835SOL     OW19963   3.164   0.264   7.950  0.3285 -0.0808 -0.1201
 2835SOL    HW119964   3.248   0.311   7.948 -0.1134  0.7017 -0.2034
 2835SOL    HW219965   3.125   0.277   7.864 -1.0703 -0.0463  0.5188
 2836SOL     OW19966   3.496   0.271  16.386  0.1726  0.0057 -0.2379
 2836SOL    HW119967   3.427   0.324  16.425  0.1474 -1.5838  1.9124
 2836SOL    HW219968   3.505   0.324  16.307  2.0078 -0.9425 -0.6801
 2837SOL     OW19969   0.103   3.343   4.218 -0.2607 -0.3532 -0.3677
 2837SOL    HW119970   0.184   3.296   4.198  0.9889  1.0318  1.4064
 2837SOL    HW219971   0.083   3.291   4.296  2.1465  1.3032  1.3650
 2838SOL     OW19972   1.283   2.453   8.478 -0.6419  0.1878  0.1196
 2838SOL    HW119973   1.353   2.388   8.485 -0.0855  0.9154  1.2266
 2838SOL    HW219974   1.269   2.454   8.383 -0.6751  1.6435  0.1439
 2839SOL     OW19975   1.824   1.841   3.342  0.0158  0.5999  0.1979
 2839SOL    HW119976   1.754   1.795   3.389 -1.0038 -1.1038 -3.0047
 2839SOL    HW219977   1.765   1.871   3.273  0.2381 -0.9016 -0.6589
 2840SOL     OW19978   0.305   3.712   9.041  0.1964  0.1740  0.3305
 2840SOL    HW119979   0.252   3.637   9.065 -1.4680  0.8438 -1.2081
 2840SOL    HW219980   0.271   3.733   8.954  2.0336  1.1799 -0.1443
 2841SOL     OW19981   2.594   3.126   3.888 -0.1004 -0.2436 -0.2863
 2841SOL    HW119982   2.621   3.123   3.980 -0.7534 -1.1962 -0.1269
 2841SOL    HW219983   2.536   3.201   3.880 -0.5139 -0.4213  0.9816
 2842SOL     OW19984   2.193   1.963  16.784 -0.3451 -0.3227 -0.5423
 2842SOL    HW119985   2.154   1.981  16.869  1.0283 -0.2486  0.0676
 2842SOL    HW219986   2.114   1.936  16.738  0.0935 -2.3020 -0.1306
 2843SOL     OW19987   3.358   1.784   5.507 -0.1162 -0.6096  0.5249
 2843SOL    HW119988   3.446   1.812   5.482  0.0007  0.3023  1.9947
 2843SOL    HW219989   3.383   1.704   5.554 -1.7042 -1.7094 -0.4956
 2844SOL     OW19990   4.682   1.811  12.941 -0.2751 -0.5275 -1.0071
 2844SOL    HW119991   4.600   1.855  12.964  1.0374  1.8979 -0.9518
 2844SOL    HW219992   0.020   1.858  12.995 -0.9483 -0.0103 -0.6536
 2845SOL     OW19993   3.073   3.051   6.393  0.3426 -0.0980 -0.0489
 2845SOL    HW119994   3.113   3.114   6.333 -1.1985 -0.7197 -1.7439
 2845SOL    HW219995   3.075   2.975   6.335 -0.1535  0.3721 -0.6819
 2846SOL     OW19996   4.461   1.860   3.084  0.6949  0.0469  0.7044
 2846SOL    HW119997   4.544   1.884   3.043  1.8251 -1.2863  2.1845
 2846SOL    HW219998   4.440   1.941   3.130  0.2737 -0.1738  0.9021
 2847SOL     OW19999   3.524   2.013   2.307  0.2645 -0.0149  0.0342
 2847SOL    HW120000   3.568   2.097   2.291 -0.9838  1.0391  2.0120
 2847SOL    HW220001   3.468   2.004   2.230 -2.2579  1.5479  1.6519
 2848SOL     OW20002   3.382   4.244   4.350 -0.6811  0.3080 -0.0193
 2848SOL    HW120003   3.311   4.195   4.309  0.7012  1.3399 -3.6634
 2848SOL    HW220004   3.441   4.174   4.380 -0.2846  1.8172  2.7834
 2849SOL     OW20005   2.529   3.080   7.688  0.0838  0.2454 -0.2063
 2849SOL    HW120006   2.554   3.164   7.726  1.1872  1.3109 -3.3655
 2849SOL    HW220007   2.494   3.110   7.604 -0.5557 -1.6048 -0.5967
 2850SOL     OW20008   3.714   3.408   1.577  0.7461 -0.0340 -0.1603
 2850SOL    HW120009   3.801   3.371   1.583  1.6321  1.8595 -1.3570
 2850SOL    HW220010   3.730   3.481   1.518  2.6597  0.1680  0.6340
 2851SOL     OW20011   2.477   3.504  15.404 -0.8112 -0.4133 -0.7760
 2851SOL    HW120012   2.567   3.524  15.428 -0.4671 -2.0098 -0.8020
 2851SOL    HW220013   2.435   3.591  15.408 -0.4335 -0.1427 -2.7883
 2852SOL     OW20014   0.312   2.193   7.497 -0.7846 -0.2365 -0.0640
 2852SOL    HW120015   0.346   2.282   7.504  0.6111 -0.5638 -2.8394
 2852SOL    HW220016   0.222   2.217   7.521 -0.5170  0.3432  0.3662
 2853SOL     OW20017   2.148   4.261  17.169  0.4636 -0.0824  0.0810
 2853SOL    HW120018   2.120   4.184  17.119  0.3679  0.0358 -0.0465
 2853SOL    HW220019   2.145   4.332  17.106  0.2007 -0.1161  0.0549
 2854SOL     OW20020   3.101   1.313   6.938 -0.1616 -0.0320  0.4291
 2854SOL    HW120021   3.027   1.266   6.976 -1.0296 -0.3019 -1.5927
 2854SOL    HW220022   3.161   1.239   6.925  0.9018  0.8134  0.4729
 2855SOL     OW20023   1.063   0.444   8.581 -0.1837 -0.2716 -0.4237
 2855SOL    HW120024   1.046   0.375   8.516  0.4169 -0.5693 -0.2704
 2855SOL    HW220025   1.035   0.515   8.523 -0.2732  2.0242  2.4611
 2856SOL     OW20026   2.338   0.988   5.123  0.5774 -0.5563  0.4016
 2856SOL    HW120027   2.261   0.964   5.173  0.4018 -0.0565  0.3655
 2856SOL    HW220028   2.407   1.018   5.181 -0.8556  1.1878  1.1754
 2857SOL     OW20029   1.120   4.619   9.028  0.2270  0.0372  0.0482
 2857SOL    HW120030   1.184   4.600   8.959  0.0799 -0.0080 -0.0776
 2857SOL    HW220031   1.170   4.664   9.096  1.5493 -2.4432  0.7035
 2858SOL     OW20032   2.287   3.087  16.413  0.3080 -0.0160 -0.0488
 2858SOL    HW120033   2.192   3.099  16.408 -0.3131 -4.4972  0.7287
 2858SOL    HW220034   2.321   3.152  16.351  0.0009  2.1987  2.1223
 2859SOL     OW20035   3.977   2.312  17.477 -0.4010 -0.0612  0.6169
 2859SOL    HW120036   4.032   2.234  17.479 -0.1188  0.1244  0.1513
 2859SOL    HW220037   3.891   2.272  17.490 -0.8687  0.6869 -0.1516
 2860SOL     OW20038   3.987   1.875   3.089 -0.3164 -0.3013 -0.8030
 2860SOL    HW120039   4.051   1.805   3.086 -0.0872 -0.1500  0.3494
 2860SOL    HW220040   3.927   1.837   3.026 -0.3580 -0.7045 -0.5168
 2861SOL     OW20041   0.910   2.776   1.356 -0.0635  0.3271  0.3769
 2861SOL    HW120042   0.944   2.817   1.436 -0.9927  1.6021  0.1121
 2861SOL    HW220043   0.989   2.777   1.302 -0.1741 -2.9939  0.1358
 2862SOL     OW20044   0.195   3.572  11.561 -0.4777  0.6852  0.4741
 2862SOL    HW120045   0.199   3.503  11.495 -0.9356 -1.1364  2.3574
 2862SOL    HW220046   0.165   3.515  11.632 -1.1001  0.0466 -0.2994
 2863SOL     OW20047   0.206   2.329   2.742 -0.0154  0.3621  0.4571
 2863SOL    HW120048   0.133   2.337   2.804  1.3314 -0.7969  2.2037
 2863SOL    HW220049   0.162   2.336   2.657 -1.4119 -1.8488  0.9931
 2864SOL     OW20050   0.879   0.213   7.677  0.5436 -0.1560  0.3749
 2864SOL    HW120051   0.833   0.129   7.675 -1.4965  0.9039  2.7643
 2864SOL    HW220052   0.949   0.189   7.616  0.6197 -0.7186  0.6859
 2865SOL     OW20053   0.552   1.822   2.602  0.5620  0.1004  0.3921
 2865SOL    HW120054   0.578   1.852   2.689 -1.4284 -0.6609  1.2410
 2865SOL    HW220055   0.636   1.840   2.560  0.7481  0.9752  1.1540
 2866SOL     OW20056   2.908   0.887   3.179  0.3963  0.0948 -0.5501
 2866SOL    HW120057   2.893   0.841   3.096 -0.7011 -0.0689 -0.2610
 2866SOL    HW220058   2.991   0.848   3.208  0.0872 -0.5174 -0.4932
 2867SOL     OW20059   2.627   2.053   8.392  0.2852 -0.3369  0.4705
 2867SOL    HW120060   2.561   2.058   8.323 -0.2441 -0.1458  0.9802
 2867SOL    HW220061   2.585   2.108   8.458  1.8022 -1.1681  2.1223
 2868SOL     OW20062   1.619   0.277  14.528 -0.2127  0.1275  0.4366
 2868SOL    HW120063   1.635   0.226  14.449  1.2396  3.4434 -1.4406
 2868SOL    HW220064   1.701   0.318  14.557 -0.7538  1.6057 -0.0777
 2869SOL     OW20065   2.074   4.283   2.021  0.0284  0.0699  0.7211
 2869SOL    HW120066   2.125   4.290   1.940 -1.1473  1.2410  0.0666
 2869SOL    HW220067   2.139   4.315   2.083  0.5351 -0.1796  0.3180
 2870SOL     OW20068   0.945   4.320  11.033  0.3972  0.5631  0.1503
 2870SOL    HW120069   0.908   4.273  11.108  1.0926 -0.0845  0.0812
 2870SOL    HW220070   1.010   4.260  10.996 -0.1220  0.5125 -0.6935
 2871SOL     OW20071   4.435   0.042   5.489  0.3579 -0.3664  0.2560
 2871SOL    HW120072   4.445   0.104   5.417 -0.5304  0.3510  0.7443
 2871SOL    HW220073   4.513   0.063   5.540  0.5395  1.4848 -0.7534
 2872SOL     OW20074   1.478   1.302  15.646  0.2991  0.3086  0.0866
 2872SOL    HW120075   1.506   1.315  15.737  1.5014 -0.0773 -0.2233
 2872SOL    HW220076   1.420   1.227  15.660 -3.0292  2.6338 -1.3092
 2873SOL     OW20077   0.140   2.647   2.157 -0.0892 -0.6708  0.6203
 2873SOL    HW120078   0.055   2.653   2.202  0.6985  0.9084  1.8777
 2873SOL    HW220079   0.140   2.571   2.099 -0.9241 -0.7498  0.7193
 2874SOL     OW20080   1.164   4.702   3.097  0.1026 -0.0223  0.2618
 2874SOL    HW120081   1.191   4.684   3.006  1.4359  1.1536  0.4298
 2874SOL    HW220082   1.225   4.646   3.146 -0.5529  0.8188  2.0302
 2875SOL     OW20083   1.433   1.999   6.170  0.4700  0.2856 -0.0066
 2875SOL    HW120084   1.472   1.914   6.148  0.7705  0.6762 -1.0273
 2875SOL    HW220085   1.371   2.018   6.099 -0.2342 -0.7146  0.3412
 2876SOL     OW20086   2.122   3.724   4.708  0.8449  0.3282 -0.4614
 2876SOL    HW120087   2.195   3.702   4.649  1.4865  0.5892  0.2297
 2876SOL    HW220088   2.159   3.805   4.743  0.1277 -0.1741  1.4385
 2877SOL     OW20089   1.061   0.433   3.574  0.3437 -0.0532 -0.0865
 2877SOL    HW120090   1.013   0.351   3.577  0.0515  0.1412  0.4528
 2877SOL    HW220091   0.991   0.488   3.609  1.3589  0.6147  0.9181
 2878SOL     OW20092   2.059   3.547   3.857 -0.5050  0.3531 -0.2473
 2878SOL    HW120093   2.055   3.559   3.762 -0.1123  0.1379 -0.2906
 2878SOL    HW220094   1.969   3.546   3.888  0.4062 -2.1707  2.2828
 2879SOL     OW20095   0.891   0.671   6.569  0.3520 -0.5645  0.3911
 2879SOL    HW120096   0.892   0.592   6.515  1.3266 -0.5573  0.4090
 2879SOL    HW220097   0.948   0.728   6.517  0.9588 -1.4797  0.0639
 2880SOL     OW20098   0.663   4.093  13.717  0.1006  0.4284  0.6968
 2880SOL    HW120099   0.732   4.099  13.651  0.6620 -1.4800  1.1049
 2880SOL    HW220100   0.583   4.101  13.665  0.8595 -1.3850 -0.7692
 2881SOL     OW20101   1.428   2.783  15.064  0.1305 -0.0252 -0.1974
 2881SOL    HW120102   1.457   2.693  15.054 -2.2936 -1.1262  2.5690
 2881SOL    HW220103   1.447   2.782  15.158 -0.3953 -1.2114 -0.1064
 2882SOL     OW20104   0.114   2.112   3.077  0.1053  0.0721 -0.2149
 2882SOL    HW120105   0.122   2.131   3.170  1.9533 -2.2458  0.0969
 2882SOL    HW220106   0.195   2.147   3.040 -0.2785  0.4023 -0.7535
 2883SOL     OW20107   0.015   0.551   1.884  0.2223  0.5088 -0.1968
 2883SOL    HW120108   4.656   0.512   1.865  0.7628  1.0319 -3.7491
 2883SOL    HW220109   0.052   0.528   1.798 -1.8949  0.8798 -1.1890
 2884SOL     OW20110   4.723   2.130   3.875 -0.3569 -0.4157  0.0393
 2884SOL    HW120111   4.657   2.186   3.917  2.6453  1.1588  2.5962
 2884SOL    HW220112   4.663   2.058   3.857 -0.1831 -0.1305 -1.6445
 2885SOL     OW20113   3.384   3.670   9.192 -0.0668 -0.2883 -0.1871
 2885SOL    HW120114   3.296   3.662   9.154  0.9828 -0.7516 -2.5660
 2885SOL    HW220115   3.436   3.665   9.112  1.3731  0.9455  0.6825
 2886SOL     OW20116   2.793   2.187   3.109  0.0986 -0.5376 -0.5532
 2886SOL    HW120117   2.840   2.142   3.039  0.0762 -0.4202 -0.6437
 2886SOL    HW220118   2.744   2.251   3.058 -0.3893 -0.8732 -0.5102
 2887SOL     OW20119   4.458   1.007   7.237 -0.6982 -0.3368 -0.1814
 2887SOL    HW120120   4.508   0.965   7.167 -2.8658 -1.9951 -0.7495
 2887SOL    HW220121   4.368   0.973   7.236 -0.4235 -1.0729  0.5146
 2888SOL     OW20122   2.155   4.144  17.413 -0.5225 -0.1769  0.0210
 2888SOL    HW120123   2.144   4.051  17.390  1.9473 -0.5782  0.4859
 2888SOL    HW220124   2.144   4.187  17.328  0.6455  3.1742  1.5835
 2889SOL     OW20125   0.072   1.798   4.845  0.5938 -0.2400  0.2257
 2889SOL    HW120126   4.710   1.800   4.882  0.4363 -2.2863 -0.0127
 2889SOL    HW220127   0.056   1.773   4.754  1.5553  0.5434 -0.1540
 2890SOL     OW20128   2.770   0.350  12.052 -0.9873 -0.1509  0.1884
 2890SOL    HW120129   2.797   0.317  12.137 -0.7057  0.5915  0.3849
 2890SOL    HW220130   2.830   0.423  12.039  0.1453 -0.9770  0.7832
 2891SOL     OW20131   0.343   3.596   5.509 -0.1856 -0.2174  0.3135
 2891SOL    HW120132   0.333   3.654   5.585  1.9097 -0.3169  0.6644
 2891SOL    HW220133   0.261   3.547   5.513 -0.7347  0.7125  0.4242
 2892SOL     OW20134   3.798   4.435   0.822 -0.2702  0.1332 -0.2261
 2892SOL    HW120135   3.832   4.415   0.735  0.9302  1.2589 -0.0027
 2892SOL    HW220136   3.806   4.347   0.860 -0.8020 -0.2971 -1.0986
 2893SOL     OW20137   1.849   3.809   4.822 -0.4249 -0.3343  0.0847
 2893SOL    HW120138   1.854   3.781   4.914  0.3384  0.4390  0.2797
 2893SOL    HW220139   1.933   3.777   4.790 -0.7925  0.1948 -1.4058
 2894SOL     OW20140   2.099   3.802   9.347  0.8173 -0.8026 -0.3157
 2894SOL    HW120141   2.195   3.804   9.354  0.8003  1.5239 -0.9306
 2894SOL    HW220142   2.083   3.840   9.261  2.0398 -0.5557 -0.4314
 2895SOL     OW20143   1.764   1.532  14.972  0.1303 -0.1346  0.5143
 2895SOL    HW120144   1.837   1.479  14.940 -1.8019 -1.6772 -1.3548
 2895SOL    HW220145   1.779   1.537  15.066 -1.2328 -2.2636  0.8439
 2896SOL     OW20146   0.048   3.305  17.454 -0.0066 -0.3534  0.7077
 2896SOL    HW120147   0.016   3.316  17.543  0.2907  0.0128  0.7695
 2896SOL    HW220148   4.703   3.255  17.415  0.6274 -0.0779 -0.8171
 2897SOL     OW20149   3.940   2.111   4.818  0.2393 -0.2747  0.5995
 2897SOL    HW120150   3.987   2.031   4.842  0.5158  0.3255  2.1047
 2897SOL    HW220151   3.959   2.122   4.725  0.3469  0.5009  0.7084
 2898SOL     OW20152   4.626   0.296   1.624 -0.5141 -0.1838  0.5362
 2898SOL    HW120153   4.568   0.346   1.682 -2.1324 -2.2755  0.6967
 2898SOL    HW220154   4.705   0.350   1.632 -1.6916  1.3829  1.6291
 2899SOL     OW20155   4.090   0.291   9.955 -0.2606 -0.0732 -0.0196
 2899SOL    HW120156   4.021   0.226   9.941 -1.8489  0.9959  2.7021
 2899SOL    HW220157   4.054   0.357  10.015  0.5016 -0.2114  0.6052
 2900SOL     OW20158   1.070   3.493   8.595 -0.3139  0.0523  0.5381
 2900SOL    HW120159   0.999   3.485   8.531 -0.7893 -0.6535  1.1412
 2900SOL    HW220160   1.018   3.517   8.672 -0.4402 -1.4503  0.9330
 2901SOL     OW20161   1.582   2.429   3.012 -0.0648 -0.2601  0.2374
 2901SOL    HW120162   1.662   2.383   3.035 -0.3474 -1.6610 -1.6150
 2901SOL    HW220163   1.591   2.511   3.062 -0.5288  0.3160 -0.6223
 2902SOL     OW20164   0.774   4.157  16.482 -0.6408 -0.1017  0.4976
 2902SOL    HW120165   0.814   4.221  16.422  0.7689  0.9203  2.5418
 2902SOL    HW220166   0.852   4.104  16.500 -1.7487 -1.7771  0.3399
 2903SOL     OW20167   3.866   1.399   7.409 -0.1575 -0.0585  0.2449
 2903SOL    HW120168   3.910   1.459   7.469  1.8658 -1.0766 -0.2223
 2903SOL    HW220169   3.945   1.362   7.370 -0.4261 -0.0769 -0.2854
 2904SOL     OW20170   0.682   1.553   5.244 -0.0175 -0.4554 -0.4127
 2904SOL    HW120171   0.644   1.466   5.256 -1.9432  0.1904 -1.7985
 2904SOL    HW220172   0.602   1.604   5.240  0.0125 -0.3262  0.7195
 2905SOL     OW20173   3.255   3.290   2.054  0.1395 -0.3228 -0.1846
 2905SOL    HW120174   3.221   3.204   2.079  0.6702 -0.4620  0.0666
 2905SOL    HW220175   3.313   3.261   1.983 -2.0017 -1.4238 -1.5019
 2906SOL     OW20176   2.831   2.152   1.216  0.0064 -0.3534  0.0138
 2906SOL    HW120177   2.905   2.103   1.180 -1.3231 -0.7723 -2.1381
 2906SOL    HW220178   2.770   2.162   1.143  2.8081 -0.8162 -2.3944
 2907SOL     OW20179   4.307   0.129   9.919 -0.5369 -0.6152  0.1535
 2907SOL    HW120180   4.248   0.190   9.964  0.8066 -1.2535  2.7808
 2907SOL    HW220181   4.334   0.076   9.994  0.2307 -1.8904 -1.0371
 2908SOL     OW20182   2.696   2.846  13.445  0.3172 -0.0234 -0.0133
 2908SOL    HW120183   2.721   2.938  13.438  1.0102 -0.1821  0.3657
 2908SOL    HW220184   2.628   2.821  13.382 -0.9390 -0.4376  1.5017
 2909SOL     OW20185   1.850   0.704  11.444 -0.0613 -0.2329 -0.0982
 2909SOL    HW120186   1.813   0.624  11.481  1.8669 -1.2819 -0.4160
 2909SOL    HW220187   1.816   0.698  11.355 -1.5847 -1.2096  0.5509
 2910SOL     OW20188   2.851   0.913  12.564  0.3022 -0.1434  0.8406
 2910SOL    HW120189   2.883   0.922  12.474 -0.1766 -2.8649  0.3936
 2910SOL    HW220190   2.814   1.000  12.581  1.4002  0.3196  0.8777
 2911SOL     OW20191   4.292   4.483   6.733 -0.7455 -0.1984  0.0910
 2911SOL    HW120192   4.196   4.482   6.730 -0.7234  1.8377 -1.1673
 2911SOL    HW220193   4.302   4.400   6.780 -0.5533 -1.3405 -1.9809
 2912SOL     OW20194   1.062   0.974   7.452  0.4758  0.2746  0.1826
 2912SOL    HW120195   1.010   0.999   7.376 -2.2424 -1.9170  1.3147
 2912SOL    HW220196   1.090   0.884   7.438  0.5476  0.8621 -3.2528
 2913SOL     OW20197   1.217   2.693   3.875  0.4638 -0.4155  0.1785
 2913SOL    HW120198   1.304   2.678   3.913 -0.0872 -3.3965  0.2596
 2913SOL    HW220199   1.208   2.788   3.880  3.4456 -0.0246 -1.5819
 2914SOL     OW20200   1.615   0.424   9.645  0.4522  0.4834  0.6844
 2914SOL    HW120201   1.569   0.446   9.725  1.6345 -1.2032  1.8227
 2914SOL    HW220202   1.554   0.364   9.602 -0.4291  1.0156  1.1908
 2915SOL     OW20203   2.575   3.821  15.071 -0.3119 -0.6536 -0.3925
 2915SOL    HW120204   2.554   3.730  15.093  2.3488 -1.4199 -0.9794
 2915SOL    HW220205   2.639   3.814  15.000 -0.7398 -1.2113 -0.7229
 2916SOL     OW20206   0.578   0.053  11.516  0.1167  0.0481 -0.4998
 2916SOL    HW120207   0.623   4.695  11.519 -0.2675 -0.1079  0.9897
 2916SOL    HW220208   0.601   0.084  11.603  1.3876 -3.0324  0.2536
 2917SOL     OW20209   3.109   2.425   9.254  0.4721  0.6438 -0.4437
 2917SOL    HW120210   3.162   2.394   9.327  1.8332  2.4452 -0.6713
 2917SOL    HW220211   3.168   2.432   9.179  0.3960 -1.7660 -0.7426
 2918SOL     OW20212   3.886   1.982   2.762  0.0068  0.7281 -0.3156
 2918SOL    HW120213   3.937   2.039   2.704  1.4837  1.0256  1.2844
 2918SOL    HW220214   3.941   1.903   2.759 -0.2316  0.6056 -1.6510
 2919SOL     OW20215   2.705   1.501  14.492  0.2893 -0.0793  0.7877
 2919SOL    HW120216   2.771   1.434  14.509 -1.9202 -2.4256  0.0235
 2919SOL    HW220217   2.635   1.485  14.555  1.0263  1.0254  1.8799
 2920SOL     OW20218   3.297   4.092   6.199 -0.0619  0.6796  0.4476
 2920SOL    HW120219   3.349   4.173   6.193  2.1090 -0.7837 -0.2881
 2920SOL    HW220220   3.362   4.033   6.237 -2.2882 -2.6198 -0.8776
 2921SOL     OW20221   2.333   1.223  16.780 -0.2062  0.3181 -0.6424
 2921SOL    HW120222   2.423   1.236  16.811 -1.9096  0.3434  4.1721
 2921SOL    HW220223   2.318   1.317  16.765  0.8876  0.6599  0.4091
 2922SOL     OW20224   3.619   1.105  12.603  0.3414 -1.0631  0.2714
 2922SOL    HW120225   3.708   1.139  12.616  0.4063 -1.5355  1.0280
 2922SOL    HW220226   3.647   1.029  12.553 -0.1984 -0.7832 -0.4583
 2923SOL     OW20227   4.650   3.027   7.815  0.3528 -0.0244  0.4154
 2923SOL    HW120228   4.726   3.043   7.872  0.0261  2.8091  0.0453
 2923SOL    HW220229   4.621   3.114   7.790 -0.3742 -0.5713 -0.6167
 2924SOL     OW20230   0.087   4.698  11.345  0.0159 -0.1859 -0.1264
 2924SOL    HW120231   0.003   4.664  11.377  0.7535 -0.6390  1.3549
 2924SOL    HW220232   0.131   4.694  11.430  2.0830  0.2987 -1.1672
 2925SOL     OW20233   2.820   0.327   2.856 -0.0919  0.5817  0.5054
 2925SOL    HW120234   2.908   0.307   2.824 -0.5184 -1.0978  0.4064
 2925SOL    HW220235   2.769   0.247   2.840  1.5359 -0.4682  0.5546
 2926SOL     OW20236   0.287   0.692   6.222 -0.1528  0.2694 -0.0896
 2926SOL    HW120237   0.272   0.693   6.317 -1.3413 -0.2843 -0.2755
 2926SOL    HW220238   0.272   0.783   6.195 -1.0907 -0.2809 -1.4463
 2927SOL     OW20239   0.672   2.739   8.227 -0.0235 -0.2373 -0.2491
 2927SOL    HW120240   0.653   2.830   8.204  0.3924 -0.3273 -0.9756
 2927SOL    HW220241   0.589   2.696   8.205 -0.1808  0.0286 -0.1809
 2928SOL     OW20242   1.779   1.854   4.572  0.0339  0.2973  0.3720
 2928SOL    HW120243   1.856   1.886   4.620  1.1615  1.5673 -2.2568
 2928SOL    HW220244   1.730   1.820   4.646  1.3194 -0.2143  0.9986
 2929SOL     OW20245   0.622   3.996   1.249  0.2785 -0.3451  0.2400
 2929SOL    HW120246   0.682   3.931   1.285 -0.9508 -1.1383  0.8245
 2929SOL    HW220247   0.672   4.078   1.251  0.1350 -0.1694 -2.6271
 2930SOL     OW20248   3.427   0.374   7.961 -0.3451 -0.2342 -0.3473
 2930SOL    HW120249   3.473   0.452   7.929 -0.8510 -0.8445 -2.5468
 2930SOL    HW220250   3.444   0.390   8.054  1.0914 -1.2905 -0.4220
 2931SOL     OW20251   3.744   3.578   9.804 -0.5685  0.4431 -0.3092
 2931SOL    HW120252   3.737   3.671   9.784 -0.6511  0.4015 -0.4807
 2931SOL    HW220253   3.779   3.545   9.721  0.2010  0.3953  0.0353
 2932SOL     OW20254   3.360   0.533   6.952 -0.1357 -0.1503  0.2910
 2932SOL    HW120255   3.392   0.601   7.011  2.2230 -1.0809  0.0895
 2932SOL    HW220256   3.303   0.577   6.889 -0.6248 -0.3321  0.6062
 2933SOL     OW20257   4.571   1.874  16.608 -0.0300  0.5550  0.1239
 2933SOL    HW120258   4.593   1.958  16.649 -0.8607  0.7062  0.2539
 2933SOL    HW220259   4.516   1.901  16.534 -1.1404  0.4752  0.9255
 2934SOL     OW20260   3.912   4.262   8.351  0.2012  0.0511  0.5211
 2934SOL    HW120261   3.968   4.204   8.403 -2.0809 -1.8926  0.8067
 2934SOL    HW220262   3.977   4.298   8.290  1.0714  0.4488  1.6898
 2935SOL     OW20263   4.087   2.072   3.258 -0.3615 -0.1964  0.0698
 2935SOL    HW120264   4.103   2.129   3.183  1.0935  1.5384  1.7080
 2935SOL    HW220265   4.076   1.990   3.209 -1.2198 -0.4624  0.7139
 2936SOL     OW20266   4.454   3.462   6.240  0.2800 -0.8473  0.5869
 2936SOL    HW120267   4.452   3.404   6.164  2.5187  2.4191 -1.9444
 2936SOL    HW220268   4.529   3.519   6.220 -0.8936 -0.4011 -2.4746
 2937SOL     OW20269   0.138   3.319   7.141 -0.2252  0.0805 -0.2236
 2937SOL    HW120270   0.054   3.281   7.166  0.1956 -1.0914 -0.5901
 2937SOL    HW220271   0.123   3.344   7.049 -1.4003 -0.6512 -0.2333
 2938SOL     OW20272   1.118   0.773   9.149 -0.0569  0.1645  0.6518
 2938SOL    HW120273   1.106   0.714   9.074  0.7139 -0.8279  1.3024
 2938SOL    HW220274   1.133   0.857   9.107  2.5795 -0.2382  0.8355
 2939SOL     OW20275   1.717   0.396  14.231  0.1165  0.2486 -0.3432
 2939SOL    HW120276   1.636   0.436  14.201 -1.5509 -2.3876  0.6276
 2939SOL    HW220277   1.779   0.469  14.222  0.3487  0.3779  2.2031
 2940SOL     OW20278   0.939   0.143   5.897 -0.0789  0.4966 -0.4864
 2940SOL    HW120279   0.873   0.075   5.907  0.5707 -0.0688 -0.0402
 2940SOL    HW220280   0.933   0.174   5.806 -0.8316  0.4344 -0.4535
 2941SOL     OW20281   2.335   4.576  13.368 -0.0412  0.4346  0.1383
 2941SOL    HW120282   2.394   4.562  13.294  1.1735 -0.1550  1.2228
 2941SOL    HW220283   2.356   4.498  13.420 -1.8440 -0.4327 -0.4160
 2942SOL     OW20284   4.277   3.794   2.125 -0.7145 -1.0765 -0.0098
 2942SOL    HW120285   4.358   3.747   2.107 -0.3218 -1.5098  2.9744
 2942SOL    HW220286   4.239   3.801   2.037 -1.1848  0.2141  0.3079
 2943SOL     OW20287   1.121   1.225  11.130 -0.5056  0.1452 -0.2492
 2943SOL    HW120288   1.161   1.184  11.207 -2.0760  1.9117  1.5066
 2943SOL    HW220289   1.136   1.317  11.156  1.1868 -0.4778  0.9925
 2944SOL     OW20290   2.473   3.034   2.903  0.4468 -0.3677  0.0537
 2944SOL    HW120291   2.490   3.033   2.809  0.3814 -1.4864  0.0486
 2944SOL    HW220292   2.382   3.012   2.922  0.4749 -1.0175 -0.5412
 2945SOL     OW20293   1.926   3.342   7.424  0.7923  0.7449  0.0842
 2945SOL    HW120294   1.843   3.371   7.462  2.6102  3.8237  1.7161
 2945SOL    HW220295   1.939   3.403   7.351 -0.3315  2.3351  1.2254
 2946SOL     OW20296   2.501   0.049  10.487 -0.0368  0.0125 -0.1061
 2946SOL    HW120297   2.455   0.026  10.568 -0.4911  0.7007 -0.1615
 2946SOL    HW220298   2.543   0.131  10.515  0.6695 -0.2071 -0.5318
 2947SOL     OW20299   0.774   1.292   7.940 -0.7590  0.0936 -0.6976
 2947SOL    HW120300   0.861   1.325   7.964 -0.2971 -2.2128  0.7611
 2947SOL    HW220301   0.736   1.379   7.932  0.6390  0.5737 -1.9901
 2948SOL     OW20302   3.894   0.981   6.279  0.2794  0.3312 -0.2313
 2948SOL    HW120303   3.869   0.941   6.363  2.4269  3.2327  1.8084
 2948SOL    HW220304   3.962   0.917   6.256 -0.4856  0.5246 -3.0207
 2949SOL     OW20305   3.706   3.453   8.463  0.8027 -0.0605  0.8743
 2949SOL    HW120306   3.662   3.438   8.379 -0.6922  0.6947  1.5236
 2949SOL    HW220307   3.684   3.546   8.470  0.0955 -0.1248 -0.4739
 2950SOL     OW20308   3.883   0.995   5.067 -0.2271  0.0863  0.5586
 2950SOL    HW120309   3.934   0.991   5.149  1.5404 -0.8833 -0.5852
 2950SOL    HW220310   3.945   0.963   5.001 -0.8291 -2.1812  1.0945
 2951SOL     OW20311   0.140   1.799  17.402 -0.1337 -0.6552  0.0996
 2951SOL    HW120312   0.077   1.759  17.342 -0.3619 -3.5168  2.2830
 2951SOL    HW220313   0.083   1.851  17.459 -0.6226 -0.3313 -0.6809
 2952SOL     OW20314   1.915   0.440   6.597 -0.2420  0.2408  0.4892
 2952SOL    HW120315   1.829   0.440   6.637 -0.1029 -2.0450  0.8203
 2952SOL    HW220316   1.974   0.412   6.668 -0.2289  0.5755  0.6100
 2953SOL     OW20317   0.527   4.350  16.049  0.2863  0.5286 -0.1704
 2953SOL    HW120318   0.471   4.273  16.044  0.7319  0.0625  2.5235
 2953SOL    HW220319   0.615   4.316  16.036  0.4345  0.4998  0.9451
 2954SOL     OW20320   0.030   3.026   4.201  0.1912 -0.7284 -0.2636
 2954SOL    HW120321   0.029   3.084   4.278  0.0422  1.2865 -1.7834
 2954SOL    HW220322   0.033   2.944   4.251 -1.1711 -0.3179  0.4892
 2955SOL     OW20323   0.882   2.553   6.084  0.4884  0.1847 -0.2733
 2955SOL    HW120324   0.900   2.461   6.106 -1.0388  0.2851  1.4187
 2955SOL    HW220325   0.969   2.586   6.105 -0.2063  2.2112 -0.6552
 2956SOL     OW20326   3.928   3.849   8.536 -0.2394 -0.1107 -0.2916
 2956SOL    HW120327   3.954   3.762   8.505 -0.8337 -0.5431  0.4185
 2956SOL    HW220328   3.917   3.816   8.625 -0.9433 -0.5993 -0.5568
 2957SOL     OW20329   4.001   1.879  12.353 -0.2849  0.0669  0.3180
 2957SOL    HW120330   3.994   1.968  12.318 -1.3594 -0.2722 -0.3078
 2957SOL    HW220331   4.070   1.837  12.302 -0.2903  1.2181 -0.6419
 2958SOL     OW20332   4.584   3.085  17.050  0.5693 -0.0411 -0.3605
 2958SOL    HW120333   4.646   3.150  17.015  1.1299 -0.2101  0.3268
 2958SOL    HW220334   4.638   3.009  17.028  0.0777 -1.0545  2.0006
 2959SOL     OW20335   1.369   2.889   4.176  0.1249 -0.7248 -0.1674
 2959SOL    HW120336   1.392   2.963   4.119 -1.4509 -1.7843 -2.1733
 2959SOL    HW220337   1.370   2.821   4.108 -0.3940 -3.5093  2.5982
 2960SOL     OW20338   4.091   3.169   4.482 -0.4186 -0.1772  0.0047
 2960SOL    HW120339   4.147   3.165   4.404 -0.6909 -0.0420 -0.1931
 2960SOL    HW220340   4.122   3.090   4.527  0.2592  0.1619  0.1302
 2961SOL     OW20341   4.208   2.947  13.227  0.3847  0.1323 -0.6781
 2961SOL    HW120342   4.123   2.991  13.222  0.4063  0.2557  0.0266
 2961SOL    HW220343   4.191   2.889  13.300 -1.3942  0.6323 -0.6959
 2962SOL     OW20344   0.175   0.032   4.876 -0.0723  0.0126  0.2780
 2962SOL    HW120345   0.224   0.114   4.878 -0.3206  0.1661  0.1248
 2962SOL    HW220346   0.214   4.717   4.799 -2.6185 -0.0723 -0.9830
 2963SOL     OW20347   1.785   4.092   8.566  0.2905 -0.2415 -0.3950
 2963SOL    HW120348   1.762   4.174   8.523  2.3174  1.2666  1.4090
 2963SOL    HW220349   1.740   4.094   8.651  0.2397  0.4648 -0.4378
 2964SOL     OW20350   3.321   0.880   6.642  0.4448 -0.3356 -0.4974
 2964SOL    HW120351   3.382   0.858   6.572 -0.7658  0.4958 -1.8195
 2964SOL    HW220352   3.294   0.971   6.625  1.1266  0.1626  1.0857
 2965SOL     OW20353   1.532   1.298   8.333  0.0208 -0.0653  0.5946
 2965SOL    HW120354   1.606   1.297   8.394  0.5890 -0.3672 -0.0963
 2965SOL    HW220355   1.461   1.310   8.395 -0.9209  0.1935 -0.5401
 2966SOL     OW20356   3.102   2.312  17.374  0.4889 -0.4815 -0.7593
 2966SOL    HW120357   3.132   2.273  17.292  2.6602  0.9962 -0.6656
 2966SOL    HW220358   3.063   2.390  17.335 -0.2947 -0.1317  0.7191
 2967SOL     OW20359   1.163   4.592   3.609 -1.0415 -0.2939  0.3492
 2967SOL    HW120360   1.218   4.652   3.658 -0.9593  0.1103 -0.2370
 2967SOL    HW220361   1.227   4.537   3.564  1.0238  1.8918  0.6086
 2968SOL     OW20362   3.956   3.794   1.847 -0.2839 -0.2062 -0.0341
 2968SOL    HW120363   4.024   3.729   1.828  0.6481  0.3213  1.4457
 2968SOL    HW220364   4.009   3.867   1.880  0.1323 -0.6337  0.2327
 2969SOL     OW20365   4.373   2.673   7.564 -0.0721  0.2129 -0.4200
 2969SOL    HW120366   4.303   2.651   7.626  1.2592 -1.1087  0.6026
 2969SOL    HW220367   4.439   2.721   7.614 -0.0288  0.7157 -0.9563
 2970SOL     OW20368   1.651   0.908  15.804  0.2266 -0.0471  0.5963
 2970SOL    HW120369   1.668   0.860  15.723  0.1889  0.2874  0.3869
 2970SOL    HW220370   1.742   0.919  15.829  0.5112 -2.9233  0.8202
 2971SOL     OW20371   3.538   1.272   5.037  0.0560 -0.4320 -0.5118
 2971SOL    HW120372   3.521   1.365   5.026 -1.7476 -0.7745 -0.5583
 2971SOL    HW220373   3.448   1.239   5.038 -0.2360  0.3788 -0.0260
 2972SOL     OW20374   2.700   4.659  13.825 -0.5503  0.1009  0.1404
 2972SOL    HW120375   2.623   4.607  13.846 -1.1535  0.1508 -1.9547
 2972SOL    HW220376   2.672   4.694  13.740  1.0341 -0.3775 -0.5809
 2973SOL     OW20377   0.656   4.138   2.743  0.3104 -0.1546  0.4592
 2973SOL    HW120378   0.669   4.189   2.663 -2.1158 -0.8782 -0.3667
 2973SOL    HW220379   0.743   4.139   2.784 -1.0239  1.4392  3.2077
 2974SOL     OW20380   2.159   0.668   4.765  0.0877 -0.2395  0.0315
 2974SOL    HW120381   2.145   0.664   4.671  0.7621 -1.6558  0.0035
 2974SOL    HW220382   2.077   0.712   4.791  0.4013 -1.7889  3.7031
 2975SOL     OW20383   2.788   2.634   6.057 -0.4415  0.5464 -0.0857
 2975SOL    HW120384   2.808   2.714   6.106 -1.0101  0.9989 -0.5940
 2975SOL    HW220385   2.696   2.646   6.033 -0.2934  0.9941 -0.4380
 2976SOL     OW20386   1.569   2.173  15.881  0.2745  1.0216  0.0891
 2976SOL    HW120387   1.654   2.166  15.837 -0.2830  0.4742 -0.8798
 2976SOL    HW220388   1.509   2.123  15.826 -1.7869  1.5133  1.9029
 2977SOL     OW20389   3.275   3.062   5.921  0.1901  0.0076  0.0103
 2977SOL    HW120390   3.309   3.013   5.846  0.3462 -0.8015  0.6195
 2977SOL    HW220391   3.275   3.148   5.879  1.3194 -1.0780 -2.2019
 2978SOL     OW20392   4.694   2.596   8.204  0.3899  0.2984  0.1883
 2978SOL    HW120393   4.660   2.673   8.159  1.8438  0.0438 -1.3429
 2978SOL    HW220394   0.050   2.619   8.248  0.3635 -0.6463  0.7432
 2979SOL     OW20395   2.381   0.990  14.697 -0.2036  0.9166  0.1671
 2979SOL    HW120396   2.326   1.052  14.745 -0.1635  0.6107  0.6055
 2979SOL    HW220397   2.447   0.981  14.766 -0.5048 -1.6461  0.1365
 2980SOL     OW20398   4.628   2.052   1.902 -0.1315 -0.0481  0.2121
 2980SOL    HW120399   4.577   2.037   1.822  1.0328 -0.8948 -0.3636
 2980SOL    HW220400   4.651   2.144   1.890 -0.3403  0.0292  0.4291
 2981SOL     OW20401   4.535   4.563   7.797  0.2758  0.2673  0.0354
 2981SOL    HW120402   4.504   4.601   7.879  1.3901  2.0554 -0.3577
 2981SOL    HW220403   4.506   4.473   7.811  1.5948  0.0287  1.1873
 2982SOL     OW20404   0.847   1.726  11.999  0.0447 -0.2149 -0.6627
 2982SOL    HW120405   0.769   1.779  12.018 -0.1004 -0.8274  0.4430
 2982SOL    HW220406   0.901   1.781  12.057 -2.1661  2.2819 -0.9579
 2983SOL     OW20407   2.693   0.454  16.175  0.5885  0.0974 -0.1286
 2983SOL    HW120408   2.729   0.511  16.242  1.4621 -0.2380 -0.3119
 2983SOL    HW220409   2.745   0.491  16.104 -0.3111 -1.4950 -1.6305
 2984SOL     OW20410   2.660   0.384   8.806 -0.2188  0.2132  0.1035
 2984SOL    HW120411   2.728   0.417   8.747 -0.2410 -1.8184 -1.0575
 2984SOL    HW220412   2.679   0.291   8.797  1.3445  0.3523  1.9669
 2985SOL     OW20413   2.059   4.502  11.907 -0.2503 -0.5617 -0.5687
 2985SOL    HW120414   1.972   4.521  11.873  0.8633  1.6585 -2.1404
 2985SOL    HW220415   2.052   4.510  12.002 -1.8922  0.2253 -0.7463
 2986SOL     OW20416   2.578   4.541   7.366  0.2530  0.1059 -0.1851
 2986SOL    HW120417   2.551   4.562   7.455  1.2963 -0.5645  0.2916
 2986SOL    HW220418   2.543   4.623   7.331  0.1595  0.8358  1.5869
 2987SOL     OW20419   3.868   4.215   3.359 -0.5762  0.1221 -0.3229
 2987SOL    HW120420   3.813   4.278   3.406  0.7178  1.9592 -1.3038
 2987SOL    HW220421   3.920   4.181   3.431 -0.7762  0.2350 -0.1243
 2988SOL     OW20422   2.633   1.538   3.195  0.1326  0.2624 -0.0853
 2988SOL    HW120423   2.658   1.619   3.151  2.5663  0.1995  1.1881
 2988SOL    HW220424   2.666   1.479   3.127  0.0407  1.4297 -1.1428
 2989SOL     OW20425   1.831   0.855  11.709  0.1559 -0.1044 -0.2940
 2989SOL    HW120426   1.820   0.835  11.616  0.3018  0.1102 -0.3566
 2989SOL    HW220427   1.903   0.795  11.732  0.2947  0.5073  0.8248
 2990SOL     OW20428   4.591   4.367  16.378  0.8475 -0.2589 -0.4038
 2990SOL    HW120429   4.672   4.328  16.345 -0.4582 -2.2815 -1.2019
 2990SOL    HW220430   4.526   4.354  16.309  0.4323  0.5604 -0.1675
 2991SOL     OW20431   3.164   3.585   1.930  0.2198 -0.7259  0.6162
 2991SOL    HW120432   3.152   3.673   1.895  1.1616 -1.0955 -0.6288
 2991SOL    HW220433   3.144   3.603   2.022  2.9160  1.1564  0.8156
 2992SOL     OW20434   0.058   2.695   3.254 -0.2031  0.1078 -0.0341
 2992SOL    HW120435   0.119   2.747   3.306 -0.2048  1.6542 -1.5744
 2992SOL    HW220436   0.087   2.610   3.288  1.8449 -1.2363 -5.2512
 2993SOL     OW20437   2.763   1.709   8.119  0.2607 -0.1219 -0.3296
 2993SOL    HW120438   2.735   1.619   8.103  1.0882 -0.4640  0.1261
 2993SOL    HW220439   2.848   1.691   8.160  0.3968  2.1722  0.3892
 2994SOL     OW20440   1.269   1.746   9.279 -0.3945  0.0904 -0.5738
 2994SOL    HW120441   1.219   1.724   9.200 -0.2099 -1.6242 -0.2253
 2994SOL    HW220442   1.276   1.840   9.268 -2.9848  0.4627  0.9104
 2995SOL     OW20443   4.374   4.032  12.931 -0.6036 -0.2451  0.4845
 2995SOL    HW120444   4.330   4.077  13.002 -0.2079 -0.3624  0.8055
 2995SOL    HW220445   4.306   4.018  12.865  0.3861 -3.0856  0.0604
 2996SOL     OW20446   0.531   0.551   2.290 -0.0389 -0.2119  0.1152
 2996SOL    HW120447   0.560   0.515   2.206 -0.2479 -1.7181  0.6923
 2996SOL    HW220448   0.473   0.483   2.323  0.5725 -0.3525  0.8917
 2997SOL     OW20449   1.425   4.462  12.606 -0.3722 -0.0303 -0.0072
 2997SOL    HW120450   1.366   4.494  12.674 -0.8367 -1.0315  0.0511
 2997SOL    HW220451   1.490   4.531  12.591 -2.1204  1.1175 -2.2998
 2998SOL     OW20452   0.770   4.354   3.490 -0.1214  0.7147  0.0833
 2998SOL    HW120453   0.741   4.267   3.461 -0.1200 -0.0312  2.3047
 2998SOL    HW220454   0.782   4.344   3.585 -1.5071  0.0620  0.2027
 2999SOL     OW20455   1.329   2.911  15.537 -0.3689  0.2122 -0.4928
 2999SOL    HW120456   1.416   2.946  15.517  0.1943  0.0728  1.7167
 2999SOL    HW220457   1.356   2.830  15.580  2.8201  1.4841 -0.1051
 3000SOL     OW20458   2.812   1.239   3.474 -0.4431 -0.0256  0.2060
 3000SOL    HW120459   2.846   1.155   3.442  1.1579  0.0113  1.8324
 3000SOL    HW220460   2.773   1.216   3.558  0.1114 -1.4712  0.0740
 3001SOL     OW20461   2.707   4.319   0.825  0.4708 -0.1695 -0.0361
 3001SOL    HW120462   2.627   4.279   0.793 -0.8752  1.2514  1.5437
 3001SOL    HW220463   2.695   4.413   0.815 -0.9995 -0.3822 -0.1791
 3002SOL     OW20464   3.123   0.774   3.274 -0.3774  0.3547 -0.0878
 3002SOL    HW120465   3.138   0.709   3.206  0.9546 -0.1579  0.7096
 3002SOL    HW220466   3.078   0.718   3.338  1.0866  2.6251  2.9091
 3003SOL     OW20467   0.853   3.206  11.450  0.1971  0.2453 -0.3288
 3003SOL    HW120468   0.885   3.293  11.425  1.4422  0.5497  2.3279
 3003SOL    HW220469   0.806   3.179  11.371  1.9261 -2.0948 -0.5672
 3004SOL     OW20470   0.804   3.443   7.936  0.3692 -0.2998  0.1877
 3004SOL    HW120471   0.750   3.520   7.917 -1.6577 -1.3544  1.5907
 3004SOL    HW220472   0.886   3.491   7.932  1.1052 -1.8443 -2.6846
 3005SOL     OW20473   2.032   4.423  16.537 -1.6668  0.2628  0.1080
 3005SOL    HW120474   2.012   4.356  16.472 -1.5891  0.6410 -0.3020
 3005SOL    HW220475   2.017   4.510  16.501  3.2770  0.8538 -0.4270
 3006SOL     OW20476   4.040   0.066  10.463  0.0571  0.2806 -0.1349
 3006SOL    HW120477   4.040   0.046  10.369 -3.2411 -0.2294 -0.0243
 3006SOL    HW220478   4.012   4.710  10.505  2.8851  0.0691  1.3053
 3007SOL     OW20479   1.001   1.105   6.303  0.0928 -0.0620  0.0378
 3007SOL    HW120480   1.081   1.084   6.254  0.9365  0.0499  1.3679
 3007SOL    HW220481   1.029   1.110   6.394 -0.2363  2.2609 -0.0002
 3008SOL     OW20482   0.799   0.782   2.764 -0.6278  0.3301  0.6802
 3008SOL    HW120483   0.807   0.804   2.857 -0.8599 -2.0564  1.2570
 3008SOL    HW220484   0.790   0.862   2.712 -0.4222  0.0361  0.1957
 3009SOL     OW20485   1.373   4.059   3.168 -0.3778  0.2758  0.3156
 3009SOL    HW120486   1.453   4.082   3.216 -0.1389 -1.7610  0.8966
 3009SOL    HW220487   1.331   4.017   3.243 -1.5780  0.8465 -0.0360
 3010SOL     OW20488   0.278   4.212   7.906  0.0172 -0.4420  0.2656
 3010SOL    HW120489   0.308   4.265   7.979  0.8246 -0.4181 -0.0812
 3010SOL    HW220490   0.225   4.144   7.948 -2.0416  2.0730  1.7556
 3011SOL     OW20491   3.962   1.038  12.886 -0.3427 -0.2841  0.0718
 3011SOL    HW120492   3.979   1.084  12.968  0.2150  1.5968 -1.1022
 3011SOL    HW220493   4.028   0.971  12.868 -1.3144 -1.2836  0.2668
 3012SOL     OW20494   1.676   3.580   7.352 -0.4838  0.8054  0.1457
 3012SOL    HW120495   1.583   3.601   7.342 -0.7240 -0.5643 -0.4242
 3012SOL    HW220496   1.687   3.603   7.445 -2.3619 -0.0728  0.5737
 3013SOL     OW20497   2.026   3.109   8.156 -0.2800 -0.0420  1.0690
 3013SOL    HW120498   2.053   3.110   8.064  1.0448  2.8142  1.5063
 3013SOL    HW220499   1.960   3.178   8.150  2.2336  2.3373  1.1887
 3014SOL     OW20500   2.096   2.228   9.298  0.1548 -0.2169  0.0168
 3014SOL    HW120501   2.158   2.173   9.251  1.9580  0.6010  1.4357
 3014SOL    HW220502   2.138   2.314   9.288 -0.4547  0.1539  0.6088
 3015SOL     OW20503   3.285   0.598  17.608  0.0507 -0.2420 -0.5758
 3015SOL    HW120504   3.373   0.560  17.598 -0.0404 -0.4401 -0.6163
 3015SOL    HW220505   3.236   0.600  17.526  0.3279 -1.8357 -0.7671
 3016SOL     OW20506   1.198   2.903   8.438  0.3392  0.3120  0.0252
 3016SOL    HW120507   1.187   2.995   8.462  0.5771 -0.1802  1.9943
 3016SOL    HW220508   1.282   2.913   8.392  1.0382  0.3525  1.3010
 3017SOL     OW20509   4.222   4.469   4.803  0.0921 -0.1000 -0.1264
 3017SOL    HW120510   4.195   4.478   4.895 -0.7216 -1.8371 -0.1889
 3017SOL    HW220511   4.299   4.413   4.812 -0.9026 -1.2175  1.7492
 3018SOL     OW20512   2.241   1.924   6.546  0.3125  0.7588 -0.1390
 3018SOL    HW120513   2.252   1.853   6.482  0.1132  0.4570  0.1604
 3018SOL    HW220514   2.322   1.975   6.546 -0.2967  1.7082  2.6784
 3019SOL     OW20515   3.934   0.471   2.867  0.3643  0.2700  0.8039
 3019SOL    HW120516   4.028   0.475   2.851  0.3649  1.4853  1.1182
 3019SOL    HW220517   3.920   0.511   2.953  1.0051  1.2178  0.4635
 3020SOL     OW20518   0.674   2.201   2.419  0.4221  0.0833 -0.1725
 3020SOL    HW120519   0.679   2.184   2.513  0.8757 -0.4336 -0.2960
 3020SOL    HW220520   0.743   2.258   2.386  0.1165 -1.3266 -3.2308
 3021SOL     OW20521   0.014   2.365   9.077  0.7189  0.3261 -0.0514
 3021SOL    HW120522   4.665   2.350   9.019 -0.9167  0.3195  2.0606
 3021SOL    HW220523   0.075   2.413   9.021  4.8540 -2.3415  2.2704
 3022SOL     OW20524   0.302   3.087   9.973  0.1992 -0.2539 -0.3554
 3022SOL    HW120525   0.309   3.080  10.069 -0.2093  0.7279 -0.2596
 3022SOL    HW220526   0.209   3.065   9.968 -0.2586  1.6969 -0.1078
 3023SOL     OW20527   4.190   0.784   5.164 -0.0494 -0.3437 -0.5002
 3023SOL    HW120528   4.122   0.755   5.225  0.9944  0.2708  0.9399
 3023SOL    HW220529   4.257   0.813   5.225 -0.4832  1.2766 -0.8100
 3024SOL     OW20530   1.744   1.555   6.949  0.1543 -0.2641  0.1995
 3024SOL    HW120531   1.655   1.543   6.982  0.1415  0.3645  0.3917
 3024SOL    HW220532   1.760   1.480   6.892  1.4433 -1.0894  1.6492
 3025SOL     OW20533   3.388   2.237   3.823 -0.1483 -0.1900 -0.3192
 3025SOL    HW120534   3.320   2.296   3.856  1.1890  2.1170 -1.7129
 3025SOL    HW220535   3.421   2.196   3.903  0.8772  2.0524  0.4219
 3026SOL     OW20536   4.617   3.145  12.266  0.2920 -0.0301 -0.5849
 3026SOL    HW120537   4.615   3.078  12.334 -0.6645  1.5850  0.9892
 3026SOL    HW220538   4.706   3.138  12.230  0.7219 -1.2602  0.7011
 3027SOL     OW20539   2.260   1.448   7.294  0.1672  0.0115  0.0708
 3027SOL    HW120540   2.347   1.466   7.260  0.9518 -1.9188  1.0663
 3027SOL    HW220541   2.274   1.466   7.387  0.1348 -3.2062  0.7082
 3028SOL     OW20542   3.405   1.635   2.500 -0.1762 -0.1682 -0.4460
 3028SOL    HW120543   3.406   1.600   2.410 -1.6197 -0.4837 -0.3378
 3028SOL    HW220544   3.317   1.602   2.520 -0.5799  0.5830 -0.9331
 3029SOL     OW20545   2.403   1.923   2.489 -0.3804 -0.0166  0.3973
 3029SOL    HW120546   2.342   1.849   2.488 -0.1430 -0.2104  0.3585
 3029SOL    HW220547   2.344   1.998   2.497 -1.6089 -1.0488  1.0595
 3030SOL     OW20548   0.291   1.283   8.593  0.0606 -0.3668  0.0022
 3030SOL    HW120549   0.372   1.239   8.567 -1.9086 -1.8704 -3.5969
 3030SOL    HW220550   0.234   1.209   8.613 -2.4629  0.7936 -2.9380
 3031SOL     OW20551   3.977   0.292   5.925 -0.5904 -0.2483 -0.7781
 3031SOL    HW120552   3.940   0.205   5.936  1.7478 -1.4891 -2.8710
 3031SOL    HW220553   3.895   0.329   5.890 -0.6717  0.4351  0.1421
 3032SOL     OW20554   4.326   4.718   2.423 -0.0601 -0.1182 -0.7045
 3032SOL    HW120555   4.399   0.016   2.481 -0.3830  0.2204 -0.4329
 3032SOL    HW220556   4.296   4.636   2.462  0.1909  0.0027 -0.2525
 3033SOL     OW20557   3.806   4.074   2.978 -0.5627 -0.2081  0.2212
 3033SOL    HW120558   3.747   4.104   2.909  0.2141  1.0350  0.0874
 3033SOL    HW220559   3.846   4.155   3.009 -3.1146 -0.0451  3.0289
 3034SOL     OW20560   1.321   0.612  17.050  0.0951 -0.5337 -0.1881
 3034SOL    HW120561   1.386   0.682  17.055 -0.3497 -0.1661  0.4465
 3034SOL    HW220562   1.339   0.570  17.134  1.1470  0.8283  0.2578
 3035SOL     OW20563   2.357   0.630   4.973 -0.2802 -0.2522  0.6284
 3035SOL    HW120564   2.293   0.654   4.906 -1.2773 -0.2745  1.5798
 3035SOL    HW220565   2.346   0.535   4.981 -1.0839 -0.3403 -1.5247
 3036SOL     OW20566   1.838   0.090   0.505 -0.2805 -0.3112  0.0679
 3036SOL    HW120567   1.889   0.158   0.461  0.0157 -0.2978  0.4332
 3036SOL    HW220568   1.757   0.131   0.536 -1.3913 -0.2432 -3.0068
 3037SOL     OW20569   0.025   0.825   3.014 -0.4134 -0.0551  0.1080
 3037SOL    HW120570   0.058   0.861   2.932 -1.4767  0.3812 -0.1210
 3037SOL    HW220571   0.093   0.762   3.036 -2.9070 -2.2906  1.4661
 3038SOL     OW20572   1.672   4.093   3.831 -0.1229  0.2540  0.0024
 3038SOL    HW120573   1.707   4.004   3.836  0.4970  0.5535  0.8770
 3038SOL    HW220574   1.589   4.084   3.879  0.3311 -1.9739  0.3899
 3039SOL     OW20575   1.928   4.068  14.796  0.7827 -0.1769 -0.4706
 3039SOL    HW120576   1.870   4.042  14.725 -1.7947 -1.4490  2.1359
 3039SOL    HW220577   1.987   3.994  14.810  1.6026  0.4464 -0.5869
 3040SOL     OW20578   3.065   0.077  17.076  0.3994 -0.3252 -0.4010
 3040SOL    HW120579   3.083   4.726  17.023  3.0899  0.9144 -1.2393
 3040SOL    HW220580   3.033   0.029  17.153  0.5788  2.5331  1.4426
 3041SOL     OW20581   2.696   2.393  15.111 -0.1251 -0.0474  0.3927
 3041SOL    HW120582   2.629   2.461  15.104  1.1331  1.2802  1.3607
 3041SOL    HW220583   2.641   2.314  15.112  1.8022 -1.4144 -0.5611
 3042SOL     OW20584   2.633   2.403  10.908  0.0294  0.5124  0.5554
 3042SOL    HW120585   2.631   2.311  10.937 -0.3830  0.5511  0.6476
 3042SOL    HW220586   2.667   2.407  10.819 -0.2579 -1.6532  0.3401
 3043SOL     OW20587   0.180   0.536   7.643  0.5989  0.1040  0.2499
 3043SOL    HW120588   0.129   0.469   7.597  1.6181  1.1948 -2.4495
 3043SOL    HW220589   0.178   0.617   7.592 -0.3385 -1.7214 -2.5927
 3044SOL     OW20590   1.445   1.281  11.611 -0.0701 -0.9583  0.3201
 3044SOL    HW120591   1.352   1.301  11.611  0.3529  1.0497 -3.8515
 3044SOL    HW220592   1.464   1.307  11.521  2.2219 -0.2750  0.9947
 3045SOL     OW20593   1.010   2.076  15.888 -0.9946 -0.3969  0.0432
 3045SOL    HW120594   1.027   2.038  15.801  2.5222 -2.4170  1.6263
 3045SOL    HW220595   1.062   2.156  15.892  0.3220 -1.3409  1.3794
 3046SOL     OW20596   2.700   3.111  15.372 -0.0303  0.0265  0.3374
 3046SOL    HW120597   2.791   3.094  15.347 -0.5572 -1.5677 -0.4829
 3046SOL    HW220598   2.715   3.129  15.465 -0.2136  0.1804  0.3372
 3047SOL     OW20599   0.696   1.354   6.518 -0.0751  0.0793 -0.1922
 3047SOL    HW120600   0.769   1.293   6.521 -1.0477 -1.0479  0.2568
 3047SOL    HW220601   0.753   1.430   6.531  1.9050 -0.7699 -3.8667
 3048SOL     OW20602   0.765   3.608   9.971  0.5172  0.5030  0.0718
 3048SOL    HW120603   0.807   3.524   9.990 -2.7176 -1.4073 -1.0942
 3048SOL    HW220604   0.685   3.576   9.929  1.6273  0.3697 -1.9723
 3049SOL     OW20605   2.112   3.230  10.634 -0.1199 -0.0061  0.5885
 3049SOL    HW120606   2.159   3.305  10.596 -1.6219 -0.0864 -1.4345
 3049SOL    HW220607   2.040   3.225  10.571 -0.8695  0.6666  1.3921
 3050SOL     OW20608   3.394   4.562  17.166 -0.1169  0.6006  0.3738
 3050SOL    HW120609   3.331   4.583  17.235 -1.6783  0.0632 -0.9149
 3050SOL    HW220610   3.350   4.503  17.105  1.5484 -1.3200  1.0427
 3051SOL     OW20611   0.704   0.033   8.110  0.0106 -0.2477  0.5082
 3051SOL    HW120612   0.627   4.712   8.141 -0.5229  0.1013 -0.2546
 3051SOL    HW220613   0.678   0.125   8.107  2.8751  0.4809 -2.3204
 3052SOL     OW20614   2.633   2.756   4.591  0.3570 -0.0412  0.9496
 3052SOL    HW120615   2.607   2.769   4.683 -1.6606  1.2559  0.1892
 3052SOL    HW220616   2.601   2.833   4.545  0.2894 -1.0636 -0.6920
 3053SOL     OW20617   2.072   0.469   7.100 -0.0579 -0.3481  0.4731
 3053SOL    HW120618   1.980   0.495   7.096  0.2128  0.6947  1.0000
 3053SOL    HW220619   2.108   0.556   7.116 -0.5456 -0.4401  2.1024
 3054SOL     OW20620   4.543   0.736   5.751 -0.1866 -0.3120 -0.9858
 3054SOL    HW120621   4.505   0.667   5.697 -0.0984 -1.1218 -0.0177
 3054SOL    HW220622   4.512   0.707   5.837 -0.6064  3.0133 -0.0131
 3055SOL     OW20623   3.973   3.967  13.814  0.3134 -0.3906 -0.1375
 3055SOL    HW120624   4.066   3.977  13.797  0.2224 -0.9954 -0.9492
 3055SOL    HW220625   3.944   3.932  13.730  3.3698  0.0136 -1.3181
 3056SOL     OW20626   1.695   4.581   6.419  0.1031  0.0211  0.0817
 3056SOL    HW120627   1.651   4.583   6.333  1.5639 -0.9570 -0.6871
 3056SOL    HW220628   1.753   4.505   6.410  0.8000  0.5165  0.5000
 3057SOL     OW20629   2.919   4.014   6.431 -0.5669 -0.1903 -0.2163
 3057SOL    HW120630   3.005   4.052   6.409 -0.0955 -1.4515 -0.5930
 3057SOL    HW220631   2.954   3.926   6.447  0.7090  0.2780 -0.4355
 3058SOL     OW20632   0.149   4.106   3.016 -0.1445  0.3220  0.1691
 3058SOL    HW120633   0.133   4.196   3.045  0.6462  0.6796 -0.4955
 3058SOL    HW220634   0.244   4.108   3.027  0.0990  0.4300 -1.8724
 3059SOL     OW20635   4.351   0.844   5.470  0.2857  0.0077  0.0889
 3059SOL    HW120636   4.350   0.914   5.535  1.9437  1.3288 -1.3177
 3059SOL    HW220637   4.439   0.855   5.434 -0.6205 -1.8253 -2.7393
 3060SOL     OW20638   1.117   0.862   3.644 -0.1889 -0.0297  0.1796
 3060SOL    HW120639   1.033   0.875   3.688 -0.3527  1.3775 -0.5466
 3060SOL    HW220640   1.129   0.946   3.600 -2.8421 -0.6673 -1.7547
 3061SOL     OW20641   2.469   1.593   1.791 -0.1034  0.0834  0.7364
 3061SOL    HW120642   2.384   1.594   1.834  0.4883  2.9132  1.8722
 3061SOL    HW220643   2.445   1.647   1.716  0.1051  0.4544  0.9346
 3062SOL     OW20644   4.001   2.645   5.259 -0.3585 -0.0051  0.1869
 3062SOL    HW120645   3.908   2.628   5.274 -0.9659  0.4431 -3.0428
 3062SOL    HW220646   3.990   2.728   5.213  0.1754 -0.7063 -1.1997
 3063SOL     OW20647   2.853   0.123   2.507  0.3040  0.0082  0.7910
 3063SOL    HW120648   2.882   0.194   2.450  3.2254 -3.0759 -1.5470
 3063SOL    HW220649   2.907   0.048   2.482  1.1462  1.4838 -1.7760
 3064SOL     OW20650   0.273   2.353  13.493  0.1870  0.0538  0.3541
 3064SOL    HW120651   0.358   2.351  13.447  1.2779 -1.1167  2.4105
 3064SOL    HW220652   0.221   2.419  13.447  0.7757  0.5994  0.4599
 3065SOL     OW20653   4.184   1.550  10.284 -0.1003  0.2252  0.4785
 3065SOL    HW120654   4.140   1.632  10.305  0.6251  1.0110 -1.0679
 3065SOL    HW220655   4.113   1.489  10.304  0.3380 -1.0141 -1.7139
 3066SOL     OW20656   0.129   0.104   6.417 -1.1298 -0.3584  0.4821
 3066SOL    HW120657   0.188   0.043   6.461  0.3539  0.5354 -0.2788
 3066SOL    HW220658   0.079   0.041   6.365 -0.6432 -0.5543  0.2604
 3067SOL     OW20659   2.545   3.630   6.331 -0.5064  0.0653  0.2906
 3067SOL    HW120660   2.462   3.584   6.323 -0.4958  0.6623 -3.2922
 3067SOL    HW220661   2.515   3.713   6.293 -1.4787 -1.1225 -1.5413
 3068SOL     OW20662   4.439   2.530   5.305  0.2512 -0.5521 -0.4614
 3068SOL    HW120663   4.508   2.503   5.243  0.4082  0.0196 -0.5360
 3068SOL    HW220664   4.446   2.449   5.355 -0.3287  0.2155  0.8331
 3069SOL     OW20665   1.574   1.359   5.918  0.2736 -0.5703  0.1021
 3069SOL    HW120666   1.564   1.365   6.013 -2.6289 -2.7616 -0.0424
 3069SOL    HW220667   1.620   1.442   5.904 -2.0089  0.7305  0.1473
 3070SOL     OW20668   3.400   0.349  17.125  0.4532  0.2651  0.8703
 3070SOL    HW120669   3.442   0.264  17.132  1.4971  0.9404  2.8940
 3070SOL    HW220670   3.348   0.350  17.205 -0.1161 -2.3065  0.5057
 3071SOL     OW20671   1.839   4.021   9.736  0.2144  0.6739  0.3294
 3071SOL    HW120672   1.783   4.074   9.679  0.8792  0.7150 -0.2778
 3071SOL    HW220673   1.907   3.993   9.675  0.4761  1.7397  0.1413
 3072SOL     OW20674   1.767   1.593   4.393 -0.0865 -0.6336  0.0560
 3072SOL    HW120675   1.782   1.670   4.448 -2.5076 -0.2259  0.1663
 3072SOL    HW220676   1.719   1.536   4.453  0.7828  1.6579  2.9234
 3073SOL     OW20677   0.807   2.185   2.136 -0.4255 -0.1653  0.3721
 3073SOL    HW120678   0.870   2.251   2.109 -1.0415  0.5079  0.5923
 3073SOL    HW220679   0.759   2.228   2.207 -0.7115  1.0189 -0.5391
 3074SOL     OW20680   2.641   2.529   2.102  0.3823  0.4079  0.0223
 3074SOL    HW120681   2.713   2.529   2.039  1.0393  0.2729  0.7726
 3074SOL    HW220682   2.634   2.438   2.132 -0.1892  0.4776  0.1041
 3075SOL     OW20683   2.665   4.434   9.440  0.1314  0.2434  0.0874
 3075SOL    HW120684   2.698   4.511   9.394 -0.1816 -0.9660 -2.1402
 3075SOL    HW220685   2.641   4.378   9.366  0.4723  1.7959 -1.1832
 3076SOL     OW20686   2.862   0.786   3.634 -0.6759  0.2001  0.5811
 3076SOL    HW120687   2.931   0.851   3.651  0.9030 -1.2685 -0.2529
 3076SOL    HW220688   2.814   0.831   3.564  2.7159  0.6143 -1.4601
 3077SOL     OW20689   2.866   2.599   1.963 -0.1807  0.7388 -0.7336
 3077SOL    HW120690   2.875   2.693   1.977 -0.3839  0.7468 -0.6557
 3077SOL    HW220691   2.828   2.600   1.874 -0.0037 -1.4901 -0.8245
 3078SOL     OW20692   1.199   3.630  13.858 -0.1280  0.5000 -0.3149
 3078SOL    HW120693   1.247   3.710  13.878 -1.6477  1.0074  1.2315
 3078SOL    HW220694   1.141   3.662  13.789 -0.4886 -2.6274 -1.4499
 3079SOL     OW20695   0.430   3.023  15.752  0.0088 -0.1094  0.2819
 3079SOL    HW120696   0.439   3.054  15.662  1.3199  1.7998  1.0794
 3079SOL    HW220697   0.499   3.076  15.791  1.9702 -2.1417 -0.3638
 3080SOL     OW20698   2.227   0.107   8.356  0.0531 -0.0254 -0.3619
 3080SOL    HW120699   2.251   0.198   8.337 -0.0262  0.5659  2.3726
 3080SOL    HW220700   2.288   0.070   8.293  2.7611  0.1272  2.1357
 3081SOL     OW20701   3.832   2.189   8.036  0.1151  0.2692  0.3415
 3081SOL    HW120702   3.818   2.114   8.094  1.4377 -0.5373 -0.3670
 3081SOL    HW220703   3.753   2.183   7.983 -0.1417  0.0064  0.7541
 3082SOL     OW20704   1.869   4.256   1.074 -0.7826 -0.0620  0.1703
 3082SOL    HW120705   1.965   4.259   1.066 -0.7462 -1.0367  0.2957
 3082SOL    HW220706   1.850   4.339   1.031 -1.5170 -0.9317 -1.1706
 3083SOL     OW20707   3.284   2.434   9.473  0.3390 -0.4090 -0.0034
 3083SOL    HW120708   3.239   2.417   9.556 -1.6112 -1.0634 -1.2218
 3083SOL    HW220709   3.366   2.389   9.492  0.8977  0.2645 -0.8427
 3084SOL     OW20710   2.205   1.856  15.456 -0.0864  0.2995  0.3184
 3084SOL    HW120711   2.222   1.835  15.364  2.7027  1.2904  0.6283
 3084SOL    HW220712   2.116   1.821  15.463 -0.0656  0.0696 -0.6212
 3085SOL     OW20713   2.380   3.720  16.035  0.3689  0.2539  0.2123
 3085SOL    HW120714   2.466   3.716  15.993  1.4380 -0.4295  2.4603
 3085SOL    HW220715   2.394   3.799  16.088  1.5331 -0.7384  1.3827
 3086SOL     OW20716   3.998   3.650   7.787 -0.2754 -0.0360  0.6116
 3086SOL    HW120717   3.914   3.677   7.750  0.7543  2.3298 -0.0067
 3086SOL    HW220718   3.994   3.556   7.772  3.5425  0.1578 -1.7242
 3087SOL     OW20719   3.169   2.710   9.347 -0.2436  0.3921 -0.2360
 3087SOL    HW120720   3.075   2.709   9.366 -0.0921 -1.0743  0.5174
 3087SOL    HW220721   3.175   2.657   9.268  0.6347  0.6045 -0.3097
 3088SOL     OW20722   3.350   3.145   7.690 -0.2985 -0.4467  0.2316
 3088SOL    HW120723   3.330   3.068   7.742  0.0685  0.7744  2.1779
 3088SOL    HW220724   3.437   3.127   7.652 -0.5428 -2.4046  0.5878
 3089SOL     OW20725   3.110   1.467   5.125 -0.1795  0.2504 -0.5246
 3089SOL    HW120726   3.076   1.396   5.179  1.1443  1.6665  2.2053
 3089SOL    HW220727   3.205   1.463   5.137 -0.1930  1.8859  0.1459
 3090SOL     OW20728   0.148   3.716  15.329 -0.1989 -0.0044 -0.8866
 3090SOL    HW120729   0.091   3.701  15.404 -1.1526  1.2335 -1.3625
 3090SOL    HW220730   0.113   3.647  15.273  0.2655 -0.9373 -0.0266
 3091SOL     OW20731   0.873   0.105   6.175  0.4710  0.0708  0.6860
 3091SOL    HW120732   0.811   0.177   6.168  1.5740  0.9303 -0.1811
 3091SOL    HW220733   0.923   0.121   6.095 -2.3336  1.7151 -0.7269
 3092SOL     OW20734   1.343   2.017   9.355 -0.0865  0.3213  0.3623
 3092SOL    HW120735   1.361   2.086   9.419  1.5903  0.5145 -0.3014
 3092SOL    HW220736   1.345   2.074   9.278 -0.3074 -1.9624 -1.3401
 3093SOL     OW20737   3.252   0.197   9.551  0.3123  0.2891 -0.3816
 3093SOL    HW120738   3.246   0.127   9.615  1.1273  0.9683  0.4425
 3093SOL    HW220739   3.272   0.264   9.617 -0.9751  0.0148  0.2755
 3094SOL     OW20740   1.250   2.298  16.461 -0.3669  0.0794 -0.3824
 3094SOL    HW120741   1.300   2.238  16.515 -0.0619  1.5180  0.9425
 3094SOL    HW220742   1.237   2.255  16.377 -0.3803 -0.1356 -0.2687
 3095SOL     OW20743   4.348   1.445   5.182 -0.1082 -0.3783  0.1601
 3095SOL    HW120744   4.392   1.414   5.261 -1.6717  1.8029  1.9097
 3095SOL    HW220745   4.256   1.441   5.208 -0.7691 -1.3146 -2.3781
 3096SOL     OW20746   0.234   0.808   4.657  0.7066 -0.2108  0.2686
 3096SOL    HW120747   0.182   0.888   4.651  0.3064 -0.6716 -2.4853
 3096SOL    HW220748   0.322   0.837   4.633  1.5288 -2.7129  0.3289
 3097SOL     OW20749   2.833   1.324  14.820  0.6646 -0.5589 -0.6000
 3097SOL    HW120750   2.770   1.327  14.748  1.1232  2.0976 -0.8713
 3097SOL    HW220751   2.920   1.313  14.783  0.9772 -1.6787  0.4774
 3098SOL     OW20752   3.037   1.564   4.401 -0.2526  0.0514 -0.1593
 3098SOL    HW120753   3.100   1.603   4.340  2.2924  0.9759  3.0677
 3098SOL    HW220754   2.967   1.541   4.340 -1.6073  1.3847  0.8911
 3099SOL     OW20755   1.013   4.408   8.631 -0.2246 -0.9447 -0.4481
 3099SOL    HW120756   1.104   4.412   8.603  0.3594  1.4201  1.7857
 3099SOL    HW220757   0.977   4.491   8.599  0.2762 -0.1025  1.1741
 3100SOL     OW20758   3.391   4.059   3.516 -0.4300  0.5570 -0.3304
 3100SOL    HW120759   3.372   4.013   3.435 -0.4513 -1.9472  1.0989
 3100SOL    HW220760   3.486   4.063   3.517 -0.4787  1.8978 -0.3286
 3101SOL     OW20761   3.054   2.145   6.160 -0.1338  0.0906 -0.1104
 3101SOL    HW120762   3.142   2.160   6.194 -0.9993  0.8428  1.8207
 3101SOL    HW220763   3.014   2.232   6.148  0.7515  0.6407  0.8872
 3102SOL     OW20764   4.144   0.484   9.310  0.3186 -0.0108  0.3502
 3102SOL    HW120765   4.056   0.496   9.274  0.9148 -0.7424 -1.3190
 3102SOL    HW220766   4.138   0.523   9.397  0.4580  0.8908 -0.0451
 3103SOL     OW20767   4.302   4.314   7.963  0.4596 -0.2997 -0.2618
 3103SOL    HW120768   4.356   4.313   7.884  1.1197 -1.0620  0.1991
 3103SOL    HW220769   4.232   4.252   7.941  0.0148  0.0105  0.2774
 3104SOL     OW20770   0.044   3.220   3.860  0.5255  0.1927 -0.1714
 3104SOL    HW120771   0.101   3.235   3.935  1.8365  0.5586 -1.2407
 3104SOL    HW220772   0.100   3.189   3.789 -1.0155 -1.6783 -0.5521
 3105SOL     OW20773   3.017   4.327   3.699  0.3133  0.6215 -0.7385
 3105SOL    HW120774   3.075   4.309   3.625  0.4007  4.7242 -1.6957
 3105SOL    HW220775   2.978   4.414   3.686 -0.6410 -0.1541 -3.0915
 3106SOL     OW20776   4.708   3.826   9.498 -0.3973  0.5470  0.3511
 3106SOL    HW120777   0.052   3.874   9.541  1.6523 -0.9095 -1.4142
 3106SOL    HW220778   0.024   3.743   9.475 -1.6462  0.8274 -2.9003
 3107SOL     OW20779   3.308   3.686   9.576 -0.7509 -0.0377  0.4643
 3107SOL    HW120780   3.250   3.718   9.506  2.3750  0.5074 -1.8819
 3107SOL    HW220781   3.325   3.600   9.539  1.0944  0.1415  0.9023
 3108SOL     OW20782   3.392   1.140   3.526 -0.5423  0.1239  0.2765
 3108SOL    HW120783   3.353   1.176   3.606  0.3498 -3.5931  2.3716
 3108SOL    HW220784   3.354   1.052   3.526 -0.8638  0.2506 -1.4565
 3109SOL     OW20785   4.149   0.752  15.625 -0.1601 -0.3400  0.3078
 3109SOL    HW120786   4.088   0.695  15.673  0.3375 -3.8973 -3.2558
 3109SOL    HW220787   4.098   0.829  15.602 -1.7687 -1.2635  0.7664
 3110SOL     OW20788   3.000   0.811   7.050  0.4656 -0.7753 -0.0449
 3110SOL    HW120789   2.948   0.740   7.085  1.8380 -1.2793  0.9457
 3110SOL    HW220790   2.959   0.810   6.963 -1.4256  0.0810  0.8427
 3111SOL     OW20791   1.484   3.254   3.133  0.4638 -0.0771  0.5076
 3111SOL    HW120792   1.574   3.222   3.139  0.6648  0.2220 -0.8455
 3111SOL    HW220793   1.450   3.184   3.078  1.6021 -0.2580  0.0350
 3112SOL     OW20794   1.502   4.723  16.235 -0.1298  0.2989 -0.6464
 3112SOL    HW120795   1.585   0.025  16.273  0.5033 -1.1648 -0.9495
 3112SOL    HW220796   1.443   0.067  16.261  1.8199  1.6078  0.1846
 3113SOL     OW20797   1.224   2.571   9.336  0.5032  0.0335  0.2659
 3113SOL    HW120798   1.240   2.527   9.252 -2.0025  0.6529 -0.5253
 3113SOL    HW220799   1.129   2.567   9.334  0.3997  2.7025  1.4347
 3114SOL     OW20800   0.625   3.831  14.577  0.4012  0.3795  0.0748
 3114SOL    HW120801   0.552   3.843  14.516 -0.9644 -2.2788  1.1924
 3114SOL    HW220802   0.676   3.912  14.568  0.7731  0.4093  2.5614
 3115SOL     OW20803   3.332   1.992   2.508 -0.3919 -0.1941 -0.8450
 3115SOL    HW120804   3.279   2.065   2.540 -0.1620 -0.2169 -0.4027
 3115SOL    HW220805   3.360   2.018   2.420  3.2585  1.5045  0.8146
 3116SOL     OW20806   4.571   0.043   4.859 -0.0171  0.3093 -0.4246
 3116SOL    HW120807   4.478   0.067   4.862 -0.6113 -2.1987  0.8658
 3116SOL    HW220808   4.603   0.119   4.909  1.1827 -0.0366 -0.6676
 3117SOL     OW20809   2.706   0.621   7.838  0.7755 -0.0842  0.2488
 3117SOL    HW120810   2.749   0.626   7.752  0.3466  0.2379  0.0497
 3117SOL    HW220811   2.742   0.540   7.873 -1.0798 -1.5753 -1.2631
 3118SOL     OW20812   4.642   2.642  10.468 -0.4617  0.0399  0.2211
 3118SOL    HW120813   4.584   2.569  10.490  0.3727 -0.1280  1.8271
 3118SOL    HW220814   0.004   2.606  10.455 -0.3700  0.1521  0.5388
 3119SOL     OW20815   3.031   1.194  12.895 -0.1483  0.3016  0.0716
 3119SOL    HW120816   3.117   1.193  12.938 -1.1933  1.1056  2.1857
 3119SOL    HW220817   3.063   1.231  12.813 -3.2903 -0.2868 -1.4290
 3120SOL     OW20818   2.618   1.563  11.270  0.3137 -0.0260  0.3335
 3120SOL    HW120819   2.546   1.559  11.208  1.1138 -1.8158 -0.4632
 3120SOL    HW220820   2.584   1.642  11.314  0.7573  0.4556 -0.2009
 3121SOL     OW20821   3.582   0.082   7.197 -0.1223  0.4368  0.6069
 3121SOL    HW120822   3.570   0.168   7.159  0.0583 -0.1419 -0.7520
 3121SOL    HW220823   3.540   0.023   7.134 -0.8957  1.7905 -0.1281
 3122SOL     OW20824   0.479   0.102  15.114 -0.1828  0.4726  0.5550
 3122SOL    HW120825   0.450   0.177  15.165  1.9120  1.6963 -0.0506
 3122SOL    HW220826   0.437   0.031  15.163 -0.3228  0.3571  0.2633
 3123SOL     OW20827   2.005   1.940   6.201  0.0824 -0.1476  0.4674
 3123SOL    HW120828   1.946   1.883   6.152  0.3279  0.0007  0.0067
 3123SOL    HW220829   1.956   1.958   6.282  0.9829  1.1872  0.7166
 3124SOL     OW20830   3.983   1.146   3.451  0.1200 -0.5676 -0.1292
 3124SOL    HW120831   4.040   1.107   3.385 -2.9794 -1.7514 -2.1103
 3124SOL    HW220832   3.937   1.069   3.485  0.0045 -0.3225  0.2683
 3125SOL     OW20833   1.856   2.227   9.457 -0.0284 -0.5921 -0.3569
 3125SOL    HW120834   1.945   2.214   9.426 -1.0830 -0.4056 -3.4516
 3125SOL    HW220835   1.864   2.296   9.522 -1.3944  0.2465 -1.0804
 3126SOL     OW20836   3.864   2.658   4.909  0.2652  1.1712 -0.1005
 3126SOL    HW120837   3.833   2.653   4.819 -1.9504  0.9547  0.6861
 3126SOL    HW220838   3.847   2.749   4.935  1.8991  1.2284  0.8151
 3127SOL     OW20839   2.356   3.904   3.322 -0.5606  0.0530  0.7507
 3127SOL    HW120840   2.352   3.993   3.286  1.7500 -0.5111 -0.8992
 3127SOL    HW220841   2.441   3.872   3.292 -0.4954  1.3823 -0.5202
 3128SOL     OW20842   0.932   2.376   5.465  0.3509 -0.6241 -0.4412
 3128SOL    HW120843   0.893   2.452   5.421  0.3669  0.4967  1.4660
 3128SOL    HW220844   0.967   2.333   5.387  1.1383  2.5355 -1.8620
 3129SOL     OW20845   1.027   1.520   0.352  0.2415  0.2799  0.0535
 3129SOL    HW120846   0.944   1.473   0.366  0.0004  0.2552 -1.4332
 3129SOL    HW220847   1.067   1.541   0.437 -2.9803  2.7204  0.9898
 3130SOL     OW20848   1.912   2.415   1.739 -0.2359  0.2635  0.0824
 3130SOL    HW120849   1.901   2.384   1.649  2.5324 -0.9289  0.1471
 3130SOL    HW220850   1.998   2.381   1.765 -0.3493 -0.7098 -0.7812
 3131SOL     OW20851   0.069   0.467   8.617 -0.6307  0.0629 -0.0780
 3131SOL    HW120852   0.004   0.430   8.676  0.2747  0.0646  0.9050
 3131SOL    HW220853   0.071   0.558   8.646 -2.0967  0.4716 -1.2792
 3132SOL     OW20854   1.637   0.040   5.150  0.1368  0.2393 -0.3372
 3132SOL    HW120855   1.732   0.035   5.153  0.2006 -0.2911 -3.1841
 3132SOL    HW220856   1.623   0.084   5.066 -0.1466 -0.5401 -0.6998
 3133SOL     OW20857   0.506   2.408   7.531 -0.1282 -0.6932  0.1924
 3133SOL    HW120858   0.599   2.388   7.535 -0.3269 -1.1425  2.2156
 3133SOL    HW220859   0.504   2.452   7.446  3.1267 -1.4223 -0.2725
 3134SOL     OW20860   2.818   0.022   7.139 -0.5676 -0.3474 -0.3028
 3134SOL    HW120861   2.724   0.009   7.126 -0.6235 -1.4784  1.2460
 3134SOL    HW220862   2.847   4.662   7.110  1.5688  0.4083 -0.4391
 3135SOL     OW20863   0.447   4.692   8.905  0.4117  0.1630 -0.4456
 3135SOL    HW120864   0.512   4.633   8.869 -0.1304 -0.7310  0.0364
 3135SOL    HW220865   0.409   4.715   8.820  1.5557  0.4932 -0.8689
 3136SOL     OW20866   3.220   1.239  11.944 -0.0874 -0.0566  0.0691
 3136SOL    HW120867   3.150   1.195  11.993  0.0784 -1.2932 -0.7953
 3136SOL    HW220868   3.223   1.191  11.861  1.3126  1.6917 -0.8786
 3137SOL     OW20869   3.456   3.306   4.616 -0.9419  0.3470  0.2974
 3137SOL    HW120870   3.526   3.362   4.581 -2.1090  0.4416 -1.8591
 3137SOL    HW220871   3.420   3.258   4.542  1.1154  0.7548 -0.9711
 3138SOL     OW20872   4.663   4.109  13.671 -0.1155  0.3455  0.2007
 3138SOL    HW120873   4.600   4.125  13.601  0.5640 -0.6470 -0.6509
 3138SOL    HW220874   4.669   4.195  13.713  4.0971  1.4597 -2.6329
 3139SOL     OW20875   2.181   0.381   9.233  0.3654 -0.0308  0.1728
 3139SOL    HW120876   2.140   0.298   9.210 -1.5107  1.3271 -1.3020
 3139SOL    HW220877   2.242   0.379   9.159  1.3801  0.1498  0.9907
 3140SOL     OW20878   0.195   2.627   3.652  0.0609 -0.2702 -0.5475
 3140SOL    HW120879   0.213   2.689   3.723  1.6325 -0.0334 -1.1506
 3140SOL    HW220880   0.257   2.559   3.678  0.9999 -0.1519 -2.4732
 3141SOL     OW20881   0.913   0.162  14.710  0.2192 -0.2743 -0.2404
 3141SOL    HW120882   0.927   0.236  14.651  1.5126 -0.0863  0.3186
 3141SOL    HW220883   0.846   0.106  14.672  1.1019 -0.6883 -1.1646
 3142SOL     OW20884   4.300   2.114   1.098 -0.1996  0.0324 -0.3171
 3142SOL    HW120885   4.247   2.191   1.077  3.2308  1.7216 -2.7137
 3142SOL    HW220886   4.248   2.079   1.170 -0.7385 -1.5749 -1.4930
 3143SOL     OW20887   3.710   2.580   1.838 -0.0093  0.3080  0.1350
 3143SOL    HW120888   3.653   2.654   1.861  0.9296  0.7656  0.9537
 3143SOL    HW220889   3.648   2.509   1.822 -1.0556  0.6714  2.5575
 3144SOL     OW20890   4.690   2.403  15.848  0.6320 -0.0980  0.7876
 3144SOL    HW120891   4.600   2.434  15.841  0.2650 -1.3086  0.1557
 3144SOL    HW220892   4.715   2.436  15.934 -0.0774  3.1385 -0.2177
 3145SOL     OW20893   3.081   3.797   6.123  0.2010  0.2213  0.6486
 3145SOL    HW120894   3.073   3.886   6.088 -0.8357  0.4746  1.4919
 3145SOL    HW220895   3.162   3.768   6.082 -1.3114  1.6223 -3.3095
 3146SOL     OW20896   4.688   2.588   3.009 -0.0416  0.4868 -0.1425
 3146SOL    HW120897   4.702   2.601   3.103  0.3655 -0.8470 -0.0255
 3146SOL    HW220898   0.043   2.624   2.975 -0.6750  0.3018 -1.8607
 3147SOL     OW20899   2.171   1.600  10.688 -0.1224 -0.0014 -0.3955
 3147SOL    HW120900   2.124   1.517  10.693 -0.1689 -0.0774 -2.0076
 3147SOL    HW220901   2.095   1.653  10.711 -0.0364 -1.1011  2.4615
 3148SOL     OW20902   4.667   0.764   5.351  0.6012 -0.4760 -0.6430
 3148SOL    HW120903   4.707   0.850   5.361 -2.9224  1.4368 -2.9832
 3148SOL    HW220904   4.645   0.763   5.257  0.0491 -1.0476 -0.5066
 3149SOL     OW20905   1.866   1.955   9.321 -0.5513  0.2377  0.0748
 3149SOL    HW120906   1.801   2.016   9.357 -0.5536  1.3740 -1.8807
 3149SOL    HW220907   1.947   2.005   9.314 -0.5931  0.1899 -0.7116
 3150SOL     OW20908   4.336   2.001   4.746 -0.5602 -0.0752  0.4904
 3150SOL    HW120909   4.338   2.094   4.769 -0.2917  0.8264 -3.2979
 3150SOL    HW220910   4.335   2.004   4.651  0.7735 -1.0781  0.4368
 3151SOL     OW20911   4.591   3.010  11.576 -0.0184 -0.4687  0.2368
 3151SOL    HW120912   4.519   2.948  11.570 -0.9451  0.8120 -1.7087
 3151SOL    HW220913   4.539   3.091  11.572 -0.4021 -0.6899  0.7865
 3152SOL     OW20914   4.362   3.618   4.914  0.2782 -0.5398 -0.7133
 3152SOL    HW120915   4.285   3.611   4.857  1.6640  0.4267 -2.6974
 3152SOL    HW220916   4.398   3.530   4.913  1.2335 -0.1588  0.2138
 3153SOL     OW20917   2.300   4.029   0.539 -0.5143  0.3106  0.2154
 3153SOL    HW120918   2.355   4.070   0.606  1.5069 -1.2494 -0.4823
 3153SOL    HW220919   2.224   4.087   0.539 -0.5504  0.2665  0.5053
 3154SOL     OW20920   1.551   1.724   0.866 -0.0518 -0.0028  0.5087
 3154SOL    HW120921   1.637   1.739   0.905  0.2738  0.2981 -0.3050
 3154SOL    HW220922   1.508   1.681   0.939  0.0262  0.3455  0.7624
 3155SOL     OW20923   3.730   2.770   2.488  0.0532  0.9113 -0.2185
 3155SOL    HW120924   3.688   2.685   2.478  0.5470  0.5440  0.8585
 3155SOL    HW220925   3.803   2.768   2.426 -1.3048 -0.3014 -1.8012
 3156SOL     OW20926   0.631   2.824   6.493 -0.0867 -0.4826 -0.1474
 3156SOL    HW120927   0.660   2.735   6.513  0.8637  0.1023  1.0400
 3156SOL    HW220928   0.661   2.844   6.404  0.1001  0.2372  0.0743
 3157SOL     OW20929   2.389   0.013   5.085 -0.2087  0.3282 -0.0533
 3157SOL    HW120930   2.454   0.010   5.015  0.9594  1.3473  0.9777
 3157SOL    HW220931   2.318   4.706   5.030 -0.4342  1.3455 -0.3769
 3158SOL     OW20932   3.699   3.957   0.735 -0.6028 -0.0311 -0.1300
 3158SOL    HW120933   3.718   3.869   0.705 -0.0185 -0.0886  0.4147
 3158SOL    HW220934   3.623   3.925   0.784  1.0957 -1.3557  1.6703
 3159SOL     OW20935   1.999   4.173   9.057  0.8294 -0.7173 -0.1876
 3159SOL    HW120936   1.928   4.211   9.005  0.3241 -0.3006  0.8090
 3159SOL    HW220937   1.974   4.215   9.139 -1.3082 -0.0054 -1.1911
 3160SOL     OW20938   4.273   3.640   9.599 -0.0006 -0.2031  0.0300
 3160SOL    HW120939   4.360   3.669   9.628 -1.0798  1.4277  1.6539
 3160SOL    HW220940   4.214   3.711   9.626 -0.1945 -0.5130  0.4126
 3161SOL     OW20941   3.405   1.593   5.720  0.1185  0.1321 -0.0358
 3161SOL    HW120942   3.472   1.613   5.785 -0.3796 -0.4801  0.6663
 3161SOL    HW220943   3.330   1.615   5.775  0.8225  1.1671  0.4911
 3162SOL     OW20944   1.510   4.194   6.954 -0.7535  0.1148 -0.0812
 3162SOL    HW120945   1.606   4.198   6.948 -0.7694 -1.7263 -1.6389
 3162SOL    HW220946   1.504   4.191   7.049 -1.9743 -0.6603 -0.1815
 3163SOL     OW20947   0.457   4.055   0.336 -0.6192 -0.0750  0.0136
 3163SOL    HW120948   0.380   4.011   0.372 -0.5314  0.8835  1.3536
 3163SOL    HW220949   0.521   3.984   0.347  0.2378  0.5143 -1.1230
 3164SOL     OW20950   0.091   3.260  11.933  0.3334  0.3260  0.0123
 3164SOL    HW120951   4.725   3.233  11.930  0.4752 -0.3687  2.6705
 3164SOL    HW220952   0.115   3.208  12.009 -1.8749 -0.1387  0.3891
 3165SOL     OW20953   1.789   1.159   8.048  0.2069  0.3349 -0.5205
 3165SOL    HW120954   1.719   1.126   7.991 -0.8122  0.6032  0.5659
 3165SOL    HW220955   1.819   1.072   8.076 -0.5963  0.5044  0.8475
 3166SOL     OW20956   1.762   2.954   3.935  0.5819 -0.0402  0.0112
 3166SOL    HW120957   1.738   2.861   3.925 -1.7961  0.6945 -1.0127
 3166SOL    HW220958   1.814   2.968   3.856 -1.6150  0.1240 -1.4244
 3167SOL     OW20959   0.859   4.026   4.894 -0.0288 -0.4113 -0.4042
 3167SOL    HW120960   0.847   3.948   4.839  2.4286 -1.5618  0.6861
 3167SOL    HW220961   0.787   4.016   4.957  0.9572 -1.2560  0.6153
 3168SOL     OW20962   2.822   3.465   5.198  0.2877  0.7869  0.2094
 3168SOL    HW120963   2.810   3.374   5.222 -3.1720  0.6934 -1.9527
 3168SOL    HW220964   2.744   3.502   5.240 -0.9856 -0.0792 -1.4321
 3169SOL     OW20965   0.916   0.784  13.079 -0.1911  0.6495 -0.7978
 3169SOL    HW120966   0.881   0.864  13.041  1.7375  1.2142 -1.3934
 3169SOL    HW220967   0.991   0.778  13.019 -1.2134 -0.7113 -1.9256
 3170SOL     OW20968   0.186   0.739   4.952 -0.5646 -0.2910 -0.6539
 3170SOL    HW120969   0.216   0.763   4.864 -0.7017 -2.1427 -1.2022
 3170SOL    HW220970   0.230   0.656   4.968  0.5091  0.1056 -1.5930
 3171SOL     OW20971   1.380   4.408   6.841 -0.4580 -0.2431  0.0391
 3171SOL    HW120972   1.410   4.411   6.750 -0.1126  0.6412  0.1743
 3171SOL    HW220973   1.451   4.360   6.883 -1.3985 -1.7265 -0.0975
 3172SOL     OW20974   0.603   0.665   9.389  0.4088 -0.0429 -0.0463
 3172SOL    HW120975   0.601   0.698   9.479 -1.0775  2.3394 -0.9595
 3172SOL    HW220976   0.677   0.717   9.356  2.5891 -2.6395  0.7094
 3173SOL     OW20977   3.538   2.164   0.221  0.1765 -0.2537 -0.0951
 3173SOL    HW120978   3.596   2.170   0.145  0.6583 -1.7210  0.1617
 3173SOL    HW220979   3.446   2.163   0.196 -0.3473 -0.7306  1.8812
 3174SOL     OW20980   0.489   0.120   2.706  0.3257 -0.3606  0.4471
 3174SOL    HW120981   0.540   0.178   2.763  0.5092  0.7442 -0.8323
 3174SOL    HW220982   0.480   0.180   2.632  0.0283 -1.0251 -0.0516
 3175SOL     OW20983   0.353   4.081   5.759  0.1057 -0.1281 -0.3792
 3175SOL    HW120984   0.344   4.076   5.854  2.1024 -0.3833 -0.2108
 3175SOL    HW220985   0.356   4.175   5.746 -0.4545  0.0074  0.5136
 3176SOL     OW20986   0.571   0.622   4.537  0.3173  0.4725 -0.2420
 3176SOL    HW120987   0.484   0.652   4.511 -1.2331 -2.7551  1.2215
 3176SOL    HW220988   0.615   0.679   4.474 -1.4536 -0.5305 -2.3726
 3177SOL     OW20989   0.844   2.591   5.774 -0.0801 -0.1822  0.0117
 3177SOL    HW120990   0.808   2.551   5.854 -1.3534  1.0246  0.0423
 3177SOL    HW220991   0.922   2.638   5.805 -0.7917  1.7034 -1.0604
 3178SOL     OW20992   2.677   2.812   8.973  0.3898  0.3614 -0.4560
 3178SOL    HW120993   2.659   2.901   8.944  2.0458  1.1151  0.7601
 3178SOL    HW220994   2.669   2.822   9.068 -1.3970  1.1561 -0.6958
 3179SOL     OW20995   2.985   1.440  10.108 -0.1614 -0.5755 -0.0881
 3179SOL    HW120996   2.999   1.345  10.101  1.3542 -0.3458 -0.3638
 3179SOL    HW220997   2.930   1.448  10.185  0.0570  2.0507 -0.2324
 3180SOL     OW20998   0.388   1.913   8.930  0.6762  0.2698  0.4096
 3180SOL    HW120999   0.330   1.923   8.855  1.4086  2.0370  0.0736
 3180SOL    HW221000   0.473   1.915   8.887  1.3017 -1.5739  1.5385
 3181SOL     OW21001   2.322   2.671  15.426  0.3318 -0.4392  0.1969
 3181SOL    HW121002   2.227   2.679  15.432  0.3838  0.0388  0.3562
 3181SOL    HW221003   2.342   2.753  15.470  2.1832  0.7018 -2.7748
 3182SOL     OW21004   4.360   2.269   4.783  0.0229  0.0844 -0.0573
 3182SOL    HW121005   4.315   2.337   4.834  0.1119 -0.0577  0.2122
 3182SOL    HW221006   4.426   2.319   4.735  1.5712 -0.5718  1.3844
 3183SOL     OW21007   3.087   4.662   4.946 -0.1118  0.0083 -0.4895
 3183SOL    HW121008   2.997   4.673   4.979 -1.2257  0.0459 -3.5209
 3183SOL    HW221009   3.145   4.707   5.008 -0.5033 -0.4744  0.2373
 3184SOL     OW21010   2.506   0.383  11.987 -0.0043  0.3593 -0.3675
 3184SOL    HW121011   2.587   0.371  12.036 -0.6250 -0.0382  0.5443
 3184SOL    HW221012   2.500   0.292  11.957 -1.0531 -0.3058  1.9135
 3185SOL     OW21013   1.810   1.562   6.506 -0.0045  0.1153 -0.3104
 3185SOL    HW121014   1.718   1.561   6.480 -0.2485 -0.6279  0.5826
 3185SOL    HW221015   1.805   1.596   6.596  2.3103  1.6046 -0.7222
 3186SOL     OW21016   0.433   3.004   4.648 -0.1745 -0.2857  0.4664
 3186SOL    HW121017   0.413   2.975   4.559 -0.8093  2.3195 -0.2165
 3186SOL    HW221018   0.483   3.080   4.619 -0.2095 -0.5919 -0.3983
 3187SOL     OW21019   1.799   1.630   7.284  0.3167 -0.2467 -0.4274
 3187SOL    HW121020   1.781   1.536   7.294  0.6325 -0.3984 -1.2428
 3187SOL    HW221021   1.886   1.639   7.322 -0.6186  1.4195  1.2757
 3188SOL     OW21022   1.006   3.532   2.757  0.0863  0.4116 -0.2270
 3188SOL    HW121023   0.926   3.507   2.709 -0.5519  0.2091  0.9376
 3188SOL    HW221024   1.056   3.575   2.688  0.1198 -1.9228 -1.6516
 3189SOL     OW21025   2.219   0.587  15.796  0.1440  0.3393  0.2204
 3189SOL    HW121026   2.248   0.649  15.730 -0.2873  1.4181  1.0522
 3189SOL    HW221027   2.302   0.539  15.802 -0.1434 -0.3444 -1.3768
 3190SOL     OW21028   2.532   3.539   3.693  0.7205  0.2876  0.1309
 3190SOL    HW121029   2.546   3.446   3.675 -1.0598  0.4801 -2.4141
 3190SOL    HW221030   2.548   3.575   3.605 -0.0027 -0.3870 -0.2804
 3191SOL     OW21031   3.387   4.483  10.020  0.7174 -0.1689  0.4570
 3191SOL    HW121032   3.482   4.478  10.028  0.7318 -0.9390 -0.2595
 3191SOL    HW221033   3.378   4.437   9.937 -3.1039  1.6204 -0.1385
 3192SOL     OW21034   2.940   3.210  13.061 -0.3530 -0.3546 -0.3214
 3192SOL    HW121035   3.002   3.139  13.078 -0.5010 -0.0334  1.5678
 3192SOL    HW221036   2.973   3.245  12.978  0.4698  1.6297  0.8406
 3193SOL     OW21037   4.581   3.284   7.764  0.5247  0.5423  0.4335
 3193SOL    HW121038   4.654   3.345   7.752  2.0882 -1.4183 -0.0410
 3193SOL    HW221039   4.507   3.332   7.726  0.5422 -0.0598 -0.3535
 3194SOL     OW21040   2.647   2.131  10.970 -0.5269  0.0310  0.3149
 3194SOL    HW121041   2.733   2.091  10.981 -0.5029  0.3449  1.2815
 3194SOL    HW221042   2.591   2.054  10.960  1.4097 -1.2588 -0.6753
 3195SOL     OW21043   0.215   0.706   2.389  0.2935  0.0988 -0.4068
 3195SOL    HW121044   0.230   0.749   2.304  0.2720  2.3200  0.7229
 3195SOL    HW221045   0.212   0.775   2.455 -2.4912 -0.4239 -0.0036
 3196SOL     OW21046   3.156   3.314   8.324 -0.2287 -0.2069  0.4292
 3196SOL    HW121047   3.095   3.248   8.357  0.9422 -0.9579  1.1275
 3196SOL    HW221048   3.148   3.297   8.230  0.6931 -0.3422  0.3738
 3197SOL     OW21049   1.431   4.425   2.209 -0.1081  0.3674 -0.6961
 3197SOL    HW121050   1.387   4.397   2.129 -1.6826 -0.9505  0.6432
 3197SOL    HW221051   1.450   4.515   2.185 -1.2252  0.3294 -1.7217
 3198SOL     OW21052   1.051   1.422  15.661  0.1068 -0.1439 -0.1920
 3198SOL    HW121053   1.014   1.361  15.725 -0.6681  0.5981  0.0754
 3198SOL    HW221054   1.052   1.371  15.580 -2.4289 -0.8333  0.2023
 3199SOL     OW21055   2.736   2.631   7.846 -0.2096 -0.0370 -0.1673
 3199SOL    HW121056   2.725   2.676   7.929  1.6303 -0.7373  0.4648
 3199SOL    HW221057   2.812   2.680   7.815  1.0107 -1.9185 -0.1251
 3200SOL     OW21058   3.481   2.867   6.756 -0.3493  0.1883  0.5803
 3200SOL    HW121059   3.515   2.778   6.757 -0.6701  0.0359 -0.9549
 3200SOL    HW221060   3.468   2.887   6.848 -0.7105 -0.1317  0.6008
 3201SOL     OW21061   3.666   4.038   3.591 -0.3960 -0.1241 -0.4838
 3201SOL    HW121062   3.743   4.062   3.540  0.3405 -1.5473 -0.0400
 3201SOL    HW221063   3.683   4.070   3.680 -0.4713 -1.7588  0.1306
 3202SOL     OW21064   0.888   0.597  15.321  0.2226 -0.2926 -0.1043
 3202SOL    HW121065   0.829   0.672  15.326  1.7125  0.8693  0.3333
 3202SOL    HW221066   0.940   0.625  15.245 -0.5997  0.8094 -0.2631
 3203SOL     OW21067   2.409   0.599   2.568  0.2809 -0.5342 -0.0063
 3203SOL    HW121068   2.455   0.522   2.534 -2.2524 -2.4619  0.8439
 3203SOL    HW221069   2.477   0.640   2.621 -0.0283  0.0402 -0.0507
 3204SOL     OW21070   0.708   1.765   3.080  0.2189  0.4089 -0.9347
 3204SOL    HW121071   0.791   1.755   3.126  1.5113  2.3114 -2.8120
 3204SOL    HW221072   0.658   1.810   3.148  1.3574 -0.4715  0.4929
 3205SOL     OW21073   0.151   0.726   7.453 -0.1304  0.1152  0.3898
 3205SOL    HW121074   0.168   0.815   7.485 -1.1164  0.9096 -1.2862
 3205SOL    HW221075   0.226   0.720   7.393 -0.2216 -0.3436  0.3234
 3206SOL     OW21076   4.127   2.682   4.041 -0.1635 -0.1981 -0.3581
 3206SOL    HW121077   4.077   2.724   3.970 -2.6112 -1.7461  0.4443
 3206SOL    HW221078   4.089   2.710   4.124 -1.7490 -0.9501 -0.8211
 3207SOL     OW21079   4.287   1.310   4.837 -0.1474 -0.2456  0.2436
 3207SOL    HW121080   4.209   1.352   4.873 -0.6617 -1.1124  0.1370
 3207SOL    HW221081   4.257   1.281   4.750  1.0073 -0.3223 -0.1371
 3208SOL     OW21082   2.951   2.882   9.488 -0.1755  1.1952  0.6054
 3208SOL    HW121083   2.904   2.815   9.437  1.5515  0.6152 -0.2494
 3208SOL    HW221084   2.900   2.962   9.481 -0.8546  0.4008 -3.8010
 3209SOL     OW21085   0.360   0.861  13.794 -0.3386 -0.2814  0.5304
 3209SOL    HW121086   0.399   0.874  13.707  0.1002  1.0491  0.9246
 3209SOL    HW221087   0.354   0.766  13.783  0.1632 -0.0728 -1.4986
 3210SOL     OW21088   1.745   0.292   4.418  0.7901 -0.2362 -0.1223
 3210SOL    HW121089   1.814   0.231   4.393  1.6475  0.4665  0.5052
 3210SOL    HW221090   1.732   0.330   4.331  1.9766 -0.7777 -0.5294
 3211SOL     OW21091   0.552   2.489   1.362 -0.3029  0.6691  0.0963
 3211SOL    HW121092   0.569   2.520   1.273 -0.5945  1.0472  0.1729
 3211SOL    HW221093   0.511   2.403   1.355 -1.1702  0.9643  1.6335
 3212SOL     OW21094   2.547   1.918   7.719  0.7270 -0.2616 -0.2872
 3212SOL    HW121095   2.612   1.987   7.707  1.1162 -0.3480  1.3573
 3212SOL    HW221096   2.548   1.906   7.814  0.7134 -0.4002 -0.3049
 3213SOL     OW21097   1.300   4.092  14.520  0.2962  0.1537 -0.5349
 3213SOL    HW121098   1.369   4.043  14.476 -0.5178 -0.7433 -0.8035
 3213SOL    HW221099   1.224   4.037  14.500  0.3814 -0.3694  0.5748
 3214SOL     OW21100   0.471   1.532   5.512 -0.0222 -0.3164  0.2364
 3214SOL    HW121101   0.505   1.601   5.455 -2.0493 -0.3058 -0.9483
 3214SOL    HW221102   0.383   1.570   5.511  0.9106  1.9107  1.7978
 3215SOL     OW21103   4.321   3.806   6.909  0.1974 -0.2032 -0.0500
 3215SOL    HW121104   4.341   3.832   6.819  0.1552  2.0198  0.5965
 3215SOL    HW221105   4.312   3.711   6.901  0.7641 -0.3194  0.6583
 3216SOL     OW21106   0.640   0.218   3.709 -0.7155  0.3983 -0.7986
 3216SOL    HW121107   0.584   0.291   3.735  0.5369  1.2736 -0.5494
 3216SOL    HW221108   0.629   0.231   3.615  0.7677  2.1448 -0.7431
 3217SOL     OW21109   1.854   1.333   5.578  0.3135 -0.2973  0.3422
 3217SOL    HW121110   1.865   1.379   5.495  1.2181 -1.2535 -0.0741
 3217SOL    HW221111   1.905   1.384   5.642 -1.1692  2.1379 -0.4405
 3218SOL     OW21112   1.357   2.491   0.355  0.4536 -0.5810 -0.5017
 3218SOL    HW121113   1.391   2.580   0.369  1.9966 -1.5151  1.6847
 3218SOL    HW221114   1.409   2.448   0.423 -1.2562  1.1965  1.9104
 3219SOL     OW21115   4.316   4.375   3.300  0.3237  0.2780  0.0776
 3219SOL    HW121116   4.288   4.299   3.250 -1.2391  1.7293 -1.2553
 3219SOL    HW221117   4.226   4.407   3.303  0.4051  0.2572  2.3649
 3220SOL     OW21118   0.670   4.636   4.678  0.2387 -0.3224 -0.0416
 3220SOL    HW121119   0.623   4.606   4.755 -0.4893  0.2911 -0.2520
 3220SOL    HW221120   0.604   4.625   4.610  2.2275 -1.1860 -1.8719
 3221SOL     OW21121   1.280   0.613   4.228  0.7968 -0.0861 -0.4695
 3221SOL    HW121122   1.241   0.548   4.170 -3.8450  2.2927  0.0167
 3221SOL    HW221123   1.225   0.595   4.304  0.8634 -2.5935 -1.0216
 3222SOL     OW21124   1.756   4.672  12.598  0.4204  0.0351  0.2899
 3222SOL    HW121125   1.710   4.609  12.653 -1.6830  1.2212 -0.0897
 3222SOL    HW221126   1.811   4.614  12.547 -0.5369 -1.5186  1.0392
 3223SOL     OW21127   2.334   2.294  14.624 -0.2668 -0.0704  0.0508
 3223SOL    HW121128   2.272   2.266  14.692  0.4692 -3.3566 -0.6854
 3223SOL    HW221129   2.325   2.233  14.551 -2.7628 -0.7448  0.9134
 3224SOL     OW21130   4.055   0.999   8.915  0.6910  0.4927 -0.7392
 3224SOL    HW121131   4.060   0.938   8.989  0.9569  1.2030 -0.1653
 3224SOL    HW221132   4.000   1.060   8.963  1.2801 -0.2536  0.8834
 3225SOL     OW21133   4.088   4.718   3.285 -0.2825  0.1368 -0.1798
 3225SOL    HW121134   4.163   0.002   3.345 -0.5542 -0.4231  0.2474
 3225SOL    HW221135   4.038   0.073   3.296 -0.4144  0.1027 -0.5385
 3226SOL     OW21136   1.870   2.792   0.564 -0.1846 -0.1868 -0.1459
 3226SOL    HW121137   1.802   2.738   0.524 -1.7945 -0.6705  3.2612
 3226SOL    HW221138   1.849   2.775   0.656  1.6816  0.2153  0.3548
 3227SOL     OW21139   0.182   0.506   4.053 -0.2293  0.3333 -0.4477
 3227SOL    HW121140   0.247   0.558   4.007  0.5210 -1.6079 -1.5938
 3227SOL    HW221141   0.228   0.462   4.124  1.9736  1.4150 -1.2299
 3228SOL     OW21142   3.562   1.631  17.409  0.0454  0.2647 -0.6135
 3228SOL    HW121143   3.600   1.716  17.386  2.3837 -1.3025 -2.6169
 3228SOL    HW221144   3.634   1.568  17.404  0.3351  0.4840  0.9028
 3229SOL     OW21145   2.051   1.288   3.365  0.2503 -0.3479  0.3714
 3229SOL    HW121146   2.007   1.203   3.366 -0.5873  0.0893  0.9124
 3229SOL    HW221147   2.137   1.258   3.394  1.4052  2.3531 -0.2445
 3230SOL     OW21148   0.964   2.183   0.582 -0.4525 -0.5305 -0.0924
 3230SOL    HW121149   0.986   2.249   0.647  1.2952  0.4019 -1.6201
 3230SOL    HW221150   0.886   2.135   0.607 -2.2983  2.3931 -0.2012
 3231SOL     OW21151   2.263   0.229   8.044 -0.0956  0.1209 -0.2066
 3231SOL    HW121152   2.271   0.301   8.106 -0.5035  1.0417 -1.2196
 3231SOL    HW221153   2.169   0.227   8.026 -0.0291  2.0787 -0.7758
 3232SOL     OW21154   1.303   1.853   8.159 -0.1920 -0.1559 -0.6155
 3232SOL    HW121155   1.365   1.914   8.118  1.1611 -0.4574  0.9733
 3232SOL    HW221156   1.348   1.851   8.244 -0.1077  0.3366 -0.6479
 3233SOL     OW21157   0.065   1.122   6.839  0.3202  0.2413  0.5176
 3233SOL    HW121158   0.143   1.113   6.893  1.3750 -0.0057 -1.0487
 3233SOL    HW221159   0.019   1.039   6.857 -1.6485  1.7652  2.4826
 3234SOL     OW21160   3.237   2.420  12.951  0.3351 -0.3166  0.1194
 3234SOL    HW121161   3.218   2.408  12.858 -0.8918  0.2105  0.2937
 3234SOL    HW221162   3.332   2.429  12.944  0.4914 -1.0182  1.3181
 3235SOL     OW21163   1.962   4.484   5.365 -0.2779  0.3494  0.2166
 3235SOL    HW121164   1.898   4.458   5.432 -0.4833 -0.9083 -0.4696
 3235SOL    HW221165   2.042   4.441   5.394 -0.9088 -1.6345 -0.9830
 3236SOL     OW21166   1.247   2.037   5.985 -0.7213 -0.1329  0.0106
 3236SOL    HW121167   1.256   2.131   5.971  1.3135  0.4657  5.1545
 3236SOL    HW221168   1.155   2.036   5.960 -1.0642  1.2670  1.2577
 3237SOL     OW21169   4.165   2.258   7.516 -0.2262  0.9635  0.3011
 3237SOL    HW121170   4.105   2.194   7.556  0.4511  0.2878  0.2388
 3237SOL    HW221171   4.243   2.238   7.567 -0.1747  0.5754  0.0696
 3238SOL     OW21172   2.116   2.304   2.908 -0.5537 -0.6475 -0.3385
 3238SOL    HW121173   2.061   2.231   2.879 -1.1957  0.1304 -1.0616
 3238SOL    HW221174   2.154   2.279   2.992 -0.3149 -3.2443 -1.2201
 3239SOL     OW21175   1.610   4.070   8.823 -0.4941 -0.3687 -0.3333
 3239SOL    HW121176   1.571   4.108   8.901  1.8548  1.5526 -0.1109
 3239SOL    HW221177   1.595   3.978   8.843 -1.6231 -0.6475 -2.4396
 3240SOL     OW21178   0.205   0.921   8.164  0.2315  0.3516  0.9656
 3240SOL    HW121179   0.231   0.918   8.072  0.1437 -0.0550  0.9520
 3240SOL    HW221180   0.191   1.013   8.186  1.2889  0.3167  1.7749
 3241SOL     OW21181   3.180   1.485   8.471 -0.4259  0.3701 -0.3834
 3241SOL    HW121182   3.213   1.506   8.384 -0.9916 -1.4012 -1.0162
 3241SOL    HW221183   3.185   1.390   8.465  0.6693  0.3814  0.2617
 3242SOL     OW21184   1.641   3.866   4.142  0.0853 -0.2554 -0.5196
 3242SOL    HW121185   1.563   3.887   4.090  0.1711  2.1484  0.3530
 3242SOL    HW221186   1.603   3.793   4.192 -2.8776  1.2452 -0.5411
 3243SOL     OW21187   4.311   3.439   6.482  0.1448 -0.1184 -0.1268
 3243SOL    HW121188   4.300   3.533   6.498 -0.3922 -0.1544 -0.2681
 3243SOL    HW221189   4.362   3.456   6.403 -1.0209 -0.0844 -0.8729
 3244SOL     OW21190   2.092   1.235   7.293  0.3118 -0.1430 -0.7751
 3244SOL    HW121191   2.102   1.329   7.282 -1.7299 -0.1043 -2.2407
 3244SOL    HW221192   2.181   1.203   7.308 -0.1638 -0.6796  1.0288
 3245SOL     OW21193   0.959   0.023   8.204  0.3088 -0.0536  0.0162
 3245SOL    HW121194   0.872   0.026   8.165 -0.9066 -0.3317  2.6666
 3245SOL    HW221195   1.013   0.056   8.133  0.7496 -0.2570  0.2586
 3246SOL     OW21196   2.568   2.174   6.076 -0.6062  0.3343  0.8310
 3246SOL    HW121197   2.537   2.218   5.997  1.0647  2.2771  1.2415
 3246SOL    HW221198   2.657   2.149   6.049 -0.9981 -1.9487  1.6427
 3247SOL     OW21199   1.656   1.935  10.500  0.0553 -0.1960 -0.4637
 3247SOL    HW121200   1.750   1.921  10.512  0.2036  1.4387  0.2890
 3247SOL    HW221201   1.663   2.006  10.437 -0.3343 -1.5310 -2.0220
 3248SOL     OW21202   4.512   4.663   7.341 -0.6789 -0.5099 -0.2034
 3248SOL    HW121203   4.483   4.674   7.251 -0.4388 -1.0492 -0.3455
 3248SOL    HW221204   4.530   4.569   7.344 -0.3017 -0.4371 -0.1060
 3249SOL     OW21205   1.485   2.249  17.479 -0.2821  0.4375  0.2221
 3249SOL    HW121206   1.450   2.254  17.568  1.8232 -3.5677  1.2596
 3249SOL    HW221207   1.448   2.329  17.442 -0.1486 -0.7184 -2.4334
 3250SOL     OW21208   3.896   0.877   3.151 -0.6658 -0.4006 -0.5208
 3250SOL    HW121209   3.852   0.926   3.082 -1.7132 -0.4319  0.1206
 3250SOL    HW221210   3.835   0.884   3.225 -0.0603 -0.3872 -0.0260
 3251SOL     OW21211   3.251   3.475   1.391 -0.3214 -0.2735  0.1053
 3251SOL    HW121212   3.274   3.382   1.384  0.9237  0.0321  0.1338
 3251SOL    HW221213   3.282   3.506   1.306 -0.0957 -0.6850  0.0392
 3252SOL     OW21214   4.152   4.631   8.288 -0.3372 -0.1740 -0.2669
 3252SOL    HW121215   4.072   4.616   8.338  0.2886 -0.2219  0.7123
 3252SOL    HW221216   4.213   4.667   8.353  0.6969 -1.8599 -0.2800
 3253SOL     OW21217   0.435   4.239  12.774  0.2077 -0.1918 -0.0504
 3253SOL    HW121218   0.492   4.262  12.700  0.8808  0.4239  0.6703
 3253SOL    HW221219   0.498   4.223  12.844  0.3763 -0.7748 -0.3387
 3254SOL     OW21220   0.734   3.823   9.046  0.1970 -0.1123  0.7896
 3254SOL    HW121221   0.801   3.866   8.993  0.1437 -1.1067 -0.0857
 3254SOL    HW221222   0.691   3.896   9.090 -0.1368  0.8248 -1.0932
 3255SOL     OW21223   2.959   4.144   4.651 -0.7829  0.4766  0.2230
 3255SOL    HW121224   2.866   4.164   4.645 -1.2687 -1.8048  0.1851
 3255SOL    HW221225   2.961   4.076   4.584  0.5572 -0.0928  0.8364
 3256SOL     OW21226   0.392   2.939   7.778  0.1473 -0.8423  0.3193
 3256SOL    HW121227   0.408   3.002   7.708 -1.2910 -0.9162 -0.0757
 3256SOL    HW221228   0.485   2.922   7.795 -0.0414  0.4244  2.6822
 3257SOL     OW21229   2.691   3.817  13.595 -0.4583 -0.0990  0.0336
 3257SOL    HW121230   2.654   3.783  13.676 -0.7271 -0.1852 -0.1232
 3257SOL    HW221231   2.774   3.770  13.596 -0.6017 -0.3294  1.0288
 3258SOL     OW21232   1.824   3.822   7.851  0.9579 -0.7609 -0.1468
 3258SOL    HW121233   1.828   3.890   7.784  0.8079  1.5836  2.2235
 3258SOL    HW221234   1.732   3.825   7.877  0.8471  0.1372 -0.6298
 3259SOL     OW21235   0.043   0.986   9.500 -0.2529 -0.1615  0.4690
 3259SOL    HW121236   4.675   0.986   9.482 -0.1790  0.6402  0.0671
 3259SOL    HW221237   0.063   1.077   9.522 -1.4839  0.1168  0.4323
 3260SOL     OW21238   3.226   1.089   5.953  0.2961 -0.3914 -0.2281
 3260SOL    HW121239   3.164   1.118   5.886  0.7803 -0.3867 -0.6687
 3260SOL    HW221240   3.289   1.053   5.891  0.7914 -1.6635  1.0171
 3261SOL     OW21241   2.403   0.733   4.437 -0.3779  0.4373 -0.3865
 3261SOL    HW121242   2.433   0.778   4.358  0.4526  2.0370  0.8260
 3261SOL    HW221243   2.309   0.750   4.433 -0.2220  1.8370  1.6528
 3262SOL     OW21244   2.308   4.219   6.570  0.6736 -0.5554 -0.2867
 3262SOL    HW121245   2.295   4.134   6.528 -0.9427 -0.3577 -0.2156
 3262SOL    HW221246   2.221   4.259   6.561 -0.1713 -2.5971 -1.1334
 3263SOL     OW21247   0.820   1.952  16.026  0.3510 -0.6134 -0.2356
 3263SOL    HW121248   0.896   1.990  15.980 -1.4609  0.7251 -2.1358
 3263SOL    HW221249   0.741   1.971  15.975  0.1712  1.8783  0.9445
 3264SOL     OW21250   1.192   1.990   6.371  0.1642 -0.4848 -0.1009
 3264SOL    HW121251   1.286   1.976   6.360 -0.3392 -2.7686 -1.4437
 3264SOL    HW221252   1.162   2.006   6.281 -0.8207  0.2849  0.3644
 3265SOL     OW21253   2.715   0.824   5.479  0.0160  0.4809  0.1750
 3265SOL    HW121254   2.720   0.918   5.499 -0.4352  0.5861 -0.1927
 3265SOL    HW221255   2.736   0.780   5.562 -0.7666  0.8095  0.5583
 3266SOL     OW21256   3.686   0.903  12.453  0.5074  0.4624  0.0816
 3266SOL    HW121257   3.667   0.823  12.502 -2.6628  1.3061  0.2529
 3266SOL    HW221258   3.763   0.878  12.402  1.5639  2.2395  0.8134
 3267SOL     OW21259   1.772   1.294  17.350  0.1038  0.5509  0.2527
 3267SOL    HW121260   1.739   1.269  17.264  2.7045  1.9252 -1.1335
 3267SOL    HW221261   1.772   1.389  17.341 -0.1856  0.5114 -0.1397
 3268SOL     OW21262   4.517   4.034   2.105  0.0128  0.3635 -0.1320
 3268SOL    HW121263   4.493   4.102   2.167 -0.0291 -0.4015  0.6896
 3268SOL    HW221264   4.456   4.065   2.038  0.4990  1.0429 -0.2703
 3269SOL     OW21265   1.443   1.833   9.533 -0.3805  0.4341  0.1954
 3269SOL    HW121266   1.435   1.758   9.473 -2.3968  0.6042  0.2528
 3269SOL    HW221267   1.411   1.897   9.469 -2.3013 -0.9352 -0.2318
 3270SOL     OW21268   3.364   3.009   3.236 -0.0761  0.1001 -0.3101
 3270SOL    HW121269   3.383   2.963   3.154  2.1146 -0.5814  0.5772
 3270SOL    HW221270   3.363   3.099   3.202 -0.3639 -0.4144 -1.6558
 3271SOL     OW21271   2.438   4.601   3.342 -0.6099  0.4729 -0.8604
 3271SOL    HW121272   2.399   4.654   3.274  1.0863 -0.8218 -2.8403
 3271SOL    HW221273   2.412   4.648   3.422  0.9102  0.0005 -0.0769
 3272SOL     OW21274   1.881   2.247   5.602 -0.8407 -0.3289  0.0550
 3272SOL    HW121275   1.899   2.257   5.508 -2.3176 -3.3971 -0.5334
 3272SOL    HW221276   1.812   2.310   5.623 -1.3877 -0.9461  0.0750
 3273SOL     OW21277   4.241   3.239   5.083  0.9146  0.5624 -0.0118
 3273SOL    HW121278   4.317   3.246   5.025 -0.4644  0.9305 -1.7660
 3273SOL    HW221279   4.183   3.195   5.021  2.9526 -0.5102 -1.1387
 3274SOL     OW21280   0.085   4.276   9.310 -0.1134  0.1613  0.4224
 3274SOL    HW121281   0.044   4.363   9.312  1.8497  1.0978 -0.1136
 3274SOL    HW221282   0.166   4.296   9.358  1.9391 -1.6362 -2.3207
 3275SOL     OW21283   4.602   2.448   9.669  0.5447  0.4636  0.6739
 3275SOL    HW121284   4.570   2.521   9.723 -1.9467 -0.0281 -0.1364
 3275SOL    HW221285   4.696   2.457   9.651  0.3133 -0.3976 -0.9343
 3276SOL     OW21286   1.728   0.256   6.025  0.0614  0.5671 -0.0636
 3276SOL    HW121287   1.803   0.224   6.076  0.8131  2.6046  0.1325
 3276SOL    HW221288   1.712   0.168   5.993  1.1346  0.4682 -0.3291
 3277SOL     OW21289   0.648   4.104   6.259 -0.2777 -0.3235 -0.0064
 3277SOL    HW121290   0.727   4.147   6.226 -0.6914 -2.6673 -4.0418
 3277SOL    HW221291   0.587   4.178   6.259 -0.1258 -0.1900 -1.6925
 3278SOL     OW21292   1.921   1.175   9.142 -0.3433  0.1705  0.2704
 3278SOL    HW121293   1.917   1.193   9.236 -2.6512  0.0233  0.1931
 3278SOL    HW221294   1.895   1.084   9.132 -1.9801  0.9211 -2.4677
 3279SOL     OW21295   4.289   3.467  14.676 -0.2012 -0.8005  0.8523
 3279SOL    HW121296   4.328   3.403  14.735  2.1822 -0.9060 -0.8150
 3279SOL    HW221297   4.218   3.406  14.654 -0.7569 -0.4895  1.7697
 3280SOL     OW21298   2.858   2.560   6.481 -0.3917  0.5804 -0.3934
 3280SOL    HW121299   2.927   2.611   6.438  0.7837 -2.0187 -1.5647
 3280SOL    HW221300   2.812   2.633   6.523  0.1807 -0.7518  2.4941
 3281SOL     OW21301   2.159   0.738  12.222  0.1874  0.4594  0.1135
 3281SOL    HW121302   2.193   0.826  12.201  1.5780 -0.6457 -2.3567
 3281SOL    HW221303   2.236   0.705  12.269 -0.8261 -0.1199  1.3328
 3282SOL     OW21304   3.028   1.377   4.572  0.6038 -0.7531 -0.2955
 3282SOL    HW121305   3.001   1.425   4.650 -0.8375 -1.2219 -0.5089
 3282SOL    HW221306   3.024   1.447   4.508  1.7556  0.2059  0.6720
 3283SOL     OW21307   2.410   0.118   4.422  0.3570  0.4219 -0.0310
 3283SOL    HW121308   2.379   0.029   4.439 -0.0564  0.8990  1.6626
 3283SOL    HW221309   2.346   0.149   4.358 -0.8293 -2.7797 -0.3924
 3284SOL     OW21310   0.503   0.074  16.702 -0.1699  0.0102 -0.4973
 3284SOL    HW121311   0.573   0.111  16.756 -0.4824 -0.4747  0.2335
 3284SOL    HW221312   0.428   0.121  16.739 -0.4441 -1.0433  0.2630
 3285SOL     OW21313   1.932   3.046   1.885 -0.6637 -0.0722 -0.2042
 3285SOL    HW121314   1.943   3.114   1.819  0.4891  0.2045  0.2745
 3285SOL    HW221315   1.837   3.054   1.887 -0.5573  0.8430  1.5125
 3286SOL     OW21316   0.886   2.719   9.570 -0.0440  0.0206 -0.4153
 3286SOL    HW121317   0.947   2.782   9.532  0.9326  0.0840  1.2711
 3286SOL    HW221318   0.807   2.738   9.520 -0.0075 -1.0249 -0.8818
 3287SOL     OW21319   3.938   2.744   8.016 -0.1863  0.0527  0.2300
 3287SOL    HW121320   3.974   2.805   7.951 -2.6065  1.2076 -0.0303
 3287SOL    HW221321   3.842   2.746   8.009 -0.2556  2.6955  2.2087
 3288SOL     OW21322   1.019   1.043   4.559 -0.1045 -0.2136 -0.1603
 3288SOL    HW121323   1.094   1.097   4.532  2.2570 -3.8475 -0.7522
 3288SOL    HW221324   1.011   0.992   4.478 -0.2995 -1.8980  0.9304
 3289SOL     OW21325   4.070   2.039   5.356 -0.3310 -0.1859 -1.0551
 3289SOL    HW121326   4.109   2.117   5.395  1.0048  0.2865 -3.3378
 3289SOL    HW221327   4.098   1.979   5.426 -2.5855 -0.7861 -0.6813
 3290SOL     OW21328   4.429   1.623   2.613  0.2029 -0.0009 -0.3501
 3290SOL    HW121329   4.386   1.555   2.665  1.7669 -0.5102  0.2659
 3290SOL    HW221330   4.355   1.653   2.559 -0.5886  0.3680  0.9294
 3291SOL     OW21331   0.809   2.759   1.730  0.2184  0.3812  0.2558
 3291SOL    HW121332   0.740   2.711   1.684 -0.1535  1.1937 -0.0433
 3291SOL    HW221333   0.890   2.749   1.679 -0.0217  1.3566 -0.3171
 3292SOL     OW21334   4.566   2.617   5.910 -0.1580 -0.0962  0.0498
 3292SOL    HW121335   4.634   2.613   5.842  0.2450 -1.4679  0.5320
 3292SOL    HW221336   4.495   2.641   5.851 -0.9871  0.1311  1.1561
 3293SOL     OW21337   2.132   0.170   1.619 -0.2581 -0.2250  0.1296
 3293SOL    HW121338   2.148   0.117   1.698 -0.6053 -1.1768 -0.4371
 3293SOL    HW221339   2.044   0.141   1.596 -0.7991 -0.0312  1.9460
 3294SOL     OW21340   2.944   0.860   2.717  0.0398  0.5704  0.2007
 3294SOL    HW121341   2.902   0.790   2.667  1.1971  0.4301 -0.5809
 3294SOL    HW221342   3.033   0.824   2.712 -0.8791 -1.6554  0.0986
 3295SOL     OW21343   3.711   1.441   7.196  0.0898  0.2639  0.1057
 3295SOL    HW121344   3.756   1.510   7.146 -0.0185  0.0518 -0.2872
 3295SOL    HW221345   3.759   1.434   7.278 -1.5235  1.2075  1.1205
 3296SOL     OW21346   2.399   0.303   1.662  0.6891 -0.4196  0.2187
 3296SOL    HW121347   2.328   0.292   1.726 -0.8335  0.7566 -1.2490
 3296SOL    HW221348   2.409   0.398   1.664  2.3950 -0.5574 -1.4082
 3297SOL     OW21349   3.555   0.606   7.888  0.7132 -0.9117 -0.4014
 3297SOL    HW121350   3.634   0.568   7.928  1.5917  1.5075  0.1727
 3297SOL    HW221351   3.591   0.694   7.878  1.1718 -1.3172 -2.2550
 3298SOL     OW21352   1.822   0.647  16.512 -0.1421  0.2717  0.1905
 3298SOL    HW121353   1.792   0.557  16.504  1.0035 -0.2139  1.4682
 3298SOL    HW221354   1.910   0.640  16.474  0.0054  1.8065  0.2276
 3299SOL     OW21355   1.449   0.543   9.201  0.7730  0.0309  0.2365
 3299SOL    HW121356   1.480   0.542   9.292 -0.4464 -1.1986  0.6423
 3299SOL    HW221357   1.370   0.492   9.217  1.7930 -2.6309 -3.0496
 3300SOL     OW21358   2.214   4.564   8.482 -0.1542  0.0521  0.1049
 3300SOL    HW121359   2.183   4.650   8.453  0.7890  0.0627 -0.9144
 3300SOL    HW221360   2.137   4.513   8.504  0.4370 -1.2601 -0.8907
 3301SOL     OW21361   3.513   2.067   4.032 -0.0186 -0.1984 -0.4724
 3301SOL    HW121362   3.586   2.007   4.016 -3.0552 -3.2862 -2.7664
 3301SOL    HW221363   3.450   2.000   4.057  0.7641 -0.3753  0.9795
 3302SOL     OW21364   0.262   1.951   1.188 -0.4641  0.3147  0.5115
 3302SOL    HW121365   0.334   1.888   1.179  1.3840  2.2958  1.3303
 3302SOL    HW221366   0.185   1.894   1.181 -0.3135  0.1270  0.3653
 3303SOL     OW21367   0.327   2.584  16.721 -0.6592 -0.4008 -0.2148
 3303SOL    HW121368   0.275   2.507  16.699 -0.9702  0.0018 -0.8920
 3303SOL    HW221369   0.370   2.546  16.798 -0.3806  1.5480  0.5919
 3304SOL     OW21370   2.289   4.336   8.223 -0.1002  0.3423  0.1587
 3304SOL    HW121371   2.247   4.408   8.177 -0.6004  0.9023  1.4929
 3304SOL    HW221372   2.291   4.263   8.160 -2.0183 -0.5625  1.1237
 3305SOL     OW21373   3.210   4.299   3.510 -0.2758 -0.2378 -0.4316
 3305SOL    HW121374   3.259   4.225   3.547 -0.3063 -1.4476 -2.8038
 3305SOL    HW221375   3.150   4.256   3.449 -0.2103 -0.8826 -0.0451
 3306SOL     OW21376   4.655   1.087   6.591  0.2868 -0.2689  0.1561
 3306SOL    HW121377   4.630   1.176   6.566  0.0533 -0.8047 -1.5447
 3306SOL    HW221378   4.699   1.117   6.670 -0.8620 -0.9830  1.0561
 3307SOL     OW21379   0.477   1.723   7.754 -0.0727  0.2195  0.5078
 3307SOL    HW121380   0.460   1.811   7.788 -1.5313 -0.4489  1.4720
 3307SOL    HW221381   0.402   1.721   7.694 -1.8548  0.2643  2.7593
 3308SOL     OW21382   3.620   4.620   7.796  0.4192  0.0431  0.2173
 3308SOL    HW121383   3.709   4.596   7.823  0.5812 -0.3854 -0.6917
 3308SOL    HW221384   3.573   4.615   7.879 -1.6115  1.2817 -0.8798
 3309SOL     OW21385   0.978   1.383   6.575  0.1423  0.0692 -0.0621
 3309SOL    HW121386   0.989   1.464   6.625 -0.7270  0.0536  0.1503
 3309SOL    HW221387   1.026   1.316   6.625  0.3685 -0.3802 -0.8817
 3310SOL     OW21388   1.218   4.126  13.910  0.2043 -0.5016  0.1026
 3310SOL    HW121389   1.235   4.032  13.902 -1.1288 -0.6888 -0.5560
 3310SOL    HW221390   1.191   4.134  14.001 -1.0900 -2.5575 -0.1020
 3311SOL     OW21391   3.202   2.351   3.394 -0.1862  0.3973  1.0307
 3311SOL    HW121392   3.188   2.292   3.320  0.6562  2.2327 -0.5907
 3311SOL    HW221393   3.230   2.296   3.468  1.4697  1.9040  1.5171
 3312SOL     OW21394   0.181   1.339  15.155 -0.0617 -0.3282  0.1988
 3312SOL    HW121395   0.177   1.414  15.096  1.2886  0.9442  1.7190
 3312SOL    HW221396   0.132   1.270  15.110  2.1957 -1.1163 -1.0341
 3313SOL     OW21397   2.232   2.964  11.965 -0.2569  0.4140 -0.6339
 3313SOL    HW121398   2.266   2.992  12.050 -0.0112 -0.8452 -0.3293
 3313SOL    HW221399   2.308   2.937  11.914  0.4570  0.8420  0.2077
 3314SOL     OW21400   1.067   4.097  14.875  0.2291  0.3470 -0.2361
 3314SOL    HW121401   1.085   4.003  14.870 -3.2085 -0.2983 -0.3303
 3314SOL    HW221402   1.151   4.134  14.904 -0.4026 -1.0430  3.4456
 3315SOL     OW21403   2.546   4.041   9.439  0.3345 -0.4289  0.2087
 3315SOL    HW121404   2.574   4.087   9.518  1.4578 -2.6964  1.1609
 3315SOL    HW221405   2.546   4.109   9.371 -2.9644 -0.6887 -0.0250
 3316SOL     OW21406   1.937   4.254   4.546  0.5643 -0.8394 -0.0970
 3316SOL    HW121407   1.859   4.219   4.503 -0.0238 -1.2774  1.3173
 3316SOL    HW221408   1.902   4.263   4.635 -0.2655  1.2909 -0.6355
 3317SOL     OW21409   1.057   0.190   7.052 -0.5175  0.0726  0.0543
 3317SOL    HW121410   1.108   0.144   7.119 -2.6064 -0.0062  1.5817
 3317SOL    HW221411   0.972   0.170   7.090 -0.2345 -0.7479  0.2465
 3318SOL     OW21412   4.020   4.416   8.610  0.1696 -0.0050 -0.0541
 3318SOL    HW121413   4.014   4.324   8.635  1.5331  0.6177  2.5473
 3318SOL    HW221414   4.090   4.464   8.655 -0.5774  0.9201  0.1416
 3319SOL     OW21415   1.546   0.172   5.361  0.3225  0.3498  0.1993
 3319SOL    HW121416   1.575   0.125   5.282 -2.4447 -1.2307  0.1179
 3319SOL    HW221417   1.559   0.107   5.430 -2.6743 -2.7848 -2.1593
 3320SOL     OW21418   1.720   0.526   8.453 -0.5580  0.1800 -0.0785
 3320SOL    HW121419   1.702   0.599   8.512 -3.5595  0.1978 -0.9655
 3320SOL    HW221420   1.660   0.552   8.382 -0.4276  1.9513  0.4530
 3321SOL     OW21421   4.691   0.307   5.427 -0.2842  0.8580  0.0113
 3321SOL    HW121422   0.053   0.284   5.457  0.8624  2.4700 -2.1400
 3321SOL    HW221423   4.693   0.268   5.340 -3.3698 -0.8082  0.6891
 3322SOL     OW21424   4.110   0.915   4.932 -0.1188 -0.0793 -0.2332
 3322SOL    HW121425   4.185   0.959   4.891  1.6095 -1.3357  1.5999
 3322SOL    HW221426   4.148   0.869   5.006 -1.5314 -1.4883 -0.4032
 3323SOL     OW21427   1.038   1.020   3.312  0.0790 -0.1195  0.7373
 3323SOL    HW121428   1.101   1.040   3.381  0.2135  0.0601  0.5597
 3323SOL    HW221429   1.056   1.096   3.258  2.2940 -0.5009  0.9357
 3324SOL     OW21430   3.013   0.982   6.708 -0.6181  0.1388 -0.6240
 3324SOL    HW121431   2.958   0.933   6.768 -1.2699  0.0309 -1.3098
 3324SOL    HW221432   2.966   1.056   6.669  0.9236  0.1959 -2.4090
 3325SOL     OW21433   3.744   3.343   9.997 -0.4142 -0.4757 -0.3562
 3325SOL    HW121434   3.740   3.432   9.963  1.0822 -0.1832  0.1953
 3325SOL    HW221435   3.813   3.311   9.938  0.2005 -1.5060  0.9152
 3326SOL     OW21436   2.890   1.181   7.462  0.2036 -0.0118 -0.4883
 3326SOL    HW121437   2.949   1.174   7.536 -1.6101 -1.4944  0.8335
 3326SOL    HW221438   2.921   1.265   7.428  0.5901  0.3120  0.6820
 3327SOL     OW21439   3.234   0.787  16.931 -0.2924 -0.3132  0.3732
 3327SOL    HW121440   3.170   0.738  16.982 -0.8758  0.2092  0.1494
 3327SOL    HW221441   3.206   0.875  16.955  0.2269  0.1288 -0.6232
 3328SOL     OW21442   3.888   0.277  10.275  0.6910  0.1379  0.7191
 3328SOL    HW121443   3.911   0.195  10.231 -0.6365 -0.3253  0.9107
 3328SOL    HW221444   3.849   0.325  10.202 -0.9491 -1.5827  0.4814
 3329SOL     OW21445   1.896   2.350  15.607  0.0418  0.6614 -0.1354
 3329SOL    HW121446   1.872   2.285  15.673  1.3310  0.7036  0.3897
 3329SOL    HW221447   1.990   2.333  15.602  0.1298  0.9112  0.5745
 3330SOL     OW21448   0.554   3.273   0.756 -0.7517 -0.0750  0.6681
 3330SOL    HW121449   0.557   3.211   0.684  1.1411  0.8133 -0.0233
 3330SOL    HW221450   0.467   3.250   0.789 -1.3511  2.1733  0.6871
 3331SOL     OW21451   1.457   0.780  10.763  0.8399 -0.6557  0.1969
 3331SOL    HW121452   1.397   0.801  10.692  1.0513 -0.0723  0.1858
 3331SOL    HW221453   1.444   0.686  10.773 -1.3608 -0.1676  1.7519
 3332SOL     OW21454   1.501   3.533  10.645 -0.8999 -0.3270 -0.0299
 3332SOL    HW121455   1.475   3.571  10.729  2.3894 -0.5642  1.1186
 3332SOL    HW221456   1.550   3.599  10.596  2.8878 -0.6375  3.3207
 3333SOL     OW21457   3.100   2.938   7.034  0.6626  0.4413  0.0796
 3333SOL    HW121458   3.101   2.859   7.088 -2.5558 -2.0811 -3.5266
 3333SOL    HW221459   3.130   2.894   6.954 -1.3898 -0.9094  0.0361
 3334SOL     OW21460   2.658   2.201   6.335  0.1194  0.2840 -0.0148
 3334SOL    HW121461   2.622   2.190   6.247 -3.0850 -3.2615  1.7297
 3334SOL    HW221462   2.678   2.295   6.343 -1.8277  0.7698 -0.7159
 3335SOL     OW21463   2.423   1.915   9.357 -0.2541 -0.0716  0.4461
 3335SOL    HW121464   2.500   1.858   9.367 -0.4935 -0.6871 -1.1878
 3335SOL    HW221465   2.426   1.961   9.440 -0.0515 -0.4493  0.6493
 3336SOL     OW21466   0.646   0.237   5.241 -0.4672  0.0007 -0.2214
 3336SOL    HW121467   0.694   0.282   5.172  0.4397 -0.5816  0.0334
 3336SOL    HW221468   0.557   0.227   5.206 -0.0443 -0.9058 -1.0598
 3337SOL     OW21469   2.111   3.069   7.580 -0.1514  0.1562  0.0632
 3337SOL    HW121470   2.155   3.101   7.501 -0.5723 -1.3734 -0.7855
 3337SOL    HW221471   2.052   3.143   7.598  0.0681 -0.0564  1.7113
 3338SOL     OW21472   2.520   2.285   5.039 -0.3597 -0.1314  0.0739
 3338SOL    HW121473   2.603   2.243   5.018 -0.8359 -0.2653 -1.5380
 3338SOL    HW221474   2.490   2.218   5.100  1.6000  0.0567  1.2400
 3339SOL     OW21475   1.603   1.848   5.619  0.3494  0.2319 -0.3903
 3339SOL    HW121476   1.602   1.844   5.715 -3.1000  0.4995 -0.3871
 3339SOL    HW221477   1.663   1.922   5.615  0.3263  0.1999 -1.2892
 3340SOL     OW21478   1.317   0.465   4.512  0.1736 -0.1102  0.2793
 3340SOL    HW121479   1.306   0.375   4.542  3.3426 -0.2331  1.0391
 3340SOL    HW221480   1.228   0.497   4.497  0.4182  0.2897 -0.3367
 3341SOL     OW21481   4.521   1.542   3.138  0.4046 -0.4877  1.0494
 3341SOL    HW121482   4.535   1.450   3.164 -1.1904 -1.1550 -0.4854
 3341SOL    HW221483   4.582   1.556   3.066 -1.1089 -0.9780 -0.3241
 3342SOL     OW21484   2.287   4.470  12.798  0.0338 -0.1015 -0.7762
 3342SOL    HW121485   2.249   4.385  12.823 -1.5801  0.5563 -1.0436
 3342SOL    HW221486   2.366   4.440  12.753  0.0699  0.1264 -0.8607
 3343SOL     OW21487   2.514   4.469   0.284  0.0988 -0.3326 -0.0394
 3343SOL    HW121488   2.547   4.487   0.372 -1.3615 -0.3956  0.5150
 3343SOL    HW221489   2.584   4.506   0.231  1.0099 -2.5531 -0.4036
 3344SOL     OW21490   0.309   1.698   8.073 -0.3594 -0.4776 -0.2852
 3344SOL    HW121491   0.363   1.775   8.057  0.1466 -0.7971 -0.1228
 3344SOL    HW221492   0.375   1.629   8.063 -2.1661 -2.1852 -0.3698
 3345SOL     OW21493   0.097   0.643  16.828  0.0475  0.0304  0.6003
 3345SOL    HW121494   0.081   0.736  16.841 -1.9635 -0.2784  0.3956
 3345SOL    HW221495   0.005   0.616  16.822  0.0612 -0.3304  1.9462
 3346SOL     OW21496   2.753   4.384   7.225  0.5647 -0.9369 -0.0646
 3346SOL    HW121497   2.690   4.332   7.175  1.5084 -0.6601 -1.5332
 3346SOL    HW221498   2.689   4.452   7.248  2.6127  0.5523  1.2546
 3347SOL     OW21499   0.615   3.664   5.826  0.5985 -0.0098  0.4291
 3347SOL    HW121500   0.671   3.610   5.771 -1.1742 -1.3564 -0.0531
 3347SOL    HW221501   0.632   3.634   5.916 -1.7533 -0.8115  0.5973
 3348SOL     OW21502   4.374   4.332   4.020 -0.0756 -0.1327 -0.2683
 3348SOL    HW121503   4.279   4.341   4.009 -0.6959 -1.8892  3.6195
 3348SOL    HW221504   4.400   4.424   4.017  1.3119 -0.5321 -0.3638
 3349SOL     OW21505   0.425   3.645   6.254  0.6898  0.5369 -0.4740
 3349SOL    HW121506   0.392   3.724   6.295  0.9588  0.3420  0.1099
 3349SOL    HW221507   0.390   3.655   6.165 -0.4255 -1.3176 -0.2516
 3350SOL     OW21508   1.942   1.089   4.685  0.7728  0.0552  0.5672
 3350SOL    HW121509   1.927   0.997   4.705  0.2583 -0.0422 -0.2447
 3350SOL    HW221510   1.879   1.143   4.732 -0.0757 -2.4266  2.2751
 3351SOL     OW21511   3.037   3.581  14.002 -0.2114 -0.3819  0.2121
 3351SOL    HW121512   3.126   3.615  13.988 -0.4170  0.1532  0.2017
 3351SOL    HW221513   3.023   3.603  14.094  0.6231 -2.5787  0.8629
 3352SOL     OW21514   0.834   0.472   9.226  0.4769  0.0244 -0.1088
 3352SOL    HW121515   0.837   0.459   9.131 -1.1596 -0.8106 -0.0434
 3352SOL    HW221516   0.806   0.562   9.243 -0.7906 -0.4159  0.1138
 3353SOL     OW21517   1.214   1.932   7.657  0.4065  0.0473  0.3506
 3353SOL    HW121518   1.207   1.849   7.706 -1.2453  1.1444  1.9528
 3353SOL    HW221519   1.190   1.905   7.569 -0.3622 -0.6277  0.7701
 3354SOL     OW21520   0.710   3.158   2.058 -0.4776  0.1129  0.3007
 3354SOL    HW121521   0.654   3.223   2.015 -1.9214 -0.8981  0.6629
 3354SOL    HW221522   0.797   3.187   2.030 -0.3494 -0.0479  0.5312
 3355SOL     OW21523   1.206   1.742  13.167 -0.1076  0.0478 -0.2513
 3355SOL    HW121524   1.166   1.688  13.098 -2.4804 -0.1915  1.2903
 3355SOL    HW221525   1.126   1.787  13.197  0.1093 -0.5675  1.2478
 3356SOL     OW21526   0.450   2.665   2.147  0.9589 -0.6108 -0.1259
 3356SOL    HW121527   0.396   2.684   2.070 -0.9460 -0.1229  1.3304
 3356SOL    HW221528   0.539   2.689   2.122  1.4783 -0.8250  1.5520
 3357SOL     OW21529   3.148   0.401   8.255  0.1161 -0.1279 -0.0682
 3357SOL    HW121530   3.130   0.313   8.222  1.4557  0.2290 -1.7576
 3357SOL    HW221531   3.149   0.452   8.174  0.6022 -0.5300 -0.3208
 3358SOL     OW21532   3.563   4.149  14.922  0.0800 -0.4478 -0.4784
 3358SOL    HW121533   3.584   4.210  14.852 -1.4888  0.0770 -0.4786
 3358SOL    HW221534   3.581   4.068  14.874  2.3463 -0.6262  0.6600
 3359SOL     OW21535   0.106   0.363  10.758 -0.2834 -0.1702 -0.1446
 3359SOL    HW121536   0.130   0.327  10.843  1.3172 -1.0812 -0.9940
 3359SOL    HW221537   0.174   0.337  10.697  0.4742  1.2413  0.0986
 3360SOL     OW21538   3.432   4.584   5.092  0.1183 -0.0359  0.0739
 3360SOL    HW121539   3.352   4.532   5.087  1.1822 -1.6321 -0.3526
 3360SOL    HW221540   3.496   4.513   5.100  0.7264  0.5618  0.4614
 3361SOL     OW21541   2.957   1.187   0.544  0.1695 -0.0232 -0.1642
 3361SOL    HW121542   2.876   1.223   0.508  1.8727  1.9547 -2.0106
 3361SOL    HW221543   2.968   1.251   0.615 -0.4764  0.4974 -0.5358
 3362SOL     OW21544   1.550   3.925   6.608 -0.1106  0.2007 -0.1881
 3362SOL    HW121545   1.470   3.974   6.590 -2.1613 -1.8208  3.6251
 3362SOL    HW221546   1.613   3.989   6.641  1.4596  0.4961 -3.6816
 3363SOL     OW21547   0.232   1.683   1.668  0.4498 -0.5032  0.7520
 3363SOL    HW121548   0.225   1.711   1.576 -1.5762 -2.3832  0.3202
 3363SOL    HW221549   0.189   1.757   1.711 -1.2756 -1.5170  0.7890
 3364SOL     OW21550   0.250   2.159   4.141  0.2885  0.2520  0.6446
 3364SOL    HW121551   0.266   2.252   4.150  0.7075  0.1427  1.0156
 3364SOL    HW221552   0.159   2.161   4.111  1.5604  3.1587 -3.0664
 3365SOL     OW21553   2.430   3.889   6.653 -0.4094 -0.2713  0.2025
 3365SOL    HW121554   2.378   3.921   6.580  1.0343 -0.8712 -1.0786
 3365SOL    HW221555   2.362   3.848   6.707  1.0730 -1.9405  0.8383
 3366SOL     OW21556   3.382   0.315   4.133 -1.3027  0.1733 -0.3308
 3366SOL    HW121557   3.289   0.308   4.153 -1.0563 -0.4964  0.6149
 3366SOL    HW221558   3.392   0.409   4.142  0.4098  0.1151 -1.5811
 3367SOL     OW21559   1.345   1.212  10.663  0.1845 -0.2451  0.3618
 3367SOL    HW121560   1.365   1.125  10.627 -0.8043 -0.2897 -0.0999
 3367SOL    HW221561   1.354   1.269  10.587  0.1754 -0.4569  0.2025
 3368SOL     OW21562   1.671   3.405   3.607  0.0419 -0.3111  0.0461
 3368SOL    HW121563   1.744   3.349   3.636 -0.5352 -1.0391  0.0981
 3368SOL    HW221564   1.710   3.436   3.526  1.3758 -2.1497 -0.0050
 3369SOL     OW21565   4.328   2.148   4.507 -0.4369 -0.2220  0.3958
 3369SOL    HW121566   4.299   2.207   4.437  0.6694  2.5784  2.2927
 3369SOL    HW221567   4.421   2.147   4.482  0.2230  1.5523  2.8103
 3370SOL     OW21568   0.097   3.337   0.082 -0.1449 -0.4715 -0.4170
 3370SOL    HW121569   0.122   3.346   0.174 -0.9348 -0.7967 -0.1664
 3370SOL    HW221570   0.106   3.430   0.063  0.6326  0.0650  2.4460
 3371SOL     OW21571   0.099   0.244   0.813  0.1590  0.1347 -0.1779
 3371SOL    HW121572   0.099   0.185   0.888 -1.5609 -0.1666 -0.4180
 3371SOL    HW221573   0.191   0.269   0.822 -0.3858  0.5735  4.0451
 3372SOL     OW21574   0.827   1.348  11.511 -1.1528  0.4411  0.0234
 3372SOL    HW121575   0.830   1.297  11.592 -4.3674 -3.0850 -2.0483
 3372SOL    HW221576   0.819   1.439  11.536 -1.4536  0.4582 -0.1237
 3373SOL     OW21577   0.423   2.168   9.489 -0.2098 -0.4169  0.1192
 3373SOL    HW121578   0.387   2.159   9.400  0.0759  0.4958 -0.0892
 3373SOL    HW221579   0.395   2.093   9.541 -2.4621  1.0916  1.0991
 3374SOL     OW21580   2.980   0.166   1.200 -0.0707 -0.1134 -0.2213
 3374SOL    HW121581   2.918   0.233   1.230  0.1865  0.1636 -0.3037
 3374SOL    HW221582   2.930   0.095   1.161 -0.2614 -0.4866  0.7178
 3375SOL     OW21583   2.690   3.557   3.929  0.2453 -0.4736  0.3336
 3375SOL    HW121584   2.629   3.563   3.855  1.2242 -0.6314 -0.4931
 3375SOL    HW221585   2.737   3.640   3.918  0.8088 -0.9468 -0.8718
 3376SOL     OW21586   0.607   1.733   5.922  0.2953 -0.2470  0.3971
 3376SOL    HW121587   0.592   1.781   5.840  0.0316 -0.6811  0.1908
 3376SOL    HW221588   0.576   1.792   5.991  1.1322 -0.3698  0.8743
 3377SOL     OW21589   3.173   1.770   7.422 -0.3682 -0.0094  0.7137
 3377SOL    HW121590   3.222   1.851   7.408  1.3092 -1.0857  0.4588
 3377SOL    HW221591   3.138   1.757   7.334  0.9952  0.6151  0.0871
 3378SOL     OW21592   0.557   0.616  11.078 -0.1622 -0.4574  0.3424
 3378SOL    HW121593   0.609   0.557  11.133  1.9862 -0.6239 -1.8898
 3378SOL    HW221594   0.537   0.560  11.003 -2.3607 -0.4540  0.9173
 3379SOL     OW21595   4.597   0.101  10.342  0.4749 -0.6960  0.2578
 3379SOL    HW121596   4.507   0.071  10.346  0.4627 -0.5355  1.2717
 3379SOL    HW221597   4.612   0.131  10.432 -1.8089 -2.0531  1.0873
 3380SOL     OW21598   1.871   2.524   8.584  0.2578 -0.1357 -0.1825
 3380SOL    HW121599   1.822   2.457   8.632  1.3348 -0.4374  0.5107
 3380SOL    HW221600   1.935   2.468   8.540 -0.4689  0.1577 -1.5796
 3381SOL     OW21601   0.131   0.125  15.849  0.3037  0.0312 -0.0253
 3381SOL    HW121602   0.052   0.140  15.901  0.9731 -2.7029  1.7546
 3381SOL    HW221603   0.202   0.140  15.912 -0.5203  1.1541  0.6426
 3382SOL     OW21604   1.817   1.721   6.734 -0.3082 -0.7009  0.2903
 3382SOL    HW121605   1.765   1.794   6.701 -0.8435 -1.6178 -0.9075
 3382SOL    HW221606   1.771   1.678   6.806  1.0588 -2.1620  0.3044
 3383SOL     OW21607   1.653   4.421   4.921  0.0391 -0.6142  0.1724
 3383SOL    HW121608   1.577   4.433   4.864  1.1467  2.0829 -0.7692
 3383SOL    HW221609   1.664   4.326   4.922  1.0430 -0.4945  0.6070
 3384SOL     OW21610   3.173   3.272   9.862 -0.5868  0.2724 -0.1090
 3384SOL    HW121611   3.232   3.224   9.920  0.8732  0.8250 -1.1370
 3384SOL    HW221612   3.167   3.355   9.911  0.2262  1.3831 -1.8923
 3385SOL     OW21613   2.535   4.363   3.068  0.4013 -0.0681 -0.1943
 3385SOL    HW121614   2.532   4.427   3.138  0.0258 -0.0505 -0.2253
 3385SOL    HW221615   2.619   4.386   3.029  0.5232  0.6214  0.4952
 3386SOL     OW21616   2.855   3.336   6.382 -0.2091 -0.4304  0.1031
 3386SOL    HW121617   2.793   3.403   6.410 -0.0525  0.6203 -2.0055
 3386SOL    HW221618   2.909   3.334   6.461  0.3217  1.4863 -0.2052
 3387SOL     OW21619   1.496   1.788   5.330  0.4846 -0.6376  0.4230
 3387SOL    HW121620   1.556   1.851   5.290 -0.4456 -1.1800 -1.8690
 3387SOL    HW221621   1.427   1.792   5.263 -0.3500  0.5318  1.3646
 3388SOL     OW21622   0.577   3.938   9.470  0.4476 -0.4182 -0.4056
 3388SOL    HW121623   0.515   3.887   9.418  2.1462 -2.4788 -0.3837
 3388SOL    HW221624   0.589   3.884   9.548 -0.7092 -1.7725 -1.1702
 3389SOL     OW21625   0.289   4.605   3.793 -0.2138  0.3268  0.0706
 3389SOL    HW121626   0.337   4.616   3.875 -0.1947 -0.5356  0.1744
 3389SOL    HW221627   0.272   4.696   3.769 -2.5249 -0.5625 -1.7554
 3390SOL     OW21628   2.242   4.189   9.183 -0.5925  0.4921  0.6780
 3390SOL    HW121629   2.299   4.258   9.151 -0.6772 -0.4113 -1.4002
 3390SOL    HW221630   2.160   4.201   9.136 -0.0373  1.8028  0.0572
 3391SOL     OW21631   2.831   0.612   2.695 -0.1585  0.5515  0.3757
 3391SOL    HW121632   2.798   0.604   2.606  0.5313 -0.6576  0.2298
 3391SOL    HW221633   2.874   0.527   2.697 -0.1147  0.5557 -0.6997
 3392SOL     OW21634   2.459   2.415   8.807  0.3037 -0.1608  0.2974
 3392SOL    HW121635   2.365   2.424   8.792  0.3150  1.7689  1.4270
 3392SOL    HW221636   2.454   2.352   8.879  0.6213 -0.0416  0.4246
 3393SOL     OW21637   1.789   2.707   2.932 -0.4431  0.1634 -0.5489
 3393SOL    HW121638   1.713   2.762   2.910 -1.1680 -1.0181 -0.9802
 3393SOL    HW221639   1.784   2.649   2.856 -0.6195  0.2126 -0.5751
 3394SOL     OW21640   4.159   4.157  10.818 -0.6076  0.3838  0.3526
 3394SOL    HW121641   4.233   4.143  10.877 -1.1651 -0.3375  0.8888
 3394SOL    HW221642   4.083   4.139  10.874 -1.4929 -0.6125 -1.1434
 3395SOL     OW21643   1.185   4.567  16.218 -0.5534  0.1493  0.0377
 3395SOL    HW121644   1.146   4.625  16.153 -0.3691 -2.4005 -2.3686
 3395SOL    HW221645   1.105   4.545  16.267 -0.6331 -2.3952 -1.2339
 3396SOL     OW21646   1.805   0.112   7.559 -0.2973 -0.0408  0.2800
 3396SOL    HW121647   1.835   0.137   7.472 -1.5326 -1.3015 -0.5049
 3396SOL    HW221648   1.714   0.094   7.536 -1.1374  5.6809 -0.9589
 3397SOL     OW21649   1.051   2.412  12.467 -0.3815  0.1389  0.8855
 3397SOL    HW121650   1.066   2.476  12.537  1.0697 -0.6449  1.2754
 3397SOL    HW221651   0.957   2.392  12.471 -0.2166 -0.6519  0.6599
 3398SOL     OW21652   1.659   0.806  16.352  0.4562  0.5741  0.2761
 3398SOL    HW121653   1.729   0.791  16.289  1.2149  1.2158  0.9588
 3398SOL    HW221654   1.695   0.748  16.419 -2.8303 -0.8296  0.8207
 3399SOL     OW21655   2.923   0.814  16.034 -0.3323  0.7429 -0.0903
 3399SOL    HW121656   2.856   0.870  15.994 -1.4011  0.3920  1.2060
 3399SOL    HW221657   3.009   0.854  16.023  0.3967 -0.9881 -0.6293
 3400SOL     OW21658   3.004   3.102   2.601 -0.1882 -0.4426 -0.2943
 3400SOL    HW121659   2.959   3.151   2.669 -0.8249 -2.0989  0.4699
 3400SOL    HW221660   3.097   3.125   2.612 -0.4710  0.5572  0.0518
 3401SOL     OW21661   4.201   3.055   1.930  0.3818 -0.0216  0.3599
 3401SOL    HW121662   4.156   3.039   2.013 -0.5288  0.1187 -0.1055
 3401SOL    HW221663   4.282   3.012   1.958 -0.4039 -0.7103  1.5764
 3402SOL     OW21664   3.870   0.132   9.923 -0.5860  0.0456 -0.8509
 3402SOL    HW121665   3.890   0.063   9.860  1.9754 -1.1330  1.2519
 3402SOL    HW221666   3.778   0.141   9.899 -1.0411  0.3060  1.0236
 3403SOL     OW21667   4.089   1.923   7.249  0.6405 -0.0737 -0.3775
 3403SOL    HW121668   4.162   1.969   7.288  0.7798  1.0312 -1.9515
 3403SOL    HW221669   4.133   1.882   7.174 -0.8341  1.5303 -2.1170
 3404SOL     OW21670   3.836   2.983   6.560 -0.0610 -0.4779  0.1475
 3404SOL    HW121671   3.771   2.917   6.537 -0.4145 -0.9283  2.4322
 3404SOL    HW221672   3.851   2.965   6.653  1.5633 -1.0748 -0.2303
 3405SOL     OW21673   2.212   3.105   2.537  0.2225  1.0690 -0.3910
 3405SOL    HW121674   2.156   3.125   2.462 -3.0151  1.1302  2.0427
 3405SOL    HW221675   2.288   3.159   2.518  0.4855  0.0096 -2.3176
 3406SOL     OW21676   1.813   0.080   0.091 -0.4937 -1.1365  0.1720
 3406SOL    HW121677   1.900   0.057   0.121 -1.0585 -2.1844  1.0074
 3406SOL    HW221678   1.812   0.021   0.016  0.1388  0.1607 -0.8632
 3407SOL     OW21679   0.007   2.833   7.275  0.4243 -0.1885  0.2546
 3407SOL    HW121680   4.658   2.775   7.261  2.0101 -2.4377  1.0989
 3407SOL    HW221681   0.001   2.888   7.197 -1.3664 -0.0348  0.4980
 3408SOL     OW21682   4.307   3.808   2.653  0.0676 -0.3956 -0.2857
 3408SOL    HW121683   4.368   3.744   2.616 -0.3601 -0.6659 -0.5282
 3408SOL    HW221684   4.257   3.843   2.579  2.0905  0.6384 -1.1467
 3409SOL     OW21685   0.156   1.762  16.590  0.0896  0.6734  0.3419
 3409SOL    HW121686   0.170   1.733  16.681  1.5869 -1.4412 -0.5636
 3409SOL    HW221687   0.147   1.674  16.553  1.1699  0.8206 -0.2715
 3410SOL     OW21688   1.765   0.702   5.929 -0.0448 -0.0165  0.3024
 3410SOL    HW121689   1.784   0.648   6.006 -0.1621 -0.3944  0.0660
 3410SOL    HW221690   1.834   0.768   5.940  1.4573 -0.9659 -3.2888
 3411SOL     OW21691   4.306   4.533   5.265  0.3745  0.1676  0.0573
 3411SOL    HW121692   4.224   4.486   5.280 -0.3630  1.4153 -0.0728
 3411SOL    HW221693   4.268   4.601   5.209  0.7646  1.3482  1.2359
 3412SOL     OW21694   4.560   4.171   9.551 -0.1455  0.3197 -0.4615
 3412SOL    HW121695   4.649   4.149   9.579 -0.6338  0.2094  0.9827
 3412SOL    HW221696   4.520   4.224   9.620 -0.8661 -2.0671  0.9679
 3413SOL     OW21697   4.634   0.978   8.892 -0.3756  0.5066 -0.5062
 3413SOL    HW121698   4.632   0.963   8.986  2.9132 -0.6287 -0.6218
 3413SOL    HW221699   4.548   1.015   8.871  0.1798  2.0052 -0.1342
 3414SOL     OW21700   0.728   3.091  16.568  0.0486  0.0697 -0.1690
 3414SOL    HW121701   0.676   3.159  16.610  0.5156  0.4518 -0.1986
 3414SOL    HW221702   0.815   3.128  16.551  0.1841 -0.7857 -1.3435
 3415SOL     OW21703   4.441   2.069   7.903  0.3384 -0.2051  0.7769
 3415SOL    HW121704   4.506   2.033   7.964  0.8314 -0.8621 -0.1347
 3415SOL    HW221705   4.513   2.094   7.845  0.3822  1.5918  1.5962
 3416SOL     OW21706   4.425   1.235   7.807 -0.2728  0.0330  0.1870
 3416SOL    HW121707   4.338   1.239   7.766 -0.6068 -1.0972  0.7727
 3416SOL    HW221708   4.396   1.237   7.898  2.1339 -0.8705  0.9663
 3417SOL     OW21709   0.463   1.236   7.731 -0.0417 -0.5888  0.0870
 3417SOL    HW121710   0.471   1.237   7.826 -3.8309  0.8245  0.3926
 3417SOL    HW221711   0.484   1.147   7.704 -0.0521 -0.9254  1.1757
 3418SOL     OW21712   4.490   2.797   6.398  0.5117  0.2853 -0.2141
 3418SOL    HW121713   4.409   2.836   6.366  0.8220  0.1592 -1.1571
 3418SOL    HW221714   4.517   2.773   6.310 -0.8877  1.2583 -0.9054
 3419SOL     OW21715   1.233   2.631   0.923  0.1479 -0.6109 -0.4889
 3419SOL    HW121716   1.175   2.562   0.956  0.1164  0.4267  1.6838
 3419SOL    HW221717   1.245   2.591   0.837 -1.2857 -2.0696 -0.0193
 3420SOL     OW21718   1.913   2.306   5.976 -0.1217  0.6094  0.2103
 3420SOL    HW121719   1.992   2.317   6.029 -0.1070  1.3980  0.0287
 3420SOL    HW221720   1.875   2.222   6.001 -1.2919  1.4168  1.1178
 3421SOL     OW21721   0.584   1.306   3.584 -0.1949  0.2665 -0.3043
 3421SOL    HW121722   0.637   1.384   3.603 -0.0905  0.2231 -0.4144
 3421SOL    HW221723   0.608   1.278   3.496 -1.7202  0.5719 -0.8134
 3422SOL     OW21724   0.175   1.806  12.780 -0.2877 -0.1352 -0.2119
 3422SOL    HW121725   0.104   1.813  12.844 -0.9197 -0.3293 -0.8916
 3422SOL    HW221726   0.251   1.798  12.837 -0.3462 -0.6943 -0.2183
 3423SOL     OW21727   3.351   1.232   0.012 -0.6644  0.2620  0.1710
 3423SOL    HW121728   3.263   1.236  17.683  0.3505  1.6979 -2.2153
 3423SOL    HW221729   3.383   1.316  17.684  1.7589 -0.4642  0.6194
 3424SOL     OW21730   0.210   4.014  14.341  0.0211 -0.2351 -0.7405
 3424SOL    HW121731   0.134   4.039  14.394  0.1421 -1.5160  0.0436
 3424SOL    HW221732   0.166   3.979  14.264 -1.4890 -0.5259  0.2493
 3425SOL     OW21733   4.508   2.923   6.897  0.1441  0.5874  0.4211
 3425SOL    HW121734   4.506   2.851   6.833 -2.3482  1.3917 -0.4158
 3425SOL    HW221735   4.422   2.959   6.875  0.2547 -1.1312 -2.8510
 3426SOL     OW21736   0.311   1.699  12.552 -0.1455  0.0614 -0.2734
 3426SOL    HW121737   0.267   1.692  12.637  0.4021  0.6271  0.0638
 3426SOL    HW221738   0.235   1.695  12.495 -0.4940 -0.1870  0.2091
 3427SOL     OW21739   4.620   1.875  17.570 -0.1654  0.0669 -0.1607
 3427SOL    HW121740   4.610   1.785  17.602 -2.5117  0.5351  0.4053
 3427SOL    HW221741   4.574   1.919  17.641 -1.4506 -1.1491 -0.2446
 3428SOL     OW21742   2.880   3.188   5.684  0.2218 -0.0090  0.2945
 3428SOL    HW121743   2.830   3.269   5.693  1.2941  0.4015  2.5708
 3428SOL    HW221744   2.856   3.134   5.760  1.6073  0.2280  0.8931
 3429SOL     OW21745   4.026   4.679  15.726 -0.5723 -0.4551  0.1611
 3429SOL    HW121746   4.088   4.708  15.658 -2.8426 -0.3466 -1.8527
 3429SOL    HW221747   3.991   4.597  15.690 -2.0084  0.1155  0.2568
 3430SOL     OW21748   3.125   4.511  15.797  0.5305  0.0811  0.0171
 3430SOL    HW121749   3.166   4.560  15.869 -1.2472 -0.3341  1.3064
 3430SOL    HW221750   3.088   4.586  15.752  0.0958  1.2552  2.3166
 3431SOL     OW21751   2.531   3.424   8.246 -0.0174 -0.1396  0.6232
 3431SOL    HW121752   2.491   3.370   8.314 -1.5672 -0.2702 -0.4103
 3431SOL    HW221753   2.618   3.383   8.237  0.5713  1.6162 -1.6983
 3432SOL     OW21754   0.645   2.018   5.462  0.0447 -0.6600 -0.1883
 3432SOL    HW121755   0.691   2.011   5.378  1.1046  0.7278  0.2850
 3432SOL    HW221756   0.678   2.101   5.496  0.4390 -0.8832 -0.0308
 3433SOL     OW21757   2.730   4.394   5.309 -0.0231  0.3942 -0.1117
 3433SOL    HW121758   2.791   4.462   5.280  0.0197  1.4344  2.4179
 3433SOL    HW221759   2.751   4.315   5.258 -0.6289  2.2664 -3.2559
 3434SOL     OW21760   1.138   3.921   6.757  0.2807  0.3372 -0.4628
 3434SOL    HW121761   1.182   3.986   6.811 -0.4908  1.4546 -1.1658
 3434SOL    HW221762   1.045   3.934   6.776  0.6621 -1.6117  2.7234
 3435SOL     OW21763   2.739   4.126   7.626  0.0094  0.3609  0.1259
 3435SOL    HW121764   2.667   4.175   7.587 -0.0784  0.4426  0.3950
 3435SOL    HW221765   2.688   4.077   7.690 -1.2712  2.0567  0.3927
 3436SOL     OW21766   0.045   4.562   3.998  0.1930 -0.6944 -0.2918
 3436SOL    HW121767   0.007   4.476   3.983 -0.1207 -0.2465 -2.1186
 3436SOL    HW221768   0.005   4.623   3.935 -0.4930  2.0613  2.7821
 3437SOL     OW21769   0.869   1.213  16.079  0.0614 -0.2091  0.1289
 3437SOL    HW121770   0.840   1.164  16.156 -0.1472  1.7240  1.2861
 3437SOL    HW221771   0.832   1.300  16.092  2.3201  0.7288  0.3644
 3438SOL     OW21772   2.393   1.141   8.629 -0.3338 -0.2086 -0.2170
 3438SOL    HW121773   2.384   1.049   8.653  1.8788  0.1643  2.0212
 3438SOL    HW221774   2.299   1.160   8.618 -0.3572 -0.0424  0.2618
 3439SOL     OW21775   2.777   4.539   6.814  0.3568  0.0197 -0.5320
 3439SOL    HW121776   2.772   4.523   6.720  1.2169  0.1761 -0.6038
 3439SOL    HW221777   2.684   4.533   6.838  0.1103 -3.1990 -2.3466
 3440SOL     OW21778   1.126   1.776   6.510 -0.2311  0.4135  0.2408
 3440SOL    HW121779   1.178   1.846   6.470 -0.4557  0.1228 -0.5620
 3440SOL    HW221780   1.051   1.767   6.452  0.4993 -1.1094 -0.4791
 3441SOL     OW21781   3.458   3.383   6.827 -0.1418 -0.4296  0.0807
 3441SOL    HW121782   3.407   3.443   6.881 -1.0898  1.1127 -2.5124
 3441SOL    HW221783   3.391   3.317   6.808  1.2625 -2.0106  0.5901
 3442SOL     OW21784   3.007   3.106  16.717  0.3242 -0.0864 -0.0951
 3442SOL    HW121785   3.031   3.017  16.694  1.1628  0.1651 -0.1653
 3442SOL    HW221786   3.080   3.164  16.694 -0.6801  1.0138 -0.5294
 3443SOL     OW21787   2.332   0.161   3.418  0.0807  0.6154  0.2260
 3443SOL    HW121788   2.342   0.243   3.369  0.7657  0.4104  0.0224
 3443SOL    HW221789   2.416   0.118   3.402 -0.3833 -0.1871 -0.0450
 3444SOL     OW21790   1.624   3.883  11.258 -0.3265  0.7427 -0.6383
 3444SOL    HW121791   1.579   3.921  11.183 -1.3502  0.1093 -0.3482
 3444SOL    HW221792   1.546   3.852  11.305 -0.8634  1.9140 -0.7589
 3445SOL     OW21793   1.929   0.532  12.689  0.1662  0.2793  0.0692
 3445SOL    HW121794   1.975   0.524  12.772  1.6741  0.5896 -0.7266
 3445SOL    HW221795   1.883   0.616  12.695  1.0316  0.7755 -0.2448
 3446SOL     OW21796   2.207   0.770   7.932 -0.4702  0.3729 -0.2378
 3446SOL    HW121797   2.198   0.717   7.853  1.2414  0.2100 -0.3192
 3446SOL    HW221798   2.281   0.732   7.980  0.7355  1.3924 -1.2763
 3447SOL     OW21799   3.278   2.430   9.034 -0.2270 -0.0253  0.1078
 3447SOL    HW121800   3.237   2.470   8.958  3.0270  0.6142 -1.3120
 3447SOL    HW221801   3.357   2.483   9.048  0.3151 -1.3170  2.0076
 3448SOL     OW21802   3.694   0.826   7.836 -0.6330 -0.3133 -0.4636
 3448SOL    HW121803   3.643   0.840   7.757 -1.3017  0.9324  0.1726
 3448SOL    HW221804   3.699   0.913   7.877 -0.7969  0.0240 -1.1709
 3449SOL     OW21805   4.127   2.491   6.208 -0.1510  0.2630 -0.2912
 3449SOL    HW121806   4.174   2.491   6.291 -1.2304  1.2550  0.3213
 3449SOL    HW221807   4.123   2.399   6.183  1.8363  0.0108  0.3937
 3450SOL     OW21808   2.025   4.243   9.606 -0.2817 -0.2720  0.5440
 3450SOL    HW121809   2.017   4.187   9.528 -0.7336 -1.1986  1.2594
 3450SOL    HW221810   2.010   4.186   9.681 -1.1276  0.5797  1.0303
 3451SOL     OW21811   2.526   2.631   7.442  0.0253  0.3011 -0.0583
 3451SOL    HW121812   2.459   2.698   7.455  0.5839  0.0378  4.4409
 3451SOL    HW221813   2.553   2.608   7.531 -1.1511 -0.6824  0.0326
 3452SOL     OW21814   3.089   3.729  16.458 -0.9274  0.6009 -0.1752
 3452SOL    HW121815   3.134   3.653  16.423 -1.3969  0.2203  0.0427
 3452SOL    HW221816   3.103   3.800  16.395  0.8474 -0.8428 -1.3845
 3453SOL     OW21817   0.420   4.132   2.489 -0.0549 -0.0773 -0.0404
 3453SOL    HW121818   0.511   4.161   2.483 -0.0492  0.0298  0.5368
 3453SOL    HW221819   0.386   4.185   2.561 -0.7929  1.7074 -1.6654
 3454SOL     OW21820   3.117   2.727   2.266 -0.0389 -0.2800 -0.1084
 3454SOL    HW121821   3.097   2.754   2.176  0.5844 -1.0251 -0.4672
 3454SOL    HW221822   3.087   2.805   2.313  1.4153  0.5331 -0.5400
 3455SOL     OW21823   4.663   3.536   9.434 -0.3540  0.1844  0.3669
 3455SOL    HW121824   0.008   3.542   9.497  0.8964  0.5013 -1.0795
 3455SOL    HW221825   4.713   3.486   9.370 -2.3761 -2.3363  0.7491
 3456SOL     OW21826   0.864   2.523  12.141 -0.6354 -0.2110 -0.0000
 3456SOL    HW121827   0.825   2.587  12.201  3.4203  1.4663  0.8439
 3456SOL    HW221828   0.801   2.452  12.151  1.3165 -2.0431 -0.9447
 3457SOL     OW21829   0.095   1.013   5.323 -0.3010  0.0039 -0.3407
 3457SOL    HW121830   0.062   1.021   5.233 -0.3322  0.7465 -0.2560
 3457SOL    HW221831   0.115   1.102   5.352 -0.3975 -0.9343  2.5702
 3458SOL     OW21832   2.005   2.331  10.152 -0.7051 -0.0452 -0.7246
 3458SOL    HW121833   2.034   2.383  10.077 -0.8603  2.4052  0.8945
 3458SOL    HW221834   1.954   2.396  10.200 -0.5272  0.2396 -0.9218
 3459SOL     OW21835   4.645   2.978   8.282 -0.5146 -0.7844  0.3837
 3459SOL    HW121836   4.628   2.912   8.351  2.5024 -1.2424  0.7140
 3459SOL    HW221837   4.653   2.924   8.203 -2.2537 -1.8679  0.9432
 3460SOL     OW21838   1.788   3.130   7.342  0.5161  0.3794 -0.0961
 3460SOL    HW121839   1.816   3.039   7.351 -1.9557 -0.3578  0.3379
 3460SOL    HW221840   1.868   3.175   7.367  0.7909 -0.9341  1.4478
 3461SOL     OW21841   0.768   4.649   5.452  0.1374 -0.1156 -0.0872
 3461SOL    HW121842   0.762   4.612   5.541 -1.9651  1.4064  0.4045
 3461SOL    HW221843   0.688   4.605   5.421  0.3061 -1.4008  1.3013
 3462SOL     OW21844   2.906   0.525   1.232  0.1397 -0.2056 -0.3399
 3462SOL    HW121845   2.835   0.463   1.249  0.2545 -0.0686  0.6069
 3462SOL    HW221846   2.874   0.585   1.165 -1.5124 -1.0615 -0.3135
 3463SOL     OW21847   3.903   2.735   6.050 -0.3355  0.5482 -0.6040
 3463SOL    HW121848   3.984   2.740   5.999 -0.7189  1.0389 -1.1561
 3463SOL    HW221849   3.925   2.707   6.139  0.9121  0.3691 -0.9738
 3464SOL     OW21850   1.746   2.300   9.205 -0.7722 -0.0569 -0.5856
 3464SOL    HW121851   1.659   2.334   9.225 -1.2324 -0.0464 -2.6677
 3464SOL    HW221852   1.791   2.288   9.289  0.4480  0.4223 -1.1717
 3465SOL     OW21853   3.477   4.533   8.333  0.4762  0.0724 -0.4059
 3465SOL    HW121854   3.503   4.444   8.357 -0.3495  0.1675  0.8618
 3465SOL    HW221855   3.548   4.579   8.378 -1.0414  0.4058  1.6770
 3466SOL     OW21856   2.585   2.513   4.496 -0.4225  0.3025  0.0084
 3466SOL    HW121857   2.560   2.482   4.583  2.0983  1.6216  1.1923
 3466SOL    HW221858   2.627   2.597   4.516 -2.5463  1.8459 -1.8974
 3467SOL     OW21859   1.950   4.687  14.721 -0.0671 -0.3128  0.4860
 3467SOL    HW121860   1.965   4.719  14.632  1.9687 -1.4538  0.4186
 3467SOL    HW221861   1.992   0.029  14.774 -0.1280 -0.2770  0.4893
 3468SOL     OW21862   3.350   2.867   8.243  0.2980  0.4806 -0.0419
 3468SOL    HW121863   3.376   2.784   8.282  0.3151  0.0011 -1.0511
 3468SOL    HW221864   3.350   2.930   8.315  0.8812  0.3188  0.1008
 3469SOL     OW21865   0.478   3.052   6.397  0.1396 -0.0876  0.5052
 3469SOL    HW121866   0.384   3.042   6.381  0.0159  0.7127  0.7249
 3469SOL    HW221867   0.497   2.972   6.445 -0.9968 -2.3639 -2.8427
 3470SOL     OW21868   2.192   1.037   1.492  0.2479  0.6806 -0.0802
 3470SOL    HW121869   2.279   0.999   1.500 -0.5320 -0.8339  1.3053
 3470SOL    HW221870   2.139   0.958   1.504  0.4088  0.9523  2.4222
 3471SOL     OW21871   1.843   3.310   6.704 -0.3020 -0.1256 -0.4139
 3471SOL    HW121872   1.764   3.300   6.757 -0.8054 -0.8547 -1.2988
 3471SOL    HW221873   1.880   3.222   6.705  1.8251  0.7868  0.9599
 3472SOL     OW21874   3.240   1.912  16.661  0.3038 -0.2853 -0.6329
 3472SOL    HW121875   3.330   1.885  16.680  0.5613  0.8618 -0.2361
 3472SOL    HW221876   3.260   2.000  16.630  0.0830  0.3723  1.0802
 3473SOL     OW21877   1.393   3.137  12.919  0.5355  0.4151 -0.8780
 3473SOL    HW121878   1.454   3.204  12.953  0.7774  1.1344 -2.7309
 3473SOL    HW221879   1.446   3.058  12.913  0.3691  0.1531  1.1140
 3474SOL     OW21880   1.337   3.926   0.343 -0.6299  0.2805  0.1873
 3474SOL    HW121881   1.315   4.018   0.327 -1.2409 -0.0356 -0.8332
 3474SOL    HW221882   1.412   3.929   0.403 -0.6660 -0.9325  0.2947
 3475SOL     OW21883   0.151   2.410  13.736  0.3345 -0.3837 -0.0635
 3475SOL    HW121884   0.201   2.391  13.656  1.4069  0.6391  0.3509
 3475SOL    HW221885   0.168   2.327  13.779 -1.1869  0.4819  2.1982
 3476SOL     OW21886   3.720   3.697   5.315  0.1569 -0.0472 -0.1102
 3476SOL    HW121887   3.803   3.699   5.362 -0.7819  0.2367  1.5376
 3476SOL    HW221888   3.704   3.605   5.294 -1.1848  0.2091 -0.2623
 3477SOL     OW21889   0.901   0.965   6.536 -0.1262  0.0002  0.0954
 3477SOL    HW121890   0.851   0.991   6.613 -2.3227  1.7998 -1.9545
 3477SOL    HW221891   0.986   1.006   6.553 -0.4394 -0.0586  1.7902
 3478SOL     OW21892   4.219   3.617   4.393 -0.0992  0.1789 -0.0243
 3478SOL    HW121893   4.265   3.627   4.310 -0.0090  2.5232  0.3015
 3478SOL    HW221894   4.184   3.707   4.395 -1.1281 -0.2398  1.8096
 3479SOL     OW21895   1.271   3.791   8.023  0.1419 -0.2903 -0.2293
 3479SOL    HW121896   1.329   3.823   8.093 -0.7535  0.7412  0.0498
 3479SOL    HW221897   1.186   3.813   8.061  0.0183 -1.2765  0.0569
 3480SOL     OW21898   1.666   2.421   7.703 -0.4667  0.2957  0.1282
 3480SOL    HW121899   1.737   2.406   7.640 -0.3853  1.8407 -0.1691
 3480SOL    HW221900   1.696   2.506   7.735  1.1727  0.0571 -0.7928
 3481SOL     OW21901   3.119   1.018  16.011 -0.0406 -0.3586  0.3950
 3481SOL    HW121902   3.075   1.052  15.933  1.0789 -0.0454 -0.0889
 3481SOL    HW221903   3.186   1.080  16.038  0.0703 -0.6779  0.8647
 3482SOL     OW21904   3.306   1.861   2.738 -0.7318 -0.4611 -0.1993
 3482SOL    HW121905   3.314   1.901   2.652  0.8528  1.9114  1.0193
 3482SOL    HW221906   3.267   1.929   2.792  0.0312  0.7184 -1.1394
 3483SOL     OW21907   3.229   0.218   1.165 -0.3940  0.3675  0.3654
 3483SOL    HW121908   3.243   0.141   1.109  1.2933  0.3360  0.8299
 3483SOL    HW221909   3.139   0.203   1.195 -0.5554 -1.6521 -1.1110
 3484SOL     OW21910   0.655   3.143  11.270 -0.1902  0.0616  0.0232
 3484SOL    HW121911   0.601   3.115  11.344  0.9000 -0.0450  0.7873
 3484SOL    HW221912   0.596   3.192  11.214  0.5666  1.9986  0.8992
 3485SOL     OW21913   3.576   1.606   4.655  0.3642  0.1633 -0.2600
 3485SOL    HW121914   3.522   1.658   4.714 -0.5994  0.0025 -0.9918
 3485SOL    HW221915   3.655   1.587   4.705 -0.7201 -2.1428  0.6157
 3486SOL     OW21916   3.972   2.920   5.517 -0.3447 -0.2650 -0.3253
 3486SOL    HW121917   3.968   2.963   5.432  2.3830  0.0299 -0.2975
 3486SOL    HW221918   3.880   2.893   5.519 -0.4066  0.1197  1.4928
 3487SOL     OW21919   1.208   1.065   2.173  0.8305 -0.3506  0.8264
 3487SOL    HW121920   1.169   1.131   2.116 -1.4821 -0.9022  1.7624
 3487SOL    HW221921   1.296   1.051   2.139  0.9612 -0.3966  1.1865
 3488SOL     OW21922   2.124   4.279   7.116  0.5001 -0.2063  0.5802
 3488SOL    HW121923   2.130   4.192   7.155 -1.7321  0.9375  3.4140
 3488SOL    HW221924   2.120   4.244   7.027 -1.5762  0.9495  0.2249
 3489SOL     OW21925   0.827   1.598   8.879  0.6503 -0.6429 -0.8742
 3489SOL    HW121926   0.823   1.506   8.905 -1.3482 -0.1667  0.5991
 3489SOL    HW221927   0.859   1.578   8.791  1.5308 -0.5754 -0.5687
 3490SOL     OW21928   2.338   1.244  12.741  0.3159  0.3442  0.2329
 3490SOL    HW121929   2.272   1.312  12.726  0.0656 -0.3197 -1.6034
 3490SOL    HW221930   2.409   1.299  12.775  2.1414 -2.6558  1.2386
 3491SOL     OW21931   3.750   0.910  11.885 -0.1572 -0.0695  0.4588
 3491SOL    HW121932   3.779   0.969  11.954  2.0054 -1.8993  1.0940
 3491SOL    HW221933   3.657   0.932  11.873 -0.9901 -3.8251 -0.1799
 3492SOL     OW21934   1.223   0.743  10.073 -0.1730  0.3980  0.3275
 3492SOL    HW121935   1.230   0.662  10.023  1.2041 -0.5917  2.1184
 3492SOL    HW221936   1.166   0.710  10.142  1.4180  0.6289  1.7535
 3493SOL     OW21937   4.574   1.329   1.160 -0.4515  0.0097  0.3800
 3493SOL    HW121938   4.565   1.314   1.254  0.7216 -1.4289  0.2604
 3493SOL    HW221939   4.619   1.248   1.137  0.8221  1.1850 -1.2861
 3494SOL     OW21940   1.726   1.276   8.514 -0.4688 -0.6920 -0.0595
 3494SOL    HW121941   1.793   1.343   8.528  0.3791 -1.4153 -0.6911
 3494SOL    HW221942   1.754   1.215   8.581 -2.2323 -4.9040 -3.1271
 3495SOL     OW21943   3.508   0.103  16.601  0.2647  0.0738 -0.6174
 3495SOL    HW121944   3.516   0.015  16.565  2.5352  0.8766 -2.0746
 3495SOL    HW221945   3.517   0.163  16.527 -1.5053  1.2922  0.1534
 3496SOL     OW21946   3.875   3.886   7.103  0.6267  0.0223  0.4874
 3496SOL    HW121947   3.916   3.828   7.039  0.4430 -0.0045  0.3954
 3496SOL    HW221948   3.793   3.842   7.124 -1.3348  3.6584  0.4245
 3497SOL     OW21949   3.599   2.957   3.460 -0.1876  0.1373  0.8513
 3497SOL    HW121950   3.645   3.032   3.422 -0.8503  0.3427  0.4382
 3497SOL    HW221951   3.512   2.988   3.432  0.2628  0.1611 -0.4981
 3498SOL     OW21952   1.048   4.658   6.335 -0.1694 -0.3444  0.3449
 3498SOL    HW121953   0.979   4.716   6.302 -1.2170 -1.1751  1.0841
 3498SOL    HW221954   1.115   4.689   6.274  0.0334 -1.2217  0.1229
 3499SOL     OW21955   0.186   2.045  11.385  0.2275 -0.7881  0.7447
 3499SOL    HW121956   0.210   2.077  11.298  0.4676  0.1697  1.1685
 3499SOL    HW221957   0.103   2.002  11.362  0.0427 -1.3096  2.4248
 3500SOL     OW21958   3.476   4.253   8.138  0.5614  0.6468  0.2556
 3500SOL    HW121959   3.419   4.175   8.134  2.1054 -0.4981  0.8063
 3500SOL    HW221960   3.403   4.314   8.151  1.4732  1.7501  0.1704
 3501SOL     OW21961   2.934   4.550  14.427  0.0899 -0.1234  0.5043
 3501SOL    HW121962   2.895   4.634  14.452 -2.0891 -0.9193 -0.2922
 3501SOL    HW221963   3.020   4.593  14.423 -0.8581  1.7201 -0.2786
 3502SOL     OW21964   4.355   2.464  11.647 -0.0331  0.8974 -0.3066
 3502SOL    HW121965   4.388   2.498  11.564  3.9497 -0.4971  0.7030
 3502SOL    HW221966   4.301   2.390  11.617  1.8979  0.2725 -2.2224
 3503SOL     OW21967   3.277   2.508   2.619  0.5905 -0.4762 -0.1107
 3503SOL    HW121968   3.197   2.502   2.671 -0.9814 -0.0176 -2.4402
 3503SOL    HW221969   3.243   2.497   2.530  2.4268  2.7183 -1.2076
 3504SOL     OW21970   3.902   0.917  12.260  0.1980  0.1604  0.3879
 3504SOL    HW121971   3.996   0.934  12.262  0.1275  0.9107 -1.8093
 3504SOL    HW221972   3.876   0.998  12.215  0.3140 -1.5291 -2.6882
 3505SOL     OW21973   2.004   0.355  16.237 -0.5972 -0.0867 -0.1259
 3505SOL    HW121974   2.075   0.296  16.264 -0.1463  0.7436  0.4897
 3505SOL    HW221975   2.050   0.400  16.166  0.7266 -1.3230 -0.0561
 3506SOL     OW21976   2.278   1.441  17.357  0.1750 -0.3738 -0.3412
 3506SOL    HW121977   2.253   1.352  17.332  0.0480 -0.1769 -0.9094
 3506SOL    HW221978   2.303   1.470  17.270  2.7333  1.2346  0.9146
 3507SOL     OW21979   1.441   0.643   2.455 -0.1780 -0.5235 -0.2094
 3507SOL    HW121980   1.394   0.649   2.538  1.0008 -2.9056  0.6467
 3507SOL    HW221981   1.469   0.553   2.440  0.7936 -0.1836 -0.5011
 3508SOL     OW21982   0.688   2.312   6.381  0.8325 -0.4164  0.2742
 3508SOL    HW121983   0.727   2.305   6.468 -1.6596  1.5749  1.5404
 3508SOL    HW221984   0.766   2.282   6.335  1.0241 -0.6284  0.7389
 3509SOL     OW21985   4.555   3.912   0.870 -0.1213 -0.1617  0.2916
 3509SOL    HW121986   4.501   3.833   0.865 -1.0821  0.5058  0.3129
 3509SOL    HW221987   4.515   3.961   0.942 -0.3243  0.8900 -0.5375
 3510SOL     OW21988   2.655   1.549   2.558  0.4862 -0.1271  0.1852
 3510SOL    HW121989   2.612   1.595   2.486  1.6935  0.2050 -0.3345
 3510SOL    HW221990   2.741   1.538   2.518 -0.1074  0.1553 -1.1637
 3511SOL     OW21991   2.122   4.637   2.281 -0.0568  0.4373 -0.5887
 3511SOL    HW121992   2.037   4.652   2.240 -2.2405  0.3532  3.8378
 3511SOL    HW221993   2.186   4.656   2.212 -0.5330  1.8441 -0.6437
 3512SOL     OW21994   4.359   0.692   6.911  0.7647  0.4962  0.0855
 3512SOL    HW121995   4.271   0.685   6.948  0.5573 -1.0260 -0.6969
 3512SOL    HW221996   4.386   0.601   6.927 -3.1763 -0.7351 -0.2199
 3513SOL     OW21997   1.064   1.225   6.795 -0.6339  0.6198  0.5069
 3513SOL    HW121998   0.991   1.200   6.851 -2.7294  1.7267 -1.6991
 3513SOL    HW221999   1.103   1.288   6.855 -2.7365  1.0188  1.4528
 3514SOL     OW22000   1.728   2.322   7.039 -0.3977 -0.0237 -0.6901
 3514SOL    HW122001   1.748   2.264   7.112  1.2239 -0.1083 -1.2167
 3514SOL    HW222002   1.686   2.256   6.984 -0.5972 -0.9993  0.6205
 3515SOL     OW22003   2.100   4.612  13.561 -0.1029 -0.3842 -0.0281
 3515SOL    HW122004   2.170   4.608  13.627  0.2158 -1.2577 -0.4215
 3515SOL    HW222005   2.151   4.648  13.488  1.9813 -1.0945  1.0607
 3516SOL     OW22006   1.111   3.598  11.831 -0.2763  0.3064  0.4167
 3516SOL    HW122007   1.034   3.569  11.881  0.0188  1.2244  1.4096
 3516SOL    HW222008   1.108   3.692  11.848  2.4326  0.8433 -2.1003
 3517SOL     OW22009   2.504   0.954   6.399 -0.2404 -0.4828  0.0657
 3517SOL    HW122010   2.418   0.938   6.359 -0.1998 -1.3016  0.3090
 3517SOL    HW222011   2.508   1.049   6.408 -0.4379 -0.3026 -1.7188
 3518SOL     OW22012   4.656   4.009  11.383  0.1113 -0.2140  0.3051
 3518SOL    HW122013   4.714   3.936  11.402 -1.6774 -2.0247 -1.1284
 3518SOL    HW222014   4.594   3.992  11.454  0.0993  1.7616  0.7788
 3519SOL     OW22015   2.284   2.608   5.448  0.1920 -0.5016  0.0529
 3519SOL    HW122016   2.278   2.699   5.476  1.2027 -0.6061  0.6035
 3519SOL    HW222017   2.374   2.578   5.461  0.4577  0.6585  0.8199
 3520SOL     OW22018   0.490   3.445   8.168 -0.4589 -0.7628 -0.4620
 3520SOL    HW122019   0.530   3.358   8.170  0.3583 -0.4155 -1.7031
 3520SOL    HW222020   0.403   3.428   8.204  0.4084 -2.2452  0.9227
 3521SOL     OW22021   3.950   3.825   3.081  0.0169  0.1390 -0.3842
 3521SOL    HW122022   4.022   3.869   3.125  0.8422  0.5422 -2.1146
 3521SOL    HW222023   3.889   3.832   3.154  1.2458 -2.0473  0.8283
 3522SOL     OW22024   1.076   1.320   7.370  0.3248  0.1688  1.1091
 3522SOL    HW122025   1.155   1.274   7.399  0.2957  0.2195  1.2737
 3522SOL    HW222026   1.036   1.335   7.456 -1.6817  2.2242 -0.1831
 3523SOL     OW22027   1.601   2.960   7.198 -0.0010  0.0691  0.6379
 3523SOL    HW122028   1.673   2.924   7.146 -0.3595 -0.9919  0.8824
 3523SOL    HW222029   1.637   3.038   7.241 -2.3705  1.8918 -0.6560
 3524SOL     OW22030   3.930   4.133   2.711 -0.3999 -0.4655  0.4481
 3524SOL    HW122031   3.859   4.121   2.774  1.3605  0.7570  2.6721
 3524SOL    HW222032   3.889   4.187   2.643  0.1845 -2.6486 -1.6408
 3525SOL     OW22033   4.081   4.217   0.805  0.1682  0.0016  1.0185
 3525SOL    HW122034   4.118   4.129   0.812 -0.3198 -0.3638 -1.0325
 3525SOL    HW222035   3.990   4.207   0.834  0.2227 -1.6395  0.6528
 3526SOL     OW22036   0.914   2.426   4.038  0.3049 -0.1986  0.6281
 3526SOL    HW122037   0.989   2.372   4.061 -0.1919 -1.0373  0.2871
 3526SOL    HW222038   0.860   2.361   3.994  1.3926 -0.2968 -0.5619
 3527SOL     OW22039   3.998   0.798   3.448  0.1005  0.2234  0.2592
 3527SOL    HW122040   3.912   0.756   3.460  0.1463 -0.6927 -2.4779
 3527SOL    HW222041   3.970   0.842   3.367  0.1547  1.0793  0.7051
 3528SOL     OW22042   4.574   2.987   2.331  0.2232  0.1236  0.0402
 3528SOL    HW122043   4.564   2.933   2.253 -2.5558  2.0886 -0.9463
 3528SOL    HW222044   4.538   3.074   2.312 -0.1300  0.3979  1.9494
 3529SOL     OW22045   1.298   4.239  14.958  0.0080  0.0201  0.1684
 3529SOL    HW122046   1.386   4.253  14.994 -0.5119  1.0927  1.0241
 3529SOL    HW222047   1.312   4.276  14.871 -0.0765  0.4010  0.3169
 3530SOL     OW22048   4.464   4.268   7.756  0.1399  0.3277 -0.0841
 3530SOL    HW122049   4.436   4.221   7.677  1.2675 -1.1824  0.4074
 3530SOL    HW222050   4.551   4.229   7.766  0.7801  1.7150 -0.2706
 3531SOL     OW22051   1.131   2.971   9.347 -0.1027  0.5487  0.5744
 3531SOL    HW122052   1.041   3.002   9.362 -0.0770  1.1272 -0.4166
 3531SOL    HW222053   1.172   2.937   9.426  0.9421 -0.0584 -0.2337
 3532SOL     OW22054   1.220   3.384   6.800  0.2941 -0.9745  0.6554
 3532SOL    HW122055   1.169   3.448   6.850  1.0795  1.9349 -2.2623
 3532SOL    HW222056   1.299   3.379   6.854  0.2416 -0.1995  0.8036
 3533SOL     OW22057   4.326   4.551   5.614  0.1010  0.0395 -0.0043
 3533SOL    HW122058   4.247   4.603   5.628 -1.2005 -2.3205  1.3418
 3533SOL    HW222059   4.370   4.610   5.552 -0.0599  0.3766  0.1999
 3534SOL     OW22060   3.797   2.633   5.682  0.0955  0.0040  0.5059
 3534SOL    HW122061   3.854   2.649   5.757  0.2152  0.4618  0.3176
 3534SOL    HW222062   3.818   2.546   5.648  0.5685 -0.0495  0.9384
 3535SOL     OW22063   0.304   1.483   3.090  0.4184  0.0609  0.3052
 3535SOL    HW122064   0.296   1.542   3.015 -4.1148 -0.5403  0.3145
 3535SOL    HW222065   0.356   1.543   3.144  0.6394  0.6974 -0.6207
 3536SOL     OW22066   1.774   2.086   6.001  0.3538  0.0663  0.3000
 3536SOL    HW122067   1.763   2.004   5.953  0.9626  0.0864  0.1224
 3536SOL    HW222068   1.746   2.055   6.088 -0.1453 -1.6162 -0.4632
 3537SOL     OW22069   0.874   4.234  12.068  0.3403  0.4497 -0.2955
 3537SOL    HW122070   0.792   4.209  12.111  0.5551 -0.0072 -0.1498
 3537SOL    HW222071   0.931   4.161  12.091 -1.3918 -1.5102 -2.1347
 3538SOL     OW22072   4.087   4.720   6.586 -0.1060  0.3708  0.0013
 3538SOL    HW122073   4.114   4.710   6.495 -1.5225 -1.6908 -0.1949
 3538SOL    HW222074   4.030   4.642   6.585 -0.2718  0.4924 -0.0901
 3539SOL     OW22075   1.688   3.907   7.418  0.3385 -0.1996  0.5859
 3539SOL    HW122076   1.698   3.827   7.469 -0.5059 -1.1865 -0.7821
 3539SOL    HW222077   1.631   3.960   7.474  0.1402  2.4810 -2.1466
 3540SOL     OW22078   4.145   1.853   0.861 -0.0522 -0.0600  0.2857
 3540SOL    HW122079   4.171   1.935   0.819 -2.8491  1.5162  1.6253
 3540SOL    HW222080   4.085   1.882   0.930 -0.5384 -0.2745 -0.0430
 3541SOL     OW22081   0.487   1.232   6.687  0.3479  0.0772 -0.1185
 3541SOL    HW122082   0.565   1.253   6.635 -1.4292  1.1839 -2.3277
 3541SOL    HW222083   0.444   1.166   6.632  0.5541  0.0425 -0.2385
 3542SOL     OW22084   3.159   1.481  17.273  0.0758 -0.3943 -0.4274
 3542SOL    HW122085   3.218   1.557  17.269  0.3546 -0.4832  1.7220
 3542SOL    HW222086   3.089   1.541  17.299  0.1878  0.6122 -2.4361
 3543SOL     OW22087   3.240   0.485   3.168 -0.2825 -0.0167 -0.0485
 3543SOL    HW122088   3.303   0.467   3.237 -0.1418 -0.4302 -0.2821
 3543SOL    HW222089   3.286   0.447   3.093  0.8044 -0.7718  1.0037
 3544SOL     OW22090   1.046   1.483  16.720  0.3103  0.0961  0.8205
 3544SOL    HW122091   1.132   1.520  16.699  1.0874 -1.3380  1.4908
 3544SOL    HW222092   1.018   1.487  16.629  0.1448 -1.2985  0.8150
 3545SOL     OW22093   2.038   2.692   8.794  0.0001 -0.1679 -0.0792
 3545SOL    HW122094   2.011   2.761   8.733 -0.7721  0.7296  1.3041
 3545SOL    HW222095   2.084   2.745   8.859  0.9492 -1.4230  0.2800
 3546SOL     OW22096   0.524   4.173   0.108 -0.1470 -0.2308  0.4625
 3546SOL    HW122097   0.470   4.142   0.035 -0.5696  1.1400  0.2095
 3546SOL    HW222098   0.494   4.128   0.187  2.5295 -1.0116  1.0521
 3547SOL     OW22099   0.968   4.371   3.317  0.4857  0.0154 -0.2982
 3547SOL    HW122100   0.981   4.463   3.296 -0.8712 -0.0121 -1.2485
 3547SOL    HW222101   0.915   4.382   3.396  0.2602  0.8771 -0.5730
 3548SOL     OW22102   4.121   1.383   8.083 -0.7254  0.0175 -0.7982
 3548SOL    HW122103   4.047   1.437   8.057 -0.9862 -0.3710 -0.8434
 3548SOL    HW222104   4.084   1.362   8.169 -1.7065 -0.4290 -1.3427
 3549SOL     OW22105   0.548   3.545   2.395  0.2117  0.3666  0.0404
 3549SOL    HW122106   0.538   3.598   2.316 -2.0597 -0.0741  0.0317
 3549SOL    HW222107   0.516   3.458   2.371  0.0319  0.9112 -1.7368
 3550SOL     OW22108   2.210   0.625   9.905  0.1414  0.4559 -0.1613
 3550SOL    HW122109   2.155   0.553   9.875 -1.4518 -0.1803  4.2875
 3550SOL    HW222110   2.186   0.634   9.997  1.2414 -1.1786  0.2709
 3551SOL     OW22111   4.515   1.495   4.802  0.0976  0.1624 -0.4295
 3551SOL    HW122112   4.438   1.442   4.823  0.5160 -0.0348  0.5874
 3551SOL    HW222113   4.524   1.467   4.711  2.0998  0.2531 -0.2524
 3552SOL     OW22114   0.603   2.901   3.251  0.5881 -0.2170  0.7982
 3552SOL    HW122115   0.657   2.978   3.270 -0.8446  0.9841  0.0260
 3552SOL    HW222116   0.601   2.903   3.155 -1.2907  1.4039  0.8712
 3553SOL     OW22117   2.614   1.736   6.995  0.0819  0.2705 -0.0446
 3553SOL    HW122118   2.576   1.669   7.052  2.0339 -0.0822  0.8543
 3553SOL    HW222119   2.562   1.726   6.915  0.2850 -0.2510 -0.1101
 3554SOL     OW22120   3.225   0.653   6.733  0.4972 -0.0622 -0.2937
 3554SOL    HW122121   3.214   0.747   6.722 -1.4844 -0.3985 -1.1667
 3554SOL    HW222122   3.150   0.614   6.688  1.2138 -0.4940 -1.1104
 3555SOL     OW22123   1.176   3.170   7.838  0.6805 -0.4941 -0.2202
 3555SOL    HW122124   1.134   3.198   7.757  0.3446  1.2947  0.5730
 3555SOL    HW222125   1.225   3.093   7.808  2.6495  0.0317  1.6781
 3556SOL     OW22126   1.684   3.886   2.592  0.0505  0.7232 -0.8343
 3556SOL    HW122127   1.650   3.975   2.592 -0.3589  0.5678 -0.6462
 3556SOL    HW222128   1.628   3.853   2.521 -0.4387 -0.8711  0.2929
 3557SOL     OW22129   4.133   4.366   4.387  0.6019  0.0951  0.1688
 3557SOL    HW122130   4.165   4.364   4.477  0.6087  0.7726  0.1812
 3557SOL    HW222131   4.184   4.435   4.344  0.4047 -0.5434 -1.0863
 3558SOL     OW22132   2.983   1.111   8.771 -0.4273  0.0983  0.2335
 3558SOL    HW122133   2.888   1.119   8.763 -0.1030  2.0490 -1.6543
 3558SOL    HW222134   2.991   1.060   8.852 -0.3518  2.3969  1.7081
 3559SOL     OW22135   1.167   0.793   2.120  0.1104  0.0298  0.5517
 3559SOL    HW122136   1.148   0.885   2.138  2.1533  0.7114 -0.9247
 3559SOL    HW222137   1.243   0.815   2.067  0.8079 -2.0080  0.7187
 3560SOL     OW22138   0.027   1.031  15.267 -0.2827 -0.3553  0.2895
 3560SOL    HW122139   4.725   1.092  15.335  2.8398  1.9486 -0.4613
 3560SOL    HW222140   0.111   1.001  15.302 -0.2595  0.8048  1.2018
 3561SOL     OW22141   1.660   0.451   2.921 -0.9476 -0.3856 -0.0594
 3561SOL    HW122142   1.586   0.490   2.967 -0.2216 -0.7838  1.4368
 3561SOL    HW222143   1.611   0.386   2.871 -0.5310  1.1347 -2.4565
 3562SOL     OW22144   0.462   2.301  11.646 -0.1186  0.9070 -0.5569
 3562SOL    HW122145   0.506   2.270  11.725 -1.2761 -1.2636 -0.7541
 3562SOL    HW222146   0.399   2.366  11.678  0.8320  1.6272 -0.1504
 3563SOL     OW22147   1.781   3.232   8.230 -0.2773  0.1675  0.0609
 3563SOL    HW122148   1.836   3.287   8.285  0.7312 -0.5112 -0.2743
 3563SOL    HW222149   1.721   3.299   8.197  1.1039  1.0645 -0.6547
 3564SOL     OW22150   4.674   2.047   7.771 -0.3318  0.2238  0.1532
 3564SOL    HW122151   0.007   2.005   7.833  0.5475  0.7295 -0.3492
 3564SOL    HW222152   4.714   2.132   7.754  0.1949 -0.5312 -2.4623
 3565SOL     OW22153   2.795   2.539   8.198 -0.4543 -0.8413  0.0515
 3565SOL    HW122154   2.711   2.516   8.158 -0.2218 -2.4934  0.5085
 3565SOL    HW222155   2.851   2.484   8.144 -0.3395  0.0348 -0.7097
 3566SOL     OW22156   2.901   4.571   3.653  0.1863 -0.4380 -0.5283
 3566SOL    HW122157   2.886   4.656   3.694 -0.5893  0.0127 -1.7401
 3566SOL    HW222158   2.811   4.555   3.623  0.3151  0.8475 -1.6403
 3567SOL     OW22159   2.535   2.544   5.495 -0.4182 -0.0522 -0.9959
 3567SOL    HW122160   2.626   2.535   5.469 -0.0264 -0.1324  0.4172
 3567SOL    HW222161   2.536   2.562   5.589  0.5755 -2.5032 -0.5298
 3568SOL     OW22162   2.908   0.672   2.998 -0.2812 -0.2226 -0.2299
 3568SOL    HW122163   2.862   0.649   2.917 -0.8975 -0.7395  0.2682
 3568SOL    HW222164   3.000   0.678   2.969 -0.9178 -0.3414 -2.2888
 3569SOL     OW22165   2.279   2.796   3.377 -0.2193  0.2174 -0.0774
 3569SOL    HW122166   2.326   2.811   3.295  0.6933 -2.0771  0.0491
 3569SOL    HW222167   2.347   2.756   3.430  0.6866  2.4274  0.4299
 3570SOL     OW22168   4.344   1.750   9.623  0.1165  0.4996 -0.0697
 3570SOL    HW122169   4.344   1.813   9.550  1.5571  0.2365 -0.2904
 3570SOL    HW222170   4.318   1.815   9.688  2.1402  0.1275  1.1065
 3571SOL     OW22171   2.634   0.766   1.879 -0.0609  0.0129  0.0738
 3571SOL    HW122172   2.581   0.831   1.832 -0.9625 -1.0050 -0.3394
 3571SOL    HW222173   2.687   0.814   1.942  2.6198 -2.3716 -0.3552
 3572SOL     OW22174   1.715   0.817   9.042 -0.3873  0.3815 -0.2857
 3572SOL    HW122175   1.794   0.788   8.996 -0.0773 -0.2486  0.6653
 3572SOL    HW222176   1.761   0.865   9.111  0.4632 -1.1404  0.2036
 3573SOL     OW22177   2.226   0.323  11.292 -0.4357  0.2393  0.0074
 3573SOL    HW122178   2.171   0.245  11.291 -0.9177  0.5767 -0.0616
 3573SOL    HW222179   2.232   0.344  11.199 -0.4751  2.0765  0.4129
 3574SOL     OW22180   3.672   0.567  11.818  0.5254  0.3733 -0.5278
 3574SOL    HW122181   3.614   0.585  11.892  1.9527 -0.6481  0.8521
 3574SOL    HW222182   3.751   0.543  11.866  0.5411  0.0354 -0.7198
 3575SOL     OW22183   4.208   1.205   9.205  0.4575 -0.1253 -0.6959
 3575SOL    HW122184   4.284   1.169   9.159  0.7835 -1.2332  0.7152
 3575SOL    HW222185   4.225   1.178   9.295 -0.2877 -1.5911 -0.9874
 3576SOL     OW22186   1.478   3.493  13.967  0.1790  0.2601  0.0707
 3576SOL    HW122187   1.560   3.458  14.003  1.1883 -0.7220 -3.1768
 3576SOL    HW222188   1.473   3.575  14.017 -0.8850  0.1271  0.1765
 3577SOL     OW22189   4.491   3.894   0.473  0.0803  0.0456 -0.3614
 3577SOL    HW122190   4.497   3.990   0.472 -0.4970  0.0840  0.0713
 3577SOL    HW222191   4.438   3.886   0.394  1.1668  1.5984 -1.2433
 3578SOL     OW22192   0.187   0.674  16.563 -0.1291  0.2119  0.0798
 3578SOL    HW122193   0.116   0.669  16.627 -0.8557  0.4026 -0.7043
 3578SOL    HW222194   0.150   0.628  16.488  1.1126 -0.0949 -0.3472
 3579SOL     OW22195   0.659   2.664  12.334 -0.6001  0.6648  0.5435
 3579SOL    HW122196   0.597   2.592  12.333  0.6603 -0.3913 -0.2961
 3579SOL    HW222197   0.631   2.719  12.261  0.2831  2.7964  1.7769
 3580SOL     OW22198   4.110   1.937   9.275  0.7252  1.1624 -0.4531
 3580SOL    HW122199   4.063   2.013   9.241  0.3823 -0.3791 -3.4194
 3580SOL    HW222200   4.066   1.872   9.219  2.5034 -0.8908  0.5211
 3581SOL     OW22201   1.815   2.005   5.667 -0.1114 -0.1613  0.2323
 3581SOL    HW122202   1.825   2.099   5.656  0.1386 -0.4626 -2.2204
 3581SOL    HW222203   1.890   1.980   5.721 -0.1154 -2.6208 -0.8860
 3582SOL     OW22204   2.910   3.653  15.179 -0.0762  0.1222 -0.7318
 3582SOL    HW122205   3.003   3.636  15.193  0.1138 -1.1785 -3.6532
 3582SOL    HW222206   2.874   3.567  15.200 -0.3145  0.4925  0.3886
 3583SOL     OW22207   1.327   0.049   6.720 -0.0589  0.7417 -0.1754
 3583SOL    HW122208   1.236   0.060   6.692 -0.1218  1.8970  0.4834
 3583SOL    HW222209   1.349   4.703   6.661 -0.4394  1.0245 -0.6654
 3584SOL     OW22210   2.871   4.126   0.940 -0.3341 -0.2793 -0.5237
 3584SOL    HW122211   2.821   4.104   1.020 -1.3107  1.9816 -0.5227
 3584SOL    HW222212   2.812   4.179   0.887 -0.3647  0.1773 -0.0347
 3585SOL     OW22213   1.399   2.464   7.634 -0.5519  0.6242  0.1244
 3585SOL    HW122214   1.368   2.465   7.725  1.3645  1.0778  0.7710
 3585SOL    HW222215   1.493   2.468   7.653 -0.9355 -0.5708  2.2940
 3586SOL     OW22216   3.025   4.484   8.052  0.4435 -0.1233 -0.0629
 3586SOL    HW122217   2.932   4.493   8.029  0.2795  1.3645  1.1665
 3586SOL    HW222218   3.061   4.573   8.046  0.6604 -0.1167  1.2947
 3587SOL     OW22219   3.449   2.092   8.442  0.6550  0.1232  0.1004
 3587SOL    HW122220   3.428   2.115   8.352  1.9326  1.5065  0.1414
 3587SOL    HW222221   3.543   2.077   8.429  1.4297  1.8463  3.4304
 3588SOL     OW22222   1.911   1.202  11.078 -0.5088 -0.2635  0.1386
 3588SOL    HW122223   2.004   1.186  11.061 -0.0562  2.3360  0.1202
 3588SOL    HW222224   1.880   1.116  11.106 -2.2649 -0.5963 -2.8195
 3589SOL     OW22225   3.977   3.170   7.636 -0.2250  0.1001  0.1397
 3589SOL    HW122226   3.984   3.176   7.731 -0.2402 -2.4727  0.2905
 3589SOL    HW222227   3.886   3.195   7.621 -0.8451 -1.1908  1.8111
 3590SOL     OW22228   2.967   4.320  12.931  0.8497  0.1566 -0.3254
 3590SOL    HW122229   3.022   4.397  12.943 -1.3704  1.6409  0.3288
 3590SOL    HW222230   2.898   4.341  12.995 -0.4523 -1.2494 -1.2461
 3591SOL     OW22231   1.206   3.076   0.303 -0.0174 -0.4880  0.3220
 3591SOL    HW122232   1.188   3.136   0.231  0.1053 -1.9959 -0.9730
 3591SOL    HW222233   1.151   2.998   0.290  0.8991 -1.0406 -0.1867
 3592SOL     OW22234   3.244   4.318  17.121 -0.2458  0.3730  0.3035
 3592SOL    HW122235   3.271   4.327  17.212  0.7151  1.2460 -0.0693
 3592SOL    HW222236   3.149   4.306  17.126 -0.3593  0.3179 -2.0185
 3593SOL     OW22237   2.817   3.773   2.647 -0.3096  0.1455 -0.5612
 3593SOL    HW122238   2.837   3.866   2.638 -0.9060  0.1966 -1.3478
 3593SOL    HW222239   2.742   3.759   2.589 -0.8406 -0.7851  0.3421
 3594SOL     OW22240   1.639   1.253   5.360  0.0217 -0.1722  0.3662
 3594SOL    HW122241   1.709   1.318   5.360 -1.1062  1.0335 -0.0419
 3594SOL    HW222242   1.577   1.291   5.298 -1.2632 -3.8916 -0.6184
 3595SOL     OW22243   2.527   4.363   1.940 -0.4762  0.1506  0.3344
 3595SOL    HW122244   2.515   4.445   1.893 -1.7970  0.0275  0.4557
 3595SOL    HW222245   2.621   4.371   1.955 -0.5103  1.4840 -0.1999
 3596SOL     OW22246   1.996   0.636  12.950 -0.0941  0.6680 -0.0861
 3596SOL    HW122247   1.968   0.584  13.025  0.7818  0.6856  0.2616
 3596SOL    HW222248   2.087   0.660  12.968  0.2225 -0.0323 -0.7418
 3597SOL     OW22249   1.113   0.478  10.137 -0.8615 -0.0824  0.4369
 3597SOL    HW122250   1.070   0.438  10.062 -0.9891  0.4139  0.2479
 3597SOL    HW222251   1.157   0.401  10.172 -0.1191  0.6798  1.1828
 3598SOL     OW22252   2.679   1.857  11.826 -0.0583  0.5709 -0.4335
 3598SOL    HW122253   2.657   1.836  11.917  0.9417  0.1072 -0.2999
 3598SOL    HW222254   2.766   1.818  11.821  0.2875  1.0798  1.5026
 3599SOL     OW22255   2.411   4.370   2.666  0.9613 -0.4387 -0.4015
 3599SOL    HW122256   2.395   4.418   2.585 -2.9076 -0.8435  0.1154
 3599SOL    HW222257   2.505   4.353   2.659  1.1095  1.3982 -2.7906
 3600SOL     OW22258   3.424   1.128   6.663 -0.2181 -0.1157 -0.5991
 3600SOL    HW122259   3.506   1.128   6.712 -0.2906 -0.2456 -0.4768
 3600SOL    HW222260   3.453   1.183   6.590  0.9541  0.5602  0.3856
 3601SOL     OW22261   3.286   0.568   4.124  0.1211  0.2608 -0.3525
 3601SOL    HW122262   3.295   0.662   4.143  1.0926  0.4593 -1.8453
 3601SOL    HW222263   3.222   0.578   4.054  0.0563  0.6068 -0.2429
 3602SOL     OW22264   1.202   0.173   3.396  0.2340  0.0925  0.0814
 3602SOL    HW122265   1.117   0.201   3.429  0.2161  0.4819 -0.2938
 3602SOL    HW222266   1.239   0.165   3.483 -1.6644  0.5920  0.9353
 3603SOL     OW22267   0.446   2.375  10.824  0.4706  0.0892 -0.2508
 3603SOL    HW122268   0.371   2.401  10.770  0.4611  0.4692 -0.0546
 3603SOL    HW222269   0.452   2.292  10.777 -0.9331 -1.1510  1.7609
 3604SOL     OW22270   4.319   3.027   8.889  0.2075  0.3591 -0.1910
 3604SOL    HW122271   4.238   2.999   8.847 -0.0919 -0.1311  0.7148
 3604SOL    HW222272   4.280   3.043   8.975 -0.0576  1.9213 -0.6029
 3605SOL     OW22273   3.304   3.065  17.512  0.2883  0.1232  0.2769
 3605SOL    HW122274   3.382   3.117  17.532  0.7468 -0.1722 -0.7829
 3605SOL    HW222275   3.309   3.079  17.418  1.1086 -2.1708 -0.0272
 3606SOL     OW22276   0.921   1.625   3.827 -0.8367  0.1463  0.2646
 3606SOL    HW122277   0.860   1.583   3.766 -1.5725  0.6709  0.6282
 3606SOL    HW222278   0.865   1.678   3.884  0.8493  0.2550  1.7974
 3607SOL     OW22279   1.234   0.331   5.303 -0.2086 -0.1293 -0.1124
 3607SOL    HW122280   1.316   0.288   5.324  0.5087  0.7685 -1.0756
 3607SOL    HW222281   1.201   0.360   5.388 -2.3113  3.5069 -2.1473
 3608SOL     OW22282   0.587   1.656  15.146  0.4367 -0.2773 -0.1438
 3608SOL    HW122283   0.675   1.678  15.114  1.2072 -1.5657  1.0665
 3608SOL    HW222284   0.597   1.560  15.148 -1.5799 -0.4446  1.6793
 3609SOL     OW22285   0.566   2.172   4.511 -0.2324  0.1900  0.2903
 3609SOL    HW122286   0.591   2.089   4.469 -1.7536 -1.3742  2.4922
 3609SOL    HW222287   0.568   2.148   4.604  0.8806 -1.1105 -0.0590
 3610SOL     OW22288   1.965   0.210   7.224 -0.3262  0.2297  0.0240
 3610SOL    HW122289   1.907   0.268   7.274  1.1322  2.1647 -0.5221
 3610SOL    HW222290   1.902   0.151   7.183  1.5554 -0.0046 -2.4723
 3611SOL     OW22291   2.794   1.411   5.987 -0.1030 -0.1240  0.0043
 3611SOL    HW122292   2.714   1.412   6.041  1.0311  2.0411  1.6198
 3611SOL    HW222293   2.837   1.474   6.044 -1.6725  0.5356  0.4672
 3612SOL     OW22294   1.299   4.203   0.314 -0.2679 -0.1332  0.0840
 3612SOL    HW122295   1.284   4.259   0.238 -0.2430  0.4859  0.5309
 3612SOL    HW222296   1.265   4.254   0.388 -0.9719  0.2642 -0.5145
 3613SOL     OW22297   3.411   2.367  14.208  0.0584 -0.5112 -0.2312
 3613SOL    HW122298   3.423   2.455  14.245 -0.6007  0.2338 -1.7854
 3613SOL    HW222299   3.466   2.313  14.264 -0.1148  0.3164  0.7381
 3614SOL     OW22300   2.301   2.148  17.143  0.4419 -0.7953 -0.9009
 3614SOL    HW122301   2.261   2.234  17.125  0.8738 -0.5568 -0.7219
 3614SOL    HW222302   2.382   2.180  17.181  0.1737 -0.2509 -0.7865
 3615SOL     OW22303   3.041   0.491  15.433 -0.6734 -0.2778  0.1851
 3615SOL    HW122304   3.136   0.487  15.430 -0.6259  0.4310  0.7865
 3615SOL    HW222305   3.031   0.586  15.443 -2.5515 -0.1071 -3.2210
 3616SOL     OW22306   1.606   2.991   9.071 -0.6986  0.2492 -0.2113
 3616SOL    HW122307   1.580   3.082   9.087 -0.9018  0.0275  0.7182
 3616SOL    HW222308   1.643   2.969   9.157  1.5123  0.8557 -1.0309
 3617SOL     OW22309   4.706   1.668  11.308 -0.1522 -0.0625  0.1001
 3617SOL    HW122310   0.052   1.659  11.246  1.5136  2.2772  1.6862
 3617SOL    HW222311   0.027   1.619  11.375  0.4153  1.0984  0.5478
 3618SOL     OW22312   4.323   3.022   7.449  0.3264 -0.0198  0.1195
 3618SOL    HW122313   4.389   3.071   7.499 -0.5731  2.7370 -1.3749
 3618SOL    HW222314   4.358   3.028   7.360 -2.3426 -1.4018 -1.0253
 3619SOL     OW22315   0.156   4.614   7.893 -0.3317 -0.0302  0.0196
 3619SOL    HW122316   0.119   4.670   7.825 -0.8342 -0.3230  0.0441
 3619SOL    HW222317   0.115   4.654   7.970 -2.3464 -1.1672 -0.4540
 3620SOL     OW22318   2.514   4.331   3.870 -0.1210  0.2119  0.1186
 3620SOL    HW122319   2.549   4.403   3.923  3.5060 -1.8229  0.4549
 3620SOL    HW222320   2.545   4.255   3.919  2.4122  0.1767 -1.5675
 3621SOL     OW22321   4.382   0.773   3.374 -0.1465  0.1172 -0.2796
 3621SOL    HW122322   4.471   0.766   3.339 -2.3742 -2.9684 -5.3815
 3621SOL    HW222323   4.390   0.849   3.431  4.4741  0.0970 -0.8720
 3622SOL     OW22324   2.106   2.088   7.985  0.2419  0.8626  0.0900
 3622SOL    HW122325   2.071   2.177   7.977 -2.0858 -0.2101 -1.6803
 3622SOL    HW222326   2.061   2.060   8.064 -0.5424 -0.8326 -0.9693
 3623SOL     OW22327   3.557   2.350  15.378  0.7297 -0.6358 -0.0617
 3623SOL    HW122328   3.494   2.345  15.449  2.5354 -2.2805  1.4219
 3623SOL    HW222329   3.504   2.297  15.318 -0.3821  0.1333  0.2480
 3624SOL     OW22330   4.562   3.182  11.937 -0.4265 -0.8181  0.0644
 3624SOL    HW122331   4.521   3.108  11.981  2.4391 -3.8741 -2.4069
 3624SOL    HW222332   4.495   3.250  11.926  0.7071 -0.0674 -2.0667
 3625SOL     OW22333   0.903   2.959   7.826  0.2701  0.1059  0.1262
 3625SOL    HW122334   0.933   2.952   7.917 -1.2314 -0.7858  0.5518
 3625SOL    HW222335   0.863   3.046   7.828 -2.2463 -1.0704  1.1947
 3626SOL     OW22336   4.402   0.431   9.229 -0.9478  0.2406 -0.3944
 3626SOL    HW122337   4.310   0.460   9.237 -0.7906  0.2107  1.5894
 3626SOL    HW222338   4.407   0.424   9.325 -1.7657 -2.9109 -0.5830
 3627SOL     OW22339   4.206   0.019   2.740 -0.7081 -0.0965 -0.0733
 3627SOL    HW122340   4.130   0.048   2.791 -0.4376 -0.9933  0.8341
 3627SOL    HW222341   4.276   0.085   2.744 -0.9417  0.3400 -2.9005
 3628SOL     OW22342   2.480   1.870   4.326 -0.0258 -0.3506  0.2304
 3628SOL    HW122343   2.445   1.781   4.313  0.8290 -0.5996 -0.3673
 3628SOL    HW222344   2.562   1.856   4.374  0.7176  0.4531 -0.8103
 3629SOL     OW22345   0.809   2.108   5.223 -0.3409  0.3334  0.0666
 3629SOL    HW122346   0.902   2.093   5.240 -0.4618  0.7513  1.0904
 3629SOL    HW222347   0.824   2.140   5.134 -1.5383 -1.2717 -0.7076
 3630SOL     OW22348   2.732   0.231  16.406 -0.1156  0.4216 -0.0772
 3630SOL    HW122349   2.784   0.304  16.372  0.1527 -0.0616 -0.7034
 3630SOL    HW222350   2.643   0.254  16.380  0.0807 -0.8289 -1.8581
 3631SOL     OW22351   2.148   0.384   6.808  0.0074 -0.4762  0.2847
 3631SOL    HW122352   2.175   0.360   6.897  0.7496  1.0875  0.4846
 3631SOL    HW222353   2.194   0.467   6.799  2.6926 -1.9091  0.4996
 3632SOL     OW22354   2.360   4.085   0.271  0.6119 -0.1667  0.2612
 3632SOL    HW122355   2.395   4.058   0.356  0.9342 -1.4965 -0.2985
 3632SOL    HW222356   2.267   4.074   0.292  0.5631  0.9500  0.6268
 3633SOL     OW22357   4.621   0.907   9.165 -0.2220  0.0171 -0.0030
 3633SOL    HW122358   4.641   1.000   9.157  2.6548 -0.7664 -2.1035
 3633SOL    HW222359   4.705   0.883   9.206 -1.1007  0.3989  2.0057
 3634SOL     OW22360   3.891   1.612  13.984 -0.0020  0.2787  0.2423
 3634SOL    HW122361   3.954   1.683  13.968  1.7436 -0.7812  2.4129
 3634SOL    HW222362   3.946   1.542  14.019 -0.0876 -0.0861 -0.3636
 3635SOL     OW22363   0.292   1.343   1.646  0.1045  0.1126 -0.4989
 3635SOL    HW122364   0.348   1.420   1.643  2.4819 -1.6218 -0.4826
 3635SOL    HW222365   0.337   1.281   1.704  1.0912  0.9009 -0.4144
 3636SOL     OW22366   2.561   2.685   6.410 -0.2933 -0.0540  0.0738
 3636SOL    HW122367   2.526   2.599   6.432 -1.7878  1.2509  2.8559
 3636SOL    HW222368   2.623   2.655   6.343 -0.3831 -0.4282  0.1611
 3637SOL     OW22369   2.215   3.600   7.654  1.1852 -0.5268 -0.3016
 3637SOL    HW122370   2.207   3.637   7.742 -0.9240 -1.1445 -0.2399
 3637SOL    HW222371   2.160   3.666   7.611  0.5249 -0.0688  1.2309
 3638SOL     OW22372   1.599   1.098   2.004  0.9163 -0.3207 -0.2169
 3638SOL    HW122373   1.669   1.118   1.943  1.9509  0.8195  1.3402
 3638SOL    HW222374   1.564   1.187   2.011 -0.1457 -0.9913  3.2942
 3639SOL     OW22375   1.074   1.157  14.127  0.1163  0.3985  0.0104
 3639SOL    HW122376   1.148   1.126  14.179  0.3831  0.0152 -0.5918
 3639SOL    HW222377   1.115   1.231  14.082  0.7526  1.1692  1.8493
 3640SOL     OW22378   1.074   0.613   0.228 -0.1781 -0.5124 -0.3631
 3640SOL    HW122379   1.001   0.603   0.290  2.0769  0.2568  2.3827
 3640SOL    HW222380   1.149   0.591   0.284  0.2209  1.5342 -0.1196
 3641SOL     OW22381   2.740   4.117   9.075 -0.4974 -0.2010 -0.2828
 3641SOL    HW122382   2.773   4.066   9.150  1.0632  0.5321 -0.4740
 3641SOL    HW222383   2.759   4.061   9.000  0.3067  0.1855 -0.3753
 3642SOL     OW22384   4.670   1.051   8.013  0.1278 -0.0673  0.1174
 3642SOL    HW122385   4.593   1.009   8.052  0.9195 -1.9885 -0.4233
 3642SOL    HW222386   4.703   1.102   8.087 -1.6873  2.4599 -0.7944
 3643SOL     OW22387   1.681   4.226   0.421  0.0972  0.4088  0.0866
 3643SOL    HW122388   1.595   4.204   0.458  1.9892 -1.7048  3.2258
 3643SOL    HW222389   1.723   4.259   0.500  2.0610 -0.1223 -0.7321
 3644SOL     OW22390   3.473   4.282   2.061  0.5651 -0.5751  0.1532
 3644SOL    HW122391   3.402   4.334   2.024  2.6065  3.0736  1.3718
 3644SOL    HW222392   3.447   4.194   2.032 -1.1388 -0.1437  0.3689
 3645SOL     OW22393   3.368   3.031   4.169 -0.2379 -0.3568  0.0504
 3645SOL    HW122394   3.447   2.980   4.186  1.0485  0.9181 -2.1514
 3645SOL    HW222395   3.407   3.114   4.142 -1.2356  0.6343  1.6294
 3646SOL     OW22396   2.711   3.662  12.932 -0.5327 -0.1519  0.5551
 3646SOL    HW122397   2.641   3.674  12.996  0.8158 -2.9209  2.5173
 3646SOL    HW222398   2.684   3.575  12.902 -0.4668 -0.0326  0.1431
 3647SOL     OW22399   3.791   0.424  10.057  0.2309  0.6507 -0.4842
 3647SOL    HW122400   3.824   0.482   9.988  2.3103 -1.0447 -0.9156
 3647SOL    HW222401   3.730   0.367  10.010 -1.7591  2.1413  0.3147
 3648SOL     OW22402   0.009   4.337   7.479  0.0411 -0.5402  0.2798
 3648SOL    HW122403   0.042   4.427   7.481  2.2611 -1.3157 -2.6080
 3648SOL    HW222404   0.046   4.310   7.563  0.0533 -1.9119 -0.1678
 3649SOL     OW22405   4.678   1.217  14.439  0.3782  0.2352 -0.0861
 3649SOL    HW122406   4.582   1.217  14.442  0.3688 -0.9519 -0.3430
 3649SOL    HW222407   4.695   1.166  14.518  1.9228 -0.7377 -1.0510
 3650SOL     OW22408   3.097   4.063   6.005  0.0968 -0.1540 -0.3987
 3650SOL    HW122409   3.148   4.125   5.953  1.2882 -0.3677  0.5329
 3650SOL    HW222410   3.144   4.061   6.088 -1.5549  0.8625  0.5736
 3651SOL     OW22411   3.834   1.337   4.893  0.3232  0.4959 -0.1441
 3651SOL    HW122412   3.759   1.322   4.836 -0.1808 -0.8656  0.8773
 3651SOL    HW222413   3.808   1.291   4.973  0.8838  1.2031  0.4534
 3652SOL     OW22414   0.755   4.473  13.012  0.4673  0.4374 -1.1331
 3652SOL    HW122415   0.794   4.392  13.045 -0.8002  1.3583  2.5427
 3652SOL    HW222416   0.668   4.470  13.052  2.3893 -0.7886  2.9504
 3653SOL     OW22417   0.092   1.796   1.425  0.3118 -0.5006 -0.2512
 3653SOL    HW122418   0.049   1.725   1.378 -1.4102  0.2496  0.2029
 3653SOL    HW222419   0.181   1.799   1.391 -0.1792  0.6127 -1.4381
 3654SOL     OW22420   1.698   3.994  14.589 -0.0589 -0.3048  0.4227
 3654SOL    HW122421   1.616   3.963  14.551  0.6025 -1.0581 -0.4034
 3654SOL    HW222422   1.760   3.953  14.529  0.4730  0.2710  0.5759
 3655SOL     OW22423   0.880   2.359   4.743 -0.1513  0.3305  0.0311
 3655SOL    HW122424   0.796   2.391   4.711 -0.4321  0.3026  0.7393
 3655SOL    HW222425   0.888   2.397   4.830  2.1219  0.2823 -0.1536
 3656SOL     OW22426   0.177   2.948  15.724  0.3119  0.1130  0.2783
 3656SOL    HW122427   0.192   2.857  15.697  0.7314  0.5744 -1.0145
 3656SOL    HW222428   0.263   2.973  15.756 -0.1805  2.0559  0.0543
 3657SOL     OW22429   0.005   1.634  16.264  0.0918  0.0476 -0.1359
 3657SOL    HW122430   0.045   1.579  16.332 -0.1617 -0.4777 -0.4054
 3657SOL    HW222431   4.683   1.572  16.209  1.0422 -1.5128  0.7888
 3658SOL     OW22432   1.467   1.690  10.438 -0.5605 -0.0845  0.3884
 3658SOL    HW122433   1.452   1.704  10.345  3.3880 -1.0665 -0.3675
 3658SOL    HW222434   1.491   1.779  10.466 -0.1979  0.6559 -2.2576
 3659SOL     OW22435   2.762   3.042   8.476 -0.2035  0.0314  0.7351
 3659SOL    HW122436   2.689   3.081   8.524 -0.8876 -0.3611  0.0151
 3659SOL    HW222437   2.730   2.957   8.446 -0.7006  1.0710 -1.6655
 3660SOL     OW22438   0.965   2.785   6.439  0.3068 -0.7227 -0.0911
 3660SOL    HW122439   1.041   2.835   6.406 -1.7241  1.5298 -1.3704
 3660SOL    HW222440   0.939   2.847   6.507 -0.0495 -0.5233 -0.4094
 3661SOL     OW22441   2.426   1.920   3.126  0.2298 -0.2345 -0.1970
 3661SOL    HW122442   2.365   1.881   3.189 -1.2570 -1.1895 -2.2071
 3661SOL    HW222443   2.481   1.975   3.181  1.5259 -3.6695  1.9567
 3662SOL     OW22444   1.922   0.108  12.712  0.3134  0.7107 -0.3107
 3662SOL    HW122445   2.002   0.056  12.714 -0.5165 -0.6343 -1.4582
 3662SOL    HW222446   1.867   0.055  12.654  0.4763 -1.4659  1.5147
 3663SOL     OW22447   1.868   3.345   2.005 -0.7885 -0.4552 -0.1213
 3663SOL    HW122448   1.963   3.344   2.005 -0.7965 -2.8540 -1.5045
 3663SOL    HW222449   1.849   3.379   1.918 -1.9041 -1.1057 -0.1431
 3664SOL     OW22450   0.450   3.037  11.441 -0.6332  1.2266 -0.1707
 3664SOL    HW122451   0.372   2.983  11.453 -0.0352 -0.0452 -1.9738
 3664SOL    HW222452   0.487   3.024  11.529 -0.4497  0.9973 -0.2799
 3665SOL     OW22453   1.017   2.800   2.360 -0.2649 -0.0702 -0.1994
 3665SOL    HW122454   0.960   2.877   2.363 -1.0954 -0.7149  0.6219
 3665SOL    HW222455   0.992   2.761   2.444 -2.7083  1.0311 -0.4250
 3666SOL     OW22456   0.418   0.094   6.030  0.7921  0.3692  0.9860
 3666SOL    HW122457   0.462   0.179   6.026  0.7635  0.3957  1.2086
 3666SOL    HW222458   0.424   0.084   6.125 -0.7603 -1.9347  0.8458
 3667SOL     OW22459   4.181   1.353  10.832  0.2278  0.2920  0.0716
 3667SOL    HW122460   4.215   1.380  10.917  1.3482  0.0579 -0.2990
 3667SOL    HW222461   4.105   1.302  10.862  0.3487  0.1866  0.1968
 3668SOL     OW22462   3.958   3.113  13.216 -0.5776 -0.8869 -0.2771
 3668SOL    HW122463   3.915   3.197  13.201 -1.8934 -1.9985 -2.6277
 3668SOL    HW222464   3.972   3.121  13.311 -0.4966  1.2987 -0.4650
 3669SOL     OW22465   2.369   3.185  11.126  0.3580  0.1203  0.6829
 3669SOL    HW122466   2.280   3.203  11.098 -0.7930 -0.5290  3.8778
 3669SOL    HW222467   2.351   3.095  11.150  3.1187 -0.8274 -0.8337
 3670SOL     OW22468   3.883   2.366  15.076  0.8332  0.4868  0.4182
 3670SOL    HW122469   3.880   2.369  15.171  0.1303 -0.1223  0.4062
 3670SOL    HW222470   3.845   2.280  15.062  1.5157  0.0682  1.1581
 3671SOL     OW22471   4.083   4.321   6.536 -0.1356  0.3763  0.0727
 3671SOL    HW122472   4.059   4.368   6.616 -0.4175  1.2873 -0.5443
 3671SOL    HW222473   4.095   4.242   6.588  0.8015  0.1893 -0.4255
 3672SOL     OW22474   3.225   2.758   7.217 -0.6975  0.4248 -0.1404
 3672SOL    HW122475   3.200   2.666   7.220  1.2004 -0.0301  1.5416
 3672SOL    HW222476   3.208   2.781   7.308 -0.2334  0.4363 -0.0550
 3673SOL     OW22477   0.272   0.987   1.856 -0.3567  0.2019 -0.0925
 3673SOL    HW122478   0.280   0.902   1.811 -0.7857 -0.5250  1.2020
 3673SOL    HW222479   0.363   1.018   1.860 -0.0650 -0.6997  0.2502
 3674SOL     OW22480   2.645   3.242   4.492 -0.0531  0.4816  0.2248
 3674SOL    HW122481   2.711   3.222   4.425  1.4575  0.3269  1.7668
 3674SOL    HW222482   2.571   3.261   4.434  2.3100  4.4299 -1.5542
 3675SOL     OW22483   1.095   1.986  17.034 -0.0695 -0.4454 -0.8015
 3675SOL    HW122484   1.164   2.034  16.988  0.1510  2.4370  2.5732
 3675SOL    HW222485   1.038   2.051  17.075  0.7306 -1.0337  1.2394
 3676SOL     OW22486   2.854   0.439   7.326  0.4353  0.2826  0.0811
 3676SOL    HW122487   2.866   0.346   7.349 -1.3868 -0.1052 -0.5842
 3676SOL    HW222488   2.933   0.456   7.274 -0.3650  0.8820 -0.9254
 3677SOL     OW22489   0.829   0.867   3.267 -0.1017  0.0279 -0.3319
 3677SOL    HW122490   0.910   0.913   3.289 -0.8458 -0.1127  2.6714
 3677SOL    HW222491   0.833   0.887   3.173 -0.0750  2.6741  0.2392
 3678SOL     OW22492   3.469   4.483   8.736  0.6138  0.0606 -0.2548
 3678SOL    HW122493   3.513   4.545   8.795  0.0528  2.6850 -2.6276
 3678SOL    HW222494   3.535   4.445   8.678 -0.8166 -0.2478 -1.6693
 3679SOL     OW22495   3.503   3.755   2.799  0.6927  0.7486 -0.8068
 3679SOL    HW122496   3.514   3.843   2.762  1.8815  0.6680 -0.6598
 3679SOL    HW222497   3.578   3.760   2.859  0.9940  1.0559 -1.2128
 3680SOL     OW22498   1.927   1.207   4.044  0.0999 -0.1367 -0.2204
 3680SOL    HW122499   1.876   1.243   4.117  1.4514 -0.9432  1.1356
 3680SOL    HW222500   1.893   1.118   4.038  0.8056 -0.5184  1.3644
 3681SOL     OW22501   3.677   4.105   0.505 -0.4970 -0.1600  0.2465
 3681SOL    HW122502   3.696   4.051   0.582  2.4786  0.7570  0.1504
 3681SOL    HW222503   3.707   4.048   0.434 -1.1666 -0.1309 -0.0639
 3682SOL     OW22504   2.841   4.456  11.367 -0.1823  0.6402  0.3298
 3682SOL    HW122505   2.881   4.468  11.281 -0.0617  0.1291  0.3192
 3682SOL    HW222506   2.834   4.546  11.398  0.3230  0.3556  1.2764
 3683SOL     OW22507   3.179   2.464   6.162 -0.4720  0.2443 -0.3885
 3683SOL    HW122508   3.273   2.477   6.164 -0.5671  0.8448  0.1389
 3683SOL    HW222509   3.162   2.452   6.256 -0.0368 -1.8833 -0.5794
 3684SOL     OW22510   2.690   3.616   9.207 -0.6670 -0.3434  0.1850
 3684SOL    HW122511   2.640   3.650   9.133 -1.9264 -1.4755  0.5087
 3684SOL    HW222512   2.773   3.604   9.161 -2.8608 -1.0718 -3.5559
 3685SOL     OW22513   3.260   3.304   8.800  0.1108 -0.4696 -0.1162
 3685SOL    HW122514   3.199   3.242   8.762 -1.8138 -0.1265  2.4109
 3685SOL    HW222515   3.254   3.265   8.887  0.8187  0.5811  0.4123
 3686SOL     OW22516   2.516   3.750   8.549 -0.0132  0.0324 -0.2932
 3686SOL    HW122517   2.571   3.768   8.472 -0.1058 -3.7369 -1.2423
 3686SOL    HW222518   2.546   3.816   8.611  1.1538  1.1310 -2.0465
 3687SOL     OW22519   2.241   0.419  11.005  0.6463  0.0051  0.0307
 3687SOL    HW122520   2.218   0.345  10.949 -2.8115  1.5870 -0.6305
 3687SOL    HW222521   2.217   0.495  10.953  0.0641 -0.1506  0.0757
 3688SOL     OW22522   1.221   3.245   4.040 -0.0863 -0.5553  0.5332
 3688SOL    HW122523   1.290   3.307   4.020 -1.2267  0.6500  0.3770
 3688SOL    HW222524   1.212   3.250   4.135  3.5413 -0.3848  0.8804
 3689SOL     OW22525   0.249   4.557  14.237 -0.6082 -0.2249 -0.5547
 3689SOL    HW122526   0.270   4.565  14.144  0.2256 -0.6816 -0.4038
 3689SOL    HW222527   0.175   4.617  14.233 -0.8359 -0.4236  0.7547
 3690SOL     OW22528   2.265   1.087  17.474 -0.3774  0.2339 -1.0145
 3690SOL    HW122529   2.342   1.142  17.491 -0.8948  1.2373 -1.9378
 3690SOL    HW222530   2.248   1.123  17.387 -0.7517  0.3339 -0.8998
 3691SOL     OW22531   0.787   3.259   1.708 -0.6499 -0.2247  0.2377
 3691SOL    HW122532   0.705   3.308   1.705  1.2185  2.8907  0.1087
 3691SOL    HW222533   0.847   3.320   1.664 -1.4828 -0.4424 -1.1952
 3692SOL     OW22534   0.078   1.790   7.786  0.0015 -0.3910 -0.2349
 3692SOL    HW122535   0.113   1.832   7.864 -0.3519  1.1973 -0.9267
 3692SOL    HW222536   0.134   1.840   7.725 -0.4033  1.5494  0.9720
 3693SOL     OW22537   2.538   0.657   8.907  0.0220  0.1163  0.4071
 3693SOL    HW122538   2.596   0.590   8.871 -0.1753 -0.5978  1.4577
 3693SOL    HW222539   2.461   0.641   8.852  0.1895  1.9927 -0.3998
 3694SOL     OW22540   4.243   0.939   5.946  0.3027  0.0479  0.5689
 3694SOL    HW122541   4.227   0.845   5.955 -0.5442  0.0981 -0.3420
 3694SOL    HW222542   4.306   0.958   6.015 -1.4101 -1.7827  2.6305
 3695SOL     OW22543   2.850   1.770   1.806 -0.0398 -0.1404  0.5040
 3695SOL    HW122544   2.875   1.863   1.800 -2.4153  0.5640  1.2406
 3695SOL    HW222545   2.755   1.781   1.815 -0.2675  0.7870 -2.9339
 3696SOL     OW22546   0.666   0.717  15.011 -0.1421 -0.1109  0.3927
 3696SOL    HW122547   0.579   0.737  14.977  1.1282  3.2883 -0.8129
 3696SOL    HW222548   0.726   0.748  14.943 -3.1680  0.7195 -1.8972
 3697SOL     OW22549   1.945   4.685  17.589 -0.7274 -0.2274  0.5985
 3697SOL    HW122550   2.005   4.632  17.641 -1.3178 -1.4713  0.0149
 3697SOL    HW222551   1.944   4.656  17.498 -5.4061  0.8280  0.3367
 3698SOL     OW22552   4.166   3.257   3.759 -0.4719  0.3421  0.3266
 3698SOL    HW122553   4.193   3.254   3.851 -0.2183  1.7923  0.2938
 3698SOL    HW222554   4.082   3.212   3.768 -0.4841  0.3899  0.4510
 3699SOL     OW22555   0.166   0.336   7.392 -0.5683 -0.1751  0.0999
 3699SOL    HW122556   0.163   0.259   7.335 -3.0846  1.0598 -1.4148
 3699SOL    HW222557   0.134   0.406   7.335  0.9745  0.3306 -0.1564
 3700SOL     OW22558   4.620   2.359   2.086 -0.0455  0.3539 -0.1512
 3700SOL    HW122559   4.635   2.297   2.158 -0.8017  0.8719  0.4548
 3700SOL    HW222560   4.573   2.313   2.017  1.4659 -2.5296  0.7276
 3701SOL     OW22561   0.538   1.050   4.345 -0.3341  0.4865 -0.1083
 3701SOL    HW122562   0.569   1.092   4.264  1.8630 -0.1003  0.4273
 3701SOL    HW222563   0.444   1.068   4.344  0.1037  2.7566  0.2691
 3702SOL     OW22564   1.949   4.668   9.447 -0.4569  0.0362 -0.2222
 3702SOL    HW122565   2.024   4.676   9.388  0.2920 -1.8652  0.4657
 3702SOL    HW222566   1.960   4.593   9.504  0.3835 -0.1820 -0.6771
 3703SOL     OW22567   4.407   4.043   5.549 -0.2951  0.3748 -0.3035
 3703SOL    HW122568   4.468   4.113   5.524  1.0256 -0.5032  0.4347
 3703SOL    HW222569   4.343   4.101   5.590 -0.1028  0.9751 -0.8499
 3704SOL     OW22570   2.687   4.222   9.609  0.1998 -0.0782 -0.2451
 3704SOL    HW122571   2.671   4.308   9.571  0.2483  0.4499  0.9028
 3704SOL    HW222572   2.767   4.197   9.562  0.4928 -0.1246  0.2691
 3705SOL     OW22573   0.874   1.537  16.934 -0.1681 -0.4794  0.0248
 3705SOL    HW122574   0.922   1.587  17.000 -0.3556  0.1397 -0.3079
 3705SOL    HW222575   0.942   1.498  16.878  0.5244 -0.6936  0.9998
 3706SOL     OW22576   1.274   1.376   3.441 -0.8579  0.0608  0.0433
 3706SOL    HW122577   1.328   1.442   3.486  0.8336 -1.2690 -0.0392
 3706SOL    HW222578   1.336   1.357   3.370  0.1448  0.4968  0.7982
 3707SOL     OW22579   4.234   0.931   8.720 -0.0837 -0.4700  0.0943
 3707SOL    HW122580   4.179   0.960   8.793  2.5106  0.7658  1.5670
 3707SOL    HW222581   4.300   0.887   8.775  1.1521  0.6664 -0.4709
 3708SOL     OW22582   2.880   2.305   9.166 -0.5466 -0.7271  0.2939
 3708SOL    HW122583   2.889   2.364   9.091 -1.6794  0.6106  1.2206
 3708SOL    HW222584   2.949   2.350   9.215 -1.2638  1.8663 -1.0527
 3709SOL     OW22585   0.317   1.050   6.910 -0.0413 -0.1236  0.0119
 3709SOL    HW122586   0.385   1.112   6.934  1.6747 -2.3263  0.9084
 3709SOL    HW222587   0.340   0.982   6.974  0.2252 -0.3429 -0.3114
 3710SOL     OW22588   3.817   1.298   3.168  0.0480  0.2625  0.2522
 3710SOL    HW122589   3.744   1.266   3.220  1.1455  0.6437  2.0345
 3710SOL    HW222590   3.777   1.382   3.149  0.3027  0.4580  0.5903
 3711SOL     OW22591   0.062   3.857   3.094 -0.2197 -0.0598  0.7418
 3711SOL    HW122592   0.060   3.804   3.014  3.1176 -3.1159  2.7089
 3711SOL    HW222593   0.070   3.945   3.056  1.9921 -1.6782 -2.5074
 3712SOL     OW22594   2.015   1.070  15.950 -0.5328 -0.2769  0.8287
 3712SOL    HW122595   1.978   1.043  15.866  0.3249 -0.3576  0.4724
 3712SOL    HW222596   2.075   0.998  15.970 -2.7136 -2.0323  1.0126
 3713SOL     OW22597   0.663   3.188   4.801 -0.4766  0.9048 -0.2924
 3713SOL    HW122598   0.734   3.241   4.838  1.1926 -1.1503 -0.5323
 3713SOL    HW222599   0.643   3.236   4.721 -0.2808  0.2419 -0.7391
 3714SOL     OW22600   0.394   0.635   8.818  0.5529 -0.5332 -0.2946
 3714SOL    HW122601   0.394   0.693   8.742 -1.1392 -1.3572 -0.9381
 3714SOL    HW222602   0.398   0.547   8.779 -2.5444 -0.5651 -0.5779
 3715SOL     OW22603   2.615   3.411  11.852  0.5387 -0.0087 -0.3375
 3715SOL    HW122604   2.536   3.366  11.884 -0.3634  3.2102  1.9463
 3715SOL    HW222605   2.599   3.410  11.758 -2.4654 -1.0221  0.1701
 3716SOL     OW22606   1.259   2.366   7.122 -0.2570 -0.3513  0.0286
 3716SOL    HW122607   1.220   2.448   7.154  2.9347  1.4504 -0.7012
 3716SOL    HW222608   1.353   2.380   7.128 -0.2615 -0.2246 -0.2079
 3717SOL     OW22609   1.808   2.236   2.635  0.1421 -0.0688 -0.1683
 3717SOL    HW122610   1.822   2.229   2.541  0.5243  1.2692 -0.2148
 3717SOL    HW222611   1.714   2.256   2.629  0.1031 -0.8308 -1.9242
 3718SOL     OW22612   2.486   0.078  11.451  0.3849  0.2871  0.6211
 3718SOL    HW122613   2.393   0.098  11.446  0.5781  0.6927 -1.3731
 3718SOL    HW222614   2.514   0.121  11.531  1.6600  1.6232 -0.5384
 3719SOL     OW22615   1.734   1.884  15.731 -0.4315  0.8274 -0.2081
 3719SOL    HW122616   1.660   1.854  15.678 -0.6628 -0.1823  0.7020
 3719SOL    HW222617   1.758   1.810  15.785 -1.9642  1.7276  1.7196
 3720SOL     OW22618   4.496   0.614   9.031 -0.7302 -0.0786 -0.1781
 3720SOL    HW122619   4.453   0.542   9.078 -1.0602 -0.6552 -1.3707
 3720SOL    HW222620   4.567   0.637   9.091  1.5106  1.2121 -3.3287
 3721SOL     OW22621   2.117   1.695   4.429  0.4023 -0.2865  0.1433
 3721SOL    HW122622   2.158   1.620   4.471  1.4909  0.3358  0.2010
 3721SOL    HW222623   2.054   1.650   4.372 -0.1907  0.0770  0.5050
 3722SOL     OW22624   2.498   1.896  10.983  0.3267 -0.2670 -0.1388
 3722SOL    HW122625   2.566   1.832  10.963  0.5298 -0.3246  0.7101
 3722SOL    HW222626   2.457   1.842  11.051  1.8278 -0.6797  0.4318
 3723SOL     OW22627   3.190   4.312  10.454  0.6501 -0.1711 -0.0618
 3723SOL    HW122628   3.197   4.330  10.361  1.6140  0.4339  0.1275
 3723SOL    HW222629   3.228   4.391  10.492 -3.6258  1.7919  0.1088
 3724SOL     OW22630   1.447   2.045   8.573 -0.1917 -0.2073 -0.5289
 3724SOL    HW122631   1.465   2.068   8.481  1.7653  1.1926  0.2162
 3724SOL    HW222632   1.524   1.991   8.591  0.1979  0.9439  1.1869
 3725SOL     OW22633   1.001   2.137  12.232  0.2990 -0.2133 -0.2539
 3725SOL    HW122634   1.037   2.050  12.218  2.0732  0.4059  0.4930
 3725SOL    HW222635   0.908   2.112  12.233  0.5322 -1.0774 -0.0189
 3726SOL     OW22636   2.074   4.205   0.576  0.0566 -0.1636  0.0422
 3726SOL    HW122637   2.038   4.246   0.498  1.0602  0.3786 -0.1377
 3726SOL    HW222638   2.033   4.120   0.561 -0.5369 -0.1391  1.5404
 3727SOL     OW22639   4.035   3.191   1.200 -0.7532  0.0565  0.2594
 3727SOL    HW122640   4.100   3.125   1.224 -0.4204  0.5913  0.8052
 3727SOL    HW222641   3.965   3.184   1.265  0.5262  0.1514  1.6462
 3728SOL     OW22642   4.436   3.890   3.118  0.4881 -0.2521 -0.4039
 3728SOL    HW122643   4.475   3.973   3.144 -2.0955  1.3991 -1.7538
 3728SOL    HW222644   4.401   3.904   3.030 -0.7111  1.1361  0.2940
 3729SOL     OW22645   0.339   3.271   4.330  0.2441 -0.1914  0.3046
 3729SOL    HW122646   0.388   3.252   4.250 -0.8525  1.7927 -0.8556
 3729SOL    HW222647   0.332   3.188   4.376 -2.2816 -1.1736 -1.8222
 3730SOL     OW22648   3.239   4.360  10.200 -0.4279  0.3418  0.3427
 3730SOL    HW122649   3.168   4.342  10.139 -0.5135 -3.7106  1.6142
 3730SOL    HW222650   3.306   4.408  10.152 -0.1223 -0.5055 -0.0949
 3731SOL     OW22651   1.305   1.784  12.013  0.1050 -0.4053 -0.6901
 3731SOL    HW122652   1.311   1.689  12.004  1.2737 -0.7365  3.6820
 3731SOL    HW222653   1.339   1.826  11.934 -1.8746 -1.6097 -2.1981
 3732SOL     OW22654   2.413   3.184  12.356 -0.0908 -0.8196  0.0153
 3732SOL    HW122655   2.359   3.173  12.435  0.7166  1.3645  0.8583
 3732SOL    HW222656   2.496   3.197  12.401  0.4136 -0.5431 -1.0027
 3733SOL     OW22657   2.100   3.841   3.351  0.0963 -0.3141  0.5267
 3733SOL    HW122658   2.084   3.786   3.274 -0.5796  1.1535 -0.3636
 3733SOL    HW222659   2.195   3.850   3.345 -0.1184  0.7468 -1.0970
 3734SOL     OW22660   4.007   3.506   6.284 -0.1681  0.7807  0.7588
 3734SOL    HW122661   3.959   3.577   6.241 -1.5589 -0.9812 -0.5707
 3734SOL    HW222662   4.023   3.453   6.207  1.6172  0.4635  1.3661
 3735SOL     OW22663   1.136   3.069   7.299 -0.3636  0.0942 -0.1936
 3735SOL    HW122664   1.189   3.050   7.376  1.0848  0.2878 -1.1255
 3735SOL    HW222665   1.175   3.016   7.229  1.0571  0.8701 -0.0054
 3736SOL     OW22666   2.809   0.605  16.371 -0.5771  0.6076  0.4225
 3736SOL    HW122667   2.867   0.672  16.407  1.0968 -2.0950  2.7766
 3736SOL    HW222668   2.776   0.583  16.458 -1.3207 -1.1043 -0.2918
 3737SOL     OW22669   0.982   4.453   7.250  0.1026 -0.4614 -0.1783
 3737SOL    HW122670   1.024   4.401   7.182 -0.1102 -0.1992 -0.5107
 3737SOL    HW222671   0.996   4.397   7.327 -0.5849  2.4419  2.0542
 3738SOL     OW22672   2.260   2.799   2.707 -0.5125 -0.2017 -0.5725
 3738SOL    HW122673   2.189   2.841   2.659 -0.1071  1.6044  0.4177
 3738SOL    HW222674   2.213   2.733   2.757 -1.0964  0.3598 -0.3813
 3739SOL     OW22675   3.165   1.208  12.373 -0.1620  0.3439 -0.0512
 3739SOL    HW122676   3.199   1.238  12.289  0.1525  0.7767  0.2271
 3739SOL    HW222677   3.245   1.173  12.413 -1.5845 -0.1441  2.3952
 3740SOL     OW22678   2.301   1.966   8.634 -0.5345  0.6493  0.5203
 3740SOL    HW122679   2.235   2.009   8.579 -1.1505 -1.7026 -0.5861
 3740SOL    HW222680   2.312   1.884   8.587  2.1985  0.1605  2.0159
 3741SOL     OW22681   1.457   2.679   4.022 -0.2269 -0.5934 -0.2159
 3741SOL    HW122682   1.550   2.703   4.019 -0.4671  0.7057  2.2275
 3741SOL    HW222683   1.462   2.615   4.093 -0.1984 -0.5430 -0.1720
 3742SOL     OW22684   4.193   2.349   8.726 -0.1461 -0.4946 -0.1767
 3742SOL    HW122685   4.130   2.351   8.798  0.6118 -0.5497  0.4929
 3742SOL    HW222686   4.150   2.331   8.643  0.8108  2.2650 -1.2628
 3743SOL     OW22687   2.260   0.365   5.260 -0.7031  0.4584 -0.6938
 3743SOL    HW122688   2.195   0.412   5.208  0.0212  1.6145 -0.5639
 3743SOL    HW222689   2.203   0.338   5.332  1.2132 -0.8691  0.3376
 3744SOL     OW22690   1.034   3.677   4.363  0.3524  0.5409  0.4936
 3744SOL    HW122691   1.025   3.758   4.314  0.8417  0.6109  0.5158
 3744SOL    HW222692   1.130   3.670   4.364  0.2550 -0.6741  1.7043
 3745SOL     OW22693   1.388   1.203   7.363 -0.4137  0.0133  0.6271
 3745SOL    HW122694   1.375   1.188   7.269 -0.8498  2.0681  0.3405
 3745SOL    HW222695   1.361   1.123   7.407 -0.1138 -1.0979 -1.2088
 3746SOL     OW22696   2.604   1.930   5.072 -0.0989  0.0467 -0.1001
 3746SOL    HW122697   2.655   2.007   5.049 -3.0034  1.9106 -0.3440
 3746SOL    HW222698   2.569   1.915   4.984 -0.9472  0.8144  0.1050
 3747SOL     OW22699   4.231   3.885  11.921  0.4098 -0.1410  0.0773
 3747SOL    HW122700   4.216   3.813  11.981 -1.6512  0.8517  0.7715
 3747SOL    HW222701   4.142   3.920  11.915 -0.3561 -1.6832  2.5304
 3748SOL     OW22702   4.218   1.260  13.909 -0.1244  0.4336  0.0030
 3748SOL    HW122703   4.173   1.342  13.932 -2.2396 -0.8581  0.4792
 3748SOL    HW222704   4.292   1.280  13.966  0.2191 -0.0442 -0.2783
 3749SOL     OW22705   2.554   0.539   9.735  0.3865  0.0546 -0.0930
 3749SOL    HW122706   2.488   0.561   9.669  1.1243  0.4368 -0.7084
 3749SOL    HW222707   2.497   0.501   9.801  3.4806 -0.9226  2.0260
 3750SOL     OW22708   4.140   2.589   0.385 -0.0975 -0.5294 -0.0069
 3750SOL    HW122709   4.087   2.516   0.353  0.9179 -1.3182  0.1300
 3750SOL    HW222710   4.081   2.664   0.380 -0.9588 -1.1774  0.3895
 3751SOL     OW22711   0.654   2.724   6.103 -0.1585 -0.1582  0.2817
 3751SOL    HW122712   0.702   2.800   6.135  0.3373 -0.4480  0.2312
 3751SOL    HW222713   0.725   2.660   6.097  0.2090  0.0925  1.9229
 3752SOL     OW22714   3.184   2.095   2.270 -0.1662  0.5926 -0.0812
 3752SOL    HW122715   3.211   2.031   2.205 -1.4660  0.1671 -0.2085
 3752SOL    HW222716   3.191   2.182   2.230  1.8216  0.5745  0.2623
 3753SOL     OW22717   1.806   3.075   9.325  0.5578  0.0029  0.1656
 3753SOL    HW122718   1.885   3.041   9.369  1.3415 -1.7506 -2.5213
 3753SOL    HW222719   1.762   3.124   9.393 -1.2750  2.2055 -2.6500
 3754SOL     OW22720   1.308   1.541   5.145 -0.6334  0.0299  0.5300
 3754SOL    HW122721   1.264   1.624   5.128  0.2642  0.4201  0.1128
 3754SOL    HW222722   1.391   1.568   5.184 -0.7172 -0.0491  0.7636
 3755SOL     OW22723   2.386   0.180   5.502  0.5079  0.0152  0.1191
 3755SOL    HW122724   2.303   0.227   5.507  1.4136  1.5278  0.8154
 3755SOL    HW222725   2.342   0.096   5.493  0.0828  0.0404  1.9687
 3756SOL     OW22726   2.806   1.411   2.878  0.0868  0.6575 -0.3237
 3756SOL    HW122727   2.855   1.342   2.922  0.0953 -1.4293 -3.5701
 3756SOL    HW222728   2.867   1.484   2.868  1.0633 -0.2543 -0.9667
 3757SOL     OW22729   2.827   1.467   4.236  0.2548 -0.0299  0.0868
 3757SOL    HW122730   2.769   1.474   4.312  0.6677  1.1661  0.2896
 3757SOL    HW222731   2.814   1.377   4.207  2.1812 -1.3189  3.2715
 3758SOL     OW22732   4.021   4.425   9.512 -0.3762 -0.1770 -0.3640
 3758SOL    HW122733   4.049   4.517   9.512  0.2466 -0.3580  1.8994
 3758SOL    HW222734   4.099   4.387   9.552  0.0092  1.0048  0.0231
 3759SOL     OW22735   4.116   1.278   2.731  0.0486 -0.0783  0.0565
 3759SOL    HW122736   4.050   1.326   2.683  2.5134  1.8795 -1.3683
 3759SOL    HW222737   4.071   1.259   2.814  0.3057 -1.2386 -0.0602
 3760SOL     OW22738   2.727   1.986   7.023 -0.0029  0.0153  0.0097
 3760SOL    HW122739   2.692   1.898   7.010 -0.5218 -0.2306  3.1501
 3760SOL    HW222740   2.819   1.971   7.003 -0.0651  0.5736 -0.7046
 3761SOL     OW22741   4.385   2.311   0.413 -0.1705  0.1315  0.4806
 3761SOL    HW122742   4.350   2.249   0.349  1.2183  0.5132 -0.6342
 3761SOL    HW222743   4.400   2.259   0.492 -0.0592 -1.4550 -0.5720
 3762SOL     OW22744   4.185   2.648   1.722  0.3960  0.5318 -0.1786
 3762SOL    HW122745   4.091   2.648   1.704  0.4458  1.3043 -0.4552
 3762SOL    HW222746   4.195   2.599   1.804  0.4209  1.4429  0.3685
 3763SOL     OW22747   0.071   0.406   3.050  0.0431 -0.5675 -0.4103
 3763SOL    HW122748   0.144   0.464   3.028  0.8901 -1.7059 -0.6104
 3763SOL    HW222749   0.007   0.441   2.987 -0.6655  0.2959  0.7829
 3764SOL     OW22750   1.674   3.404   9.742 -0.4329 -0.3397 -0.1313
 3764SOL    HW122751   1.615   3.478   9.758  0.9363  0.6694  0.3004
 3764SOL    HW222752   1.613   3.331   9.751 -0.1589 -0.6153 -0.5344
 3765SOL     OW22753   4.076   4.556   7.607 -0.4012  0.8524  0.0289
 3765SOL    HW122754   4.088   4.529   7.516 -0.0210  2.0030 -0.2722
 3765SOL    HW222755   4.131   4.635   7.610 -0.8065  1.0750  1.4736
 3766SOL     OW22756   1.546   4.097   7.596 -0.2730 -0.1423 -0.0373
 3766SOL    HW122757   1.484   4.045   7.648  0.0005 -0.6215 -0.1951
 3766SOL    HW222758   1.499   4.180   7.596 -1.0143 -0.5546  0.4104
 3767SOL     OW22759   3.629   2.564   8.483  0.2275 -0.5436 -0.1249
 3767SOL    HW122760   3.685   2.640   8.468 -1.5702  1.1515  1.8810
 3767SOL    HW222761   3.672   2.501   8.425  0.0264 -0.4945 -0.3273
 3768SOL     OW22762   3.436   1.369   5.522  0.0016  0.0577  0.1702
 3768SOL    HW122763   3.433   1.433   5.594  0.7342  0.0986  0.1678
 3768SOL    HW222764   3.512   1.321   5.553  0.8556  1.3093  0.0358
 3769SOL     OW22765   1.515   0.776   7.562 -0.5189  0.3626 -0.4727
 3769SOL    HW122766   1.588   0.833   7.584  0.4651 -0.3254 -1.9875
 3769SOL    HW222767   1.471   0.769   7.647 -2.8736  0.3427 -1.6721
 3770SOL     OW22768   4.461   3.440   1.854  0.2086  0.6915 -0.5530
 3770SOL    HW122769   4.547   3.412   1.823  0.1538 -0.9542  0.7678
 3770SOL    HW222770   4.486   3.526   1.886 -0.4022  0.4243  0.6232
 3771SOL     OW22771   0.361   2.425   4.878  0.2857 -0.1215 -0.0510
 3771SOL    HW122772   0.389   2.338   4.906  0.0144  0.0460  0.7500
 3771SOL    HW222773   0.442   2.468   4.904  0.7943 -1.3939  0.4612
 3772SOL     OW22774   2.113   3.750   7.863  0.3034  0.0375  0.5282
 3772SOL    HW122775   2.021   3.770   7.882  0.0288 -0.1552 -0.5715
 3772SOL    HW222776   2.120   3.658   7.890  1.4122  0.3960  1.4428
 3773SOL     OW22777   0.348   3.669   3.864 -0.0490  0.0699  0.1317
 3773SOL    HW122778   0.399   3.648   3.942  2.3385  0.5553 -1.3097
 3773SOL    HW222779   0.403   3.716   3.801  0.8684  0.8524  1.5278
 3774SOL     OW22780   0.042   1.132   9.161 -0.4051  0.0602 -0.3804
 3774SOL    HW122781   0.068   1.222   9.143  0.8323 -0.1513  0.3454
 3774SOL    HW222782   0.126   1.096   9.188 -1.1390 -2.2946 -1.2616
 3775SOL     OW22783   1.388   3.597  15.066  0.2763 -0.7782 -0.5422
 3775SOL    HW122784   1.305   3.630  15.032  1.0641  1.6680 -0.0746
 3775SOL    HW222785   1.361   3.505  15.071  0.7470 -0.7451  2.4693
 3776SOL     OW22786   4.090   2.454  12.013 -0.3408  0.3508  0.7502
 3776SOL    HW122787   4.087   2.403  11.932  2.9772 -1.5819  1.8513
 3776SOL    HW222788   4.138   2.527  11.975  1.0085 -0.3820  1.0508
 3777SOL     OW22789   1.077   3.581   7.267  0.6934 -0.4651 -0.2956
 3777SOL    HW122790   1.069   3.486   7.273  0.6214 -0.2908  2.4641
 3777SOL    HW222791   1.130   3.604   7.344 -0.4441 -0.7857  0.5870
 3778SOL     OW22792   4.039   2.368  15.489  0.9434  0.2896  0.8432
 3778SOL    HW122793   3.980   2.403  15.422  0.5058 -1.0124  0.5446
 3778SOL    HW222794   4.100   2.319  15.434  0.5292  0.3687  0.3143
 3779SOL     OW22795   1.260   2.952  10.350 -0.4658 -0.6797  0.4169
 3779SOL    HW122796   1.261   2.976  10.442 -1.3797 -1.3738  0.6089
 3779SOL    HW222797   1.216   2.869  10.369  1.8805 -2.2651 -1.0560
 3780SOL     OW22798   0.582   3.844  14.913  0.8375  0.0544  0.4071
 3780SOL    HW122799   0.562   3.798  14.995  0.2940 -0.9970 -0.3191
 3780SOL    HW222800   0.565   3.933  14.945 -2.9134 -0.2916 -0.5176
 3781SOL     OW22801   1.921   2.976   7.901 -0.1879  0.0098  0.0450
 3781SOL    HW122802   1.827   2.984   7.917 -0.3524 -0.4789 -0.6754
 3781SOL    HW222803   1.931   2.901   7.843  1.8580  2.1346 -2.3465
 3782SOL     OW22804   4.569   2.015   8.447  0.2684 -0.5272  0.0938
 3782SOL    HW122805   4.591   1.963   8.524  0.8504 -0.4733 -0.0397
 3782SOL    HW222806   4.606   2.102   8.461 -1.7134  0.3288  0.1176
 3783SOL     OW22807   4.262   3.095   8.369 -0.1351 -0.3577  0.8648
 3783SOL    HW122808   4.340   3.061   8.412  1.0365  0.1219 -0.8666
 3783SOL    HW222809   4.288   3.182   8.339  1.2309 -1.6470 -1.7152
 3784SOL     OW22810   0.263   2.150   5.392 -0.1206  0.0684  0.2246
 3784SOL    HW122811   0.309   2.203   5.457  1.3392 -0.2443 -0.5526
 3784SOL    HW222812   0.232   2.217   5.331 -1.1935 -1.6033 -1.0647
 3785SOL     OW22813   1.212   2.608   4.552  0.4414  0.1606  0.7533
 3785SOL    HW122814   1.294   2.650   4.578  1.0518 -0.4843 -0.1345
 3785SOL    HW222815   1.192   2.553   4.628 -1.3581 -0.6448 -0.2994
 3786SOL     OW22816   3.964   2.995   6.254 -0.1078  0.1830 -0.0717
 3786SOL    HW122817   4.044   2.957   6.292 -0.5087 -0.2790  0.3106
 3786SOL    HW222818   3.931   3.029   6.337 -1.6934 -0.3779 -0.4864
 3787SOL     OW22819   1.896   0.443   7.879  0.3711  0.3774 -0.1627
 3787SOL    HW122820   1.868   0.534   7.868 -0.5543  0.0137 -0.8682
 3787SOL    HW222821   1.836   0.397   7.820 -0.7006 -0.3764  1.5185
 3788SOL     OW22822   1.677   2.723   9.891  0.7473 -0.4968 -0.1750
 3788SOL    HW122823   1.583   2.739   9.901  0.6409 -0.8508 -0.5782
 3788SOL    HW222824   1.699   2.633   9.913 -0.5123 -0.3495  1.6541
 3789SOL     OW22825   0.221   4.028   8.129  0.1457 -0.2640 -0.1679
 3789SOL    HW122826   0.204   4.022   8.223  1.4003  0.2664  0.0776
 3789SOL    HW222827   0.158   3.962   8.099 -0.7212 -0.4604  2.1235
 3790SOL     OW22828   4.548   1.261   3.425 -0.5078  0.3068  0.9961
 3790SOL    HW122829   4.639   1.251   3.452  0.2985 -2.3875 -2.8222
 3790SOL    HW222830   4.531   1.169   3.406  1.0655 -0.1426  1.7828
 3791SOL     OW22831   1.455   4.171   0.593  0.0056  0.5196 -0.3249
 3791SOL    HW122832   1.473   4.085   0.554  2.0114 -0.5313  2.8754
 3791SOL    HW222833   1.395   4.218   0.535 -0.6671  0.7973  0.5859
 3792SOL     OW22834   0.011   1.150  10.497 -0.4740 -0.6601 -0.0699
 3792SOL    HW122835   0.024   1.244  10.505 -0.1267 -0.6949 -0.2463
 3792SOL    HW222836   4.653   1.146  10.452  0.4951  1.9018 -2.0982
 3793SOL     OW22837   4.415   4.017   7.069 -0.0276 -0.1003  0.0970
 3793SOL    HW122838   4.351   3.955   7.035 -0.6623  0.2006  0.7430
 3793SOL    HW222839   4.489   3.969   7.034 -0.3520 -0.1786 -0.4714
 3794SOL     OW22840   2.950   3.813   3.299 -0.1637 -0.4750 -0.1638
 3794SOL    HW122841   2.897   3.819   3.379  0.1976 -0.3395  0.0653
 3794SOL    HW222842   3.003   3.735   3.319 -0.6740 -1.2547 -1.8666
 3795SOL     OW22843   0.127   0.626   5.810  0.5339 -0.6940  0.1376
 3795SOL    HW122844   0.158   0.712   5.781 -1.9089 -0.4816 -1.8592
 3795SOL    HW222845   0.207   0.595   5.853  1.4338 -0.4849 -1.4028
 3796SOL     OW22846   4.606   4.194  16.008  0.3713  0.0340 -0.0062
 3796SOL    HW122847   4.586   4.178  15.916  0.7597 -2.2487  0.3088
 3796SOL    HW222848   4.701   4.203  16.004  0.2878  0.4482 -1.2180
 3797SOL     OW22849   2.550   4.271  16.851  0.4596  0.5832  0.2789
 3797SOL    HW122850   2.548   4.235  16.763 -1.6648 -2.0459  1.3981
 3797SOL    HW222851   2.644   4.288  16.862  0.3941  0.9669  0.2541
 3798SOL     OW22852   3.885   2.390   1.522 -0.1076 -0.6803 -0.4706
 3798SOL    HW122853   3.857   2.414   1.434 -1.4748 -0.1576  0.1133
 3798SOL    HW222854   3.865   2.296   1.527  0.4195 -0.6713  1.7367
 3799SOL     OW22855   1.921   4.075   2.871  0.3130 -0.9325  0.2884
 3799SOL    HW122856   1.953   4.034   2.791  0.6402  0.6663 -0.4137
 3799SOL    HW222857   1.990   4.058   2.935 -1.0191 -2.6948  1.2630
 3800SOL     OW22858   2.558   1.342  13.927 -0.0048 -0.3331  0.2368
 3800SOL    HW122859   2.567   1.313  13.836 -0.4576 -0.3758  0.2048
 3800SOL    HW222860   2.613   1.419  13.942  0.0539 -0.0795 -1.2648
 3801SOL     OW22861   0.819   1.762   5.121 -0.4477 -0.1361  0.2064
 3801SOL    HW122862   0.794   1.690   5.179  1.4938 -0.5928  0.4793
 3801SOL    HW222863   0.734   1.776   5.079  0.0249  4.2254  0.6859
 3802SOL     OW22864   1.752   0.069   6.585 -0.1486  0.1673  0.1313
 3802SOL    HW122865   1.752   4.704   6.556 -0.9127  0.8480 -2.0154
 3802SOL    HW222866   1.691   0.106   6.520 -1.3577 -0.8506  0.6767
 3803SOL     OW22867   2.984   1.916   6.421 -0.3544  0.9274  0.4513
 3803SOL    HW122868   2.916   1.910   6.354  1.8256  1.6485 -1.8179
 3803SOL    HW222869   2.955   1.986   6.480 -0.6653 -0.0618  1.4798
 3804SOL     OW22870   4.664   0.442  11.180  0.6168 -0.1499 -0.0484
 3804SOL    HW122871   4.701   0.386  11.248  0.9656 -0.8282 -0.8031
 3804SOL    HW222872   4.619   0.380  11.123 -0.5845  0.5370  0.1430
 3805SOL     OW22873   2.720   0.814   6.267  1.0356 -0.3288 -0.0083
 3805SOL    HW122874   2.673   0.879   6.320  1.8659 -0.2812  0.6709
 3805SOL    HW222875   2.803   0.863   6.262 -0.1223  1.5816 -0.8338
 3806SOL     OW22876   2.383   4.420   5.003 -0.3411 -0.2249 -0.0882
 3806SOL    HW122877   2.450   4.449   4.942 -0.9048 -0.5016 -0.8401
 3806SOL    HW222878   2.306   4.471   4.977 -0.2802  0.2793  0.6997
 3807SOL     OW22879   1.613   4.569   6.920  0.3122  0.0584 -0.0846
 3807SOL    HW122880   1.519   4.553   6.911  0.6487 -0.3343 -2.7410
 3807SOL    HW222881   1.616   4.575   7.016  2.9769 -0.7349 -0.1276
 3808SOL     OW22882   0.894   3.175   8.731 -0.1795  0.5544  0.3219
 3808SOL    HW122883   0.946   3.114   8.679  0.9957 -0.0832  2.2914
 3808SOL    HW222884   0.805   3.159   8.700  0.6878 -2.0304 -0.7985
 3809SOL     OW22885   4.413   4.366  12.870  0.1680  0.0637 -0.5392
 3809SOL    HW122886   4.332   4.349  12.822 -1.0678  2.6708  0.5857
 3809SOL    HW222887   4.465   4.294  12.834  1.9906  0.7423  0.7014
 3810SOL     OW22888   3.074   0.669  15.047 -0.3350  0.0739  0.2639
 3810SOL    HW122889   3.027   0.729  15.105  0.0416  1.8931 -1.2958
 3810SOL    HW222890   3.049   0.586  15.088 -0.2920  0.7007  1.5391
 3811SOL     OW22891   1.537   2.384  16.588 -0.0566 -0.7652  0.0038
 3811SOL    HW122892   1.580   2.304  16.557  1.4020 -0.6236  1.6527
 3811SOL    HW222893   1.453   2.366  16.546  1.5345 -1.4869 -2.8963
 3812SOL     OW22894   4.526   4.639   9.814  0.0965 -0.5549 -0.2091
 3812SOL    HW122895   4.620   4.625   9.805  0.4162  1.5928 -0.2482
 3812SOL    HW222896   4.508   4.607   9.902 -2.2165 -0.0003 -0.4612
 3813SOL     OW22897   1.164   3.898   4.616 -0.4705 -0.1955  0.3444
 3813SOL    HW122898   1.258   3.892   4.634 -0.9041 -0.5645  2.4657
 3813SOL    HW222899   1.170   3.978   4.564 -1.4655  0.0662  0.6361
 3814SOL     OW22900   2.371   3.221   3.707 -0.1950 -0.1888  0.2280
 3814SOL    HW122901   2.293   3.231   3.652 -0.2781 -0.7466  0.2365
 3814SOL    HW222902   2.330   3.167   3.775 -2.2316 -2.7745 -3.0246
 3815SOL     OW22903   0.325   3.350   9.859  0.0934  0.0457 -0.5815
 3815SOL    HW122904   0.231   3.335   9.866  0.1509  0.2568  0.6599
 3815SOL    HW222905   0.366   3.268   9.888  0.0761 -0.0020 -0.6932
 3816SOL     OW22906   3.095   0.047   8.134  0.1794 -0.3488  0.2842
 3816SOL    HW122907   3.188   0.025   8.128 -0.6106 -3.2866 -0.7890
 3816SOL    HW222908   3.091   0.121   8.073  0.8498  0.3499  1.0786
 3817SOL     OW22909   0.946   3.696   6.705  0.2063 -0.3562 -0.3056
 3817SOL    HW122910   0.895   3.758   6.757  0.8150  0.5187 -0.7486
 3817SOL    HW222911   0.955   3.748   6.625 -1.8015 -0.5766 -0.6854
 3818SOL     OW22912   1.075   3.578   6.908 -0.0498  0.2028  0.2123
 3818SOL    HW122913   1.042   3.633   6.978 -1.1332  2.0696 -1.7563
 3818SOL    HW222914   1.052   3.625   6.828  1.7355 -1.9592 -1.5960
 3819SOL     OW22915   1.796   4.710   4.745 -0.3804 -0.3894 -0.3396
 3819SOL    HW122916   1.831   0.004   4.658 -1.6634  0.2715 -0.6966
 3819SOL    HW222917   1.763   0.063   4.787  1.3488  0.6999 -1.0086
 3820SOL     OW22918   4.397   0.682   1.929 -0.4378 -0.0534 -0.2900
 3820SOL    HW122919   4.369   0.760   1.882  0.6981  1.0809  0.9156
 3820SOL    HW222920   4.358   0.687   2.016  0.6322 -1.4659  0.2818
 3821SOL     OW22921   3.938   3.664   4.619 -0.2175  0.0519 -0.7940
 3821SOL    HW122922   3.930   3.757   4.641  0.8370 -0.3806  1.4061
 3821SOL    HW222923   3.870   3.657   4.552 -0.5240 -2.3665 -0.2280
 3822SOL     OW22924   3.016   4.327  17.396 -0.0695  0.1036 -0.1527
 3822SOL    HW122925   2.962   4.271  17.453 -0.5171  0.1226 -0.5552
 3822SOL    HW222926   3.003   4.292  17.308 -1.7195  1.3961 -0.4205
 3823SOL     OW22927   3.474   0.904   2.887  0.3949 -0.2415  0.2012
 3823SOL    HW122928   3.443   0.906   2.797 -0.2167 -0.5071  0.4070
 3823SOL    HW222929   3.445   0.989   2.920  0.3472 -0.3774  0.5096
 3824SOL     OW22930   1.085   1.204   5.462  0.1092 -0.3836  0.0030
 3824SOL    HW122931   1.157   1.235   5.406 -1.1371 -0.3866 -1.5826
 3824SOL    HW222932   1.014   1.244   5.411  1.6221 -1.0543 -2.6466
 3825SOL     OW22933   3.024   0.293  13.575  0.2698 -0.1433  0.2762
 3825SOL    HW122934   2.978   0.377  13.583 -2.2062 -1.4294 -0.5609
 3825SOL    HW222935   2.986   0.255  13.654 -1.1804  0.4882 -0.1247
 3826SOL     OW22936   3.819   3.879   8.253  0.1700 -0.1591  0.3290
 3826SOL    HW122937   3.915   3.887   8.252  0.1768 -0.2615  0.0091
 3826SOL    HW222938   3.806   3.903   8.345 -2.0763 -2.4540  0.6024
 3827SOL     OW22939   2.102   1.218   2.398 -0.2172 -0.3592  0.0363
 3827SOL    HW122940   2.187   1.180   2.375 -0.9017 -0.2627 -2.7476
 3827SOL    HW222941   2.112   1.291   2.336 -1.1645  0.2704  0.6279
 3828SOL     OW22942   3.098   4.328   8.944  0.1613 -0.5380 -0.0058
 3828SOL    HW122943   3.068   4.308   9.033 -1.3284 -0.5512 -0.5143
 3828SOL    HW222944   3.193   4.319   8.959  0.4969 -0.0991 -1.8350
 3829SOL     OW22945   2.623   4.540   4.028 -0.1944  0.7592  1.0671
 3829SOL    HW122946   2.711   4.537   4.064  0.5920 -1.0631 -0.9926
 3829SOL    HW222947   2.628   4.626   3.987 -2.0454  0.0674 -0.6071
 3830SOL     OW22948   0.826   0.852   5.320  0.0600  0.2249 -0.5208
 3830SOL    HW122949   0.834   0.798   5.400 -0.5939 -1.1042 -1.3462
 3830SOL    HW222950   0.900   0.912   5.322  0.9469 -0.9101  1.3876
 3831SOL     OW22951   0.475   2.401  11.091 -0.0398 -0.3552 -0.3269
 3831SOL    HW122952   0.492   2.405  10.996  2.7528  0.0912  0.2055
 3831SOL    HW222953   0.507   2.316  11.120  1.0327  0.8185  1.8834
 3832SOL     OW22954   0.089   0.353   2.123 -0.0753 -0.6293  0.0277
 3832SOL    HW122955   0.072   0.395   2.039  0.8863  0.9361  0.6006
 3832SOL    HW222956   0.039   0.273   2.114 -1.0967 -0.2475  2.2747
 3833SOL     OW22957   4.018   3.440   6.540  0.1187  0.8056 -0.0511
 3833SOL    HW122958   4.075   3.365   6.521  0.4584  0.8906  0.6244
 3833SOL    HW222959   4.000   3.470   6.451  0.5290 -0.5434 -0.5899
 3834SOL     OW22960   1.572   3.786  16.057  0.0834  0.3489 -0.2948
 3834SOL    HW122961   1.554   3.855  15.993 -1.4537 -0.8492 -1.1731
 3834SOL    HW222962   1.538   3.830  16.135 -2.6811 -1.7471 -0.3138
 3835SOL     OW22963   0.740   2.325  11.806 -0.4074 -0.8017 -0.1372
 3835SOL    HW122964   0.671   2.336  11.872 -1.7655 -1.5058 -1.4530
 3835SOL    HW222965   0.782   2.410  11.812 -1.3954  0.0403 -5.7335
 3836SOL     OW22966   0.378   0.753   3.410  0.0093 -0.5346 -0.3055
 3836SOL    HW122967   0.449   0.810   3.380 -0.4971  1.3119  1.9439
 3836SOL    HW222968   0.351   0.787   3.496 -1.3851 -0.0435 -0.9500
 3837SOL     OW22969   0.611   0.859   6.877  0.3313 -0.2984 -0.2991
 3837SOL    HW122970   0.639   0.769   6.864  0.7377 -0.1201 -0.6474
 3837SOL    HW222971   0.548   0.869   6.806  2.2083 -0.0530 -1.9323
 3838SOL     OW22972   1.894   2.316  15.124 -0.5316  0.2694  0.1031
 3838SOL    HW122973   1.846   2.377  15.179  0.0931 -0.3360  1.3232
 3838SOL    HW222974   1.870   2.348  15.037 -3.7382  0.8970  1.2300
 3839SOL     OW22975   4.063   3.571   8.954 -0.5937  0.3369 -0.6360
 3839SOL    HW122976   3.984   3.624   8.936 -1.2449 -0.2410  0.5178
 3839SOL    HW222977   4.119   3.616   9.017 -0.1465  1.1488 -1.6123
 3840SOL     OW22978   1.072   3.350   0.021 -0.1870  0.6352  0.2294
 3840SOL    HW122979   1.147   3.338   0.079  0.7200  0.5834 -0.9495
 3840SOL    HW222980   1.093   3.286  17.659 -1.2020 -2.0025  2.3758
 3841SOL     OW22981   1.895   2.988  14.156  0.5445  0.3219  0.3335
 3841SOL    HW122982   1.820   3.046  14.139 -1.7208 -3.0613 -1.1708
 3841SOL    HW222983   1.909   2.996  14.250  2.1084 -0.3602  0.1715
 3842SOL     OW22984   4.284   3.935  12.556  0.2990  0.4953  0.0187
 3842SOL    HW122985   4.264   3.907  12.467 -1.2304  0.3565  0.4106
 3842SOL    HW222986   4.377   3.953  12.542  0.6670 -2.2746 -1.0760
 3843SOL     OW22987   1.644   1.467   1.414  0.1636 -0.3581 -0.1495
 3843SOL    HW122988   1.641   1.534   1.346  0.3634 -0.9517 -0.7526
 3843SOL    HW222989   1.702   1.398   1.381 -1.8528 -0.9434 -2.4974
 3844SOL     OW22990   1.647   0.537   6.374  0.1315 -0.5073 -0.4871
 3844SOL    HW122991   1.588   0.589   6.320 -0.4734 -0.1947  0.4720
 3844SOL    HW222992   1.715   0.510   6.312 -0.3550  1.3734 -1.8584
 3845SOL     OW22993   1.442   1.303   1.932 -0.2674  0.5098  0.0092
 3845SOL    HW122994   1.384   1.377   1.912  1.4331  2.2193  1.3953
 3845SOL    HW222995   1.402   1.238   1.875 -0.1591  0.0331  0.4762
 3846SOL     OW22996   0.756   2.864   8.906  0.0061 -0.0242  0.1123
 3846SOL    HW122997   0.804   2.858   8.989  1.0867 -1.0508 -0.5814
 3846SOL    HW222998   0.695   2.792   8.920 -2.2144  1.5940 -1.3407
 3847SOL     OW22999   0.430   3.399  15.785 -0.0338  0.2251  0.4288
 3847SOL    HW123000   0.383   3.354  15.715 -0.1928  0.9236  0.0956
 3847SOL    HW223001   0.514   3.427  15.747 -1.1112  2.6085 -0.1468
 3848SOL     OW23002   3.146   3.769   5.402  0.4337  0.0802  0.2101
 3848SOL    HW123003   3.166   3.678   5.378  1.4419  0.4621 -0.4166
 3848SOL    HW223004   3.051   3.764   5.414  0.2984  0.3940 -0.7472
 3849SOL     OW23005   0.326   2.662   5.055 -0.8130  0.3054  0.6229
 3849SOL    HW123006   0.360   2.736   5.006 -0.0729  0.5280  1.4726
 3849SOL    HW223007   0.338   2.594   4.989 -1.5326 -0.0092  0.8114
 3850SOL     OW23008   3.275   4.201   6.982 -0.3268 -0.6660  0.1745
 3850SOL    HW123009   3.208   4.254   7.026 -0.8283 -0.7637 -0.4874
 3850SOL    HW223010   3.239   4.113   6.990  0.9256 -1.2644 -0.7565
 3851SOL     OW23011   0.134   3.035   8.522 -0.4432 -0.6049 -0.3699
 3851SOL    HW123012   0.134   3.102   8.590  1.4024 -1.0170  0.0435
 3851SOL    HW223013   0.047   3.057   8.487 -0.5581 -0.6359 -0.0990
 3852SOL     OW23014   1.642   0.207   3.811  0.3516  0.3261  0.2300
 3852SOL    HW123015   1.603   0.288   3.843 -3.1794 -1.7347  1.1579
 3852SOL    HW223016   1.588   0.144   3.860  0.9491 -1.0721 -0.9071
 3853SOL     OW23017   0.444   0.094  11.279  0.5270 -0.6237  0.4658
 3853SOL    HW123018   0.377   0.133  11.335  0.9884 -0.4414  0.8955
 3853SOL    HW223019   0.520   0.091  11.336  0.9187  0.0701 -0.0145
 3854SOL     OW23020   1.923   1.826  14.958 -0.2325 -0.5040  0.6013
 3854SOL    HW123021   1.832   1.795  14.955  0.2601 -1.9356  0.5202
 3854SOL    HW223022   1.980   1.750  14.974  1.7258  1.1028  1.2007
 3855SOL     OW23023   2.012   2.148   6.450  0.4287 -0.4964 -0.8506
 3855SOL    HW123024   2.105   2.161   6.471  0.6670 -1.7866 -1.0951
 3855SOL    HW223025   1.984   2.092   6.522 -2.3468  1.4248 -0.4176
 3856SOL     OW23026   1.467   0.053   3.975  0.4824 -0.9795 -0.2256
 3856SOL    HW123027   1.419   0.046   4.058  1.5893 -2.1711  0.3030
 3856SOL    HW223028   1.530   4.710   3.993  0.0508 -1.2282  0.3594
 3857SOL     OW23029   1.278   3.199   0.935  0.0796 -0.4218  1.1051
 3857SOL    HW123030   1.193   3.223   0.971 -0.3279 -0.4019  0.1284
 3857SOL    HW223031   1.274   3.104   0.924  0.3673 -0.2530 -0.3784
 3858SOL     OW23032   3.750   0.733   9.299  0.0642 -0.2905  0.1444
 3858SOL    HW123033   3.799   0.809   9.330  1.4950 -0.3396 -1.9840
 3858SOL    HW223034   3.822   0.674   9.280  1.2203  1.8923 -2.2654
 3859SOL     OW23035   3.999   2.296   9.376  0.0013 -0.3372 -0.0745
 3859SOL    HW123036   3.904   2.294   9.386 -0.1818  1.8005 -1.2343
 3859SOL    HW223037   4.011   2.253   9.291 -1.2299 -1.3460  0.2476
 3860SOL     OW23038   4.698   3.310   1.797  0.2993 -0.3681  0.6897
 3860SOL    HW123039   0.008   3.232   1.840 -0.3593 -0.3570  1.2625
 3860SOL    HW223040   0.049   3.365   1.812 -1.2379  2.3649 -1.4947
 3861SOL     OW23041   3.533   3.884  11.166 -0.6336 -0.3261  0.2192
 3861SOL    HW123042   3.442   3.857  11.158  0.0161 -2.5749  0.4387
 3861SOL    HW223043   3.527   3.980  11.166 -0.0441 -0.2813 -1.1509
 3862SOL     OW23044   2.422   4.237  16.352 -0.3439 -0.6283  0.2353
 3862SOL    HW123045   2.500   4.182  16.347  0.5125  0.5851  0.2967
 3862SOL    HW223046   2.458   4.309  16.404  1.1834  0.3508 -2.1397
 3863SOL     OW23047   1.060   0.482   7.735 -0.1365 -0.0142  0.7014
 3863SOL    HW123048   1.063   0.568   7.694 -1.3079 -0.9484 -1.3434
 3863SOL    HW223049   1.151   0.455   7.749 -0.0800 -0.4918 -0.5567
 3864SOL     OW23050   2.464   4.283   0.715 -0.1768 -0.5237  0.2284
 3864SOL    HW123051   2.390   4.343   0.723 -1.2460 -1.6171 -1.3820
 3864SOL    HW223052   2.477   4.282   0.620  0.8052  0.0459  0.3546
 3865SOL     OW23053   4.558   0.184   8.979 -0.2667 -0.0555 -0.0288
 3865SOL    HW123054   4.566   0.095   9.016 -0.1184  0.3824  1.0032
 3865SOL    HW223055   4.522   0.227   9.057 -1.5300  0.8495 -1.1195
 3866SOL     OW23056   1.994   2.425   4.227 -0.6364 -0.0026 -0.5860
 3866SOL    HW123057   1.936   2.413   4.151 -0.2849  3.8340 -1.4323
 3866SOL    HW223058   1.988   2.338   4.267 -1.5286  0.5278  0.4184
 3867SOL     OW23059   2.319   2.984   2.232 -0.2144  0.3602 -0.0141
 3867SOL    HW123060   2.387   3.018   2.290  0.5743 -1.0728 -0.0882
 3867SOL    HW223061   2.281   3.059   2.186 -0.8286 -0.1990 -0.4115
 3868SOL     OW23062   4.010   4.534  10.540  0.5129  0.4255  0.3567
 3868SOL    HW123063   4.070   4.477  10.492 -0.6944 -1.8962  1.6180
 3868SOL    HW223064   4.040   4.516  10.629  1.9431  1.9987  0.1997
 3869SOL     OW23065   1.930   2.330   7.689  0.0650 -0.1056  0.2488
 3869SOL    HW123066   1.909   2.352   7.599 -0.1432 -1.9794 -0.1601
 3869SOL    HW223067   2.008   2.384   7.693  0.2123 -0.2508 -0.9149
 3870SOL     OW23068   4.464   2.766   3.332 -0.4014  0.2976  0.1114
 3870SOL    HW123069   4.483   2.682   3.289 -1.6457 -0.8085  1.7174
 3870SOL    HW223070   4.393   2.738   3.390 -1.7951  2.0096 -0.7603
 3871SOL     OW23071   2.908   2.175   2.089 -0.2459 -0.1835  0.7123
 3871SOL    HW123072   2.851   2.117   2.039 -0.2817  0.0885  0.4402
 3871SOL    HW223073   2.952   2.226   2.022 -1.1053 -0.9747 -0.4573
 3872SOL     OW23074   0.606   2.332   9.605 -0.1484 -0.3716 -0.7537
 3872SOL    HW123075   0.581   2.356   9.694 -0.0603 -1.8474 -0.3183
 3872SOL    HW223076   0.524   2.293   9.575 -1.5513  1.7275  0.3826
 3873SOL     OW23077   3.284   0.621   9.130 -0.1696  0.3599 -0.1419
 3873SOL    HW123078   3.292   0.593   9.039  1.6410  1.6481 -0.4004
 3873SOL    HW223079   3.357   0.683   9.129  0.4198 -0.2965  2.3786
 3874SOL     OW23080   3.395   3.030   7.438  0.2618  0.1547 -0.1401
 3874SOL    HW123081   3.489   3.021   7.423  0.3984  2.4937 -0.6077
 3874SOL    HW223082   3.358   3.057   7.354  0.7703  0.6917 -0.1933
 3875SOL     OW23083   3.696   2.793   5.499 -0.2019 -0.5254  0.0240
 3875SOL    HW123084   3.730   2.742   5.572 -1.8272  1.0840  1.8776
 3875SOL    HW223085   3.602   2.800   5.516 -0.7682 -0.1221 -3.2519
 3876SOL     OW23086   3.767   3.409   2.812  0.4500 -0.2793 -0.3623
 3876SOL    HW123087   3.849   3.434   2.768  0.5790  1.8034  1.0630
 3876SOL    HW223088   3.705   3.373   2.748  0.3668 -3.7102  1.6704
 3877SOL     OW23089   0.974   3.537   9.697 -0.2284  0.3089 -0.0351
 3877SOL    HW123090   0.993   3.547   9.604  1.8330  1.6809  0.5341
 3877SOL    HW223091   0.921   3.458   9.687 -0.0913  0.2889 -0.6073
 3878SOL     OW23092   3.183   2.927   4.947 -0.0866 -1.0164 -0.0044
 3878SOL    HW123093   3.202   2.888   4.862 -0.0840 -0.1465 -0.3994
 3878SOL    HW223094   3.087   2.922   4.951 -0.2821  1.8965 -1.1516
 3879SOL     OW23095   0.472   0.205   8.535 -0.5099  0.0660  0.2751
 3879SOL    HW123096   0.545   0.246   8.488 -0.8917  1.1844  0.6560
 3879SOL    HW223097   0.434   0.163   8.458  0.3362 -1.3695  0.6283
 3880SOL     OW23098   3.816   2.545   3.846  0.0341  0.3784 -0.1006
 3880SOL    HW123099   3.729   2.509   3.828  1.9324 -3.4916 -1.6498
 3880SOL    HW223100   3.801   2.612   3.912 -0.6924  0.1699 -0.0539
 3881SOL     OW23101   3.938   4.027   6.474 -0.0791  0.2139 -0.1276
 3881SOL    HW123102   4.033   4.033   6.482 -0.0743 -0.0391 -0.0278
 3881SOL    HW223103   3.922   3.937   6.448 -0.9839  0.5304 -0.6924
 3882SOL     OW23104   0.747   2.891  14.521 -0.1420 -0.5210  0.7251
 3882SOL    HW123105   0.722   2.975  14.558 -0.5744 -1.2240  2.0310
 3882SOL    HW223106   0.715   2.901  14.431  2.2108  1.4932  0.1128
 3883SOL     OW23107   0.108   2.593   7.489  0.0461 -0.2147 -0.4751
 3883SOL    HW123108   0.156   2.652   7.547 -0.1767  1.1916 -1.7185
 3883SOL    HW223109   0.037   2.649   7.457  0.4341  0.8867  0.5814
 3884SOL     OW23110   4.403   3.739   3.522 -0.0511 -0.5056  0.2070
 3884SOL    HW123111   4.481   3.716   3.473 -0.2193 -1.4052  0.3488
 3884SOL    HW223112   4.398   3.832   3.502  0.3454 -0.5265  0.0098
 3885SOL     OW23113   4.129   2.562   9.425 -0.3588 -0.4597 -0.1089
 3885SOL    HW123114   4.224   2.549   9.431 -0.1447  0.7874 -0.7659
 3885SOL    HW223115   4.097   2.473   9.439 -1.3166 -0.2217 -0.8572
 3886SOL     OW23116   4.537   1.102   2.246  0.0167  0.2337 -0.0357
 3886SOL    HW123117   4.445   1.121   2.229  0.5792  1.5997 -1.6153
 3886SOL    HW223118   4.538   1.037   2.316 -1.4107  0.3067  0.0528
 3887SOL     OW23119   4.290   2.897   0.760  0.4219  0.6403 -0.2584
 3887SOL    HW123120   4.338   2.858   0.833 -1.7221  0.4453  1.0225
 3887SOL    HW223121   4.221   2.945   0.806 -0.9316 -2.1609  0.6680
 3888SOL     OW23122   1.928   1.377  13.139 -0.4574  0.5109 -0.3709
 3888SOL    HW123123   1.867   1.435  13.185 -1.0858 -1.0845  0.8296
 3888SOL    HW223124   1.966   1.443  13.082  3.9831 -0.5966  1.2962
 3889SOL     OW23125   4.012   4.420  15.603 -0.7791 -0.5179  0.1214
 3889SOL    HW123126   4.037   4.334  15.571  0.3996  0.7957 -2.4936
 3889SOL    HW223127   3.926   4.431  15.563 -1.2048  1.6069  1.5984
 3890SOL     OW23128   1.091   0.639   5.300  0.3000 -0.5564  0.2051
 3890SOL    HW123129   1.045   0.690   5.232 -0.4377 -0.5838  0.6841
 3890SOL    HW223130   1.126   0.562   5.256 -0.6091  0.8387 -2.9865
 3891SOL     OW23131   4.623   3.809   8.262 -0.0203  0.3957  0.1539
 3891SOL    HW123132   4.610   3.780   8.172 -0.0368  3.3152 -0.7724
 3891SOL    HW223133   4.538   3.842   8.290 -1.3996 -1.4474 -1.8639
 3892SOL     OW23134   0.880   0.301   2.131 -0.0843  0.0198 -0.1321
 3892SOL    HW123135   0.933   0.286   2.053  0.8147 -0.9997  0.6863
 3892SOL    HW223136   0.951   0.307   2.194  2.3348 -2.3624 -2.6377
 3893SOL     OW23137   0.357   0.340   3.347 -0.2885 -0.2164  0.7016
 3893SOL    HW123138   0.273   0.301   3.324  0.2079 -1.3149  0.7802
 3893SOL    HW223139   0.320   0.428   3.341  0.7219  0.2752  1.7200
 3894SOL     OW23140   0.853   4.408   9.377 -0.0150 -0.0508  0.3425
 3894SOL    HW123141   0.799   4.335   9.408  0.1135 -1.8607 -3.6048
 3894SOL    HW223142   0.793   4.481   9.359 -0.5090  0.1229  2.8072
 3895SOL     OW23143   4.655   4.297   3.963  0.1513  0.8688 -0.1618
 3895SOL    HW123144   4.667   4.215   3.916 -0.8392  1.6991 -1.8249
 3895SOL    HW223145   4.563   4.316   3.945  0.6064  3.5714  0.3362
 3896SOL     OW23146   0.997   1.143  15.520  0.0073 -0.3374 -0.6942
 3896SOL    HW123147   0.906   1.170  15.530 -0.2972 -1.7775  0.4498
 3896SOL    HW223148   1.020   1.111  15.607 -0.5859 -1.8281 -1.0875
 3897SOL     OW23149   3.865   1.262   0.990 -0.5205 -0.1254 -0.4587
 3897SOL    HW123150   3.921   1.207   1.046 -1.0477 -1.7601 -1.5449
 3897SOL    HW223151   3.782   1.216   0.999 -1.3211  1.6561  1.1291
 3898SOL     OW23152   3.811   4.086  15.922  0.9978  0.3082  0.2071
 3898SOL    HW123153   3.845   4.173  15.904  0.6060  0.9091  2.3123
 3898SOL    HW223154   3.862   4.034  15.860  2.2986 -0.0011  1.5203
 3899SOL     OW23155   2.262   3.521   8.168 -0.3618  0.2502  0.6205
 3899SOL    HW123156   2.349   3.489   8.192 -0.0556  0.2060 -0.5193
 3899SOL    HW223157   2.247   3.568   8.250  2.2886  1.6036  0.3482
 3900SOL     OW23158   4.060   2.476   4.934  0.4181  0.0291  0.4640
 3900SOL    HW123159   4.139   2.516   4.970  0.5486  0.8315 -0.7294
 3900SOL    HW223160   4.004   2.547   4.905 -2.8321 -2.8563 -0.2871
 3901SOL     OW23161   1.738   2.025   4.380 -0.3782  0.1916 -0.3210
 3901SOL    HW123162   1.660   2.046   4.432 -1.0093 -1.9201 -0.4426
 3901SOL    HW223163   1.774   1.948   4.423  1.7713  1.2816 -0.1905
 3902SOL     OW23164   1.614   1.058   2.482 -0.7364  0.3620 -0.5303
 3902SOL    HW123165   1.650   1.105   2.558  0.7196 -0.4990 -0.6974
 3902SOL    HW223166   1.661   1.102   2.411 -0.7230  0.5531 -0.4041
 3903SOL     OW23167   2.512   2.424  11.818 -0.1593 -0.1525  0.0577
 3903SOL    HW123168   2.537   2.462  11.734 -1.7208 -0.4517 -0.5404
 3903SOL    HW223169   2.537   2.331  11.810  1.6218  0.3756 -0.5742
 3904SOL     OW23170   3.394   2.086   8.782 -0.2080 -0.0211  0.1970
 3904SOL    HW123171   3.383   2.009   8.726  0.8114  0.5271 -0.7378
 3904SOL    HW223172   3.350   2.047   8.858  2.8043 -0.4566  1.7196
 3905SOL     OW23173   4.450   1.924  13.008 -0.8055 -0.1491  0.0978
 3905SOL    HW123174   4.443   1.892  13.098 -0.2028 -1.9266 -0.4835
 3905SOL    HW223175   4.381   1.991  13.012 -0.2607  0.3595  1.0957
 3906SOL     OW23176   0.891   2.125   5.584 -0.6714  0.3519  0.0087
 3906SOL    HW123177   0.874   2.215   5.557  2.7118  0.8153 -0.5770
 3906SOL    HW223178   0.980   2.125   5.620 -1.0674 -0.1342  0.9984
 3907SOL     OW23179   1.935   1.781  15.532  0.5722  0.2235  0.0080
 3907SOL    HW123180   1.927   1.687  15.549 -0.2515  0.2225 -0.4080
 3907SOL    HW223181   1.946   1.811  15.622  0.1969 -1.9535  0.7864
 3908SOL     OW23182   1.824   2.905   6.857  0.0899  0.8581 -0.4227
 3908SOL    HW123183   1.868   2.952   6.927  0.8566  0.8160 -0.8703
 3908SOL    HW223184   1.738   2.902   6.898  0.7246 -1.3666  0.7317
 3909SOL     OW23185   4.514   3.652   2.051 -0.2841 -0.0381  0.1591
 3909SOL    HW123186   4.529   3.595   2.126 -1.8701 -2.3208 -1.2568
 3909SOL    HW223187   4.603   3.681   2.030  0.2969 -2.4370 -0.6279
 3910SOL     OW23188   3.632   0.550   2.721 -0.2863 -0.6837 -0.0784
 3910SOL    HW123189   3.681   0.591   2.649  2.3281 -0.8747  1.5937
 3910SOL    HW223190   3.692   0.560   2.794 -1.0504  3.8496 -0.0340
 3911SOL     OW23191   3.064   0.512   0.069  0.0041 -0.4595  0.4353
 3911SOL    HW123192   3.142   0.529   0.016  0.1084  0.6565  0.9563
 3911SOL    HW223193   3.072   0.417   0.069  0.7960 -0.3917 -1.9648
 3912SOL     OW23194   0.127   0.427   1.649  0.3821 -0.0173 -0.6121
 3912SOL    HW123195   0.175   0.418   1.567  0.0127  0.3884 -0.8678
 3912SOL    HW223196   0.174   0.362   1.703  0.2375  3.2362  3.4696
 3913SOL     OW23197   1.671   3.442   2.829 -0.6170  0.1629 -0.5986
 3913SOL    HW123198   1.672   3.449   2.924 -1.5925 -0.1487 -0.5728
 3913SOL    HW223199   1.705   3.526   2.797  1.2310 -1.0620 -1.8555
 3914SOL     OW23200   3.254   3.494   4.742 -0.4812 -0.1435 -0.1835
 3914SOL    HW123201   3.186   3.429   4.759 -1.7116  1.2615  0.2523
 3914SOL    HW223202   3.325   3.444   4.703 -1.4044 -0.1598 -1.8520
 3915SOL     OW23203   3.181   3.875   8.694 -0.1530 -0.3610 -0.0072
 3915SOL    HW123204   3.086   3.865   8.699 -0.1905  0.3678  0.9224
 3915SOL    HW223205   3.195   3.970   8.689  0.7842 -0.4869  0.3140
 3916SOL     OW23206   1.727   0.141  14.838  0.4726 -0.2176  0.1671
 3916SOL    HW123207   1.666   0.109  14.771  1.1463 -0.1008 -0.5032
 3916SOL    HW223208   1.796   0.162  14.776 -0.2917  1.0237 -0.2559
 3917SOL     OW23209   1.238   3.923   9.300  0.0450  0.0056  0.7854
 3917SOL    HW123210   1.239   3.843   9.248  1.9955  0.6110 -0.1115
 3917SOL    HW223211   1.189   3.983   9.245  1.9637  2.9452  2.2887
 3918SOL     OW23212   0.860   2.766   7.120 -0.4143  0.2195 -0.6388
 3918SOL    HW123213   0.817   2.684   7.094 -2.7093  0.6115  1.9412
 3918SOL    HW223214   0.781   2.819   7.110 -0.8055  0.2200  2.4108
 3919SOL     OW23215   1.242   3.329  15.333  0.1952 -0.0555 -1.3229
 3919SOL    HW123216   1.148   3.314  15.345  0.4696 -0.0992  0.7822
 3919SOL    HW223217   1.275   3.313  15.422  0.5063  1.3820 -1.1875
 3920SOL     OW23218   3.828   2.840   9.136 -0.4426  0.1467  0.8962
 3920SOL    HW123219   3.899   2.778   9.156  1.8905  2.8234  0.8832
 3920SOL    HW223220   3.772   2.809   9.208  0.6238 -0.1753  1.6097
 3921SOL     OW23221   1.827   1.031   6.392  0.3493 -0.1413 -0.5502
 3921SOL    HW123222   1.899   0.973   6.418  0.2304  0.0071  0.1076
 3921SOL    HW223223   1.790   0.984   6.318 -0.4271  0.0494 -0.2906
 3922SOL     OW23224   4.410   3.915   6.253  0.1387 -0.2955 -0.2454
 3922SOL    HW123225   4.341   3.981   6.255  0.8652  0.5011 -1.4140
 3922SOL    HW223226   4.360   3.837   6.230 -0.1757 -0.3414  0.5680
 3923SOL     OW23227   1.493   0.918   8.332 -0.3444  0.5346 -0.3307
 3923SOL    HW123228   1.483   0.975   8.256  1.7000  1.7279  0.3165
 3923SOL    HW223229   1.419   0.940   8.389  0.5902  0.4479  0.9133
 3924SOL     OW23230   2.644   0.650   9.187 -0.3421  0.4626  0.1184
 3924SOL    HW123231   2.616   0.657   9.096 -0.0284 -1.2312 -0.1042
 3924SOL    HW223232   2.735   0.679   9.175 -0.3534 -0.2186 -1.5352
 3925SOL     OW23233   1.895   1.694   9.259 -0.5858  0.2019 -0.3282
 3925SOL    HW123234   1.874   1.788   9.263 -1.1928  0.1494 -2.1647
 3925SOL    HW223235   1.951   1.689   9.337 -1.1402 -3.0804 -0.1593
 3926SOL     OW23236   0.449   3.271  11.621 -0.6282  0.1806 -0.0095
 3926SOL    HW123237   0.356   3.255  11.632 -0.1699 -0.4456  2.8894
 3926SOL    HW223238   0.459   3.244  11.530 -2.1017  0.1750 -0.1647
 3927SOL     OW23239   2.041   0.952   6.669  0.1962  0.2567  0.0991
 3927SOL    HW123240   1.994   1.016   6.721 -1.3816  0.0819 -1.1311
 3927SOL    HW223241   1.966   0.898   6.647  1.3593 -1.4576  0.3152
 3928SOL     OW23242   3.711   3.512   4.685 -0.1787  0.3497  0.3262
 3928SOL    HW123243   3.775   3.451   4.648  0.0815 -1.0778  3.0797
 3928SOL    HW223244   3.705   3.584   4.622  0.2026 -0.2979 -0.4423
 3929SOL     OW23245   4.208   0.270   5.697 -0.2792  0.1224 -0.1548
 3929SOL    HW123246   4.206   0.262   5.792  0.9783 -0.7377 -0.2048
 3929SOL    HW223247   4.289   0.320   5.690  1.3486 -1.9678  3.9953
 3930SOL     OW23248   1.554   2.782   5.659 -0.2145 -0.5059  0.1483
 3930SOL    HW123249   1.561   2.719   5.731  0.1067 -1.3663 -0.6424
 3930SOL    HW223250   1.459   2.790   5.647  0.0280  1.3309 -0.5033
 3931SOL     OW23251   1.792   1.660   8.311 -0.1154 -0.5969  0.1452
 3931SOL    HW123252   1.796   1.571   8.277  0.5259  0.7276 -3.2393
 3931SOL    HW223253   1.861   1.662   8.378  1.2294 -0.1980 -1.2518
 3932SOL     OW23254   4.300   1.059  10.983  0.4383 -0.2486  0.6927
 3932SOL    HW123255   4.346   1.140  11.006 -1.0774  0.9108 -0.3742
 3932SOL    HW223256   4.311   1.001  11.059 -1.0588  0.2941  1.3066
 3933SOL     OW23257   3.284   1.128   5.467 -0.4341  0.4834 -0.4811
 3933SOL    HW123258   3.360   1.083   5.503 -0.5573  0.8674  0.2543
 3933SOL    HW223259   3.332   1.206   5.441  1.9413 -0.6311  0.5065
 3934SOL     OW23260   1.536   4.027  14.850 -0.1974 -0.1464  0.1656
 3934SOL    HW123261   1.566   4.058  14.765  0.5694  0.4971  0.6594
 3934SOL    HW223262   1.548   4.108  14.900  2.0020 -1.3463  1.5792
 3935SOL     OW23263   2.655   3.839   3.048  0.4151 -0.6119  0.1383
 3935SOL    HW123264   2.692   3.927   3.037 -1.4382 -0.1145 -2.1005
 3935SOL    HW223265   2.570   3.843   3.004  0.4763 -0.3968  0.0355
 3936SOL     OW23266   3.904   2.434   7.651  0.0972  0.0908  0.2634
 3936SOL    HW123267   3.937   2.449   7.562 -0.7143  0.8440  0.0953
 3936SOL    HW223268   3.966   2.484   7.704 -0.8312 -0.3938  1.8235
 3937SOL     OW23269   1.558   3.444   4.643  0.2310 -0.2505 -0.4118
 3937SOL    HW123270   1.521   3.423   4.728  1.0785  0.9400  0.2502
 3937SOL    HW223271   1.580   3.537   4.655  1.6229 -0.5214 -0.8409
 3938SOL     OW23272   1.328   1.474   5.458  0.2463 -0.0552  0.1321
 3938SOL    HW123273   1.324   1.418   5.536  0.8683 -0.7096 -0.2972
 3938SOL    HW223274   1.276   1.420   5.398 -1.8501  0.7984  1.1976
 3939SOL     OW23275   3.193   2.823   6.817  0.5275 -0.0997  0.0591
 3939SOL    HW123276   3.134   2.837   6.742 -0.6800  2.3873  1.4786
 3939SOL    HW223277   3.277   2.837   6.774  0.3165  0.8840 -0.0305
 3940SOL     OW23278   2.378   1.615   6.915 -0.1372  0.2088 -0.4402
 3940SOL    HW123279   2.363   1.600   7.008  2.0317 -0.7184 -0.2294
 3940SOL    HW223280   2.295   1.594   6.874  0.2002 -1.4166 -0.3000
 3941SOL     OW23281   4.687   0.218   6.853  0.0771 -0.6936  0.3098
 3941SOL    HW123282   4.665   0.274   6.779 -0.3514 -1.4289 -0.1101
 3941SOL    HW223283   4.606   0.170   6.869  0.1590 -1.7911 -2.6154
 3942SOL     OW23284   3.551   1.461   2.708  0.1299 -0.5898 -0.7734
 3942SOL    HW123285   3.471   1.425   2.745  0.8568  1.2836  2.6221
 3942SOL    HW223286   3.606   1.383   2.699 -0.3179 -0.8455 -1.3494
 3943SOL     OW23287   3.274   4.076   1.110  0.0375  0.0030  0.0340
 3943SOL    HW123288   3.213   4.101   1.179  0.4827 -0.0602  0.4492
 3943SOL    HW223289   3.227   4.082   1.027  0.8050  3.3671 -0.1682
 3944SOL     OW23290   4.483   3.703   6.457 -0.6325  0.5456  0.7403
 3944SOL    HW123291   4.484   3.761   6.381 -2.5224  0.5819  0.7453
 3944SOL    HW223292   4.551   3.639   6.436  0.8753  2.3676  0.1037
 3945SOL     OW23293   3.493   2.540   5.118  0.6486 -0.2970 -0.1251
 3945SOL    HW123294   3.419   2.480   5.127 -2.7844  3.5992 -2.2655
 3945SOL    HW223295   3.446   2.618   5.087  1.3949 -0.6410 -2.0881
 3946SOL     OW23296   3.996   0.269  16.920  0.1071 -0.6014 -0.6350
 3946SOL    HW123297   4.006   0.287  16.827  3.4152  0.1910 -0.1168
 3946SOL    HW223298   4.048   0.340  16.957 -0.3347  0.2189 -1.5920
 3947SOL     OW23299   0.698   2.747   4.145  0.3374 -0.5150 -0.5971
 3947SOL    HW123300   0.761   2.687   4.184  0.5463 -0.0227 -0.1734
 3947SOL    HW223301   0.674   2.702   4.065 -2.2276  0.1830 -0.2237
 3948SOL     OW23302   3.316   3.199  13.335  0.2953  0.2676 -0.5962
 3948SOL    HW123303   3.272   3.116  13.352 -0.0185  0.7014  0.7088
 3948SOL    HW223304   3.403   3.166  13.315 -0.4158 -2.3846  0.5995
 3949SOL     OW23305   0.686   0.381   6.436 -0.2958 -0.4503 -0.6578
 3949SOL    HW123306   0.688   0.456   6.375 -1.2399  1.1680  1.3167
 3949SOL    HW223307   0.592   0.382   6.454 -0.2658 -1.3832 -0.4591
 3950SOL     OW23308   0.605   0.060   6.524  0.3803  0.3461 -0.0590
 3950SOL    HW123309   0.537   0.082   6.588  1.5975  0.3541  1.2588
 3950SOL    HW223310   0.566   0.094   6.444 -0.2158 -0.5638 -0.1463
 3951SOL     OW23311   3.184   0.096   8.945  0.5991  0.3915 -0.3941
 3951SOL    HW123312   3.270   0.135   8.964 -0.0435  0.9206  1.4414
 3951SOL    HW223313   3.155   0.159   8.879 -0.6871  0.1888 -0.0131
 3952SOL     OW23314   3.874   4.531   6.316 -0.2575 -0.0337 -0.3052
 3952SOL    HW123315   3.913   4.578   6.242 -1.2516  2.0684  0.4881
 3952SOL    HW223316   3.869   4.596   6.386  1.9113 -0.3956  0.1618
 3953SOL     OW23317   2.347   2.578   6.054  0.0260  0.0333  0.3182
 3953SOL    HW123318   2.347   2.537   5.968  0.1738 -0.7283  0.6880
 3953SOL    HW223319   2.379   2.507   6.109  0.4069 -0.5532 -0.6533
 3954SOL     OW23320   2.055   3.396   9.377  0.0327 -0.2732  0.1121
 3954SOL    HW123321   1.966   3.410   9.409 -0.1221  1.3932 -1.0220
 3954SOL    HW223322   2.051   3.302   9.396  2.0145 -0.9592 -2.8685
 3955SOL     OW23323   2.750   0.213   7.826 -0.2074  0.0239 -0.1488
 3955SOL    HW123324   2.834   0.257   7.811  0.8467 -1.7564  0.5307
 3955SOL    HW223325   2.729   0.239   7.916 -0.6212  0.5266 -0.3852
 3956SOL     OW23326   1.302   4.641  17.511  0.7345  0.1020  0.9270
 3956SOL    HW123327   1.234   4.688  17.462 -0.1935 -1.8622  0.3299
 3956SOL    HW223328   1.253   4.559  17.509  1.1141 -0.1150  0.4573
 3957SOL     OW23329   3.770   4.256  16.188 -0.0565 -0.5637  0.5151
 3957SOL    HW123330   3.773   4.343  16.147  1.3500 -0.1529  1.5092
 3957SOL    HW223331   3.772   4.197  16.113  0.1099  0.3547 -0.2021
 3958SOL     OW23332   3.518   3.834   3.334  1.4162  0.6017  0.7689
 3958SOL    HW123333   3.595   3.883   3.304  1.5574  0.1585  0.4062
 3958SOL    HW223334   3.515   3.763   3.270  0.9183  0.5484  0.8480
 3959SOL     OW23335   3.644   1.456  15.522 -0.0570 -0.8447 -0.5094
 3959SOL    HW123336   3.581   1.391  15.490 -0.5473 -0.8315  0.4202
 3959SOL    HW223337   3.730   1.425  15.497 -0.7433 -1.4105 -2.1142
 3960SOL     OW23338   1.961   3.265  10.409  0.0530  0.2893 -0.0212
 3960SOL    HW123339   1.868   3.242  10.400 -0.7405  3.5803 -0.4626
 3960SOL    HW223340   1.969   3.338  10.348  3.4206  0.1075  0.2191
 3961SOL     OW23341   1.369   2.479   4.232  0.7929 -0.0874  0.0061
 3961SOL    HW123342   1.403   2.509   4.316  1.3134 -1.1178  0.1723
 3961SOL    HW223343   1.369   2.385   4.252  2.5940  0.1223  0.9623
 3962SOL     OW23344   3.781   2.927   7.843 -0.5743 -0.4158  0.2164
 3962SOL    HW123345   3.866   2.898   7.810  0.8874  2.0897  1.7869
 3962SOL    HW223346   3.731   2.854   7.808  1.3373 -2.1493  1.0674
 3963SOL     OW23347   0.713   3.242   7.065  0.0946 -0.1543 -0.1068
 3963SOL    HW123348   0.804   3.236   7.038  0.3662  1.8967  0.3257
 3963SOL    HW223349   0.689   3.151   7.084  1.6330 -0.5451 -0.1015
 3964SOL     OW23350   2.160   4.135   8.458 -0.2261 -0.1935 -0.4827
 3964SOL    HW123351   2.213   4.211   8.435 -0.3407 -0.1290 -0.5356
 3964SOL    HW223352   2.211   4.090   8.525 -0.3847 -1.9602 -1.5497
 3965SOL     OW23353   1.060   2.076   6.595 -0.0413  0.5884 -0.0024
 3965SOL    HW123354   1.122   2.071   6.523  0.6843 -2.0541  0.8323
 3965SOL    HW223355   0.989   2.019   6.565  0.1234 -0.6043  1.8987
 3966SOL     OW23356   2.389   3.244   3.305  0.3438 -0.2127  0.1144
 3966SOL    HW123357   2.451   3.314   3.323  0.0325  0.0778  0.0697
 3966SOL    HW223358   2.402   3.244   3.210  3.2505 -2.8327  0.5182
 3967SOL     OW23359   0.962   3.949   3.796 -0.1833  0.0501  0.4336
 3967SOL    HW123360   0.956   4.044   3.802  1.4196  0.1644  0.2928
 3967SOL    HW223361   0.871   3.930   3.816 -0.6364  0.0770 -1.5621
 3968SOL     OW23362   2.203   4.554   8.083 -0.3651  0.8001 -0.7186
 3968SOL    HW123363   2.134   4.547   8.017 -1.9533  1.8724  0.8457
 3968SOL    HW223364   2.267   4.610   8.039  1.3843 -1.1185 -0.6481
 3969SOL     OW23365   1.601   2.942  16.375  0.3814 -0.1628  0.7938
 3969SOL    HW123366   1.658   3.019  16.376  0.3670 -0.1570  1.7184
 3969SOL    HW223367   1.534   2.959  16.309  1.5645 -2.1892 -0.9264
 3970SOL     OW23368   0.347   4.457   7.505  0.2955  0.2208 -0.2126
 3970SOL    HW123369   0.320   4.543   7.538  4.3617  1.7804 -0.8739
 3970SOL    HW223370   0.284   4.402   7.551  0.2566  1.4635  1.2315
 3971SOL     OW23371   2.692   2.106   0.353  0.7804 -0.2620 -0.1470
 3971SOL    HW123372   2.771   2.119   0.300  1.6124  0.0578  1.1740
 3971SOL    HW223373   2.708   2.019   0.390 -0.2230  0.1237  1.1966
 3972SOL     OW23374   3.459   2.627   9.077 -0.3490 -0.1595 -0.2385
 3972SOL    HW123375   3.511   2.665   9.007  0.2428 -1.2105 -0.3701
 3972SOL    HW223376   3.439   2.710   9.120 -0.9623 -1.3287  1.7262
 3973SOL     OW23377   2.880   4.298   4.271 -0.6152  0.0606 -0.1171
 3973SOL    HW123378   2.854   4.331   4.357 -1.4513 -1.7969  0.3354
 3973SOL    HW223379   2.806   4.241   4.249 -0.4299 -0.4746  0.6421
 3974SOL     OW23380   4.171   3.102   7.902 -0.2179 -0.5597  0.1754
 3974SOL    HW123381   4.140   3.125   7.990 -1.7035  2.3019 -1.0932
 3974SOL    HW223382   4.204   3.188   7.875 -1.5648 -0.2760 -0.5809
 3975SOL     OW23383   2.351   1.756  11.192 -0.6068  0.0176 -0.0899
 3975SOL    HW123384   2.258   1.778  11.194 -0.2803  1.3526  0.6385
 3975SOL    HW223385   2.346   1.661  11.187 -2.1793  0.0321  1.1668
 3976SOL     OW23386   0.533   1.931   1.940  0.5624 -0.0828 -0.1670
 3976SOL    HW123387   0.458   1.888   1.982  0.7839  0.6876  1.0156
 3976SOL    HW223388   0.487   1.997   1.888  0.0558  1.1637  1.8296
 3977SOL     OW23389   2.921   3.983   9.254 -0.3172  0.0899 -0.6027
 3977SOL    HW123390   2.996   3.925   9.269 -1.9281 -1.7819  0.1015
 3977SOL    HW223391   2.850   3.942   9.303 -0.2483 -1.9578 -2.2160
 3978SOL     OW23392   1.257   0.150   4.149 -0.1428  0.4725  0.0210
 3978SOL    HW123393   1.195   0.190   4.210  0.6508 -2.8793  2.9957
 3978SOL    HW223394   1.201   0.103   4.087  1.7067 -1.7231  0.0217
 3979SOL     OW23395   1.055   1.114   8.004 -0.0281 -0.7572  0.5993
 3979SOL    HW123396   1.042   1.190   8.061  0.2143  0.6373 -1.2009
 3979SOL    HW223397   1.140   1.136   7.965  0.1948  1.4771  2.2867
 3980SOL     OW23398   1.196   4.063   7.455  0.1590 -0.4057  0.4636
 3980SOL    HW123399   1.247   3.990   7.420 -1.2594 -0.0034 -2.3821
 3980SOL    HW223400   1.195   4.120   7.378  0.5558  0.0102  0.7637
 3981SOL     OW23401   0.502   1.847   9.412  0.3601 -0.1269  0.3798
 3981SOL    HW123402   0.575   1.829   9.353  0.4843 -2.0882  1.1140
 3981SOL    HW223403   0.513   1.775   9.474  1.8701  0.6297  0.9964
 3982SOL     OW23404   2.714   1.233   5.773  0.2839 -0.1954 -0.6434
 3982SOL    HW123405   2.760   1.248   5.855  1.9360  0.3386 -1.6475
 3982SOL    HW223406   2.655   1.161   5.790 -0.5444  0.8021  0.6638
 3983SOL     OW23407   4.348   2.506   6.433 -0.6691 -0.0138  0.4924
 3983SOL    HW123408   4.431   2.547   6.407 -1.0892  1.6533  1.8474
 3983SOL    HW223409   4.357   2.501   6.528 -0.0327 -2.4662  0.3062
 3984SOL     OW23410   0.175   1.586  15.007 -0.7172  0.3469  0.1912
 3984SOL    HW123411   0.129   1.664  14.975  1.2685  1.8306  0.9408
 3984SOL    HW223412   0.256   1.629  15.033  1.2151 -2.0713 -1.9829
 3985SOL     OW23413   2.317   2.418   3.202 -0.4813 -0.4064  0.3841
 3985SOL    HW123414   2.298   2.327   3.181 -1.2718 -0.4088  1.1345
 3985SOL    HW223415   2.292   2.460   3.120 -1.1045 -0.7098  0.4211
 3986SOL     OW23416   2.323   1.980   8.937  0.0495 -0.2299  0.2528
 3986SOL    HW123417   2.282   2.014   9.016 -0.0987 -0.1204  0.1263
 3986SOL    HW223418   2.263   1.991   8.864 -0.6839 -1.5365  0.6633
 3987SOL     OW23419   0.952   0.122   9.583 -0.3487  0.6165  0.2297
 3987SOL    HW123420   0.941   0.217   9.580 -1.9958  0.4167  0.4047
 3987SOL    HW223421   0.964   0.108   9.489 -0.7573 -1.0172  0.4212
 3988SOL     OW23422   0.021   4.270   5.987  0.7275  0.6750 -0.2654
 3988SOL    HW123423   4.672   4.229   6.030  0.9602 -1.2825 -1.6961
 3988SOL    HW223424   4.703   4.352   5.965 -0.4031  0.4706  1.2919
 3989SOL     OW23425   3.281   1.136   4.968  0.4445 -0.0123  0.3426
 3989SOL    HW123426   3.201   1.141   5.020 -0.3413  0.5692 -0.9436
 3989SOL    HW223427   3.259   1.152   4.877  0.9006 -0.7609  0.1020
 3990SOL     OW23428   3.596   3.776   7.855  0.0367 -0.3526 -0.1750
 3990SOL    HW123429   3.616   3.828   7.933  0.7165  1.0031 -1.2354
 3990SOL    HW223430   3.566   3.843   7.793 -3.5997 -0.8962  0.9475
 3991SOL     OW23431   0.628   3.589   9.220  0.4170 -0.5623 -0.3334
 3991SOL    HW123432   0.579   3.671   9.216 -0.3545 -1.0553 -1.0474
 3991SOL    HW223433   0.715   3.623   9.239 -0.3800  1.5746 -0.4999
 3992SOL     OW23434   1.812   3.835   6.533 -0.4067 -0.4403 -0.0929
 3992SOL    HW123435   1.722   3.843   6.564 -0.5463 -0.7978 -0.4112
 3992SOL    HW223436   1.843   3.786   6.609  0.2247 -2.3733 -1.6082
 3993SOL     OW23437   2.895   1.225  16.929  0.4911  0.6406 -0.3743
 3993SOL    HW123438   2.856   1.305  16.965 -3.1666 -1.9301  1.4334
 3993SOL    HW223439   2.977   1.231  16.978 -1.4455  1.9177  2.7495
 3994SOL     OW23440   1.348   2.388   5.332 -0.0214  0.2735  0.5651
 3994SOL    HW123441   1.332   2.410   5.424 -2.6906  0.1359  0.1328
 3994SOL    HW223442   1.265   2.415   5.295  0.2482  1.2076  0.6431
 3995SOL     OW23443   1.108   2.249  11.218 -0.5874  1.0498 -0.2058
 3995SOL    HW123444   1.085   2.265  11.310  0.1529 -2.6105  0.6375
 3995SOL    HW223445   1.020   2.249  11.180 -0.9090  1.5502  0.5185
 3996SOL     OW23446   0.859   1.500   5.523 -0.8719 -0.0396  0.2551
 3996SOL    HW123447   0.797   1.460   5.584 -2.4878 -0.0411 -1.3956
 3996SOL    HW223448   0.879   1.442   5.450  0.6970  0.4975  0.2499
 3997SOL     OW23449   3.246   1.901   6.444 -0.1767  0.2081  0.2731
 3997SOL    HW123450   3.155   1.924   6.428 -0.1043  0.9439  0.8912
 3997SOL    HW223451   3.283   1.988   6.460  3.0777 -1.3560  1.3280
 3998SOL     OW23452   1.194   0.737   6.228  0.4745 -0.2634 -0.2105
 3998SOL    HW123453   1.286   0.724   6.249 -0.2913 -2.2378  1.9137
 3998SOL    HW223454   1.202   0.809   6.165 -1.4560  0.7746  0.7157
 3999SOL     OW23455   4.054   2.913   8.314 -0.0197 -0.0927 -0.1089
 3999SOL    HW123456   4.105   2.863   8.250  0.2816 -0.7316  0.6225
 3999SOL    HW223457   4.124   2.977   8.324  1.0083 -1.5662  2.2661
 4000SOL     OW23458   3.670   2.406  12.002  0.2882 -0.0722 -0.1127
 4000SOL    HW123459   3.713   2.490  12.019  1.9910 -1.1088  0.6517
 4000SOL    HW223460   3.577   2.413  12.027  0.3304 -0.2227  0.0817
 4001SOL     OW23461   4.260   3.329   7.748  0.1625 -0.4125 -0.4642
 4001SOL    HW123462   4.210   3.331   7.666 -1.1931  2.7322  0.4221
 4001SOL    HW223463   4.275   3.422   7.762 -2.0472  0.1099 -1.5087
 4002SOL     OW23464   1.954   1.351  15.382 -0.2501 -0.3220 -0.1936
 4002SOL    HW123465   1.875   1.324  15.430  2.6645 -3.4491  2.7874
 4002SOL    HW223466   1.982   1.264  15.355 -0.5549 -0.8447  1.1660
 4003SOL     OW23467   2.817   2.081   5.291 -0.7135  0.0001  0.1676
 4003SOL    HW123468   2.802   2.165   5.335 -1.1478  0.4228 -0.8006
 4003SOL    HW223469   2.728   2.045   5.295  0.9666 -4.1294 -0.0325
 4004SOL     OW23470   4.312   3.952  11.251 -0.0692 -0.4058  0.2501
 4004SOL    HW123471   4.364   4.027  11.281 -0.4572  0.9285 -2.3999
 4004SOL    HW223472   4.263   3.934  11.331  1.0543  0.6681  1.1886
 4005SOL     OW23473   0.619   2.501   4.932 -0.3639 -0.2643 -0.3975
 4005SOL    HW123474   0.648   2.550   5.009 -0.2444  1.1677 -1.3624
 4005SOL    HW223475   0.673   2.546   4.867  2.8361 -1.4654  1.4494
 4006SOL     OW23476   0.409   3.210  16.682  0.3989 -0.2892 -0.0368
 4006SOL    HW123477   0.433   3.164  16.762  1.6185 -0.1343 -0.3187
 4006SOL    HW223478   0.465   3.287  16.674 -0.2057  0.0892 -0.6490
 4007SOL     OW23479   4.563   1.830  17.008  0.1604 -0.3396 -0.7403
 4007SOL    HW123480   4.482   1.790  16.974  0.3891 -1.6747  0.2986
 4007SOL    HW223481   4.565   1.899  16.942 -2.1901 -1.0757 -1.5822
 4008SOL     OW23482   3.602   0.247   9.969  0.1919  0.5197  0.0448
 4008SOL    HW123483   3.565   0.159   9.982  1.5073  0.1595  1.4754
 4008SOL    HW223484   3.527   0.287   9.925 -0.0715  1.2022  1.1162
 4009SOL     OW23485   0.284   0.851   3.647 -0.1007  0.0566 -0.1948
 4009SOL    HW123486   0.223   0.798   3.698  0.3449 -0.7752 -0.5321
 4009SOL    HW223487   0.338   0.881   3.720  1.3630 -0.2880 -1.1599
 4010SOL     OW23488   4.550   0.107  15.039 -0.1677 -0.8869 -0.4167
 4010SOL    HW123489   4.615   0.169  15.006 -0.8458  0.9825  1.7743
 4010SOL    HW223490   4.569   0.034  14.980 -0.5464 -0.5811 -0.9096
 4011SOL     OW23491   2.591   1.109   3.225 -0.2389  0.0191 -0.1348
 4011SOL    HW123492   2.538   1.122   3.147 -0.5744  1.2205  0.2958
 4011SOL    HW223493   2.558   1.184   3.273 -0.9124 -0.9172  0.8749
 4012SOL     OW23494   2.336   0.051  13.548 -0.1393 -0.0726 -0.0885
 4012SOL    HW123495   2.324   4.726  13.468 -2.1721  1.1593 -0.5628
 4012SOL    HW223496   2.427   0.048  13.576 -0.2863  0.2715  0.4371
 4013SOL     OW23497   1.384   2.234   9.531  0.2004 -0.1526  0.3597
 4013SOL    HW123498   1.293   2.255   9.551  0.1153 -1.0172  0.8732
 4013SOL    HW223499   1.425   2.309   9.575  0.3765  0.0533 -0.1599
 4014SOL     OW23500   2.564   0.545   4.744 -0.0618 -0.4604 -0.0774
 4014SOL    HW123501   2.530   0.632   4.727  1.9257 -0.0621 -2.0568
 4014SOL    HW223502   2.621   0.561   4.819 -2.0719 -0.6612  1.4572
 4015SOL     OW23503   1.694   2.130  11.565  0.2972 -0.2206  0.3052
 4015SOL    HW123504   1.599   2.129  11.577  0.5944 -2.0003  2.6726
 4015SOL    HW223505   1.710   2.037  11.548 -0.9751 -0.0420 -1.8696
 4016SOL     OW23506   3.073   2.517   2.834  0.3046 -0.0055  0.4571
 4016SOL    HW123507   3.103   2.607   2.845 -0.8882  0.7158 -2.1663
 4016SOL    HW223508   3.003   2.511   2.899 -1.1392  1.8136 -0.9601
 4017SOL     OW23509   0.261   1.963   6.097  0.7013  0.2217  0.2960
 4017SOL    HW123510   0.252   1.882   6.047 -0.8102  0.7355 -0.2379
 4017SOL    HW223511   0.241   1.933   6.186  0.5473  1.6263  0.7321
 4018SOL     OW23512   1.658   0.746   5.625  0.3376  0.2078 -0.2909
 4018SOL    HW123513   1.670   0.663   5.671  0.8579 -1.6289 -3.7372
 4018SOL    HW223514   1.737   0.797   5.644  1.6056 -2.3294  1.3079
 4019SOL     OW23515   4.559   1.098   3.892  0.1402 -0.3097  0.8449
 4019SOL    HW123516   4.480   1.054   3.863 -0.3755  2.3482 -1.7979
 4019SOL    HW223517   4.588   1.149   3.816  0.1190  0.1183  1.1247
 4020SOL     OW23518   3.791   1.707   5.427  0.4951  0.2406  0.1791
 4020SOL    HW123519   3.826   1.617   5.427  0.5068  0.2419 -0.8665
 4020SOL    HW223520   3.762   1.720   5.337 -0.3517 -0.3013  0.3809
 4021SOL     OW23521   1.965   4.210  12.374  0.0888 -0.0765 -0.2048
 4021SOL    HW123522   1.944   4.117  12.363 -0.0132  0.0633 -1.2576
 4021SOL    HW223523   1.950   4.251  12.288 -0.7035 -1.3206 -0.6586
 4022SOL     OW23524   1.555   4.061   3.595  0.2386  0.2589  0.2374
 4022SOL    HW123525   1.587   4.077   3.684 -0.7853 -2.7308  1.1241
 4022SOL    HW223526   1.535   4.152   3.571 -0.1620  0.6048  1.8921
 4023SOL     OW23527   1.863   2.723   1.929 -0.2980  0.1391  0.3972
 4023SOL    HW123528   1.885   2.667   2.003  0.4691 -2.0744 -1.5003
 4023SOL    HW223529   1.821   2.795   1.976  0.6589  1.2007 -0.3584
 4024SOL     OW23530   3.274   2.481  16.098  0.3046 -0.6579 -0.5057
 4024SOL    HW123531   3.297   2.574  16.097 -1.6860 -0.1431  1.1506
 4024SOL    HW223532   3.250   2.477  16.005 -1.7411 -1.6110  0.0731
 4025SOL     OW23533   0.371   2.336   6.830 -0.0079  0.4538 -0.1077
 4025SOL    HW123534   0.290   2.362   6.873  0.7832  1.2151  0.9201
 4025SOL    HW223535   0.345   2.326   6.739  0.1404 -1.6614  0.0692
 4026SOL     OW23536   1.047   0.403   5.065 -0.2881  0.6328  0.6555
 4026SOL    HW123537   1.119   0.403   5.003 -0.3634  2.4063  0.5564
 4026SOL    HW223538   1.091   0.364   5.141  1.2102  0.2226 -0.4280
 4027SOL     OW23539   1.479   0.935   4.689  0.0579  0.5276 -0.1414
 4027SOL    HW123540   1.553   0.879   4.666 -0.3919  0.2214 -0.8652
 4027SOL    HW223541   1.405   0.881   4.661  0.9859 -0.0488 -1.5098
 4028SOL     OW23542   4.464   2.409   0.859  0.0197 -0.0606  0.4769
 4028SOL    HW123543   4.447   2.315   0.867 -1.0320  0.2898  2.3417
 4028SOL    HW223544   4.497   2.430   0.946 -0.6335  1.3546  0.3715
 4029SOL     OW23545   0.675   2.956   7.097  0.4923  0.7818  0.1058
 4029SOL    HW123546   0.638   2.986   7.180 -1.4082  0.2449 -0.5475
 4029SOL    HW223547   0.597   2.953   7.041  1.3345 -1.4167 -0.9434
 4030SOL     OW23548   4.573   2.339   5.161 -0.0609 -0.3796  0.1693
 4030SOL    HW123549   4.630   2.302   5.228  2.3643  0.9634 -1.1336
 4030SOL    HW223550   4.548   2.264   5.106 -0.7799 -1.0330  1.3976
 4031SOL     OW23551   2.795   0.381   4.154 -0.3144  0.5214  0.0825
 4031SOL    HW123552   2.848   0.301   4.155 -1.1621  0.0054  2.2723
 4031SOL    HW223553   2.743   0.366   4.233  1.3081 -2.0019  0.6501
 4032SOL     OW23554   3.302   2.014  16.152  0.1977  0.4180  0.1757
 4032SOL    HW123555   3.350   2.096  16.163  3.7345 -1.6658 -0.0189
 4032SOL    HW223556   3.263   2.024  16.065  1.0916  1.7818 -0.0714
 4033SOL     OW23557   1.480   2.409   9.306 -0.4589  0.0338  0.2749
 4033SOL    HW123558   1.410   2.466   9.276 -0.1780 -0.5632 -1.5520
 4033SOL    HW223559   1.428   2.360   9.370  2.4194 -1.6064  1.3869
 4034SOL     OW23560   2.729   2.385   2.561  0.1943  0.3841 -0.2404
 4034SOL    HW123561   2.737   2.296   2.594  0.6992 -0.4337 -2.5582
 4034SOL    HW223562   2.637   2.410   2.570 -0.0504 -1.0957  1.2707
 4035SOL     OW23563   3.208   0.758  15.360 -0.4458  0.4383 -0.3671
 4035SOL    HW123564   3.188   0.754  15.453  0.2039  1.1392 -0.1914
 4035SOL    HW223565   3.125   0.774  15.315 -0.1714  0.6850 -0.7897
 4036SOL     OW23566   2.063   2.698   4.949  0.1727 -0.2759  0.1022
 4036SOL    HW123567   2.109   2.671   5.028 -0.0532 -0.9628 -0.0027
 4036SOL    HW223568   2.092   2.787   4.931  0.5056 -0.4542 -0.2386
 4037SOL     OW23569   2.299   1.978   5.579 -0.3752 -0.0706 -0.1915
 4037SOL    HW123570   2.382   1.933   5.597 -0.8130 -0.1404  1.6560
 4037SOL    HW223571   2.276   1.938   5.495  2.6024 -1.1201 -0.5173
 4038SOL     OW23572   1.948   0.289   2.023 -0.5706 -0.2641  0.1486
 4038SOL    HW123573   1.959   0.209   1.971 -1.3671 -1.1436  1.3332
 4038SOL    HW223574   1.937   0.354   1.954 -0.0391 -1.5944 -1.2111
 4039SOL     OW23575   3.249   1.500   7.366  0.2089  0.1838  0.0823
 4039SOL    HW123576   3.302   1.529   7.292  0.0466 -1.2836 -0.6091
 4039SOL    HW223577   3.203   1.576   7.403  1.0454  1.1319 -0.8337
 4040SOL     OW23578   2.866   3.612   7.754  0.0417 -0.0004 -0.6736
 4040SOL    HW123579   2.789   3.642   7.801 -0.1060  1.0077 -1.5492
 4040SOL    HW223580   2.887   3.543   7.817  3.5441  1.3321 -0.4171
 4041SOL     OW23581   1.799   4.682   7.334 -0.2186 -0.2444 -0.2256
 4041SOL    HW123582   1.712   4.687   7.294 -0.5327  0.9697  0.6250
 4041SOL    HW223583   1.850   4.619   7.283 -1.1407 -1.8580  0.8575
 4042SOL     OW23584   4.483   0.482   1.770 -0.4916  0.3193  0.2632
 4042SOL    HW123585   4.478   0.567   1.814  2.6071  0.6202  0.0728
 4042SOL    HW223586   4.401   0.439   1.795 -1.4826  2.5687  0.8451
 4043SOL     OW23587   1.814   0.603  15.956 -0.0174  0.1450  0.1329
 4043SOL    HW123588   1.811   0.671  16.023  2.4480  2.0105 -1.6694
 4043SOL    HW223589   1.737   0.629  15.906  0.2456 -2.1722 -1.5031
 4044SOL     OW23590   2.367   0.406   0.423  0.9605 -0.0201  0.2935
 4044SOL    HW123591   2.436   0.461   0.386  0.8422  1.1298  1.7902
 4044SOL    HW223592   2.409   0.320   0.426 -0.9800 -1.0090 -0.9688
 4045SOL     OW23593   4.693   0.109   5.616  0.7731  0.6359 -0.3031
 4045SOL    HW123594   0.047   0.160   5.604  2.1622 -1.0129  1.7352
 4045SOL    HW223595   0.010   0.023   5.613 -1.7040 -0.6746  1.9419
 4046SOL     OW23596   3.504   0.704   9.379  0.7303  0.4382  0.1544
 4046SOL    HW123597   3.475   0.795   9.382  0.2613  0.3204 -0.9705
 4046SOL    HW223598   3.589   0.714   9.336  0.4110 -0.6872 -0.7483
 4047SOL     OW23599   1.220   3.876  14.918 -0.0921 -0.2595 -0.1214
 4047SOL    HW123600   1.298   3.917  14.881  0.3060  0.6309  1.7112
 4047SOL    HW223601   1.217   3.795  14.867 -1.3909  0.0281 -0.4953
 4048SOL     OW23602   2.266   4.371   6.130  0.2437  0.2872 -0.2139
 4048SOL    HW123603   2.333   4.326   6.181 -1.4207 -1.9828 -0.0340
 4048SOL    HW223604   2.263   4.458   6.171  0.7736  0.6754 -0.9827
 4049SOL     OW23605   3.648   2.708   3.979  0.0618  0.2627  0.0244
 4049SOL    HW123606   3.629   2.802   3.988  1.2628  0.7090 -2.1795
 4049SOL    HW223607   3.564   2.667   3.956 -0.0318 -0.6569  2.0323
 4050SOL     OW23608   1.288   1.538   4.011  0.1900  0.8444  0.4217
 4050SOL    HW123609   1.289   1.622   4.056  0.4178 -0.0185  2.0445
 4050SOL    HW223610   1.259   1.482   4.083 -0.4976  1.1781  0.3927
 4051SOL     OW23611   4.212   4.064   9.061  0.2388  0.5076 -0.4851
 4051SOL    HW123612   4.285   4.080   9.001 -0.6430  0.7412 -1.5043
 4051SOL    HW223613   4.251   4.029   9.142  0.5619  0.6223 -0.5904
 4052SOL     OW23614   2.850   2.009   3.820  0.2943  0.7050 -0.1902
 4052SOL    HW123615   2.898   2.088   3.796  0.9145 -0.0429 -1.4177
 4052SOL    HW223616   2.896   1.981   3.899  1.0466  1.0806 -0.4911
 4053SOL     OW23617   0.198   1.480   3.526 -0.0835 -0.4522  0.0009
 4053SOL    HW123618   0.215   1.434   3.443 -0.3043  0.4583 -0.5518
 4053SOL    HW223619   0.103   1.490   3.531 -0.0291 -0.6465  1.3386
 4054SOL     OW23620   3.710   3.205  15.389  0.3841 -0.0483  0.6247
 4054SOL    HW123621   3.783   3.165  15.435  1.2306  0.9452  0.1585
 4054SOL    HW223622   3.762   3.283  15.367 -0.3363 -0.0887 -1.2564
 4055SOL     OW23623   0.456   0.474   6.166  0.8504 -0.4086 -0.1837
 4055SOL    HW123624   0.389   0.536   6.196  2.1001  0.8094  0.1163
 4055SOL    HW223625   0.534   0.529   6.173 -0.1276  1.1337 -1.3578
 4056SOL     OW23626   3.464   0.781   6.862  0.3152 -0.1798  0.1727
 4056SOL    HW123627   3.421   0.814   6.783 -1.3265 -2.5126  0.1191
 4056SOL    HW223628   3.419   0.835   6.927  0.7619  1.8589 -1.1980
 4057SOL     OW23629   3.189   1.238   1.239  0.0663  0.3812  0.4097
 4057SOL    HW123630   3.168   1.312   1.183  1.3619 -0.4553 -1.1874
 4057SOL    HW223631   3.105   1.196   1.257  1.8533 -2.4546  2.1927
 4058SOL     OW23632   0.848   0.134   8.560  1.0030  0.4527  0.0041
 4058SOL    HW123633   0.943   0.137   8.546  0.8787 -0.1647 -0.9409
 4058SOL    HW223634   0.828   0.043   8.540 -0.3620  0.8187 -0.3120
 4059SOL     OW23635   2.204   1.428   2.243  0.2320  0.2395 -0.4744
 4059SOL    HW123636   2.176   1.508   2.198 -1.0918  0.2604  0.3919
 4059SOL    HW223637   2.246   1.378   2.174  1.8259 -1.0463  1.4332
 4060SOL     OW23638   0.406   0.842   8.657 -0.4693  0.2228  0.4205
 4060SOL    HW123639   0.392   0.829   8.563 -1.5795 -0.5825  0.7012
 4060SOL    HW223640   0.341   0.913   8.663 -1.3085 -0.5651  0.5772
 4061SOL     OW23641   2.265   1.761   8.477 -0.0985  0.0987 -0.6017
 4061SOL    HW123642   2.195   1.705   8.444 -0.4060  0.3700 -0.4073
 4061SOL    HW223643   2.313   1.687   8.515 -0.1541 -0.0243 -0.7719
 4062SOL     OW23644   4.434   2.031  12.525 -0.1596  0.1610  0.3980
 4062SOL    HW123645   4.454   2.067  12.611 -0.5314 -0.9822  0.9520
 4062SOL    HW223646   4.471   1.944  12.539  0.4143  0.3756  0.2125
 4063SOL     OW23647   2.649   0.513   1.937  0.2465 -0.0482 -0.0452
 4063SOL    HW123648   2.677   0.492   1.848  1.9287  1.4586  0.1311
 4063SOL    HW223649   2.630   0.605   1.918 -1.8580 -0.1432  1.5144
 4064SOL     OW23650   1.535   4.600  14.139  0.4996 -0.4217  0.6451
 4064SOL    HW123651   1.496   4.535  14.080  2.9281 -0.9170 -0.4096
 4064SOL    HW223652   1.469   4.669  14.129  0.8027 -0.2420 -0.1837
 4065SOL     OW23653   0.090   3.455   2.977  0.0703  0.4433 -0.4580
 4065SOL    HW123654   0.077   3.493   3.064  2.3612  1.1196 -0.4254
 4065SOL    HW223655   0.024   3.492   2.918 -1.1573 -2.8610 -1.1910
 4066SOL     OW23656   4.048   0.070   8.751  0.5330 -0.5079  0.5243
 4066SOL    HW123657   4.114   0.004   8.732  0.2609 -0.7700  0.4743
 4066SOL    HW223658   4.063   0.081   8.845  1.7410  1.1145  0.1344
 4067SOL     OW23659   4.620   0.777   4.669  0.1196  0.0393  0.3790
 4067SOL    HW123660   4.588   0.741   4.587  2.0132  1.0914 -0.8070
 4067SOL    HW223661   4.685   0.711   4.694 -1.2816 -1.7319 -0.6497
 4068SOL     OW23662   4.173   3.216   4.092  0.2621  0.6138  0.3388
 4068SOL    HW123663   4.237   3.225   4.162  0.7453  0.5001 -0.0845
 4068SOL    HW223664   4.183   3.126   4.060  0.4161 -0.4842  3.5036
 4069SOL     OW23665   3.615   0.183   4.476 -0.0200 -0.2908 -0.0082
 4069SOL    HW123666   3.611   0.278   4.465 -0.3873 -0.4133 -0.9037
 4069SOL    HW223667   3.648   0.177   4.566 -3.2040 -1.0412  1.1096
 4070SOL     OW23668   2.550   2.883   5.417  0.3669  0.2277 -0.0065
 4070SOL    HW123669   2.590   2.811   5.465 -1.6591  0.6364  2.2665
 4070SOL    HW223670   2.590   2.957   5.463  0.8254  1.3225 -2.1635
 4071SOL     OW23671   3.684   2.865   0.486 -0.5292 -0.6829  0.0846
 4071SOL    HW123672   3.624   2.807   0.440 -1.4157 -2.9312  4.1736
 4071SOL    HW223673   3.673   2.954   0.452 -1.1316 -0.7011  0.2337
 4072SOL     OW23674   0.781   2.481   5.244  0.0080  0.1567  0.3748
 4072SOL    HW123675   0.743   2.558   5.286 -1.8792 -1.4064  1.5631
 4072SOL    HW223676   0.706   2.423   5.254 -0.1708  0.6871  2.0854
 4073SOL     OW23677   2.526   3.254   3.050  0.0159  0.8184  0.0034
 4073SOL    HW123678   2.617   3.283   3.037  0.3731  0.3977  1.5209
 4073SOL    HW223679   2.527   3.173   2.999 -2.5053  1.2423 -0.6967
 4074SOL     OW23680   0.403   2.800   8.530 -0.2863  0.1661  0.6796
 4074SOL    HW123681   0.380   2.839   8.614  1.3377 -0.1732  1.2792
 4074SOL    HW223682   0.499   2.799   8.530 -0.2645  1.9489  0.9766
 4075SOL     OW23683   3.243   1.529  11.875  0.5653 -0.2942  0.1054
 4075SOL    HW123684   3.301   1.549  11.949 -0.4007 -0.1596  0.8217
 4075SOL    HW223685   3.247   1.434  11.881 -0.6005 -0.2165  2.1875
 4076SOL     OW23686   4.308   2.501   7.755 -0.3519 -0.5569 -0.0491
 4076SOL    HW123687   4.289   2.407   7.752  0.8268 -0.8089  0.6516
 4076SOL    HW223688   4.217   2.531   7.760 -1.4844 -3.6672 -1.3529
 4077SOL     OW23689   2.762   4.054   2.839 -0.2768  0.1044 -0.5682
 4077SOL    HW123690   2.778   4.055   2.745  0.7467  2.2223 -0.3658
 4077SOL    HW223691   2.666   4.051   2.837 -0.3406  2.5669 -1.6818
 4078SOL     OW23692   4.249   1.118   9.450 -0.2056 -0.4160  0.2590
 4078SOL    HW123693   4.256   1.025   9.472 -2.7244 -1.5996 -3.9993
 4078SOL    HW223694   4.204   1.148   9.530 -2.6846  1.1941 -1.7323
 4079SOL     OW23695   0.521   2.804   1.885 -0.1250 -0.0292 -0.1799
 4079SOL    HW123696   0.594   2.829   1.828 -0.8138  0.5000 -0.8438
 4079SOL    HW223697   0.496   2.887   1.927 -3.0496 -0.2737 -1.3941
 4080SOL     OW23698   2.172   3.088   8.393  0.1978  1.0290 -0.0151
 4080SOL    HW123699   2.128   3.092   8.308 -0.5510  0.4100  0.3389
 4080SOL    HW223700   2.095   3.064   8.444  0.3508  1.4939  0.4328
 4081SOL     OW23701   4.688   2.872   6.588 -0.2323 -0.9414 -0.2618
 4081SOL    HW123702   0.042   2.828   6.558  0.3034 -0.7663  0.9124
 4081SOL    HW223703   4.621   2.853   6.522 -1.3607  1.9500  0.0639
 4082SOL     OW23704   2.216   4.472  11.638 -0.1998 -0.0393  0.6991
 4082SOL    HW123705   2.145   4.536  11.640  0.4680  0.7444 -0.6231
 4082SOL    HW223706   2.291   4.513  11.594  0.9696 -0.2266  2.5160
 4083SOL     OW23707   1.704   0.750  10.928 -0.3767 -0.0675 -0.3628
 4083SOL    HW123708   1.616   0.741  10.965 -0.3475 -0.4172 -0.3764
 4083SOL    HW223709   1.720   0.839  10.957  0.1552  0.3682 -2.0038
 4084SOL     OW23710   2.032   0.024   0.228  0.3787 -0.0222 -0.1049
 4084SOL    HW123711   2.034   0.106   0.278 -1.1190  0.2471 -0.5137
 4084SOL    HW223712   2.126   0.006   0.233  0.1939 -1.0715 -0.3978
 4085SOL     OW23713   2.852   1.955  12.935 -0.1574 -0.3908 -0.4841
 4085SOL    HW123714   2.788   1.921  12.997  0.7589 -0.9804  0.1346
 4085SOL    HW223715   2.939   1.943  12.974 -0.3430  0.0054  0.0589
 4086SOL     OW23716   4.552   2.415   7.351 -0.0135 -0.5157  0.1220
 4086SOL    HW123717   4.540   2.502   7.314  3.7217  0.0538  0.3052
 4086SOL    HW223718   4.524   2.424   7.442  1.2111  5.0562 -0.0757
 4087SOL     OW23719   3.814   3.499   2.222  0.0905  0.3663 -0.0268
 4087SOL    HW123720   3.760   3.564   2.178  1.5581  0.5367 -1.5869
 4087SOL    HW223721   3.782   3.411   2.200  1.8898 -0.5720  1.0277
 4088SOL     OW23722   1.870   0.900  13.039 -0.2210 -0.4351 -0.5229
 4088SOL    HW123723   1.878   0.909  13.134  1.0534  1.7791 -0.8373
 4088SOL    HW223724   1.785   0.856  13.031 -0.5286 -0.3457  2.3266
 4089SOL     OW23725   3.636   0.431   3.545  0.3268 -0.2493 -0.3975
 4089SOL    HW123726   3.692   0.508   3.554 -0.3482  0.4748 -2.4772
 4089SOL    HW223727   3.581   0.447   3.622 -0.9193 -2.2910 -0.8747
 4090SOL     OW23728   4.517   2.839  14.049  0.1012 -0.0766 -0.7066
 4090SOL    HW123729   4.532   2.902  13.978  3.2423  0.5983  0.5794
 4090SOL    HW223730   4.578   2.869  14.116 -1.1664  2.3051 -0.5969
 4091SOL     OW23731   3.222   2.257  13.683  0.6434  0.2470 -0.4249
 4091SOL    HW123732   3.244   2.307  13.761 -0.0819  0.2523 -0.2210
 4091SOL    HW223733   3.216   2.328  13.619  2.6329 -0.2722 -1.1974
 4092SOL     OW23734   2.608   2.914   3.709 -0.5869  0.7049 -0.0344
 4092SOL    HW123735   2.611   2.997   3.758 -1.0024 -0.6608  2.2921
 4092SOL    HW223736   2.559   2.942   3.632 -0.9768 -0.8436 -0.3460
 4093SOL     OW23737   2.138   4.018   7.227  0.0744 -0.0856 -0.4942
 4093SOL    HW123738   2.221   4.033   7.272 -0.4969 -0.9388  0.8564
 4093SOL    HW223739   2.077   3.994   7.297 -1.6210 -0.8451 -2.2364
 4094SOL     OW23740   3.699   0.190  10.481  0.2760 -0.3703 -0.0845
 4094SOL    HW123741   3.668   0.119  10.538  2.2629  0.1665  1.6796
 4094SOL    HW223742   3.621   0.235  10.447 -0.5645 -0.0946  2.1975
 4095SOL     OW23743   3.526   3.640  10.014 -0.0822 -0.1311  0.5570
 4095SOL    HW123744   3.588   3.623   9.943 -0.6451 -2.7543  0.6885
 4095SOL    HW223745   3.568   3.718  10.051  0.3878  0.5724 -1.4372
 4096SOL     OW23746   1.621   3.839  15.018 -0.1415  0.3940  0.0812
 4096SOL    HW123747   1.563   3.860  14.945 -0.7400  0.7327  0.6551
 4096SOL    HW223748   1.680   3.913  15.029 -0.4193  0.6126  0.0960
 4097SOL     OW23749   2.500   1.504  13.645  0.0669  0.0117 -0.0452
 4097SOL    HW123750   2.526   1.575  13.704 -2.7525  0.8848  0.1376
 4097SOL    HW223751   2.404   1.504  13.646  0.0803  0.9511  1.0214
 4098SOL     OW23752   4.229   4.280  12.643  0.6085  0.2667  0.2687
 4098SOL    HW123753   4.312   4.255  12.602 -0.2115 -0.8807 -0.6748
 4098SOL    HW223754   4.210   4.206  12.700 -0.0721 -1.2257 -1.8833
 4099SOL     OW23755   0.685   1.695   1.854  0.2253 -0.2330 -0.6628
 4099SOL    HW123756   0.646   1.781   1.866 -0.2083 -0.3734 -1.0651
 4099SOL    HW223757   0.720   1.675   1.941  0.4366  1.0090 -0.4692
 4100SOL     OW23758   0.820   1.075   2.451  0.0415  0.2184  0.1174
 4100SOL    HW123759   0.870   1.005   2.409  0.6041  1.2867 -0.9955
 4100SOL    HW223760   0.858   1.154   2.411 -0.0605  1.4577  2.4606
 4101SOL     OW23761   0.865   3.841   3.407 -0.7729 -0.1288 -0.6453
 4101SOL    HW123762   0.896   3.931   3.415  0.8072 -0.7680  0.2777
 4101SOL    HW223763   0.931   3.804   3.465  0.1214  2.2078 -0.1774
 4102SOL     OW23764   3.012   1.179  10.041 -0.6828  0.0695  0.3521
 4102SOL    HW123765   3.065   1.147   9.967 -0.7590 -0.2128  0.4179
 4102SOL    HW223766   2.957   1.104  10.063 -0.1450 -0.2055  0.7619
 4103SOL     OW23767   1.985   0.439   5.178  0.0816 -0.0094 -0.1806
 4103SOL    HW123768   1.978   0.353   5.136 -1.2128 -0.8521  1.7337
 4103SOL    HW223769   1.902   0.433   5.226  0.0316  3.6952  0.2091
 4104SOL     OW23770   3.690   3.803   1.045 -0.2858  0.1009 -0.1430
 4104SOL    HW123771   3.649   3.785   0.961 -0.3570  0.2759 -0.1459
 4104SOL    HW223772   3.614   3.817   1.101  0.4620 -1.6258  1.3089
 4105SOL     OW23773   1.917   2.777   2.557  0.0191 -0.3408  0.0867
 4105SOL    HW123774   1.911   2.853   2.614 -1.3867  1.1518 -2.0619
 4105SOL    HW223775   1.997   2.796   2.508  0.4122  1.4166  1.4274
 4106SOL     OW23776   1.858   2.855   8.212 -0.3954  0.0595  0.2357
 4106SOL    HW123777   1.858   2.917   8.140  0.6508  0.2557  0.3978
 4106SOL    HW223778   1.886   2.907   8.287 -0.1426 -0.0306  0.2056
 4107SOL     OW23779   0.074   1.422   7.201 -0.2549 -0.5222 -0.3957
 4107SOL    HW123780   4.723   1.427   7.257 -0.5214  0.1752 -0.8225
 4107SOL    HW223781   0.128   1.364   7.253 -1.1115  0.0367  1.1345
 4108SOL     OW23782   3.929   3.336   9.767 -0.1220  0.0301  0.4199
 4108SOL    HW123783   4.019   3.352   9.738 -0.7660  0.1929 -1.4830
 4108SOL    HW223784   3.879   3.337   9.686  1.3522 -1.7064 -0.5156
 4109SOL     OW23785   2.218   3.399  17.385 -0.0705 -0.2694 -0.1485
 4109SOL    HW123786   2.208   3.412  17.290  0.5666  0.4843 -0.1087
 4109SOL    HW223787   2.124   3.408  17.402  0.3121  3.8758 -0.1682
 4110SOL     OW23788   2.046   0.350  16.689  0.1189 -0.1603 -0.4154
 4110SOL    HW123789   2.081   0.334  16.777  3.1113  0.0572 -1.5522
 4110SOL    HW223790   2.081   0.271  16.648  1.1963 -0.1041  0.3790
 4111SOL     OW23791   2.891   1.706   5.359  0.1628  0.1901 -0.4756
 4111SOL    HW123792   2.853   1.629   5.316  1.6000 -0.9497  0.2737
 4111SOL    HW223793   2.827   1.723   5.429  0.3362 -2.0613  0.2193
 4112SOL     OW23794   4.443   4.377   7.073  0.0828  0.4689  0.2780
 4112SOL    HW123795   4.347   4.372   7.076  0.0309 -0.0741 -2.3321
 4112SOL    HW223796   4.460   4.287   7.102 -1.4831 -0.0524 -0.4416
 4113SOL     OW23797   0.321   0.267  10.685 -0.0784  0.0433  0.8012
 4113SOL    HW123798   0.339   0.173  10.693  2.0052  0.4698  0.9603
 4113SOL    HW223799   0.382   0.287  10.614  0.1853 -1.8627  0.4913
 4114SOL     OW23800   0.377   1.936   2.947  0.5678  0.1443  0.3978
 4114SOL    HW123801   0.363   2.024   2.981  2.0191 -0.3079  2.1832
 4114SOL    HW223802   0.463   1.943   2.907 -0.1621  0.5782 -1.0732
 4115SOL     OW23803   3.772   0.690   3.568 -0.3676  0.1154  0.2508
 4115SOL    HW123804   3.688   0.736   3.579 -1.1737 -1.3355  0.1853
 4115SOL    HW223805   3.802   0.700   3.659  2.6340  0.7770 -0.8311
 4116SOL     OW23806   1.018   0.575   9.492 -0.3077  0.1124 -0.5808
 4116SOL    HW123807   0.971   0.502   9.531 -1.9715  0.6752 -1.5399
 4116SOL    HW223808   0.945   0.637   9.485 -0.0439  0.3799 -1.0047
 4117SOL     OW23809   4.559   3.394   5.220  0.0489 -0.2842  0.1617
 4117SOL    HW123810   4.596   3.350   5.297 -2.0479  1.2256  2.0530
 4117SOL    HW223811   4.490   3.436   5.271 -0.7094 -1.1247 -0.1825
 4118SOL     OW23812   3.493   1.776   3.200  0.3617 -0.0782  0.3559
 4118SOL    HW123813   3.516   1.867   3.182  0.7920  0.0957  1.7506
 4118SOL    HW223814   3.479   1.779   3.295  0.3415  0.6258  0.3316
 4119SOL     OW23815   2.377   1.598   4.258 -0.0585  0.1170 -0.3660
 4119SOL    HW123816   2.316   1.604   4.332  0.1955 -0.4935 -0.1112
 4119SOL    HW223817   2.379   1.507   4.230 -0.8056  0.4417 -1.4542
 4120SOL     OW23818   0.500   3.776   3.645  0.2045 -0.4586  0.1255
 4120SOL    HW123819   0.583   3.733   3.624 -0.1334 -0.4303 -1.2570
 4120SOL    HW223820   0.449   3.762   3.565  0.1726 -1.8336  0.3907
 4121SOL     OW23821   4.244   3.755   5.491  0.1056 -0.1867 -0.4595
 4121SOL    HW123822   4.171   3.798   5.447 -0.0049  0.6851  0.5678
 4121SOL    HW223823   4.285   3.834   5.526  0.8601  0.0156 -1.8197
 4122SOL     OW23824   3.173   1.141  14.150 -0.3522 -0.4584  0.9017
 4122SOL    HW123825   3.131   1.084  14.215 -0.4003  2.0822  3.0915
 4122SOL    HW223826   3.201   1.213  14.207 -1.2003  1.3968 -1.0321
 4123SOL     OW23827   0.350   1.748   2.029  0.3706 -0.1279  0.2110
 4123SOL    HW123828   0.339   1.653   2.028  0.8459 -0.1771 -0.1615
 4123SOL    HW223829   0.279   1.762   2.092 -0.0309  1.8042 -0.6541
 4124SOL     OW23830   2.244   2.123   2.505 -0.1699 -0.0588 -0.2442
 4124SOL    HW123831   2.267   2.213   2.530  0.3747 -0.7954  1.9228
 4124SOL    HW223832   2.207   2.096   2.589  0.1730 -1.0345 -0.4118
 4125SOL     OW23833   3.534   0.024  12.013 -0.2554 -0.0940  0.2292
 4125SOL    HW123834   3.545   0.047  12.105 -0.3945 -1.1648  0.5116
 4125SOL    HW223835   3.551   0.107  11.968 -0.9727  1.0903  2.1223
 4126SOL     OW23836   3.718   2.249   9.363 -0.0563 -0.1652  0.3435
 4126SOL    HW123837   3.699   2.323   9.304  0.8900 -1.0515 -1.0918
 4126SOL    HW223838   3.643   2.242   9.422 -0.5510  2.0491 -0.0134
 4127SOL     OW23839   2.992   3.571   5.031  0.0638 -0.4286  0.0388
 4127SOL    HW123840   3.062   3.510   5.052  1.3041  1.1393  0.4952
 4127SOL    HW223841   2.928   3.523   5.083 -0.3079  0.6978  0.6445
 4128SOL     OW23842   2.499   0.146   0.491 -0.3132 -0.4956  0.0911
 4128SOL    HW123843   2.579   0.121   0.445  0.6323  1.4621  0.6912
 4128SOL    HW223844   2.532   0.148   0.581 -0.0735 -2.9796  0.0599
 4129SOL     OW23845   4.556   1.180   5.798  0.6311 -0.4586 -0.4258
 4129SOL    HW123846   4.529   1.178   5.890  0.8420  0.4746 -0.3484
 4129SOL    HW223847   4.609   1.103   5.778 -0.7029 -1.7684  1.0964
 4130SOL     OW23848   4.334   3.350   4.285 -0.2793 -0.3981 -0.0006
 4130SOL    HW123849   4.305   3.400   4.361  1.5162 -0.6701  0.8686
 4130SOL    HW223850   4.360   3.421   4.227  0.2871 -0.0054  0.7335
 4131SOL     OW23851   2.572   1.471   3.746  1.0356  0.8515 -0.2248
 4131SOL    HW123852   2.565   1.494   3.653  0.8412 -1.8652 -0.9081
 4131SOL    HW223853   2.587   1.561   3.773 -0.1820  0.4987  1.6242
 4132SOL     OW23854   0.741   3.610   4.285  0.0401  0.4563 -0.6028
 4132SOL    HW123855   0.740   3.602   4.381  0.5496  1.9858 -0.4580
 4132SOL    HW223856   0.836   3.622   4.277  0.0685  0.4571 -0.2864
 4133SOL     OW23857   3.129   2.008   8.090  0.1419 -0.0089  0.0210
 4133SOL    HW123858   3.099   1.952   8.018  0.6313  0.8247 -0.8213
 4133SOL    HW223859   3.060   2.072   8.075  0.3426  0.7956  2.5365
 4134SOL     OW23860   2.641   4.587   0.820 -0.4657 -0.3222 -0.0635
 4134SOL    HW123861   2.688   4.670   0.820 -1.4191  0.2145  1.1725
 4134SOL    HW223862   2.555   4.619   0.846 -1.3774 -1.7287 -1.3123
 4135SOL     OW23863   0.458   3.182   8.398  0.3332  0.2117  0.0327
 4135SOL    HW123864   0.538   3.189   8.346 -0.2334  3.4172 -0.4579
 4135SOL    HW223865   0.409   3.120   8.345  2.0646  1.7906 -3.4158
 4136SOL     OW23866   4.088   4.103   9.485  0.3605 -0.3599 -0.4880
 4136SOL    HW123867   4.128   4.181   9.522 -0.9078  0.8953 -1.7669
 4136SOL    HW223868   4.058   4.053   9.561  0.2333  0.0119 -0.2981
 4137SOL     OW23869   0.860   2.551   3.112  0.0429  0.4015 -0.0864
 4137SOL    HW123870   0.830   2.509   3.192 -1.0581 -1.1226 -1.2937
 4137SOL    HW223871   0.779   2.544   3.062 -0.0714  1.9731 -0.1251
 4138SOL     OW23872   1.068   1.871  12.149  0.2040  0.2979  0.1302
 4138SOL    HW123873   1.077   1.811  12.223 -1.4414  0.1189  0.1732
 4138SOL    HW223874   1.144   1.844  12.097 -0.3407  1.6375 -1.3284
 4139SOL     OW23875   3.652   0.649   1.584  0.2627  0.1674 -0.1061
 4139SOL    HW123876   3.652   0.698   1.666 -1.1829 -0.0530  0.0331
 4139SOL    HW223877   3.571   0.600   1.599  0.1289  0.4209 -0.0087
 4140SOL     OW23878   3.927   0.067  13.341  0.4053  1.0493 -0.3081
 4140SOL    HW123879   3.984   0.097  13.271  1.8141 -0.9686 -0.0264
 4140SOL    HW223880   3.854   0.129  13.340 -1.8276 -1.5397  0.8580
 4141SOL     OW23881   0.604   3.380   3.002 -0.1833 -0.1901  0.4035
 4141SOL    HW123882   0.632   3.448   3.063 -0.3479  0.8074 -0.6216
 4141SOL    HW223883   0.522   3.421   2.973 -1.0249 -0.9538  1.7216
 4142SOL     OW23884   2.475   3.249  15.277 -0.1283 -0.5099  0.4254
 4142SOL    HW123885   2.484   3.324  15.335  1.0885 -0.9854  0.8513
 4142SOL    HW223886   2.560   3.205  15.273 -1.0270 -2.2487  0.1896
 4143SOL     OW23887   2.746   4.402   8.857  0.0683  0.1006 -0.2082
 4143SOL    HW123888   2.781   4.465   8.794 -0.3789 -1.2031 -1.7458
 4143SOL    HW223889   2.668   4.451   8.884  0.3602  1.4562 -1.8463
 4144SOL     OW23890   0.275   0.288   1.828 -0.3433 -0.1539  0.3061
 4144SOL    HW123891   0.277   0.244   1.914  0.8574  0.5068  0.6215
 4144SOL    HW223892   0.369   0.279   1.814  0.0024  2.5495  0.9772
 4145SOL     OW23893   0.478   0.607   9.083 -0.1126  0.1873  0.2128
 4145SOL    HW123894   0.566   0.636   9.057 -0.6883  1.8130  0.0623
 4145SOL    HW223895   0.435   0.633   9.002 -1.3432 -2.2863  0.0719
 4146SOL     OW23896   2.932   4.204  16.876 -0.2410  0.7301 -0.1961
 4146SOL    HW123897   2.863   4.244  16.822 -1.9949 -1.7788  0.1835
 4146SOL    HW223898   2.936   4.117  16.838  0.4006  0.4930  0.4099
 4147SOL     OW23899   3.956   0.281   4.260 -0.0173  0.2312  0.3987
 4147SOL    HW123900   4.009   0.292   4.339  0.8121  2.6114 -0.4792
 4147SOL    HW223901   3.956   0.186   4.251  2.0715  0.4090 -1.5358
 4148SOL     OW23902   3.527   3.221   5.823  0.2942 -0.7008  0.4484
 4148SOL    HW123903   3.495   3.172   5.899 -2.0727  0.7701  0.3999
 4148SOL    HW223904   3.594   3.165   5.783  1.3479  1.1318 -0.3427
 4149SOL     OW23905   3.451   2.361   0.419 -0.2317  0.1491  0.0010
 4149SOL    HW123906   3.388   2.419   0.378  0.0916 -0.0795 -0.8100
 4149SOL    HW223907   3.439   2.277   0.375  1.7178 -0.7164  1.0736
 4150SOL     OW23908   4.395   0.985   4.439  0.4703 -0.2959  0.1427
 4150SOL    HW123909   4.453   1.028   4.377  1.1497 -0.7065  0.4951
 4150SOL    HW223910   4.430   0.896   4.451  0.4821 -0.6621 -2.5455
 4151SOL     OW23911   2.583   0.134   2.457 -0.2621  0.7267 -0.3390
 4151SOL    HW123912   2.607   0.111   2.367 -1.3910  2.5827 -1.1324
 4151SOL    HW223913   2.664   0.112   2.502 -1.6169 -4.3935 -0.3809
 4152SOL     OW23914   4.253   1.664   2.987 -0.5684  0.0629  0.2514
 4152SOL    HW123915   4.346   1.680   2.975 -0.8737  1.6134 -0.0877
 4152SOL    HW223916   4.246   1.583   2.936  0.1371 -0.9231  1.7330
 4153SOL     OW23917   0.326   0.280  15.278  0.1805 -0.1293  0.1722
 4153SOL    HW123918   0.267   0.354  15.262 -0.2577 -0.6735 -0.7486
 4153SOL    HW223919   0.290   0.255  15.364 -3.3591  0.5799 -1.1128
 4154SOL     OW23920   0.785   1.061   2.710 -0.1603 -0.0605  0.0002
 4154SOL    HW123921   0.799   1.074   2.617 -0.9843 -1.4666 -0.3183
 4154SOL    HW223922   0.850   1.126   2.736  1.9382 -2.2404  0.2178
 4155SOL     OW23923   0.203   4.359   8.715 -0.5865  0.0103 -0.4412
 4155SOL    HW123924   0.231   4.407   8.637  0.7039 -0.2317 -0.1283
 4155SOL    HW223925   0.181   4.275   8.675 -0.2247 -0.1359 -0.3426
 4156SOL     OW23926   1.346   3.180   5.315 -0.1947 -0.5288 -0.1233
 4156SOL    HW123927   1.312   3.252   5.369  0.7561 -0.5587  0.5170
 4156SOL    HW223928   1.373   3.107   5.371  0.4521  1.1049  1.6830
 4157SOL     OW23929   2.383   3.879   3.830 -0.0029  0.3459 -0.3054
 4157SOL    HW123930   2.387   3.793   3.871  0.7538  0.0375 -1.0283
 4157SOL    HW223931   2.407   3.858   3.740  2.2472  0.5843  0.2447
 4158SOL     OW23932   3.062   1.210   5.775  0.1251 -0.0634  0.5498
 4158SOL    HW123933   3.031   1.289   5.730  1.1635 -0.4405 -0.8247
 4158SOL    HW223934   3.047   1.147   5.705  0.1011  0.5597 -0.0140
 4159SOL     OW23935   0.509   0.934   4.986  0.4008  0.1311  0.5739
 4159SOL    HW123936   0.570   0.889   4.928  0.9734  1.0100  0.4849
 4159SOL    HW223937   0.545   1.023   4.984 -0.4141  0.4405 -0.0719
 4160SOL     OW23938   0.448   4.596   3.042  0.0103  0.2379 -0.2391
 4160SOL    HW123939   0.492   4.565   2.963 -1.5846 -1.3167 -0.5195
 4160SOL    HW223940   0.501   4.549   3.106  0.1190 -0.9523 -1.1981
 4161SOL     OW23941   4.187   1.960   1.379  0.6345  0.4188 -0.0693
 4161SOL    HW123942   4.251   2.010   1.431  1.2725 -0.0930 -0.3639
 4161SOL    HW223943   4.104   2.007   1.380 -0.7264 -1.9697 -2.5053
 4162SOL     OW23944   1.604   1.902   8.330  0.0443  0.3686  0.0171
 4162SOL    HW123945   1.590   1.826   8.387 -0.6630  0.0809 -0.5215
 4162SOL    HW223946   1.695   1.923   8.347 -0.3863  1.9296  0.3515
 4163SOL     OW23947   3.667   1.180   6.818  0.1012 -0.0928  0.7808
 4163SOL    HW123948   3.758   1.204   6.835  0.2314 -1.4202  1.9446
 4163SOL    HW223949   3.631   1.199   6.904  1.8988 -1.3675  1.8396
 4164SOL     OW23950   1.038   0.682  15.107 -0.1636  0.1562 -0.0975
 4164SOL    HW123951   1.072   0.626  15.037  0.3427  1.5674 -0.9738
 4164SOL    HW223952   1.109   0.746  15.115 -1.7181  2.0597 -1.5734
 4165SOL     OW23953   0.600   2.499  13.973 -0.3882 -0.2358 -0.1583
 4165SOL    HW123954   0.596   2.506  13.878  0.5038  1.0313 -0.1121
 4165SOL    HW223955   0.682   2.452  13.984 -0.9093 -1.0275  0.2920
 4166SOL     OW23956   4.620   0.027   0.922 -0.2241 -0.2040  0.2350
 4166SOL    HW123957   4.681   4.684   0.899  0.3649  0.5335 -0.3903
 4166SOL    HW223958   4.543   4.710   0.884 -1.2424  1.3050  0.5902
 4167SOL     OW23959   2.776   1.064   9.173  0.0740  0.1578  0.6001
 4167SOL    HW123960   2.683   1.058   9.152  0.0214  1.3634  0.5039
 4167SOL    HW223961   2.787   1.017   9.256  0.2787  1.9494  1.5897
 4168SOL     OW23962   3.798   0.128   7.841  0.0065  0.0958  0.0512
 4168SOL    HW123963   3.802   0.034   7.822  1.2769 -0.3214  2.3338
 4168SOL    HW223964   3.793   0.168   7.754  1.0161 -0.2726 -0.1714
 4169SOL     OW23965   4.066   3.798   5.139 -0.6966  0.1441 -0.5056
 4169SOL    HW123966   4.157   3.770   5.145 -0.1853  1.2428 -3.4019
 4169SOL    HW223967   4.057   3.859   5.212  0.8246  1.6179 -1.5624
 4170SOL     OW23968   1.274   3.341   1.946  0.0113  0.3756  0.5840
 4170SOL    HW123969   1.256   3.281   2.019  0.1089 -0.5193 -0.1199
 4170SOL    HW223970   1.366   3.365   1.951  0.2642 -0.3180 -0.7548
 4171SOL     OW23971   1.364   1.832  12.361  0.0822  0.5756 -0.0491
 4171SOL    HW123972   1.280   1.789  12.375  0.1149  0.5829  0.1681
 4171SOL    HW223973   1.398   1.783  12.286  0.8071  0.4979  0.3262
 4172SOL     OW23974   3.531   3.306   7.151 -0.1160 -0.5386  0.0508
 4172SOL    HW123975   3.540   3.277   7.060 -0.2988 -1.8283  0.4466
 4172SOL    HW223976   3.470   3.241   7.186  0.4628 -1.8230 -1.3254
 4173SOL     OW23977   0.030   2.271   1.819  0.0549  0.3151 -0.0071
 4173SOL    HW123978   4.709   2.319   1.751 -0.1425 -0.0471 -0.1265
 4173SOL    HW223979   0.062   2.346   1.869  0.5916  0.7635 -1.0333
 4174SOL     OW23980   4.296   2.000   5.772 -0.2485  0.2577  0.3083
 4174SOL    HW123981   4.319   2.093   5.776 -0.6795  0.4086 -0.7802
 4174SOL    HW223982   4.363   1.958   5.717  0.5017  0.7949  0.8125
 4175SOL     OW23983   1.973   2.953   6.362 -0.4117 -0.8089 -0.3286
 4175SOL    HW123984   2.037   3.021   6.340 -1.0302  0.2118  1.0338
 4175SOL    HW223985   2.008   2.874   6.321  0.2927 -1.4717  1.5652
 4176SOL     OW23986   4.546   4.603  12.723 -0.1719  0.3343 -0.2636
 4176SOL    HW123987   4.471   4.662  12.725  0.0089  0.5451  0.1524
 4176SOL    HW223988   4.513   4.527  12.771 -0.5836  1.8237  1.8061
 4177SOL     OW23989   2.701   0.232  11.558  0.1259 -0.1526 -0.6294
 4177SOL    HW123990   2.703   0.281  11.640  2.0782  0.9694 -1.3452
 4177SOL    HW223991   2.780   0.264  11.514  1.8464 -2.1912  0.9970
 4178SOL     OW23992   0.766   2.439   0.758 -0.3530  0.1949  0.0180
 4178SOL    HW123993   0.753   2.352   0.719 -1.5036  1.0437 -1.4772
 4178SOL    HW223994   0.862   2.434   0.751 -0.5055 -3.8810  0.9804
 4179SOL     OW23995   4.098   1.135   7.832  0.2277 -0.0782  0.2226
 4179SOL    HW123996   4.092   1.040   7.845  2.6299 -0.1785  0.5105
 4179SOL    HW223997   4.121   1.154   7.923  1.4448  0.3619 -0.1755
 4180SOL     OW23998   1.211   3.528   0.941  0.0106 -0.7227  0.1727
 4180SOL    HW123999   1.178   3.500   1.026  1.5487  0.9527  1.3449
 4180SOL    HW224000   1.265   3.597   0.981  1.6726 -2.9150  1.7456
 4181SOL     OW24001   4.723   1.884   2.990 -0.8039  0.1804 -1.1329
 4181SOL    HW124002   0.033   1.860   2.905 -0.2085 -0.2633 -0.7618
 4181SOL    HW224003   0.047   1.964   3.004  0.1041 -0.2436 -1.9129
 4182SOL     OW24004   4.351   4.246   5.972 -1.0256 -0.3800  0.0107
 4182SOL    HW124005   4.395   4.276   5.893 -1.4176  0.7154  0.2074
 4182SOL    HW224006   4.259   4.243   5.947 -0.2560  0.0184 -2.8482
 4183SOL     OW24007   3.830   0.350   5.275 -0.3204 -0.4455 -0.2760
 4183SOL    HW124008   3.925   0.354   5.262 -0.1669  1.9027  1.5829
 4183SOL    HW224009   3.808   0.422   5.215 -0.0861 -0.3856 -0.2902
 4184SOL     OW24010   1.479   2.735  15.321  0.0915 -0.0148 -0.0940
 4184SOL    HW124011   1.511   2.817  15.360 -1.9056 -0.3259  2.2197
 4184SOL    HW224012   1.500   2.676  15.393 -0.1065  1.2414  1.0136
 4185SOL     OW24013   0.700   2.461   1.877 -0.4509 -0.3026  0.4144
 4185SOL    HW124014   0.782   2.509   1.864 -0.4974 -0.2612  0.2725
 4185SOL    HW224015   0.724   2.369   1.873  0.3301 -0.1491  1.5310
 4186SOL     OW24016   2.807   3.274  16.780  0.4462  0.0024 -1.0439
 4186SOL    HW124017   2.792   3.264  16.874 -1.4632  0.2304 -1.3359
 4186SOL    HW224018   2.875   3.208  16.767  0.8199  0.0891  0.5171
 4187SOL     OW24019   0.159   4.476  15.493 -0.2074  0.0107 -0.6805
 4187SOL    HW124020   0.245   4.437  15.481 -1.1977 -2.3733  0.0213
 4187SOL    HW224021   0.173   4.559  15.447 -0.5043  0.0887 -0.6287
 4188SOL     OW24022   0.480   4.304   9.195 -0.0082 -0.4712 -0.1669
 4188SOL    HW124023   0.411   4.292   9.260  0.1104  0.5169  0.1338
 4188SOL    HW224024   0.518   4.386   9.225 -1.1399  0.1079 -0.3160
 4189SOL     OW24025   4.689   0.640   6.788 -0.5616 -0.5257 -0.0564
 4189SOL    HW124026   4.646   0.713   6.832  3.0930  2.2751 -1.1890
 4189SOL    HW224027   4.630   0.626   6.714  1.3435  0.5536 -1.7970
 4190SOL     OW24028   3.921   4.282   6.237 -0.2295 -0.1768  0.1498
 4190SOL    HW124029   3.937   4.252   6.326  1.2688 -1.9453 -0.7203
 4190SOL    HW224030   3.917   4.376   6.253 -0.5583 -0.6586  2.9029
 4191SOL     OW24031   3.997   1.466   6.794 -0.6311  0.1082  0.3533
 4191SOL    HW124032   3.994   1.374   6.820 -1.4050 -0.1268 -0.5570
 4191SOL    HW224033   4.087   1.490   6.816  0.6206 -2.0137 -2.4304
 4192SOL     OW24034   1.351   2.048   8.850 -0.2958 -0.2650 -0.6205
 4192SOL    HW124035   1.402   2.066   8.771 -0.1226 -1.4225 -0.7800
 4192SOL    HW224036   1.372   1.956   8.866 -2.5603 -0.6294  0.2968
 4193SOL     OW24037   2.498   0.679   7.503  0.5011 -0.2108 -0.7394
 4193SOL    HW124038   2.524   0.591   7.475  0.2802 -0.7440  0.7362
 4193SOL    HW224039   2.519   0.721   7.419 -0.7135  0.8975 -0.4757
 4194SOL     OW24040   2.307   2.154  16.578 -0.5673 -0.3111  0.0934
 4194SOL    HW124041   2.263   2.092  16.636  0.8300 -0.0824  1.3898
 4194SOL    HW224042   2.300   2.116  16.490  0.5584 -1.7495  0.6328
 4195SOL     OW24043   1.433   1.115   8.147  0.1797  0.1879 -0.0779
 4195SOL    HW124044   1.484   1.182   8.192  0.8964 -0.1740 -0.3657
 4195SOL    HW224045   1.375   1.160   8.085 -1.2645  0.5983  1.5655
 4196SOL     OW24046   2.202   2.057   6.041 -0.2681 -0.1537 -0.4145
 4196SOL    HW124047   2.228   2.149   6.051  0.4278 -0.3617 -0.3469
 4196SOL    HW224048   2.120   2.059   6.089 -0.5774 -1.4088 -0.8854
 4197SOL     OW24049   0.332   3.244  14.076 -0.1160  0.6154 -0.1621
 4197SOL    HW124050   0.413   3.206  14.041  0.3457  2.0863 -0.6935
 4197SOL    HW224051   0.274   3.168  14.065  0.7880  0.1291 -1.6637
 4198SOL     OW24052   4.311   1.018   3.842  0.0434  0.1443  0.0979
 4198SOL    HW124053   4.263   0.986   3.765 -0.8450  0.3309  0.5784
 4198SOL    HW224054   4.276   1.106   3.859  1.4533  0.6323  0.5301
 4199SOL     OW24055   2.012   2.340   8.881  0.0816  0.0104  0.3155
 4199SOL    HW124056   2.019   2.252   8.918 -1.3734  0.6403  2.0633
 4199SOL    HW224057   1.919   2.356   8.895  0.6541  2.7960  0.9345
 4200SOL     OW24058   1.743   4.723   4.241 -0.5414  0.1205  0.9445
 4200SOL    HW124059   1.761   4.700   4.150  3.2343 -0.6820  1.8913
 4200SOL    HW224060   1.792   4.661   4.296 -0.3536 -0.8286 -0.2878
 4201SOL     OW24061   3.742   3.175   4.418 -0.4538 -0.1883  0.0197
 4201SOL    HW124062   3.819   3.199   4.470 -1.5508  0.3609  1.3736
 4201SOL    HW224063   3.734   3.246   4.354 -1.2150 -2.2320 -2.1667
 4202SOL     OW24064   2.807   3.943   2.261 -0.1598 -0.0100  0.6253
 4202SOL    HW124065   2.852   3.859   2.258 -1.2119 -0.5634 -0.0692
 4202SOL    HW224066   2.796   3.970   2.169 -0.0272  1.1296  0.9507
 4203SOL     OW24067   4.466   4.212   8.969  0.4224  0.0119  0.4945
 4203SOL    HW124068   4.537   4.274   8.952  0.6217  0.4561  2.9200
 4203SOL    HW224069   4.494   4.175   9.053  0.0634  2.5652  1.7433
 4204SOL     OW24070   0.264   0.378  16.430  0.3697 -0.6834 -0.4066
 4204SOL    HW124071   0.213   0.309  16.387  0.0230 -1.2433  0.8898
 4204SOL    HW224072   0.204   0.451  16.414 -2.1192 -2.4790  0.7016
 4205SOL     OW24073   1.334   3.629  15.352 -0.7460  0.3035 -0.2032
 4205SOL    HW124074   1.260   3.583  15.393  0.1734 -1.1288 -0.1451
 4205SOL    HW224075   1.408   3.573  15.375 -1.0812 -0.0522  0.0270
 4206SOL     OW24076   2.798   3.230  13.418 -0.4018 -0.3576  0.4305
 4206SOL    HW124077   2.857   3.155  13.424  2.2083  1.4552 -2.3773
 4206SOL    HW224078   2.722   3.204  13.469 -0.1089 -2.2781 -0.0943
 4207SOL     OW24079   0.037   0.609   4.371  0.1495  0.2787  0.0429
 4207SOL    HW124080   0.090   0.541   4.330 -0.5159 -0.1490 -0.1166
 4207SOL    HW224081   4.680   0.612   4.323 -1.2712  1.2893  2.5129
 4208SOL     OW24082   3.795   0.928   1.170 -0.5468  0.0688 -0.0329
 4208SOL    HW124083   3.866   0.992   1.175  0.7561 -1.7513  4.5132
 4208SOL    HW224084   3.715   0.979   1.160  0.4132  0.8364 -4.1140
 4209SOL     OW24085   2.134   3.599   8.786 -0.3555 -0.1825 -0.5600
 4209SOL    HW124086   2.106   3.524   8.839  1.4569 -1.1740 -1.0041
 4209SOL    HW224087   2.084   3.667   8.831 -0.8161  1.7112 -3.9576
 4210SOL     OW24088   1.537   3.392   4.927 -0.3882  0.3783 -0.1305
 4210SOL    HW124089   1.514   3.473   4.972  1.4889  1.1925 -0.6578
 4210SOL    HW224090   1.630   3.398   4.945 -0.3497 -0.2171 -0.1342
 4211SOL     OW24091   2.669   4.337   8.127  0.2664  0.3414 -0.8899
 4211SOL    HW124092   2.727   4.357   8.200 -1.2973 -0.2637  0.5328
 4211SOL    HW224093   2.699   4.254   8.090  2.0792  1.2797 -1.5070
 4212SOL     OW24094   0.698   2.218   7.743  0.0654 -0.2719 -0.0529
 4212SOL    HW124095   0.673   2.195   7.833 -0.2862 -0.6274 -0.2469
 4212SOL    HW224096   0.685   2.136   7.695 -0.0878 -0.2526 -0.0425
 4213SOL     OW24097   3.240   4.076   8.157 -0.5469 -0.0311  0.0833
 4213SOL    HW124098   3.192   4.146   8.111  1.5034 -1.0915 -3.6278
 4213SOL    HW224099   3.188   4.000   8.133  1.2009 -1.2562  0.2173
 4214SOL     OW24100   4.284   1.674   4.040 -0.2092  0.2250 -0.6514
 4214SOL    HW124101   4.331   1.600   4.079  1.4365  1.1467 -0.9083
 4214SOL    HW224102   4.198   1.655   4.076 -1.3442  0.5468 -3.1905
 4215SOL     OW24103   3.405   3.201  10.470  0.6434  0.2899  0.2043
 4215SOL    HW124104   3.491   3.196  10.428  0.7330  1.2822  0.2922
 4215SOL    HW224105   3.364   3.235  10.390  1.2290  0.6560  0.0636
 4216SOL     OW24106   2.111   1.246   6.877 -0.0342  0.5927 -0.3118
 4216SOL    HW124107   2.158   1.281   6.802 -0.3930  0.6979 -0.4866
 4216SOL    HW224108   2.162   1.167   6.897 -0.7291  0.8801  2.6092
 4217SOL     OW24109   3.513   1.382   8.387 -0.0756 -0.2216 -0.1310
 4217SOL    HW124110   3.508   1.306   8.329 -0.1289  0.5441 -1.1433
 4217SOL    HW224111   3.447   1.437   8.344 -0.2519  1.1510  1.9006
 4218SOL     OW24112   2.334   3.966   2.711 -0.0913  0.0228  0.3843
 4218SOL    HW124113   2.378   4.035   2.661  0.7804 -0.8225 -0.0150
 4218SOL    HW224114   2.253   4.004   2.743 -0.4673  0.1340 -0.7176
 4219SOL     OW24115   3.148   1.639   2.705 -0.1305  0.2161 -0.0428
 4219SOL    HW124116   3.183   1.727   2.696 -0.0891 -0.1186 -3.4284
 4219SOL    HW224117   3.130   1.613   2.614  0.2266 -2.8400  0.7330
 4220SOL     OW24118   1.535   0.534  10.532  0.1368  0.1723  0.5915
 4220SOL    HW124119   1.442   0.514  10.528  0.1800 -0.2737  1.7362
 4220SOL    HW224120   1.543   0.524  10.627  3.4348 -1.5382  0.1535
 4221SOL     OW24121   2.400   0.477   5.759  0.2900 -0.7686  0.4826
 4221SOL    HW124122   2.433   0.474   5.849  0.0007  0.7926  0.6403
 4221SOL    HW224123   2.337   0.406   5.769 -1.0077  0.1420 -1.1928
 4222SOL     OW24124   3.760   1.069   7.965  0.5355 -0.1660 -0.0229
 4222SOL    HW124125   3.757   1.063   8.061 -0.7990  0.0292 -0.0513
 4222SOL    HW224126   3.740   1.160   7.944  2.7536  0.2685 -0.3048
 4223SOL     OW24127   3.703   2.264   4.212  0.2458  0.2344 -0.1430
 4223SOL    HW124128   3.723   2.355   4.191  2.7189  0.6179  3.9406
 4223SOL    HW224129   3.640   2.231   4.148 -0.2286  2.0680 -0.6186
 4224SOL     OW24130   3.179   1.316   9.638  0.1276 -0.0397  0.4080
 4224SOL    HW124131   3.248   1.377   9.613 -1.5154  1.8170  0.4125
 4224SOL    HW224132   3.230   1.235   9.633 -3.3036 -2.2051 -0.3015
 4225SOL     OW24133   0.198   3.225  14.925  0.2730  0.0109 -0.1652
 4225SOL    HW124134   0.212   3.287  14.997 -0.9676 -0.1262  0.1939
 4225SOL    HW224135   0.258   3.153  14.944 -0.4232 -0.6542 -0.5342
 4226SOL     OW24136   3.077   1.759   1.528  0.4995 -0.1959  0.3192
 4226SOL    HW124137   3.130   1.752   1.607  1.4227  0.7434 -0.2255
 4226SOL    HW224138   3.100   1.671   1.500  0.1650 -0.0551 -0.4050
 4227SOL     OW24139   3.510   0.936   5.757 -0.0731 -0.1388 -0.3066
 4227SOL    HW124140   3.555   1.015   5.727 -0.6846  0.7997  1.2313
 4227SOL    HW224141   3.573   0.879   5.712 -0.1056 -0.4915  0.0978
 4228SOL     OW24142   1.050   2.533   2.280 -0.4226  0.2852  0.6357
 4228SOL    HW124143   1.050   2.623   2.313 -1.6313  1.1605 -1.7717
 4228SOL    HW224144   1.111   2.496   2.344  0.9587 -0.1177 -0.9217
 4229SOL     OW24145   0.335   0.190   4.024  0.8176  0.1836  0.0526
 4229SOL    HW124146   0.381   0.255   3.971  1.1850 -0.2280 -0.1421
 4229SOL    HW224147   0.246   0.198   3.989  0.8638  0.1166 -0.0839
 4230SOL     OW24148   1.193   4.443   7.993 -0.1030  0.0531 -0.5043
 4230SOL    HW124149   1.157   4.431   8.081  1.8312  0.7182  0.3685
 4230SOL    HW224150   1.109   4.450   7.947 -0.2300 -2.2534 -0.5829
 4231SOL     OW24151   2.205   3.946   4.997 -0.1348  0.4637  0.0265
 4231SOL    HW124152   2.267   4.017   4.982  0.9563  0.2001  3.3527
 4231SOL    HW224153   2.214   3.955   5.092 -2.1654  0.6490  0.1980
 4232SOL     OW24154   1.059   2.255  17.074 -0.4727  0.2866  0.5471
 4232SOL    HW124155   1.000   2.246  16.999 -0.2013 -3.1680  0.7352
 4232SOL    HW224156   1.122   2.313  17.032  0.3675 -1.3042 -0.4043
 4233SOL     OW24157   2.155   3.830   0.416 -0.1569 -0.6679  0.1140
 4233SOL    HW124158   2.217   3.896   0.446 -0.3432 -0.3990 -0.0930
 4233SOL    HW224159   2.070   3.868   0.439 -0.4733 -2.0600  1.2472
 4234SOL     OW24160   0.925   3.116   8.193 -0.6151  0.5514 -0.4303
 4234SOL    HW124161   0.898   3.134   8.283  2.6649 -0.8717  0.8533
 4234SOL    HW224162   0.984   3.189   8.172 -0.8961  0.8378 -0.2262
 4235SOL     OW24163   0.325   3.426  11.226  0.4814 -0.9056 -0.1105
 4235SOL    HW124164   0.299   3.517  11.214  0.3058 -1.0331 -0.6850
 4235SOL    HW224165   0.266   3.393  11.294  0.6862  0.5723  0.7889
 4236SOL     OW24166   0.018   3.744   2.678 -0.2752 -0.0586 -0.9114
 4236SOL    HW124167   0.092   3.793   2.712 -0.7469 -0.6608  0.9603
 4236SOL    HW224168   4.682   3.816   2.667 -1.4890 -0.7211  1.6583
 4237SOL     OW24169   1.046   1.815   2.827  0.2573  0.4844 -0.5963
 4237SOL    HW124170   1.106   1.885   2.853 -3.1067  3.1550  0.0084
 4237SOL    HW224171   1.046   1.814   2.731 -0.4354 -1.1887 -0.5731
 4238SOL     OW24172   2.624   2.859  11.173 -0.0268  0.4951 -0.1867
 4238SOL    HW124173   2.532   2.889  11.170 -0.1321  0.1647 -0.2064
 4238SOL    HW224174   2.664   2.946  11.180  2.1633 -0.4006 -1.7532
 4239SOL     OW24175   3.119   1.920   8.491 -0.0702 -0.0079  0.5561
 4239SOL    HW124176   3.083   1.832   8.477  3.8689 -1.5536  0.2278
 4239SOL    HW224177   3.082   1.940   8.577 -0.9184 -0.8674  0.3977
 4240SOL     OW24178   4.447   0.483   5.308 -0.2710  0.0480  0.5332
 4240SOL    HW124179   4.516   0.546   5.285  0.3364 -1.0021 -0.5468
 4240SOL    HW224180   4.481   0.455   5.393  0.0364 -1.5966 -0.1229
 4241SOL     OW24181   2.661   0.525  15.564  0.0410 -0.7494  0.9238
 4241SOL    HW124182   2.648   0.552  15.472 -1.0161  0.2775  1.3610
 4241SOL    HW224183   2.723   0.456  15.543  1.5906  0.7264  0.6101
 4242SOL     OW24184   1.572   1.567   9.435 -0.2183 -0.1443 -0.7883
 4242SOL    HW124185   1.541   1.495   9.490  0.3735  0.5281  0.4346
 4242SOL    HW224186   1.662   1.581   9.463 -1.2285  2.4820  1.1524
 4243SOL     OW24187   1.030   0.285   6.803 -0.0577  0.0225 -0.3760
 4243SOL    HW124188   1.054   0.243   6.886 -2.0971  3.0042  1.7259
 4243SOL    HW224189   0.937   0.300   6.816 -0.1514 -1.3981  0.6269
 4244SOL     OW24190   1.672   3.893   5.543 -0.2967 -0.2730  0.1784
 4244SOL    HW124191   1.741   3.889   5.609  1.8176  1.1009 -1.9545
 4244SOL    HW224192   1.718   3.881   5.459  0.0675 -2.1680  0.6463
 4245SOL     OW24193   2.673   1.037   4.566 -0.2542  0.0874 -0.1118
 4245SOL    HW124194   2.635   1.105   4.511  0.1189  0.7321  0.4189
 4245SOL    HW224195   2.765   1.044   4.539 -0.4651 -0.5134 -1.0115
 4246SOL     OW24196   1.652   4.688   8.175 -0.6059  0.4498 -0.6116
 4246SOL    HW124197   1.610   4.618   8.126 -1.2807 -0.6956  1.5904
 4246SOL    HW224198   1.746   4.673   8.165 -0.7260 -1.4578  1.2023
 4247SOL     OW24199   3.469   0.741   5.950  0.5007 -0.1389  0.0286
 4247SOL    HW124200   3.472   0.820   5.895  0.1571 -1.3374 -1.6874
 4247SOL    HW224201   3.555   0.746   5.992  1.5000 -0.6188 -1.9549
 4248SOL     OW24202   0.593   2.689  10.981  0.3266  0.0933  0.0820
 4248SOL    HW124203   0.584   2.772  11.028  4.7119  1.4735 -1.4422
 4248SOL    HW224204   0.533   2.701  10.907 -0.0451  0.0535  0.3766
 4249SOL     OW24205   3.035   1.282   3.678 -0.1471 -0.3105  0.7198
 4249SOL    HW124206   3.015   1.291   3.584  1.5980 -1.1911  0.2578
 4249SOL    HW224207   2.980   1.350   3.717  0.1145 -0.1335  0.7871
 4250SOL     OW24208   1.057   3.799   5.117  0.0030  0.1938  0.0070
 4250SOL    HW124209   1.091   3.884   5.147 -1.4563  0.7847  0.0347
 4250SOL    HW224210   1.004   3.771   5.192 -2.5173 -1.1654 -2.2808
 4251SOL     OW24211   1.771   1.973  14.301  0.1458 -0.2966 -0.6070
 4251SOL    HW124212   1.695   1.955  14.247  1.9658 -2.4757 -2.4382
 4251SOL    HW224213   1.748   1.973  14.394 -3.6529 -1.6052 -1.5739
 4252SOL     OW24214   3.231   2.294   7.713 -0.2383  0.1021 -0.0727
 4252SOL    HW124215   3.289   2.369   7.722 -1.5539  1.3625 -2.1568
 4252SOL    HW224216   3.181   2.306   7.632  0.8599 -0.9697 -0.9083
 4253SOL     OW24217   1.490   2.058   4.468  0.1947 -0.3466  0.1098
 4253SOL    HW124218   1.473   1.965   4.453 -1.0430 -0.3298  1.4470
 4253SOL    HW224219   1.437   2.107   4.405 -0.0105 -1.1332 -0.3255
 4254SOL     OW24220   1.961   0.898   5.903  0.7944  0.0112  0.1674
 4254SOL    HW124221   1.929   0.919   5.816 -1.4469 -0.2551  0.9435
 4254SOL    HW224222   2.051   0.918   5.877  0.7085 -0.0696 -0.1885
 4255SOL     OW24223   1.973   1.442   9.028 -0.1387  0.0729 -0.1490
 4255SOL    HW124224   1.920   1.366   9.052  2.5122 -1.5409  0.5520
 4255SOL    HW224225   2.058   1.411   9.059 -2.0866  0.3957  5.5351
 4256SOL     OW24226   2.015   2.584   8.062  0.3231 -0.0663  0.2084
 4256SOL    HW124227   1.926   2.619   8.056  0.3096 -0.0965  0.2306
 4256SOL    HW224228   2.024   2.613   8.153 -2.3756  2.3134 -0.2907
 4257SOL     OW24229   2.376   1.405   9.014 -0.4404 -0.1794  0.3904
 4257SOL    HW124230   2.466   1.411   9.046 -0.2576  2.8391 -0.7370
 4257SOL    HW224231   2.338   1.482   9.056 -1.1556  0.7819 -2.0296
 4258SOL     OW24232   2.381   0.697   6.421 -0.0659 -0.6432 -0.0956
 4258SOL    HW124233   2.311   0.648   6.464 -0.3860 -0.5464 -0.5081
 4258SOL    HW224234   2.439   0.718   6.494  1.6259 -1.3088 -1.2504
 4259SOL     OW24235   0.011   3.701   0.883  0.1044 -0.3404 -0.5465
 4259SOL    HW124236   0.031   3.662   0.968 -0.5716 -0.0143 -0.2427
 4259SOL    HW224237   4.703   3.788   0.904 -1.0453 -1.2771  1.4300
 4260SOL     OW24238   4.313   2.447   9.041  0.4280 -0.1183  0.3342
 4260SOL    HW124239   4.279   2.530   9.006 -1.2552 -1.6008 -1.4886
 4260SOL    HW224240   4.388   2.416   8.991 -0.0322 -2.0730  0.8792
 4261SOL     OW24241   2.974   4.497   2.551  0.2489 -0.0434  0.3850
 4261SOL    HW124242   2.890   4.459   2.525 -0.8985  2.8063 -0.0569
 4261SOL    HW224243   3.003   4.435   2.618 -0.0913 -0.2163  0.3748
 4262SOL     OW24244   0.194   2.165   1.010 -0.4254  0.3484  0.1330
 4262SOL    HW124245   0.273   2.220   1.009 -0.7240  0.7991  1.5066
 4262SOL    HW224246   0.213   2.093   1.070 -5.2006 -0.9194  0.0812
 4263SOL     OW24247   0.772   2.524   8.951 -0.1675  0.1224  0.3751
 4263SOL    HW124248   0.733   2.480   8.876 -0.1280 -2.2057  1.7176
 4263SOL    HW224249   0.708   2.589   8.979  1.4869  2.4006 -1.1984
 4264SOL     OW24250   2.393   0.003   4.008 -0.5542 -0.0144 -0.4720
 4264SOL    HW124251   2.401   4.641   4.043 -0.5507  0.7184  1.3612
 4264SOL    HW224252   2.377   0.056   4.086  1.4379 -1.0633  0.6391
 4265SOL     OW24253   4.125   3.525   7.414  0.5598  0.1950  0.9694
 4265SOL    HW124254   4.132   3.434   7.384  2.1610  0.2429  1.1718
 4265SOL    HW224255   4.030   3.538   7.419  0.2387 -2.2484  1.5904
 4266SOL     OW24256   2.159   1.911   4.233 -0.3788 -0.0717 -0.6898
 4266SOL    HW124257   2.157   1.841   4.297 -0.7845 -0.5290 -1.2001
 4266SOL    HW224258   2.245   1.949   4.248 -1.0760  1.3667 -0.3028
 4267SOL     OW24259   1.505   1.449   7.037 -0.5365  0.4790 -0.7369
 4267SOL    HW124260   1.430   1.507   7.025 -0.4490  0.7596  0.1086
 4267SOL    HW224261   1.470   1.369   6.997 -2.3873  1.9141 -1.9705
 4268SOL     OW24262   4.232   1.517   6.911 -0.1656  0.3889  0.1288
 4268SOL    HW124263   4.248   1.499   7.003  0.7858  0.1625 -0.0898
 4268SOL    HW224264   4.286   1.596   6.903  1.0199 -0.4619 -0.1525
 4269SOL     OW24265   0.594   1.749   3.698 -0.1445  0.9650  0.3033
 4269SOL    HW124266   0.546   1.705   3.628  2.8356 -0.1066 -1.0503
 4269SOL    HW224267   0.589   1.842   3.676 -1.5458  0.7552 -0.2310
 4270SOL     OW24268   4.406   1.905  16.342  0.3218  0.2206  0.2451
 4270SOL    HW124269   4.464   1.950  16.280  0.1936  0.1187  0.0507
 4270SOL    HW224270   4.390   1.820  16.301 -0.1634  1.0671 -1.3099
 4271SOL     OW24271   4.215   2.990  14.679 -0.1018  0.1500 -0.0191
 4271SOL    HW124272   4.307   2.981  14.657 -0.0291  2.0434 -0.4967
 4271SOL    HW224273   4.222   2.956  14.768  0.4419  2.1636  0.7075
 4272SOL     OW24274   1.824   1.074   5.279  0.0148  0.0261 -0.3180
 4272SOL    HW124275   1.877   1.041   5.351 -0.9931 -1.1046 -0.1123
 4272SOL    HW224276   1.758   1.131   5.318  0.9568  1.0916 -0.2907
 4273SOL     OW24277   2.314   4.313  12.295  0.1907  0.1027  0.3696
 4273SOL    HW124278   2.368   4.323  12.374 -0.2709 -0.4653  0.7585
 4273SOL    HW224279   2.332   4.222  12.270  1.2687  0.5129 -0.3273
 4274SOL     OW24280   2.411   3.672   9.136 -0.0065  0.6841 -0.4197
 4274SOL    HW124281   2.429   3.709   9.223 -3.7045 -1.0049  1.0532
 4274SOL    HW224282   2.380   3.752   9.095  0.8072 -0.2085 -2.7467
 4275SOL     OW24283   1.350   2.488   0.713 -0.4391 -0.9513  0.2959
 4275SOL    HW124284   1.430   2.520   0.755 -1.1517  1.5175 -0.2413
 4275SOL    HW224285   1.387   2.451   0.633  2.1733  1.1641  0.5186
 4276SOL     OW24286   0.054   0.059   3.219 -0.3295  0.2385 -0.5911
 4276SOL    HW124287   0.039   0.143   3.262  0.1852 -0.1488  0.3403
 4276SOL    HW224288   4.694   0.018   3.209  0.7267 -2.4689  1.4979
 4277SOL     OW24289   4.357   4.672  11.016 -0.1367  0.0384  0.1063
 4277SOL    HW124290   4.389   4.583  11.003 -1.3379 -0.1258 -1.7653
 4277SOL    HW224291   4.431   4.706  11.065 -0.0657  1.8271 -1.2547
 4278SOL     OW24292   1.821   0.338  12.537 -0.5935 -0.2410  0.3593
 4278SOL    HW124293   1.871   0.413  12.569 -1.2936 -0.1035  1.1417
 4278SOL    HW224294   1.839   0.280  12.610 -0.7273  0.1158  0.6759
 4279SOL     OW24295   2.554   3.155   8.624  0.0526  0.1396 -0.1289
 4279SOL    HW124296   2.563   3.215   8.698  2.9879 -2.1097  1.3167
 4279SOL    HW224297   2.497   3.092   8.668 -0.5966  0.1444 -0.9448
 4280SOL     OW24298   2.318   1.029   7.910 -0.2570  0.2791  0.3667
 4280SOL    HW124299   2.341   1.038   8.003  2.6576  0.5041 -0.3815
 4280SOL    HW224300   2.292   0.937   7.911 -1.6520  0.6740 -0.4897
 4281SOL     OW24301   1.205   3.882  11.069  0.2364  1.0899  0.0387
 4281SOL    HW124302   1.222   3.790  11.092  3.4341  1.7414  0.2240
 4281SOL    HW224303   1.283   3.929  11.098  0.5471  0.8132 -0.3569
 4282SOL     OW24304   3.668   3.642  17.334 -0.1782  0.0336  0.2674
 4282SOL    HW124305   3.733   3.614  17.270  1.3148  0.5791  1.5317
 4282SOL    HW224306   3.700   3.593  17.410  1.2368 -1.6158 -1.4112
 4283SOL     OW24307   1.251   4.331  16.076 -0.1558  0.3915  0.0492
 4283SOL    HW124308   1.257   4.411  16.127 -0.5904  0.7035 -0.3886
 4283SOL    HW224309   1.326   4.341  16.018  1.9524 -0.8434  2.5959
 4284SOL     OW24310   0.532   0.294   7.177  0.2103 -0.0709 -0.2185
 4284SOL    HW124311   0.531   0.207   7.218 -0.1680  0.1658  0.2606
 4284SOL    HW224312   0.583   0.347   7.238  1.0757 -1.0707 -0.0799
 4285SOL     OW24313   2.673   1.306   7.860  0.3348 -0.2268  0.8004
 4285SOL    HW124314   2.616   1.259   7.798  1.1331 -0.9950  0.6446
 4285SOL    HW224315   2.657   1.248   7.934 -2.2588 -0.8020 -0.1791
 4286SOL     OW24316   3.753   3.294   7.311  0.1683  0.0228  0.5127
 4286SOL    HW124317   3.759   3.350   7.388 -1.0670  0.9842 -0.0920
 4286SOL    HW224318   3.667   3.312   7.274 -0.5098 -2.9450  0.5899
 4287SOL     OW24319   3.297   4.692   0.521  0.2614 -0.4035  0.7392
 4287SOL    HW124320   3.209   4.669   0.549  0.3987 -1.0393  0.6624
 4287SOL    HW224321   3.286   0.052   0.482 -1.0267 -0.3421  1.2379
 4288SOL     OW24322   4.723   0.786   6.183  0.0542  0.0058  0.0235
 4288SOL    HW124323   4.713   0.786   6.278  0.5417  1.0661  0.0693
 4288SOL    HW224324   0.006   0.692   6.165 -0.8515 -0.2357  0.8159
 4289SOL     OW24325   4.028   1.956   5.873  0.8699 -0.1813 -0.9270
 4289SOL    HW124326   4.100   1.951   5.810  1.2674  0.6130 -0.5361
 4289SOL    HW224327   4.042   1.884   5.935 -1.1323  1.6024  1.5825
 4290SOL     OW24328   3.655   0.770   5.592  0.2975 -0.4046  0.1360
 4290SOL    HW124329   3.674   0.768   5.499  2.7663  2.6195  0.5888
 4290SOL    HW224330   3.734   0.731   5.630 -0.2997  0.4528  2.2564
 4291SOL     OW24331   2.480   1.917   4.824  0.0261  0.0830  0.3886
 4291SOL    HW124332   2.423   1.905   4.749 -0.6021  1.8905  0.5676
 4291SOL    HW224333   2.538   1.983   4.786 -0.9863  0.1326 -1.0539
 4292SOL     OW24334   1.022   3.122   5.077  0.1965 -0.2703 -0.7517
 4292SOL    HW124335   1.000   3.120   4.984 -1.2275 -0.0371 -0.4173
 4292SOL    HW224336   0.974   3.202   5.100  2.6736  1.0029  0.0536
 4293SOL     OW24337   1.658   1.622   9.942  0.7076 -0.0259  0.0728
 4293SOL    HW124338   1.728   1.686   9.955 -1.0012  1.5054  1.8694
 4293SOL    HW224339   1.707   1.539   9.939 -1.7668 -1.3838 -2.3510
 4294SOL     OW24340   4.439   1.834   8.087  1.2467 -0.4547  0.3004
 4294SOL    HW124341   4.377   1.762   8.085 -0.3472  0.8886  0.8038
 4294SOL    HW224342   4.520   1.784   8.100 -0.0525 -2.6783 -0.2378
 4295SOL     OW24343   1.314   0.165   0.583 -0.1169  0.2846 -0.5844
 4295SOL    HW124344   1.283   0.109   0.655 -1.2433  1.7265  0.0651
 4295SOL    HW224345   1.247   0.166   0.515 -0.7058 -1.3773 -0.0403
 4296SOL     OW24346   3.415   2.435   4.493 -0.2663  0.6379 -0.0118
 4296SOL    HW124347   3.465   2.354   4.499 -1.3865 -0.1781 -1.5854
 4296SOL    HW224348   3.417   2.454   4.587  1.4517  2.3120 -0.3993
 4297SOL     OW24349   3.738   1.490   3.697 -0.1366  0.1629 -0.3870
 4297SOL    HW124350   3.830   1.473   3.715 -0.3964  1.3882  2.1407
 4297SOL    HW224351   3.727   1.436   3.619 -2.4657 -1.6916  1.2050
 4298SOL     OW24352   1.547   1.629  11.390 -0.2831 -0.0963 -0.0171
 4298SOL    HW124353   1.536   1.534  11.400  0.0333 -0.1897 -0.5412
 4298SOL    HW224354   1.492   1.640  11.312 -2.9107 -0.2061  1.8066
 4299SOL     OW24355   0.029   0.253   8.297  0.0131 -0.2577 -0.0294
 4299SOL    HW124356   4.708   0.331   8.327 -0.4697  0.5986 -2.9491
 4299SOL    HW224357   0.049   0.211   8.380  1.0469  0.6394  0.1680
 4300SOL     OW24358   1.875   1.001   3.205  0.4530  0.1283 -0.4447
 4300SOL    HW124359   1.935   0.939   3.165  0.7342 -1.5568  2.6096
 4300SOL    HW224360   1.848   0.952   3.283  0.0257 -0.0097 -0.6753
 4301SOL     OW24361   1.264   3.507   8.122  0.1067  0.5705 -0.4352
 4301SOL    HW124362   1.271   3.511   8.217  0.5815  0.7827 -0.4829
 4301SOL    HW224363   1.225   3.593   8.106  2.8066  2.1068  1.2629
 4302SOL     OW24364   4.589   0.296   4.952  0.2179  0.3225  0.3123
 4302SOL    HW124365   4.530   0.372   4.951 -2.0892 -1.4786  0.5546
 4302SOL    HW224366   4.669   0.346   4.938 -0.2681  1.1355  0.3977
 4303SOL     OW24367   1.352   1.924  14.992 -0.2804  0.6392 -0.5995
 4303SOL    HW124368   1.445   1.921  14.970 -0.8148 -1.4686 -2.5668
 4303SOL    HW224369   1.319   2.001  14.947 -0.1093  1.6598  1.0073
 4304SOL     OW24370   3.300   0.550   5.853 -0.1650  0.5705 -0.4406
 4304SOL    HW124371   3.357   0.614   5.896  1.8676 -0.9752 -0.8038
 4304SOL    HW224372   3.352   0.525   5.776  0.6019  2.9286 -0.6696
 4305SOL     OW24373   3.391   2.337   5.939  0.2163  0.5285  0.4244
 4305SOL    HW124374   3.381   2.425   5.901 -0.4563  0.1766 -0.2216
 4305SOL    HW224375   3.446   2.353   6.015 -0.1356  1.7535  0.4269
 4306SOL     OW24376   3.644   1.781   5.109 -0.0256  0.2138 -0.4683
 4306SOL    HW124377   3.578   1.796   5.042  0.1887 -0.9251 -0.9290
 4306SOL    HW224378   3.656   1.873   5.133 -2.2067 -0.7413  4.3577
 4307SOL     OW24379   2.117   0.786  16.798  0.6188 -0.4374  0.8864
 4307SOL    HW124380   2.102   0.742  16.714 -0.1043  1.1526  0.1841
 4307SOL    HW224381   2.212   0.790  16.789  0.4254  0.5898 -0.7993
 4308SOL     OW24382   1.319   4.357   4.511 -0.2855 -0.0658  0.4246
 4308SOL    HW124383   1.347   4.266   4.523  0.4001  0.0883  0.0476
 4308SOL    HW224384   1.236   4.360   4.557 -0.2852  3.5124  0.1815
 4309SOL     OW24385   4.199   0.304   2.603  0.5203 -0.9682  0.2814
 4309SOL    HW124386   4.163   0.215   2.600  2.3773 -1.7433  0.5346
 4309SOL    HW224387   4.141   0.346   2.540  0.5064  2.1235  2.3897
 4310SOL     OW24388   3.373   3.734   4.444  0.4324  0.5138 -0.4078
 4310SOL    HW124389   3.387   3.649   4.403  0.8461 -0.6024  2.0116
 4310SOL    HW224390   3.291   3.758   4.401 -1.3240 -3.7029  0.5708
 4311SOL     OW24391   3.123   3.725  16.736 -0.4942 -0.0892  0.0261
 4311SOL    HW124392   3.132   3.747  16.643 -0.9825 -0.6952 -0.1632
 4311SOL    HW224393   3.084   3.638  16.729 -1.3189  0.2019  1.0956
 4312SOL     OW24394   0.807   2.377   7.233  0.2824 -0.0641  0.4179
 4312SOL    HW124395   0.779   2.398   7.322  1.8830  2.7997  0.2553
 4312SOL    HW224396   0.771   2.453   7.186  0.8334 -0.8073 -1.2034
 4313SOL     OW24397   1.045   4.301   7.468  0.4853 -0.0408 -0.2262
 4313SOL    HW124398   1.094   4.252   7.534  1.4886 -0.0149 -0.9523
 4313SOL    HW224399   0.961   4.305   7.514  0.9706  1.3255  0.5562
 4314SOL     OW24400   3.629   2.411   6.666  0.0072 -0.0247 -0.0062
 4314SOL    HW124401   3.627   2.322   6.632 -1.5063 -1.1220  3.0309
 4314SOL    HW224402   3.562   2.451   6.609 -0.9010  1.4713  2.1142
 4315SOL     OW24403   0.934   1.702   8.375  0.2671 -0.4711  0.3271
 4315SOL    HW124404   1.001   1.641   8.344  0.3541 -0.6763  0.9222
 4315SOL    HW224405   0.989   1.779   8.362 -0.9291  0.6004  1.5385
 4316SOL     OW24406   4.138   2.358  14.516 -0.3089  0.1709 -0.1946
 4316SOL    HW124407   4.104   2.440  14.552  1.2845  0.2957  1.0005
 4316SOL    HW224408   4.153   2.381  14.424 -0.7214  2.0830  0.2116
 4317SOL     OW24409   4.484   0.661   3.041 -0.2082  0.3554 -0.2039
 4317SOL    HW124410   4.409   0.716   3.018 -0.0812  0.1785 -1.0446
 4317SOL    HW224411   4.537   0.655   2.961  1.8796  2.1302  1.0245
 4318SOL     OW24412   2.741   0.536  10.147 -0.7624 -0.2312 -0.1667
 4318SOL    HW124413   2.762   0.628  10.161 -0.1777 -0.5445  0.9709
 4318SOL    HW224414   2.646   0.542  10.160 -0.3134 -0.2443  2.9405
 4319SOL     OW24415   1.609   2.052  12.871  0.5442 -0.8281 -0.2831
 4319SOL    HW124416   1.632   1.984  12.935  0.9450 -0.3524  0.0736
 4319SOL    HW224417   1.637   2.131  12.916  0.6121 -1.6884  1.1881
 4320SOL     OW24418   4.708   2.134   2.242 -0.5183 -0.3088  0.4023
 4320SOL    HW124419   0.045   2.087   2.296  1.0708  0.4489 -0.8160
 4320SOL    HW224420   4.690   2.080   2.165 -0.4882  0.1493  0.0771
 4321SOL     OW24421   1.411   3.950  11.597 -0.3784 -0.3430 -0.1895
 4321SOL    HW124422   1.502   3.948  11.628 -0.2524  0.5704 -0.4957
 4321SOL    HW224423   1.359   3.914  11.668 -0.1706 -0.8596 -0.2996
 4322SOL     OW24424   0.555   3.402   3.468 -0.2323  0.5460 -0.3665
 4322SOL    HW124425   0.461   3.399   3.448 -0.5493  2.2337  0.8167
 4322SOL    HW224426   0.576   3.487   3.508  1.2353 -0.2472  0.5287
 4323SOL     OW24427   2.766   0.661   2.396 -0.4951 -0.2405 -0.1546
 4323SOL    HW124428   2.673   0.651   2.376 -0.2408 -0.4898 -1.2281
 4323SOL    HW224429   2.804   0.706   2.321 -1.6724  0.6165 -0.2383
 4324SOL     OW24430   2.781   3.165  17.058 -0.0326  0.6248 -1.4027
 4324SOL    HW124431   2.703   3.217  17.076 -1.1159 -1.6959  0.4929
 4324SOL    HW224432   2.740   3.081  17.039 -0.0139 -0.1235  1.9174
 4325SOL     OW24433   3.838   2.100   3.395  0.5394  0.3087 -0.1658
 4325SOL    HW124434   3.927   2.115   3.363  0.3683 -0.2556 -0.8969
 4325SOL    HW224435   3.790   2.083   3.315  2.5130 -1.9570 -0.8549
 4326SOL     OW24436   0.170   3.132   5.540 -0.4774 -0.3806 -0.6333
 4326SOL    HW124437   0.256   3.153   5.503 -0.3514 -0.6986 -0.5216
 4326SOL    HW224438   0.162   3.187   5.618  1.5722  1.1757 -1.5077
 4327SOL     OW24439   2.702   1.419   7.417  0.0402 -0.2693 -0.5437
 4327SOL    HW124440   2.774   1.462   7.371 -0.9392  0.3237 -1.5279
 4327SOL    HW224441   2.754   1.348   7.455 -0.5219 -0.3796  0.0176
 4328SOL     OW24442   3.937   1.073  11.172 -0.3321 -0.8389 -0.6797
 4328SOL    HW124443   4.010   1.017  11.199  1.3433  1.8911  0.3728
 4328SOL    HW224444   3.941   1.157  11.217 -2.3845 -0.6925 -0.7597
 4329SOL     OW24445   0.864   3.336  17.391  0.1611 -0.3282 -0.0431
 4329SOL    HW124446   0.923   3.282  17.444 -0.1664 -1.1998 -0.5538
 4329SOL    HW224447   0.908   3.420  17.399  2.3498 -1.3192 -1.6179
 4330SOL     OW24448   3.523   0.032   2.099 -0.1361 -0.0151  0.2127
 4330SOL    HW124449   3.518   0.010   2.006 -1.5825 -0.1761  0.3245
 4330SOL    HW224450   3.475   0.114   2.102  0.4288  0.3049  0.5028
 4331SOL     OW24451   4.633   2.292  12.085 -0.4495  0.0270 -0.5246
 4331SOL    HW124452   4.606   2.362  12.026  3.0818  1.1453 -0.8480
 4331SOL    HW224453   4.648   2.216  12.029  2.0282 -0.7610  1.1932
 4332SOL     OW24454   1.185   0.955   6.065 -0.0800 -0.4408 -0.1071
 4332SOL    HW124455   1.098   0.937   6.031  0.9739 -2.1690 -1.8786
 4332SOL    HW224456   1.217   1.022   6.005  0.1390  1.6753  2.3613
 4333SOL     OW24457   2.927   3.943   4.458  0.3610 -0.0051 -0.1187
 4333SOL    HW124458   2.833   3.928   4.451  0.0800  0.5894  2.2816
 4333SOL    HW224459   2.967   3.877   4.402  1.8363  0.8362 -0.0613
 4334SOL     OW24460   0.957   0.583   8.016  0.3601 -0.3052 -0.1139
 4334SOL    HW124461   0.996   0.507   8.059 -0.8248 -0.3723  0.8431
 4334SOL    HW224462   0.967   0.547   7.927 -2.6090 -2.0507  0.2682
 4335SOL     OW24463   4.707   1.466   4.507 -0.1933  0.2188 -0.0552
 4335SOL    HW124464   4.626   1.416   4.503 -0.2208  0.2564  0.0422
 4335SOL    HW224465   0.037   1.389   4.500 -0.9990 -0.3439 -0.2676
 4336SOL     OW24466   3.454   0.807   3.948  0.5586 -0.3331 -0.3238
 4336SOL    HW124467   3.393   0.803   3.875 -1.7667 -0.4071  1.6340
 4336SOL    HW224468   3.518   0.876   3.928 -2.0643  0.9753 -4.1739
 4337SOL     OW24469   0.779   4.573   8.820 -0.3996  0.0694 -0.1489
 4337SOL    HW124470   0.701   4.518   8.826 -0.7440  0.4613 -1.0616
 4337SOL    HW224471   0.844   4.540   8.882 -0.7667  1.6769  1.1125
 4338SOL     OW24472   3.022   4.705  11.210  0.3739  0.5218  0.1008
 4338SOL    HW124473   2.947   0.031  11.238 -1.2439 -0.5981 -2.0863
 4338SOL    HW224474   3.050   0.021  11.128 -0.5702  0.8240 -0.0668
 4339SOL     OW24475   2.498   3.522  11.122 -0.1989  0.0479 -0.0293
 4339SOL    HW124476   2.467   3.597  11.072  3.1405 -0.1566 -2.3483
 4339SOL    HW224477   2.590   3.510  11.101 -0.4914  0.8534 -1.7812
 4340SOL     OW24478   2.998   1.493   9.600 -0.0539 -0.1284  0.4381
 4340SOL    HW124479   3.070   1.431   9.615  1.0688  1.6731  2.4765
 4340SOL    HW224480   2.920   1.442   9.620 -0.7286  1.5706  2.1543
 4341SOL     OW24481   2.565   4.245   9.261  0.0966  0.0166 -0.3842
 4341SOL    HW124482   2.502   4.302   9.217 -0.4007 -1.3808 -1.5033
 4341SOL    HW224483   2.579   4.186   9.186  0.5565 -0.6900  0.2562
 4342SOL     OW24484   1.987   3.908   5.472  0.1152 -0.4036  0.1330
 4342SOL    HW124485   1.986   3.828   5.421 -0.9383 -0.9426  1.0140
 4342SOL    HW224486   2.034   3.881   5.551  3.5113  0.1870 -1.6790
 4343SOL     OW24487   3.701   1.480   9.301  0.3124  0.6181  0.0504
 4343SOL    HW124488   3.731   1.418   9.235 -2.0470  0.2679 -0.6903
 4343SOL    HW224489   3.780   1.530   9.319  0.7607 -0.0600 -0.0271
 4344SOL     OW24490   3.966   4.129   2.239 -0.4194 -0.6746  0.1768
 4344SOL    HW124491   3.980   4.184   2.317  1.1198 -1.0518  0.1738
 4344SOL    HW224492   3.879   4.090   2.248 -1.5988  1.4727 -2.2277
 4345SOL     OW24493   2.478   2.912   0.854 -0.0150 -0.4833 -0.0107
 4345SOL    HW124494   2.491   2.979   0.787  1.5518 -2.5112 -1.7489
 4345SOL    HW224495   2.495   2.836   0.798  1.0230  0.0842 -0.4775
 4346SOL     OW24496   0.073   0.582   4.646 -0.4501  0.5010 -0.2174
 4346SOL    HW124497   0.137   0.653   4.645  1.2553 -1.0639 -1.7624
 4346SOL    HW224498   0.047   0.585   4.554 -1.0344  0.1587 -0.0613
 4347SOL     OW24499   1.147   2.996   8.077 -0.0640 -0.2021 -0.0592
 4347SOL    HW124500   1.134   3.063   8.010 -1.8981 -0.7837 -0.2919
 4347SOL    HW224501   1.081   3.005   8.146  0.7955 -0.2461  0.7815
 4348SOL     OW24502   3.088   1.253   3.203  0.2450  0.0634  1.2728
 4348SOL    HW124503   3.100   1.266   3.109 -2.5735 -1.1415  0.7323
 4348SOL    HW224504   2.997   1.283   3.204 -0.4257 -1.9896  2.2378
 4349SOL     OW24505   0.739   2.452  10.953  0.0568 -0.1728 -0.0015
 4349SOL    HW124506   0.669   2.506  10.990 -0.2269 -0.3589 -0.2712
 4349SOL    HW224507   0.815   2.511  10.951 -0.4071  0.4235 -0.1004
 4350SOL     OW24508   2.775   0.358   5.315 -0.1326  0.2782 -0.0691
 4350SOL    HW124509   2.744   0.446   5.338 -0.6483 -0.4042  1.8976
 4350SOL    HW224510   2.722   0.328   5.241  1.6813  0.8943 -1.5978
 4351SOL     OW24511   3.647   3.509   4.953 -0.4122  0.1983 -0.7356
 4351SOL    HW124512   3.725   3.558   4.977  0.2346 -1.0034 -0.4148
 4351SOL    HW224513   3.657   3.509   4.858 -3.1944 -1.1678 -1.0361
 4352SOL     OW24514   1.471   3.716  16.379  0.7878  0.2680  0.1231
 4352SOL    HW124515   1.497   3.807  16.392  1.1817 -0.0618  1.5803
 4352SOL    HW224516   1.539   3.677  16.433  1.4842  1.5200  0.1475
 4353SOL     OW24517   4.665   0.218   0.558  0.2023  0.1868 -0.2980
 4353SOL    HW124518   4.645   0.288   0.620 -2.7066 -0.9206  0.0290
 4353SOL    HW224519   0.018   0.181   0.596 -0.3451 -1.2995 -0.6147
 4354SOL     OW24520   4.581   3.510   5.663  0.3705  0.2118 -0.0723
 4354SOL    HW124521   4.562   3.494   5.756 -2.6704  0.3360 -0.6782
 4354SOL    HW224522   4.511   3.454   5.631 -0.8170 -0.4624  3.6452
 4355SOL     OW24523   1.048   1.239   2.059  0.1240 -0.0088 -0.2592
 4355SOL    HW124524   1.016   1.227   1.969 -0.2409 -0.6109 -0.0468
 4355SOL    HW224525   1.049   1.335   2.051 -4.1877  0.0486 -0.0868
 4356SOL     OW24526   0.375   0.357   8.770 -0.4842 -0.0824 -0.4754
 4356SOL    HW124527   0.340   0.296   8.835 -0.4383  2.1273  1.5783
 4356SOL    HW224528   0.386   0.299   8.694  1.4456 -1.4492  0.8388
 4357SOL     OW24529   3.982   4.392   1.810 -0.1940  0.3163  0.0178
 4357SOL    HW124530   4.047   4.370   1.742  1.0972  1.1646  0.9716
 4357SOL    HW224531   3.945   4.472   1.773 -0.4382  0.3804  0.4032
 4358SOL     OW24532   2.699   4.554   3.252  0.4362  0.1435 -0.1202
 4358SOL    HW124533   2.618   4.584   3.294 -0.0205  0.1606 -1.0062
 4358SOL    HW224534   2.714   4.635   3.204 -1.0707 -0.6477 -1.9374
 4359SOL     OW24535   3.928   3.238   0.030 -0.4167 -0.4197 -0.3483
 4359SOL    HW124536   3.847   3.280   0.061 -2.4529 -4.4466 -0.2954
 4359SOL    HW224537   3.956   3.286  17.658 -0.4161 -0.5029 -0.3994
 4360SOL     OW24538   3.804   4.086   1.665 -0.4766 -0.0733 -0.2319
 4360SOL    HW124539   3.709   4.086   1.657 -0.1531  0.7352 -3.8467
 4360SOL    HW224540   3.818   4.106   1.758 -1.3881 -2.9038  0.5331
 4361SOL     OW24541   3.520   1.845   3.475 -0.0885  0.2336 -0.3786
 4361SOL    HW124542   3.454   1.915   3.470 -0.6730 -0.1602  1.9082
 4361SOL    HW224543   3.565   1.865   3.557  2.1448  2.0334 -2.0574
 4362SOL     OW24544   0.450   2.506   7.270 -0.6679  0.4162  0.1046
 4362SOL    HW124545   0.359   2.478   7.262 -0.6364  0.2600  0.2926
 4362SOL    HW224546   0.455   2.564   7.194 -2.7438 -1.1869 -1.2427
 4363SOL     OW24547   1.002   0.712  17.425 -0.5955  0.6577  0.0368
 4363SOL    HW124548   1.029   0.701  17.334 -0.0904  2.0997  0.0199
 4363SOL    HW224549   0.918   0.756  17.422 -1.8666 -1.7339  0.2122
 4364SOL     OW24550   0.644   1.563   7.907  0.1537 -0.0035  0.1017
 4364SOL    HW124551   0.591   1.609   7.841  0.6668 -1.5400 -1.4015
 4364SOL    HW224552   0.704   1.633   7.929  0.4015 -0.4753  0.9299
 4365SOL     OW24553   4.343   0.431   8.023 -0.3596 -0.0495 -0.0530
 4365SOL    HW124554   4.292   0.414   8.102 -1.5982 -2.6045 -1.3622
 4365SOL    HW224555   4.416   0.482   8.055  0.2018 -0.4308 -0.7186
 4366SOL     OW24556   3.766   4.424   7.393 -0.0139  0.4065  0.1181
 4366SOL    HW124557   3.744   4.460   7.307  1.5728  1.5328  0.2053
 4366SOL    HW224558   3.712   4.475   7.453 -1.8815 -1.0158 -0.3325
 4367SOL     OW24559   3.035   3.533   6.043  0.6124 -0.3578 -0.0174
 4367SOL    HW124560   3.002   3.622   6.058 -0.2455 -0.4801 -1.2030
 4367SOL    HW224561   2.995   3.521   5.957  2.8229 -1.6937 -0.8663
 4368SOL     OW24562   3.178   0.989   3.010  0.4902  0.1300  0.0304
 4368SOL    HW124563   3.116   1.048   2.969  0.3580  1.7475  2.5540
 4368SOL    HW224564   3.220   1.047   3.074 -0.2785  0.1000  0.5688
 4369SOL     OW24565   3.348   3.534   8.668  0.6576  0.2045 -0.6227
 4369SOL    HW124566   3.281   3.541   8.600 -1.3752  0.3084  1.3713
 4369SOL    HW224567   3.320   3.454   8.712  1.5402  0.3529  0.2241
 4370SOL     OW24568   2.563   1.932   5.329  0.0954 -0.0376  0.1304
 4370SOL    HW124569   2.557   1.926   5.234  3.3339  1.4752 -0.1406
 4370SOL    HW224570   2.474   1.965   5.344  0.6464  1.7490 -0.5601
 4371SOL     OW24571   4.002   3.479   4.832 -0.4383 -0.3371 -0.2260
 4371SOL    HW124572   4.044   3.396   4.808  0.8225  1.0293 -2.6644
 4371SOL    HW224573   3.968   3.506   4.747 -1.1620 -0.2099  0.1068
 4372SOL     OW24574   3.521   3.050   2.273  0.4719  0.9817  0.1839
 4372SOL    HW124575   3.498   2.998   2.196 -1.7828  1.0657  0.8084
 4372SOL    HW224576   3.436   3.046   2.317 -1.0432  0.4351 -2.8173
 4373SOL     OW24577   2.601   0.989   5.839 -0.2264 -0.0037 -0.3110
 4373SOL    HW124578   2.675   0.952   5.790 -0.6925 -0.2370 -0.8410
 4373SOL    HW224579   2.556   0.905   5.850 -2.5627  1.2674 -0.1273
 4374SOL     OW24580   1.391   3.818   6.321 -0.5657  0.1390  0.4290
 4374SOL    HW124581   1.444   3.744   6.350 -1.7880 -0.5413  0.9090
 4374SOL    HW224582   1.326   3.808   6.391 -0.7719 -0.9230  0.0914
 4375SOL     OW24583   4.455   0.786   4.864  0.0406 -0.1441  0.4648
 4375SOL    HW124584   4.394   0.859   4.872  0.3343  0.0235  1.2207
 4375SOL    HW224585   4.514   0.806   4.792 -0.5729 -0.6891 -0.1756
 4376SOL     OW24586   3.001   0.427  15.176 -0.1725  0.3743 -0.1186
 4376SOL    HW124587   2.908   0.438  15.153 -0.4548  0.6848  1.1261
 4376SOL    HW224588   2.999   0.402  15.268  1.5907 -2.0063 -0.7397
 4377SOL     OW24589   1.266   2.088   5.233  0.1946 -0.1011 -0.0599
 4377SOL    HW124590   1.180   2.063   5.269 -0.0213 -0.0494 -0.5391
 4377SOL    HW224591   1.266   2.183   5.247 -1.3934 -0.0888 -0.1399
 4378SOL     OW24592   1.741   4.651   3.795 -0.0765 -0.3557  0.7043
 4378SOL    HW124593   1.668   4.589   3.795  0.0815 -0.5415 -0.2033
 4378SOL    HW224594   1.761   4.668   3.703  2.6809  1.5530  1.6471
 4379SOL     OW24595   0.411   3.698   6.581 -0.6468 -0.5165 -0.3034
 4379SOL    HW124596   0.461   3.638   6.526  0.7683 -0.2925  0.7213
 4379SOL    HW224597   0.418   3.778   6.529  1.3250  0.5110  1.5225
 4380SOL     OW24598   3.198   1.584   1.031  0.2790  0.0605 -0.2822
 4380SOL    HW124599   3.256   1.513   1.005  0.7510  0.8686 -1.4510
 4380SOL    HW224600   3.123   1.541   1.072  0.1923 -0.4155 -0.9457
 4381SOL     OW24601   2.784   3.247   7.327 -0.2183 -0.2138  0.0654
 4381SOL    HW124602   2.828   3.226   7.245  0.9288  1.8749  0.1636
 4381SOL    HW224603   2.812   3.169   7.375 -0.1315 -0.2014  0.0343
 4382SOL     OW24604   2.852   3.804   7.464 -0.4541 -0.9778  0.2602
 4382SOL    HW124605   2.933   3.765   7.496  0.9315  2.8988  1.4335
 4382SOL    HW224606   2.886   3.872   7.407 -2.7002 -0.7651 -0.8303
 4383SOL     OW24607   2.767   3.605   1.342 -0.1638 -0.1414  0.0866
 4383SOL    HW124608   2.728   3.660   1.274  1.4820  0.4164 -0.3958
 4383SOL    HW224609   2.857   3.632   1.322 -0.1124  1.4347  2.5313
 4384SOL     OW24610   2.681   2.083   4.683 -0.4306  0.1778 -0.2003
 4384SOL    HW124611   2.716   2.016   4.624 -1.0959 -0.9834  0.7111
 4384SOL    HW224612   2.763   2.130   4.697  1.2011 -2.9818  0.8895
 4385SOL     OW24613   2.979   0.993   1.338  0.1601  0.0174  0.0695
 4385SOL    HW124614   2.923   0.940   1.395  0.2488  0.6882  0.7811
 4385SOL    HW224615   3.040   0.925   1.312 -0.6937 -1.1683  1.1597
 4386SOL     OW24616   1.831   4.459   2.405  0.1934  0.1713 -0.6416
 4386SOL    HW124617   1.883   4.437   2.327  1.1252 -0.3138  0.1207
 4386SOL    HW224618   1.766   4.518   2.368 -2.2281 -0.9359  1.9135
 4387SOL     OW24619   1.563   4.273  15.014 -0.1261 -0.0896  0.2233
 4387SOL    HW124620   1.628   4.342  15.000 -0.4858  0.0648 -0.6463
 4387SOL    HW224621   1.604   4.231  15.090 -2.5659 -0.3622  1.3806
 4388SOL     OW24622   3.733   3.592   6.178  0.0547  0.2115  0.3122
 4388SOL    HW124623   3.687   3.555   6.103 -2.3048  0.5373  1.5948
 4388SOL    HW224624   3.723   3.525   6.246  0.7478 -0.2971 -0.0833
 4389SOL     OW24625   4.384   4.402  10.758  0.1839 -0.5663  0.9565
 4389SOL    HW124626   4.395   4.351  10.839 -0.6643 -1.8005  0.3090
 4389SOL    HW224627   4.469   4.444  10.750  0.2785 -0.6965  1.2867
 4390SOL     OW24628   4.440   2.650   2.638  0.1197 -0.5292 -0.2930
 4390SOL    HW124629   4.492   2.575   2.669  0.4729 -0.1664 -0.0179
 4390SOL    HW224630   4.486   2.729   2.666  0.3687 -0.4497 -0.9274
 4391SOL     OW24631   4.653   2.510   3.616 -0.5901 -0.5127 -0.9016
 4391SOL    HW124632   4.653   2.528   3.522  0.0855 -0.3976 -0.8809
 4391SOL    HW224633   0.004   2.561   3.641 -1.3014 -0.0519  0.3365
 4392SOL     OW24634   4.252   0.086  14.462 -0.2058 -0.0146  0.1941
 4392SOL    HW124635   4.163   0.115  14.441 -0.3179  0.2516  1.0189
 4392SOL    HW224636   4.256   0.021  14.392  0.2611  0.5233 -0.2738
 4393SOL     OW24637   3.739   2.608   3.584  0.6200 -0.0313  0.4062
 4393SOL    HW124638   3.724   2.686   3.637  0.8623 -0.7616  1.5489
 4393SOL    HW224639   3.778   2.551   3.650 -0.0855 -1.3497 -0.3201
 4394SOL     OW24640   4.306   0.034   9.672  0.3877  0.8045  0.2291
 4394SOL    HW124641   4.392   4.721   9.689 -0.7057 -1.9737 -0.6683
 4394SOL    HW224642   4.292   0.077   9.756  2.1507  0.5543  0.6460
 4395SOL     OW24643   1.431   0.837   3.459 -0.3298 -0.4932 -0.5951
 4395SOL    HW124644   1.460   0.915   3.413 -0.6200 -1.2816 -2.1079
 4395SOL    HW224645   1.335   0.845   3.463 -0.3238  0.0945 -1.5718
 4396SOL     OW24646   0.879   2.098   3.644 -0.4372 -0.7580  0.0590
 4396SOL    HW124647   0.784   2.092   3.636 -0.7525  1.9199  1.6005
 4396SOL    HW224648   0.905   2.045   3.569  1.2870 -1.2578  1.0026
 4397SOL     OW24649   1.470   4.506   8.018 -0.3347 -0.2717 -0.7514
 4397SOL    HW124650   1.375   4.505   8.010 -0.3427 -1.4574 -0.5949
 4397SOL    HW224651   1.470   4.442   8.089  3.5262  0.5803  0.0577
 4398SOL     OW24652   4.625   2.354   4.696  0.2848  1.0152 -0.4318
 4398SOL    HW124653   4.686   2.330   4.766 -0.9540 -4.0185 -1.0887
 4398SOL    HW224654   4.674   2.300   4.634 -0.7626 -0.9675  0.4812
 4399SOL     OW24655   3.361   0.653   9.614 -0.3104  0.3735 -0.6583
 4399SOL    HW124656   3.388   0.565   9.641 -1.6480  0.3540  0.6206
 4399SOL    HW224657   3.399   0.663   9.527 -0.2657  1.5817 -0.4905
 4400SOL     OW24658   0.251   0.062  15.597 -0.4165 -0.2983 -0.2132
 4400SOL    HW124659   0.328   0.015  15.628 -1.4941 -1.7020  0.3295
 4400SOL    HW224660   0.213   0.064  15.685 -1.0745  0.3477 -0.5069
 4401SOL     OW24661   1.894   4.091   6.509  0.2439 -0.0690  0.6053
 4401SOL    HW124662   1.889   3.996   6.498 -1.8407  0.0150  0.7254
 4401SOL    HW224663   1.832   4.099   6.582 -1.6840  1.1468 -1.1558
 4402SOL     OW24664   2.663   3.396   5.720 -0.1246 -0.0043 -0.3633
 4402SOL    HW124665   2.638   3.465   5.658 -1.2879  0.9100  1.1461
 4402SOL    HW224666   2.618   3.405   5.804 -0.9865 -2.2425 -0.5980
 4403SOL     OW24667   2.097   2.255  14.848  0.2871  0.2296  0.2594
 4403SOL    HW124668   2.130   2.243  14.937 -0.1996 -0.6022  0.3291
 4403SOL    HW224669   2.013   2.297  14.865 -1.3290 -2.6988 -0.5343
 4404SOL     OW24670   2.305   1.779   5.376  0.2923  0.2911  0.0971
 4404SOL    HW124671   2.342   1.734   5.452  1.4739  0.1143 -0.5957
 4404SOL    HW224672   2.326   1.724   5.301 -0.9130 -1.7490  1.2670
 4405SOL     OW24673   0.228   3.519   6.631  0.4040 -0.1013 -0.2306
 4405SOL    HW124674   0.290   3.577   6.586  2.8422 -2.3072  0.2353
 4405SOL    HW224675   0.286   3.443   6.628  3.0238  1.9951 -2.9389
 4406SOL     OW24676   3.914   2.346   5.615 -0.3700  0.0230  0.0073
 4406SOL    HW124677   3.889   2.260   5.646 -1.0864  0.1917 -0.1022
 4406SOL    HW224678   3.881   2.336   5.525  0.2226 -2.1628  0.0254
 4407SOL     OW24679   2.817   0.748   5.209  0.0868  0.4563 -0.3525
 4407SOL    HW124680   2.809   0.752   5.304 -1.7725 -0.5343 -0.4542
 4407SOL    HW224681   2.738   0.695   5.193  0.4561 -1.0291  2.6843
 4408SOL     OW24682   4.027   0.817  16.137  0.5763 -0.3863  0.2432
 4408SOL    HW124683   4.106   0.763  16.139  0.5895 -0.3197  1.9355
 4408SOL    HW224684   4.045   0.868  16.216 -0.7503 -1.1636  1.0335
 4409SOL     OW24685   2.336   0.576   6.727  0.2142  0.1833 -0.2434
 4409SOL    HW124686   2.284   0.652   6.755  0.3424  0.4306 -0.6670
 4409SOL    HW224687   2.407   0.578   6.791 -0.2568  1.2152  0.2585
 4410SOL     OW24688   1.647   1.676   8.961 -0.0841  0.0777 -0.7483
 4410SOL    HW124689   1.554   1.676   8.938  0.2236  0.8593 -2.0269
 4410SOL    HW224690   1.643   1.680   9.056 -1.8126 -2.6432 -0.7185
 4411SOL     OW24691   3.400   2.195  12.677 -0.4775 -0.2417  0.1079
 4411SOL    HW124692   3.355   2.279  12.672 -1.7109 -0.8754  0.5002
 4411SOL    HW224693   3.468   2.215  12.612  0.8098  0.7753  1.7744
 4412SOL     OW24694   2.222   1.851  14.114 -0.0636 -0.7501 -0.2834
 4412SOL    HW124695   2.176   1.919  14.163  2.4012  1.3412 -0.8228
 4412SOL    HW224696   2.227   1.787  14.186 -1.2669 -1.7235 -1.0745
 4413SOL     OW24697   2.277   1.687   2.388 -0.4538 -0.0505  0.3796
 4413SOL    HW124698   2.214   1.616   2.404 -0.2214 -0.5929 -1.1266
 4413SOL    HW224699   2.311   1.660   2.303 -0.3661  3.2145 -0.6089
 4414SOL     OW24700   3.950   4.330  12.467  0.2012 -0.3014 -0.3121
 4414SOL    HW124701   3.952   4.242  12.507  0.3607 -0.6395 -1.0731
 4414SOL    HW224702   3.862   4.325  12.430  0.4000  0.4853 -0.8821
 4415SOL     OW24703   0.394   0.157   2.061 -0.8093 -0.5131 -0.5417
 4415SOL    HW124704   0.446   0.187   1.987  0.1634 -0.0547  0.3281
 4415SOL    HW224705   0.447   0.086   2.096  1.7034  0.9859 -1.2931
 4416SOL     OW24706   4.404   4.690   4.035  0.1752 -0.1638  0.1592
 4416SOL    HW124707   4.481   4.652   4.078  0.0966  0.3767  0.7658
 4416SOL    HW224708   4.438   0.005   3.956  1.5031 -0.9837  0.3016
 4417SOL     OW24709   1.863   2.570   9.084  0.0822 -0.0457  0.3413
 4417SOL    HW124710   1.935   2.509   9.100 -1.8719 -1.8480  2.1659
 4417SOL    HW224711   1.852   2.588   9.177 -0.2659  0.6269  0.1749
 4418SOL     OW24712   1.663   0.110  11.956 -0.0740 -0.2870  0.7074
 4418SOL    HW124713   1.672   0.079  12.046  1.5576 -0.2061  0.5669
 4418SOL    HW224714   1.655   0.204  11.968 -0.5101 -0.2540  0.1875
 4419SOL     OW24715   1.283   0.464   0.365  0.3528 -0.2381 -0.3592
 4419SOL    HW124716   1.205   0.411   0.382  0.5589 -0.3917  0.1332
 4419SOL    HW224717   1.331   0.390   0.327  0.0864 -1.2969  1.3720
 4420SOL     OW24718   2.295   0.041   0.320  0.1318 -0.1475 -0.1798
 4420SOL    HW124719   2.277   4.684   0.364 -1.6325  1.2682  1.7799
 4420SOL    HW224720   2.366   0.075   0.375 -0.1503  3.0107 -1.7611
 4421SOL     OW24721   1.148   4.332  12.929  0.0124 -0.5078  0.2010
 4421SOL    HW124722   1.096   4.278  12.988  0.0580  0.6227  1.2986
 4421SOL    HW224723   1.145   4.276  12.853  2.0457 -0.0679 -0.1949
 4422SOL     OW24724   2.905   3.658   6.341 -0.3324 -0.0051  0.0229
 4422SOL    HW124725   2.944   3.708   6.269  0.7811  0.5008  0.9669
 4422SOL    HW224726   2.938   3.697   6.422  0.1790  1.3750 -0.8529
 4423SOL     OW24727   3.460   1.108  14.067  0.2878 -0.0420 -0.4036
 4423SOL    HW124728   3.388   1.149  14.115  1.3346  0.8022  0.4517
 4423SOL    HW224729   3.452   1.013  14.059  0.3284 -0.2052  1.5380
 4424SOL     OW24730   2.923   4.421   3.281  0.3943 -0.3130  0.1687
 4424SOL    HW124731   2.896   4.332   3.258 -4.2004  0.9863  0.5028
 4424SOL    HW224732   2.840   4.467   3.267  2.1060  1.9043 -2.7301
 4425SOL     OW24733   3.547   2.301   8.132 -0.1853  0.3736  0.6971
 4425SOL    HW124734   3.558   2.264   8.044  1.2000  0.4741  0.8154
 4425SOL    HW224735   3.458   2.277   8.155 -0.9491  0.1153 -2.5094
 4426SOL     OW24736   1.604   2.734   2.462  0.3306 -0.4481 -0.2509
 4426SOL    HW124737   1.686   2.784   2.457  1.7515 -2.5393  2.0998
 4426SOL    HW224738   1.565   2.753   2.376  0.0763  1.0407  0.1857
 4427SOL     OW24739   3.462   1.888   6.636  0.0281  0.0952 -0.5676
 4427SOL    HW124740   3.390   1.931   6.683  1.4890  0.6815  1.1288
 4427SOL    HW224741   3.410   1.856   6.562 -0.2224 -1.7884  0.4219
 4428SOL     OW24742   0.805   0.134  16.710  0.1415 -0.0310  0.3439
 4428SOL    HW124743   0.863   0.094  16.646 -0.8186  0.4962 -0.8644
 4428SOL    HW224744   0.780   0.208  16.654  2.7487  0.9030  0.4009
 4429SOL     OW24745   2.015   4.531  17.386  0.0671 -0.3287 -0.2770
 4429SOL    HW124746   2.108   4.517  17.367 -0.1326 -1.4100 -0.4906
 4429SOL    HW224747   1.983   4.450  17.346  1.9842 -1.7107  0.9736
 4430SOL     OW24748   2.580   1.001  14.242 -0.3578 -0.0659 -0.1963
 4430SOL    HW124749   2.561   0.948  14.319  0.8963 -0.3850 -0.1152
 4430SOL    HW224750   2.513   0.977  14.178  0.1926  0.1744 -0.8618
 4431SOL     OW24751   3.149   3.347   5.097  0.2184 -0.1300  0.1992
 4431SOL    HW124752   3.154   3.370   5.004  2.0022 -0.8350  0.1046
 4431SOL    HW224753   3.140   3.252   5.105  1.8269  0.0587  4.1647
 4432SOL     OW24754   0.030   0.878  11.287 -0.0009  0.3418  0.1303
 4432SOL    HW124755   4.718   0.794  11.262  0.9805  0.1110 -0.6016
 4432SOL    HW224756   0.117   0.843  11.308 -0.2455 -1.5018 -2.0183
 4433SOL     OW24757   0.349   0.731   4.317  0.4396  0.3986  0.7941
 4433SOL    HW124758   0.264   0.688   4.331 -0.9007  2.1901 -1.8107
 4433SOL    HW224759   0.320   0.797   4.254 -0.2669  1.0867  1.8500
 4434SOL     OW24760   1.882   1.315   4.330  0.4790  0.2420 -0.2646
 4434SOL    HW124761   1.799   1.270   4.343  0.3176  0.4056 -0.7229
 4434SOL    HW224762   1.867   1.401   4.370  0.3869  0.3428 -0.5126
 4435SOL     OW24763   3.451   1.047   4.322 -0.6297 -0.2702  0.6276
 4435SOL    HW124764   3.515   1.058   4.393  0.7882 -0.5349 -0.6079
 4435SOL    HW224765   3.479   1.120   4.266 -0.5984 -0.6909  0.0945
 4436SOL     OW24766   0.035   3.879   7.899  0.3241  0.7683 -0.2280
 4436SOL    HW124767   4.681   3.836   7.928  1.9929 -3.6848 -2.2322
 4436SOL    HW224768   0.084   3.820   7.842  1.0386 -0.8595  2.1290
 4437SOL     OW24769   0.715   4.426  10.551  0.3513  0.3808  0.0474
 4437SOL    HW124770   0.712   4.481  10.629 -0.9910  0.9131 -0.3790
 4437SOL    HW224771   0.739   4.496  10.490 -1.8302 -0.1669 -1.4120
 4438SOL     OW24772   3.225   4.118   5.142  0.2614  0.0100 -0.5332
 4438SOL    HW124773   3.223   4.088   5.051 -1.0904  0.7767 -0.7486
 4438SOL    HW224774   3.300   4.067   5.173 -0.1148 -0.4178 -0.3347
 4439SOL     OW24775   3.455   3.517  13.387  0.1810  0.1752 -0.1193
 4439SOL    HW124776   3.522   3.449  13.388 -0.0232 -0.0008  1.3148
 4439SOL    HW224777   3.391   3.492  13.320 -1.3152  0.6890  1.1308
 4440SOL     OW24778   4.306   0.118  10.667  0.3121 -0.3605 -0.2154
 4440SOL    HW124779   4.265   0.107  10.753  0.2828 -0.4780 -0.2445
 4440SOL    HW224780   4.383   0.165  10.697 -0.5428 -0.7265  2.5423
 4441SOL     OW24781   1.679   0.646  11.216 -0.2702  0.2884  0.0677
 4441SOL    HW124782   1.615   0.606  11.157  2.7916 -1.1213 -2.3050
 4441SOL    HW224783   1.620   0.716  11.245 -0.8568  0.7944 -2.3878
 4442SOL     OW24784   3.103   0.277   8.747 -0.6130  0.0982 -0.4874
 4442SOL    HW124785   3.009   0.282   8.727 -1.1964  1.0108  2.4040
 4442SOL    HW224786   3.136   0.352   8.697  0.6913 -0.6115 -0.6756
 4443SOL     OW24787   1.115   1.665   6.052  0.4998 -0.2226  0.6020
 4443SOL    HW124788   1.121   1.588   5.994 -0.5695  0.0111  0.1889
 4443SOL    HW224789   1.044   1.638   6.110  0.4268 -0.4268  0.4183
 4444SOL     OW24790   4.607   4.518   6.678 -0.5066 -0.8841 -0.0971
 4444SOL    HW124791   4.564   4.590   6.633  1.9574  0.8170  0.3149
 4444SOL    HW224792   4.552   4.509   6.757 -0.7468  0.5826 -0.1072
 4445SOL     OW24793   3.542   2.791   7.760  0.4446 -0.6275 -0.7473
 4445SOL    HW124794   3.569   2.732   7.831  1.2808 -0.2906 -0.7882
 4445SOL    HW224795   3.587   2.765   7.680 -0.6327  1.6737 -2.0997
 4446SOL     OW24796   4.366   0.903   2.434  0.0933  0.2681 -0.0270
 4446SOL    HW124797   4.343   0.812   2.454 -1.1986  0.2718 -1.5522
 4446SOL    HW224798   4.337   0.947   2.514  0.4754  0.3473  0.0668
 4447SOL     OW24799   4.560   2.783   8.460  0.4484  0.7042 -0.6221
 4447SOL    HW124800   4.513   2.710   8.420 -1.3143  1.0552  0.8024
 4447SOL    HW224801   4.483   2.824   8.498 -0.5884 -2.2415  0.5103
 4448SOL     OW24802   0.183   1.631   9.055  1.0452  0.1203  0.0817
 4448SOL    HW124803   0.103   1.683   9.049  0.3701 -0.9482 -0.1073
 4448SOL    HW224804   0.224   1.671   9.131 -0.3626  0.1437  0.8349
 4449SOL     OW24805   0.234   3.511  17.454  0.1094  0.7733 -0.4629
 4449SOL    HW124806   0.165   3.445  17.445 -0.1577  1.3468 -2.5019
 4449SOL    HW224807   0.301   3.474  17.511  0.9685  2.2073 -0.5476
 4450SOL     OW24808   2.808   1.355   8.655  0.6877 -0.3490 -0.3362
 4450SOL    HW124809   2.714   1.371   8.653  1.1211  2.2578 -0.1677
 4450SOL    HW224810   2.834   1.351   8.747  1.8336  0.8860 -0.6016
 4451SOL     OW24811   3.446   0.333   7.687  0.3080  0.5477  1.1017
 4451SOL    HW124812   3.450   0.329   7.783 -0.2861 -0.5413  1.0784
 4451SOL    HW224813   3.449   0.238   7.676 -2.2361  0.5780  0.1984
 4452SOL     OW24814   2.235   4.560   0.509 -0.2667  0.6317 -0.3113
 4452SOL    HW124815   2.200   4.648   0.524  1.1742  0.8395  1.8174
 4452SOL    HW224816   2.206   4.522   0.592  0.9305  0.8694  0.2089
 4453SOL     OW24817   3.735   0.637   5.369  0.2629 -0.5556 -0.1925
 4453SOL    HW124818   3.696   0.552   5.351 -1.0303 -0.3471  1.6594
 4453SOL    HW224819   3.673   0.698   5.328  1.4123  0.5691 -0.2784
 4454SOL     OW24820   4.659   3.375   8.368 -0.8516 -0.4134  0.6838
 4454SOL    HW124821   4.681   3.332   8.451 -0.6365  0.2388  0.9644
 4454SOL    HW224822   4.685   3.466   8.383  0.3064 -0.6946  0.3653
 4455SOL     OW24823   1.972   2.374  14.611 -0.0186 -0.7051 -0.2686
 4455SOL    HW124824   1.945   2.379  14.702  1.0711  4.3849 -0.1833
 4455SOL    HW224825   2.034   2.302  14.606 -0.1271 -0.9133  1.4435
 4456SOL     OW24826   2.399   3.357   9.939 -0.0251 -0.6004  0.1109
 4456SOL    HW124827   2.408   3.434   9.883  1.1967  0.4103  1.7162
 4456SOL    HW224828   2.422   3.387  10.027 -2.3487 -1.0791  0.8826
 4457SOL     OW24829   0.313   2.425   4.223 -0.8402  0.5773 -0.5972
 4457SOL    HW124830   0.403   2.414   4.192 -0.3280  1.2812  0.6198
 4457SOL    HW224831   0.291   2.518   4.215 -0.8023  0.6870  0.5542
 4458SOL     OW24832   1.877   3.280  11.250 -0.0663 -0.1359  0.3907
 4458SOL    HW124833   1.880   3.265  11.344 -0.1819 -2.5634  0.0069
 4458SOL    HW224834   1.857   3.374  11.247 -0.4789 -0.2666 -0.7515
 4459SOL     OW24835   3.779   0.890  14.075  0.4402  0.2425 -0.6128
 4459SOL    HW124836   3.805   0.807  14.114  0.8224  0.1648 -1.0401
 4459SOL    HW224837   3.693   0.856  14.049  0.1554  2.0106 -1.9552
 4460SOL     OW24838   0.174   4.476  10.766  0.4562 -0.1865 -0.6730
 4460SOL    HW124839   0.247   4.528  10.800  0.4369  0.3793 -1.5242
 4460SOL    HW224840   0.191   4.493  10.674  2.0503  2.5600  0.1175
 4461SOL     OW24841   2.085   4.503   9.101  0.3753  0.0675  0.4042
 4461SOL    HW124842   2.034   4.442   9.155  0.5131 -0.4882 -0.0839
 4461SOL    HW224843   2.076   4.585   9.149 -0.6933 -0.5717  1.3014
 4462SOL     OW24844   0.791   3.531   5.622 -0.2161  0.4228 -0.2550
 4462SOL    HW124845   0.848   3.540   5.698  2.5386 -0.9118 -2.1708
 4462SOL    HW224846   0.859   3.530   5.554 -1.0875  3.3041 -1.1771
 4463SOL     OW24847   0.782   3.363   6.085 -0.1088  0.1368  0.3310
 4463SOL    HW124848   0.717   3.333   6.148  2.8604 -2.6166  2.0761
 4463SOL    HW224849   0.770   3.458   6.088 -0.8623  0.1214 -2.2881
 4464SOL     OW24850   1.605   3.110  11.262  0.0431  0.1999 -0.3824
 4464SOL    HW124851   1.633   3.109  11.353 -0.8764 -0.2495 -0.1003
 4464SOL    HW224852   1.680   3.067  11.221 -2.1220 -1.4373 -2.6089
 4465SOL     OW24853   2.607   0.015   4.278  0.0095 -0.3899 -0.6064
 4465SOL    HW124854   2.570   0.069   4.347  1.0637 -0.1453 -0.2384
 4465SOL    HW224855   2.596   4.651   4.308 -1.9216  0.0212 -0.0817
 4466SOL     OW24856   2.911   3.875   1.516  1.0038 -0.4837 -0.4610
 4466SOL    HW124857   2.987   3.933   1.525 -0.5139  1.6936 -1.4811
 4466SOL    HW224858   2.899   3.877   1.421 -2.6222 -1.3359  0.0069
 4467SOL     OW24859   0.321   0.431   5.849  0.0347 -0.0922 -0.3103
 4467SOL    HW124860   0.387   0.365   5.829 -0.7452 -0.7912 -0.6026
 4467SOL    HW224861   0.272   0.394   5.923  1.6704  1.1856  1.3773
 4468SOL     OW24862   2.160   1.133  11.162  0.8069  0.0307 -0.0063
 4468SOL    HW124863   2.205   1.056  11.198  1.9769  1.2385  1.1461
 4468SOL    HW224864   2.141   1.181  11.243  1.6629 -1.8239  1.3031
 4469SOL     OW24865   2.660   1.044  13.767  0.0979 -0.1693  0.2757
 4469SOL    HW124866   2.600   1.116  13.748 -0.5813 -1.1284 -1.1696
 4469SOL    HW224867   2.692   1.061  13.856 -1.7197 -1.8281  1.2543
 4470SOL     OW24868   4.181   3.941  16.495 -0.0551 -0.2727  0.0674
 4470SOL    HW124869   4.133   3.995  16.432  2.8397  0.1561 -1.7310
 4470SOL    HW224870   4.253   3.903  16.444  0.0990  1.3322 -0.9130
 4471SOL     OW24871   0.724   1.699   7.558 -0.1163  0.1137  0.2434
 4471SOL    HW124872   0.634   1.725   7.579 -0.2789 -1.4739  1.5335
 4471SOL    HW224873   0.709   1.606   7.578  3.2325 -0.8223 -1.5834
 4472SOL     OW24874   3.569   3.935   8.128  0.4030 -0.2935  0.5969
 4472SOL    HW124875   3.641   3.908   8.185  0.6697  1.8464  1.2585
 4472SOL    HW224876   3.605   4.020   8.105  2.2825 -1.0965  0.5463
 4473SOL     OW24877   3.526   1.130  11.256  0.3766  0.2012 -0.1392
 4473SOL    HW124878   3.570   1.160  11.335  0.2453 -1.0390  0.4027
 4473SOL    HW224879   3.512   1.213  11.210 -0.5804 -0.4845 -1.0961
 4474SOL     OW24880   3.743   0.801   0.611  0.4520  0.1214  0.0753
 4474SOL    HW124881   3.713   0.795   0.702 -1.1991 -0.4678 -0.5068
 4474SOL    HW224882   3.708   0.722   0.569  1.3326 -0.8548  1.1452
 4475SOL     OW24883   2.057   0.859   6.337 -0.4488 -0.1775  0.4148
 4475SOL    HW124884   1.996   0.850   6.264 -0.7026 -0.3322  0.6445
 4475SOL    HW224885   2.052   0.769   6.371  0.0933  1.0942  3.9028
 4476SOL     OW24886   3.599   0.614   3.093 -0.0200  0.4450 -0.0631
 4476SOL    HW124887   3.529   0.550   3.094 -1.1605  1.6975  0.0754
 4476SOL    HW224888   3.566   0.684   3.149 -1.0640  0.4005 -0.6250
 4477SOL     OW24889   3.416   2.810   4.469 -0.0037 -0.1868  0.0161
 4477SOL    HW124890   3.454   2.820   4.556  1.6247 -1.1512 -0.6046
 4477SOL    HW224891   3.496   2.814   4.417 -0.6132 -1.6774 -1.0128
 4478SOL     OW24892   3.038   0.277   3.909  0.1442  0.0940 -0.3579
 4478SOL    HW124893   3.058   0.276   4.003 -3.6177  1.1412  0.4343
 4478SOL    HW224894   3.127   0.255   3.879  0.0551 -0.5476 -0.1464
 4479SOL     OW24895   3.524   4.533  10.461  0.3936 -0.2615 -0.5771
 4479SOL    HW124896   3.524   4.593  10.536 -2.3366 -0.7800 -0.1579
 4479SOL    HW224897   3.431   4.513  10.454  0.3364 -0.3516  0.3277
 4480SOL     OW24898   3.224   1.105   6.853  0.3001 -0.1891  0.7030
 4480SOL    HW124899   3.297   1.100   6.792 -0.1484 -0.3178  0.1829
 4480SOL    HW224900   3.144   1.067   6.819  0.2788  0.4214  0.0902
 4481SOL     OW24901   1.792   1.634  13.076  0.2642 -0.0604  0.1714
 4481SOL    HW124902   1.769   1.727  13.075  0.3468 -0.0412 -0.0043
 4481SOL    HW224903   1.881   1.632  13.042  0.9987  0.5120  2.0678
 4482SOL     OW24904   0.069   2.638   5.758  0.2495  0.2833 -0.3482
 4482SOL    HW124905   0.111   2.675   5.835  0.4850 -0.5463 -0.0740
 4482SOL    HW224906   0.095   2.703   5.694 -4.3773  1.6102 -0.8380
 4483SOL     OW24907   2.648   4.188   6.023  0.0804  0.5191 -0.4127
 4483SOL    HW124908   2.644   4.217   6.114 -0.7571  0.8458 -0.5558
 4483SOL    HW224909   2.726   4.131   6.023 -0.8082 -0.6976 -0.9052
 4484SOL     OW24910   3.000   4.194  17.163  0.2914 -0.5227 -0.2743
 4484SOL    HW124911   2.976   4.102  17.153 -0.1284 -0.5476  0.9209
 4484SOL    HW224912   2.991   4.216  17.070 -0.3045 -1.6672 -0.4900
 4485SOL     OW24913   0.124   3.798   4.798 -0.1935  0.3830 -0.5003
 4485SOL    HW124914   0.161   3.734   4.859 -0.1461  0.2993 -0.6150
 4485SOL    HW224915   0.033   3.784   4.822 -0.2344 -2.1949 -2.1068
 4486SOL     OW24916   4.105   0.661   8.886  0.0466  0.4590  0.3850
 4486SOL    HW124917   4.046   0.735   8.900  0.8616  1.9430 -3.9293
 4486SOL    HW224918   4.188   0.700   8.915  0.5315 -1.3574  1.4719
 4487SOL     OW24919   0.512   0.119   3.378  0.3190  0.3571 -0.0608
 4487SOL    HW124920   0.472   0.206   3.376  0.2524  0.3294  0.0393
 4487SOL    HW224921   0.436   0.063   3.394  0.5227  0.6169  1.7500
 4488SOL     OW24922   3.063   4.308  11.537 -0.5477  0.3453  0.4493
 4488SOL    HW124923   3.145   4.357  11.536  0.4082 -1.3248 -1.4732
 4488SOL    HW224924   3.063   4.291  11.443  0.0454  0.6959  0.3879
 4489SOL     OW24925   2.824   0.494   5.916  0.8832 -0.0703 -0.0203
 4489SOL    HW124926   2.893   0.497   5.981  0.2499  2.0667  0.5632
 4489SOL    HW224927   2.867   0.447   5.844  0.7833  0.2541 -0.2926
 4490SOL     OW24928   3.025   2.487   7.127 -0.0450 -0.5964 -0.2276
 4490SOL    HW124929   3.082   2.417   7.160  0.9328 -0.2545 -1.1953
 4490SOL    HW224930   2.941   2.465   7.166 -0.1515 -0.4714 -0.3885
 4491SOL     OW24931   0.645   1.263   8.238  0.0689 -0.4556  0.2835
 4491SOL    HW124932   0.690   1.186   8.274  2.0913  0.2185 -0.7683
 4491SOL    HW224933   0.711   1.296   8.177 -0.2786  2.7906  1.7068
 4492SOL     OW24934   2.081   0.946   9.944 -0.1805  0.0781  0.1581
 4492SOL    HW124935   2.172   0.920   9.931 -0.7289 -0.9352 -1.5836
 4492SOL    HW224936   2.085   0.983  10.032  0.4874  1.9056 -0.6233
 4493SOL     OW24937   0.923   2.613   9.311  0.0715 -0.3441  0.0991
 4493SOL    HW124938   0.874   2.532   9.324  1.8194 -1.1727  1.5343
 4493SOL    HW224939   0.872   2.672   9.367  1.0630  1.5859 -1.0122
 4494SOL     OW24940   3.986   4.152   6.936  0.3823  0.1180 -0.3975
 4494SOL    HW124941   3.957   4.148   6.845 -3.0151  0.1049  0.6948
 4494SOL    HW224942   4.006   4.060   6.956  1.9602  0.1628 -1.6902
 4495SOL     OW24943   2.197   3.183   6.829  0.7986 -0.3243  0.1643
 4495SOL    HW124944   2.137   3.170   6.755 -1.3763  1.8016  1.5609
 4495SOL    HW224945   2.240   3.098   6.826  1.1321 -0.1572  0.2126
 4496SOL     OW24946   3.664   1.799  11.745 -0.3375  0.1326  0.3824
 4496SOL    HW124947   3.685   1.885  11.711 -0.1219  0.0503  0.3041
 4496SOL    HW224948   3.670   1.822  11.838  0.8463 -0.6349  0.4987
 4497SOL     OW24949   1.234   3.238   2.403 -0.5267  0.4263 -0.1720
 4497SOL    HW124950   1.288   3.233   2.324  1.6908  2.8250  1.1761
 4497SOL    HW224951   1.292   3.198   2.467  1.1080  1.8754 -0.7474
 4498SOL     OW24952   4.382   4.206  11.324  0.0376  0.7175  0.3013
 4498SOL    HW124953   4.371   4.246  11.410 -0.8781  0.3783  0.3368
 4498SOL    HW224954   4.467   4.243  11.300  0.5131 -0.9796 -0.6084
 4499SOL     OW24955   1.277   3.034  16.435  0.3426  0.6762  0.0685
 4499SOL    HW124956   1.189   3.043  16.399  0.1163  1.4501  0.8034
 4499SOL    HW224957   1.320   3.033  16.350  0.9745 -2.2858  0.4362
 4500SOL     OW24958   2.215   2.978  10.319  0.4176  0.0612  0.5252
 4500SOL    HW124959   2.162   2.979  10.399  0.6330 -0.1867  0.6731
 4500SOL    HW224960   2.234   3.071  10.306 -3.2355  0.9903  1.8684
 4501SOL     OW24961   3.485   0.895   2.239 -0.3812 -0.3377 -0.5633
 4501SOL    HW124962   3.421   0.933   2.300 -0.0218 -0.7620  0.0753
 4501SOL    HW224963   3.455   0.918   2.151  1.0259  0.3475 -0.8565
 4502SOL     OW24964   3.080   3.157   4.627 -0.0188  0.0595  0.0225
 4502SOL    HW124965   3.156   3.167   4.570 -0.2062 -1.8113 -0.5359
 4502SOL    HW224966   3.055   3.067   4.608 -1.3534  0.0463  1.7932
 4503SOL     OW24967   1.353   1.813  10.213 -0.0132 -0.4190 -0.4461
 4503SOL    HW124968   1.361   1.731  10.164  3.9652 -1.7823  2.5302
 4503SOL    HW224969   1.361   1.870  10.136 -2.3915  1.0622  0.4296
 4504SOL     OW24970   2.217   2.178   4.492 -0.4383  0.1867 -0.7394
 4504SOL    HW124971   2.136   2.175   4.442 -0.5166 -1.5839 -0.5013
 4504SOL    HW224972   2.280   2.202   4.424 -0.9202  2.0205 -0.5340
 4505SOL     OW24973   3.972   1.986   1.061  0.7603  0.0716  0.1216
 4505SOL    HW124974   3.908   1.948   1.001  0.0354 -0.0414  0.9590
 4505SOL    HW224975   3.986   1.918   1.128  1.1278 -0.0490 -0.0765
 4506SOL     OW24976   2.834   4.702   4.999 -0.7062 -0.6591 -0.2981
 4506SOL    HW124977   2.756   4.702   4.944 -1.8874  0.4875  1.3842
 4506SOL    HW224978   2.821   4.661   5.085 -0.7210 -0.8846 -0.4059
 4507SOL     OW24979   1.589   2.820   7.967  0.2069  0.2304 -0.7867
 4507SOL    HW124980   1.653   2.880   8.005  0.3962  0.1848 -1.0323
 4507SOL    HW224981   1.513   2.839   8.023  1.4295  0.7256  0.7167
 4508SOL     OW24982   0.335   3.872  10.203  0.1222 -0.1799 -0.3771
 4508SOL    HW124983   0.325   3.886  10.109  0.0257 -0.7836 -0.4524
 4508SOL    HW224984   0.368   3.960  10.224 -0.0037  0.0944 -1.3252
 4509SOL     OW24985   0.791   3.729   9.634 -0.0076 -0.3220 -0.0800
 4509SOL    HW124986   0.835   3.743   9.551 -0.4646  0.2626 -0.2269
 4509SOL    HW224987   0.823   3.642   9.658  2.0509  0.3919 -0.2387
 4510SOL     OW24988   1.122   1.280   8.845  0.1405  0.1699 -0.0821
 4510SOL    HW124989   1.216   1.290   8.861  0.5958 -1.2089 -1.8787
 4510SOL    HW224990   1.098   1.372   8.840 -0.6924 -0.0476 -0.0127
 4511SOL     OW24991   3.077   3.879  12.330 -0.0925 -0.3938  0.0541
 4511SOL    HW124992   3.045   3.828  12.405  0.0905  1.5419  1.4589
 4511SOL    HW224993   3.138   3.938  12.374 -1.3106  1.5782 -0.8977
 4512SOL     OW24994   3.436   0.479  12.436 -0.0497  0.2279  0.3921
 4512SOL    HW124995   3.345   0.493  12.410  0.1446  1.2380  0.2726
 4512SOL    HW224996   3.480   0.467  12.351  1.0137  2.4187  0.6397
 4513SOL     OW24997   2.961   2.428   4.770  0.0045 -0.7709  0.0115
 4513SOL    HW124998   2.976   2.343   4.812  0.8774 -0.5504  0.1278
 4513SOL    HW224999   3.013   2.412   4.691  0.6478  2.4913 -0.2297
 4514SOL     OW25000   2.548   3.543   7.856  0.2928  0.2949 -0.3135
 4514SOL    HW125001   2.463   3.499   7.863 -0.0040  0.9828  0.5112
 4514SOL    HW225002   2.530   3.601   7.930 -0.3129  0.2763 -0.4507
 4515SOL     OW25003   1.795   3.542   3.886 -0.2134  0.2785  0.5822
 4515SOL    HW125004   1.762   3.495   3.962 -0.5901 -0.9672 -0.3465
 4515SOL    HW225005   1.749   3.506   3.810 -1.5885 -0.2931  1.6664
 4516SOL     OW25006   0.003   1.487  17.052  0.2225 -0.1640  0.4602
 4516SOL    HW125007   0.064   1.421  17.085 -0.5797  0.8018  3.9040
 4516SOL    HW225008   4.656   1.427  17.039 -0.0783  0.4120 -0.5107
 4517SOL     OW25009   1.216   4.259   3.408  0.0529  0.2598 -0.0905
 4517SOL    HW125010   1.139   4.278   3.355  0.3199 -1.2907 -1.0576
 4517SOL    HW225011   1.285   4.278   3.344 -0.2538 -0.6032 -0.6719
 4518SOL     OW25012   4.038   1.260  13.443 -0.1255  0.1285 -0.3059
 4518SOL    HW125013   4.098   1.262  13.368 -1.3888  1.1024 -1.2851
 4518SOL    HW225014   4.096   1.231  13.513  0.0383  1.5039  0.1232
 4519SOL     OW25015   1.232   3.939   3.390  0.3449 -0.3224 -0.3839
 4519SOL    HW125016   1.278   3.866   3.431 -1.0838  0.0168  1.7799
 4519SOL    HW225017   1.174   3.964   3.461 -0.0774  0.3906 -0.9711
 4520SOL     OW25018   1.867   2.456   9.604 -0.3600 -0.3718 -0.7552
 4520SOL    HW125019   1.801   2.516   9.638  0.5938  0.3423 -0.1795
 4520SOL    HW225020   1.929   2.507   9.551 -0.3576 -1.2353 -1.5828
 4521SOL     OW25021   1.758   1.190   5.821  0.2430 -0.2253  0.5439
 4521SOL    HW125022   1.693   1.250   5.857 -2.1231 -2.0529 -0.6878
 4521SOL    HW225023   1.765   1.201   5.727  0.5684  0.9102  0.7047
 4522SOL     OW25024   4.017   1.874   5.562  0.3663 -0.2128  0.3121
 4522SOL    HW125025   3.949   1.818   5.523  0.2513  1.0772 -1.3406
 4522SOL    HW225026   4.068   1.804   5.604  0.6645 -0.6080 -0.7067
 4523SOL     OW25027   1.981   3.130   4.940  0.6933 -0.2636  0.5171
 4523SOL    HW125028   1.887   3.123   4.924  0.3736  0.5814  1.9806
 4523SOL    HW225029   2.015   3.044   4.916  0.7796  0.6019 -2.3904
 4524SOL     OW25030   1.231   1.173   4.396 -0.3777 -0.1630 -0.8104
 4524SOL    HW125031   1.173   1.210   4.330 -0.0832  2.7193  0.5694
 4524SOL    HW225032   1.289   1.126   4.336 -0.7084 -0.1678 -1.1268
 4525SOL     OW25033   3.258   0.730   1.990 -0.5314  0.6485 -0.8038
 4525SOL    HW125034   3.239   0.668   1.919  2.6392 -0.3579 -0.8037
 4525SOL    HW225035   3.314   0.790   1.941 -1.8165  2.7253  0.3273
 4526SOL     OW25036   3.682   2.493   9.680  0.9236 -0.5184  0.0027
 4526SOL    HW125037   3.629   2.440   9.620 -0.1260  2.5199 -1.7450
 4526SOL    HW225038   3.719   2.549   9.611 -0.2533  1.7778  1.2505
 4527SOL     OW25039   0.024   0.267   7.894  0.1717 -0.8228  0.3973
 4527SOL    HW125040   0.039   0.360   7.911  1.6513 -1.2460  1.4302
 4527SOL    HW225041   4.674   0.278   7.838 -0.0239  1.8643  1.1797
 4528SOL     OW25042   1.764   3.744   3.053  0.3106  0.6409  0.5364
 4528SOL    HW125043   1.859   3.742   3.055  0.2949 -0.3829  0.4887
 4528SOL    HW225044   1.752   3.711   2.964  2.1729 -0.0653  0.5606
 4529SOL     OW25045   0.269   2.063   2.034 -0.0276 -0.2922  0.5786
 4529SOL    HW125046   0.228   2.091   1.952 -0.2700 -1.5425  0.2779
 4529SOL    HW225047   0.321   2.140   2.057  0.9512 -0.8087  0.0433
 4530SOL     OW25048   4.579   3.240   7.174 -0.2622 -0.8699  0.3636
 4530SOL    HW125049   4.516   3.276   7.112  2.1281  2.6793 -0.0202
 4530SOL    HW225050   4.537   3.154   7.176 -3.0476  0.4501 -1.1214
 4531SOL     OW25051   3.742   0.710  12.137 -0.4326  0.7656  0.0060
 4531SOL    HW125052   3.803   0.763  12.189 -0.2381 -0.0855  0.6336
 4531SOL    HW225053   3.680   0.776  12.107 -1.6872  0.0386  1.0300
 4532SOL     OW25054   0.855   2.403   2.387 -0.2233  0.3229 -0.4786
 4532SOL    HW125055   0.825   2.482   2.431 -1.8299 -0.3430 -0.3703
 4532SOL    HW225056   0.922   2.448   2.335  0.5456  1.9644  1.9240
 4533SOL     OW25057   3.776   4.662   3.513  0.0536  0.0725  0.0094
 4533SOL    HW125058   3.711   0.006   3.520 -0.2722 -0.2309  0.0274
 4533SOL    HW225059   3.818   4.684   3.596  1.3503  0.2270 -0.6907
 4534SOL     OW25060   2.135   0.394  16.966 -0.3027 -0.2837 -0.3892
 4534SOL    HW125061   2.113   0.465  17.027  1.3340  0.4473 -0.6411
 4534SOL    HW225062   2.111   0.315  17.015 -1.9600  0.7784  0.5096
 4535SOL     OW25063   1.397   1.313   1.303 -0.1457  0.2689  0.3177
 4535SOL    HW125064   1.332   1.382   1.309 -0.2555  0.1251  0.8550
 4535SOL    HW225065   1.467   1.374   1.279  0.4423 -1.5990 -2.6404
 4536SOL     OW25066   1.371   3.863   6.945  0.0274 -0.0352  0.0387
 4536SOL    HW125067   1.427   3.861   7.023  2.1264  1.6328 -1.4308
 4536SOL    HW225068   1.358   3.957   6.944  0.6784  0.0208 -2.5787
 4537SOL     OW25069   4.495   3.224   8.835 -0.8639 -0.4783 -0.1159
 4537SOL    HW125070   4.428   3.293   8.843 -0.0624  0.2140  0.5941
 4537SOL    HW225071   4.436   3.149   8.846 -1.2474 -0.4538 -2.1069
 4538SOL     OW25072   3.938   1.268   0.688  0.5665 -0.3182 -0.0961
 4538SOL    HW125073   3.859   1.219   0.709  0.7629 -0.2094  0.8779
 4538SOL    HW225074   3.950   1.318   0.769 -1.0379 -0.0559 -0.0245
 4539SOL     OW25075   1.944   1.859   5.037 -0.4311 -0.4954 -0.2649
 4539SOL    HW125076   1.914   1.933   5.090  0.6965  0.2147 -0.6011
 4539SOL    HW225077   2.039   1.869   5.039 -0.4649 -0.3351  0.7026
 4540SOL     OW25078   3.687   2.429   0.851  0.5259 -0.4441  0.3684
 4540SOL    HW125079   3.650   2.516   0.841  4.1165  1.0527  0.1689
 4540SOL    HW225080   3.665   2.412   0.942 -0.4828 -0.6135  0.0901
 4541SOL     OW25081   1.950   4.346   9.319 -0.5963 -0.4974 -0.0857
 4541SOL    HW125082   1.940   4.262   9.364  0.3741 -0.5579  0.0252
 4541SOL    HW225083   1.885   4.401   9.361  1.2192 -0.9665  3.3581
 4542SOL     OW25084   0.375   4.123   9.379  0.3549 -0.0033  0.1121
 4542SOL    HW125085   0.446   4.063   9.401  0.0320 -0.2746  0.4158
 4542SOL    HW225086   0.367   4.111   9.284 -2.2231  1.1300  0.1689
 4543SOL     OW25087   3.917   4.231   8.970  0.3652  0.0817 -0.5916
 4543SOL    HW125088   3.926   4.312   9.021  0.0820  1.2699 -2.4375
 4543SOL    HW225089   3.931   4.163   9.036 -1.5529 -0.9794 -1.2750
 4544SOL     OW25090   3.657   2.966   3.030 -0.5823  0.1708  0.6966
 4544SOL    HW125091   3.733   2.982   2.973 -1.7844 -0.3808 -1.0741
 4544SOL    HW225092   3.609   3.048   3.015  2.3244  1.8910  0.6644
 4545SOL     OW25093   3.056   4.336   7.096  0.6746  0.2446  0.4465
 4545SOL    HW125094   3.078   4.424   7.127 -0.3277  0.0971  1.5913
 4545SOL    HW225095   2.961   4.344   7.108  0.6970 -0.3282  0.9622
 4546SOL     OW25096   3.551   0.193   2.639 -0.1134 -0.0949 -0.3809
 4546SOL    HW125097   3.638   0.229   2.650  0.2799 -1.9057  2.4217
 4546SOL    HW225098   3.554   0.154   2.551  2.3578  0.6257 -0.5929
 4547SOL     OW25099   1.534   2.107  15.215  0.2260  0.1026  0.1613
 4547SOL    HW125100   1.619   2.070  15.241  0.4615  1.2275  1.0039
 4547SOL    HW225101   1.537   2.108  15.119  2.1711 -0.7556  0.2074
 4548SOL     OW25102   2.597   3.773   7.550 -0.3025  0.2387  0.1153
 4548SOL    HW125103   2.589   3.770   7.645  1.0642 -0.4221  0.2195
 4548SOL    HW225104   2.692   3.781   7.538 -0.5856  1.2085 -1.5361
 4549SOL     OW25105   4.235   3.673  12.648 -1.0871  0.3204 -0.3531
 4549SOL    HW125106   4.222   3.703  12.738  0.7617 -0.1568  0.0497
 4549SOL    HW225107   4.291   3.744  12.618 -0.4501  0.4348  1.1336
 4550SOL     OW25108   4.476   1.735  14.736 -0.1023 -0.6220 -0.3854
 4550SOL    HW125109   4.563   1.696  14.727  0.3673  0.6376 -1.2824
 4550SOL    HW225110   4.457   1.724  14.829  1.4780  0.7102  0.1122
 4551SOL     OW25111   0.651   2.918   4.849  0.5387  0.4758  0.8161
 4551SOL    HW125112   0.590   2.895   4.779  1.8301  0.9816 -0.4867
 4551SOL    HW225113   0.680   3.007   4.826 -1.9587  1.6335  2.1675
 4552SOL     OW25114   3.330   1.662   5.057 -0.1585 -0.3014 -0.1833
 4552SOL    HW125115   3.350   1.627   5.144 -0.1508 -2.3207 -1.0083
 4552SOL    HW225116   3.243   1.698   5.073 -0.0848  0.2387 -0.9923
 4553SOL     OW25117   2.616   0.512   1.074 -0.4295  0.1009 -0.4626
 4553SOL    HW125118   2.643   0.602   1.091  1.1078 -0.5194  0.3801
 4553SOL    HW225119   2.590   0.488   1.163 -0.1230 -1.4999 -0.8128
 4554SOL     OW25120   0.124   3.339   5.311 -0.1595  0.1948 -0.0140
 4554SOL    HW125121   0.088   3.263   5.357  0.1231 -0.0623 -0.2160
 4554SOL    HW225122   0.119   3.405   5.380  1.8079 -0.3773  0.6759
 4555SOL     OW25123   1.990   1.367  10.797 -0.2566 -0.1114  0.2740
 4555SOL    HW125124   1.910   1.320  10.822  0.6176 -2.3347 -1.1134
 4555SOL    HW225125   2.018   1.316  10.721 -2.3679  0.2130 -0.7434
 4556SOL     OW25126   2.061   3.705  11.825  0.3897 -0.2559  0.0453
 4556SOL    HW125127   2.118   3.680  11.753  0.3813 -1.3139  0.4021
 4556SOL    HW225128   2.102   3.673  11.906  1.1384  0.2183 -0.1474
 4557SOL     OW25129   3.161   1.999   9.911  0.2755  0.0736 -0.2235
 4557SOL    HW125130   3.175   1.987  10.005 -2.0060 -1.4988 -0.0810
 4557SOL    HW225131   3.181   2.090   9.890  0.9948  0.2108  1.1167
 4558SOL     OW25132   2.236   1.212  13.668  0.1071 -0.5170 -1.0215
 4558SOL    HW125133   2.159   1.207  13.725 -0.1907  2.2976 -1.2043
 4558SOL    HW225134   2.194   1.229  13.584  0.6150  1.7023 -0.8009
 4559SOL     OW25135   3.299   2.003   9.061  0.1788 -0.0914  0.5444
 4559SOL    HW125136   3.327   2.073   9.121  0.0976 -0.3684  0.9045
 4559SOL    HW225137   3.234   1.963   9.118 -0.8776  1.3427  0.3492
 4560SOL     OW25138   1.046   2.849   7.622  0.1695  0.3989 -0.4999
 4560SOL    HW125139   1.048   2.768   7.674 -2.0208  1.0388  0.6032
 4560SOL    HW225140   1.010   2.911   7.685 -1.5143  0.9834 -2.0276
 4561SOL     OW25141   3.170   1.781   3.396 -0.1026  0.0025 -0.0237
 4561SOL    HW125142   3.113   1.713   3.360 -0.3655 -0.2623  0.8775
 4561SOL    HW225143   3.103   1.841   3.431 -2.8763 -2.6701 -0.7500
 4562SOL     OW25144   1.482   2.453   9.638 -0.0859  0.1373  0.2873
 4562SOL    HW125145   1.531   2.531   9.613  0.6151 -1.1633 -2.3904
 4562SOL    HW225146   1.436   2.505   9.704  0.2404  2.1939 -1.0981
 4563SOL     OW25147   1.593   3.131  14.667  0.5181 -0.2029  0.0835
 4563SOL    HW125148   1.608   3.104  14.757  2.3196 -1.5012 -0.5936
 4563SOL    HW225149   1.587   3.047  14.622 -1.0069 -0.2503  0.3711
 4564SOL     OW25150   4.288   3.562   7.144 -0.1382  0.2660  0.4647
 4564SOL    HW125151   4.284   3.473   7.108  1.9924 -0.2110  1.3802
 4564SOL    HW225152   4.381   3.582   7.130  0.0780 -1.7288 -1.0927
 4565SOL     OW25153   2.185   4.007   4.675  0.0465  0.0521 -0.7919
 4565SOL    HW125154   2.153   4.082   4.725  1.0988  0.2683 -0.4482
 4565SOL    HW225155   2.279   4.012   4.693  0.0449 -1.5486 -0.3298
 4566SOL     OW25156   3.647   2.253   0.577 -0.2235  0.0293 -0.0878
 4566SOL    HW125157   3.575   2.302   0.536  0.1219 -0.3782 -1.1723
 4566SOL    HW225158   3.621   2.168   0.542  0.7530  0.4812 -1.8819
 4567SOL     OW25159   3.110   3.942   0.538  0.0749  0.5307 -0.3106
 4567SOL    HW125160   3.163   3.990   0.475  1.7580  2.5759  2.6734
 4567SOL    HW225161   3.020   3.959   0.510 -0.5698  0.2338  1.5860
 4568SOL     OW25162   0.214   3.911   4.575 -0.3168 -0.5151 -0.2380
 4568SOL    HW125163   0.162   3.884   4.651 -1.4230  0.0018 -0.8001
 4568SOL    HW225164   0.289   3.946   4.623  0.3159 -0.6308 -1.1479
 4569SOL     OW25165   2.895   0.866   7.741 -0.1478 -0.0529  0.2387
 4569SOL    HW125166   2.904   0.882   7.835  0.3405  0.0688  0.1713
 4569SOL    HW225167   2.912   0.772   7.746  1.3401  0.1042 -1.9821
 4570SOL     OW25168   4.038   3.060  10.731 -0.0210  0.6764 -0.3796
 4570SOL    HW125169   3.992   3.121  10.789  1.0619  1.1046  0.0236
 4570SOL    HW225170   3.969   2.996  10.718 -0.7283  1.2544  0.5635
 4571SOL     OW25171   4.571   1.465  16.121 -0.3148  0.2565 -0.0948
 4571SOL    HW125172   4.495   1.476  16.177  0.3474  1.2482  0.6235
 4571SOL    HW225173   4.549   1.401  16.054 -1.3365  0.2076  0.2928
 4572SOL     OW25174   0.400   2.683  13.198  0.0560  0.3241 -0.5125
 4572SOL    HW125175   0.438   2.740  13.131 -1.4270  1.2479 -0.5634
 4572SOL    HW225176   0.467   2.614  13.194 -1.4475 -1.0598 -2.1083
 4573SOL     OW25177   0.354   4.591   2.265  0.1716  0.5847 -0.0162
 4573SOL    HW125178   0.340   4.558   2.177 -1.0154 -0.6045  0.6064
 4573SOL    HW225179   0.447   4.613   2.258  0.5252 -0.0074  2.7644
 4574SOL     OW25180   1.436   0.043  14.454 -0.2940 -0.1814  0.6551
 4574SOL    HW125181   1.343   0.021  14.464 -0.2325 -0.3395  0.8739
 4574SOL    HW225182   1.437   0.138  14.472  0.2930  0.1348 -1.0923
 4575SOL     OW25183   1.673   4.577   8.994  0.1995 -0.1278  0.2416
 4575SOL    HW125184   1.605   4.642   8.983  0.8529  0.3052 -1.1995
 4575SOL    HW225185   1.752   4.624   9.022 -0.2620  0.7682  0.0341
 4576SOL     OW25186   1.989   2.752   3.666 -1.0513 -0.1718  0.1794
 4576SOL    HW125187   2.029   2.727   3.582  1.7500  0.9087  1.1682
 4576SOL    HW225188   2.020   2.682   3.724  0.0490 -0.9926 -1.3866
 4577SOL     OW25189   2.051   3.757   3.017  0.0840 -0.1201  0.1208
 4577SOL    HW125190   2.089   3.844   3.033 -0.5072  0.3582 -1.1290
 4577SOL    HW225191   2.050   3.744   2.922  0.3573  1.1022 -0.0485
 4578SOL     OW25192   3.315   1.821   3.783  0.0728  0.0803 -0.2215
 4578SOL    HW125193   3.369   1.743   3.770  1.5032  1.0868 -0.2264
 4578SOL    HW225194   3.374   1.894   3.765 -2.9198  2.1355 -1.6672
 4579SOL     OW25195   2.102   0.996   5.382 -0.7787 -0.2334 -0.6036
 4579SOL    HW125196   2.153   1.077   5.374  0.0644 -0.8489 -1.6062
 4579SOL    HW225197   2.164   0.927   5.408 -2.4994 -0.9157  1.7127
 4580SOL     OW25198   2.943   2.091  11.069  0.1291 -0.2633  0.2487
 4580SOL    HW125199   2.979   2.179  11.075 -2.1392  0.8279 -2.1517
 4580SOL    HW225200   3.013   2.039  11.029  0.5640 -1.2942  2.3518
 4581SOL     OW25201   1.215   1.598   8.213  0.0243 -0.4895  0.3946
 4581SOL    HW125202   1.307   1.577   8.229  1.3115  3.4656 -1.8586
 4581SOL    HW225203   1.226   1.690   8.188 -0.5141 -0.2329  1.0741
 4582SOL     OW25204   3.501   4.044   6.957 -0.3119  0.1687 -0.1423
 4582SOL    HW125205   3.424   4.097   6.977  0.6218  1.3227  0.3910
 4582SOL    HW225206   3.480   3.959   6.996  0.0755 -0.1780 -0.6937
 4583SOL     OW25207   1.773   3.754   9.568 -0.1301  0.3218  0.1550
 4583SOL    HW125208   1.715   3.830   9.580  0.4584  0.4597  2.2284
 4583SOL    HW225209   1.862   3.788   9.576  0.1970 -1.1481  2.7967
 4584SOL     OW25210   0.198   4.514   6.481  0.2750 -0.2835 -0.1054
 4584SOL    HW125211   0.265   4.511   6.550 -0.7890 -2.2858  0.8486
 4584SOL    HW225212   0.137   4.446   6.509  0.4769 -0.1862  0.5871
 4585SOL     OW25213   1.497   3.476   1.902 -0.5222  0.2513  0.0356
 4585SOL    HW125214   1.570   3.537   1.910 -0.8772  0.6967 -0.1194
 4585SOL    HW225215   1.538   3.414   1.841 -0.7563 -2.0646  2.2179
 4586SOL     OW25216   4.105   4.358   3.954 -0.0726  0.1147  0.1540
 4586SOL    HW125217   4.086   4.430   3.894  1.2785  1.2720  1.1166
 4586SOL    HW225218   4.018   4.346   3.993 -0.2322  0.3361 -0.1326
 4587SOL     OW25219   1.374   4.344   3.178  0.0103  0.0461  0.2131
 4587SOL    HW125220   1.397   4.321   3.088 -0.2548  0.9667 -0.0911
 4587SOL    HW225221   1.451   4.308   3.223 -1.6323 -2.9115  0.6775
 4588SOL     OW25222   2.001   1.105   8.364 -0.2343  0.1785  0.0254
 4588SOL    HW125223   1.927   1.163   8.378 -0.3881 -0.2819  1.0730
 4588SOL    HW225224   2.042   1.110   8.450 -0.2920  0.3523  0.0412
 4589SOL     OW25225   3.869   0.034   3.773  0.3632 -0.0939 -0.1898
 4589SOL    HW125226   3.917   0.115   3.784 -0.1145  0.3691 -1.4712
 4589SOL    HW225227   3.820   0.030   3.855  0.1822  1.8793 -0.2128
 4590SOL     OW25228   1.287   0.054   3.752  0.4892  0.0627  0.2017
 4590SOL    HW125229   1.326   0.045   3.839  1.5195  0.5017 -0.2104
 4590SOL    HW225230   1.305   0.145   3.728 -0.1447 -0.5574 -2.6502
 4591SOL     OW25231   4.718   1.127  15.013 -0.1799  0.0954 -0.4653
 4591SOL    HW125232   4.649   1.183  14.978 -1.4403 -0.1203  1.6779
 4591SOL    HW225233   4.692   1.092  15.098 -1.0527  1.9853  0.0556
 4592SOL     OW25234   2.323   2.275   3.911  0.9088  0.0242 -0.2132
 4592SOL    HW125235   2.326   2.234   3.824 -0.0432 -0.3049 -0.0992
 4592SOL    HW225236   2.310   2.199   3.968  0.2004  0.7181  0.5385
 4593SOL     OW25237   3.060   2.679   5.300  0.2963 -0.1676  0.8685
 4593SOL    HW125238   3.065   2.774   5.295 -0.8285 -0.0937  1.2271
 4593SOL    HW225239   3.141   2.643   5.336 -0.5029 -1.4329  1.4161
 4594SOL     OW25240   2.242   1.436   6.361  0.0175 -0.0998 -0.1858
 4594SOL    HW125241   2.318   1.494   6.352  0.4111 -0.7425 -1.0985
 4594SOL    HW225242   2.255   1.382   6.283 -1.8034 -0.4786 -0.2206
 4595SOL     OW25243   4.474   4.401   7.418  0.3386  0.0172  0.1882
 4595SOL    HW125244   4.415   4.334   7.453  1.0953 -1.1624 -0.7881
 4595SOL    HW225245   4.562   4.380   7.451  0.3193  1.3402  1.0732
 4596SOL     OW25246   0.049   3.077   0.392 -0.0444  0.2656 -0.3044
 4596SOL    HW125247   0.112   3.126   0.339  0.3150 -0.2804 -0.3855
 4596SOL    HW225248   4.705   3.142   0.393  0.4965  0.8359  0.9589
 4597SOL     OW25249   2.594   4.502   0.536 -0.0025 -0.1869 -0.2906
 4597SOL    HW125250   2.673   4.449   0.523 -0.3643 -1.3106  2.1634
 4597SOL    HW225251   2.607   4.522   0.628 -0.0167 -1.4867  0.0018
 4598SOL     OW25252   4.639   4.527   9.317  0.4994 -0.1880 -0.2621
 4598SOL    HW125253   4.562   4.488   9.358  1.4162 -2.3520 -0.5560
 4598SOL    HW225254   4.663   4.589   9.386 -0.4300  0.3957 -0.4765
 4599SOL     OW25255   2.156   1.979   7.594 -0.5256 -0.8179 -0.6677
 4599SOL    HW125256   2.183   2.061   7.553  0.0076 -0.6179  0.0926
 4599SOL    HW225257   2.180   1.911   7.531 -0.7981 -1.7526  0.2492
 4600SOL     OW25258   1.660   4.020   9.506 -0.0866 -0.2069  0.2344
 4600SOL    HW125259   1.614   4.101   9.526  0.6046 -0.2002  1.7876
 4600SOL    HW225260   1.580   3.970   9.493  0.4628 -0.7098 -1.2616
 4601SOL     OW25261   4.438   2.265   1.884  0.0871 -0.1677 -1.2472
 4601SOL    HW125262   4.480   2.257   1.798 -0.5479 -0.7538 -1.4991
 4601SOL    HW225263   4.346   2.269   1.859 -0.4179  0.7901  0.8304
 4602SOL     OW25264   0.010   2.418   4.211 -0.0677  0.0763  0.4906
 4602SOL    HW125265   0.064   2.478   4.159 -0.6792 -0.7687 -1.1373
 4602SOL    HW225266   4.647   2.453   4.214 -0.2963 -0.6796  2.4153
 4603SOL     OW25267   1.046   4.437   6.492  0.3311  0.0018 -0.0871
 4603SOL    HW125268   0.953   4.454   6.508 -0.0761 -2.7659  0.4196
 4603SOL    HW225269   1.063   4.509   6.432  1.2750 -0.2050 -0.0661
 4604SOL     OW25270   2.353   0.577   8.496 -0.1495 -0.3122  0.2254
 4604SOL    HW125271   2.408   0.509   8.537 -0.2444  0.1479  1.1307
 4604SOL    HW225272   2.266   0.542   8.514 -0.5052  0.0813 -0.7782
 4605SOL     OW25273   2.474   3.172   4.697  0.1118 -0.1315 -0.6603
 4605SOL    HW125274   2.404   3.114   4.666  0.6410 -0.9576 -0.2919
 4605SOL    HW225275   2.516   3.206   4.618 -0.1184 -0.9085 -1.1122
 4606SOL     OW25276   2.751   1.159   5.293 -0.1587 -0.9332  0.2501
 4606SOL    HW125277   2.710   1.246   5.289 -0.4729 -0.9644  2.7726
 4606SOL    HW225278   2.762   1.154   5.388  2.0782 -1.3788 -0.0501
 4607SOL     OW25279   2.413   3.519   3.025  0.9149  0.4550  0.1452
 4607SOL    HW125280   2.435   3.427   3.009  0.1883  0.2371  0.3660
 4607SOL    HW225281   2.335   3.511   3.080  2.6225  0.3560  2.5258
 4608SOL     OW25282   2.522   0.516   2.281  0.2455  0.1338  0.5673
 4608SOL    HW125283   2.576   0.486   2.208 -0.8879  3.3717 -1.5808
 4608SOL    HW225284   2.451   0.453   2.276  0.6715 -0.3009 -0.0490
 4609SOL     OW25285   2.447   4.266   3.472 -0.2859 -0.4360 -0.2849
 4609SOL    HW125286   2.415   4.211   3.399 -0.9116 -0.0084 -0.3281
 4609SOL    HW225287   2.365   4.280   3.519 -1.4323  0.9327 -2.6698
 4610SOL     OW25288   1.221   0.287  13.807  1.1112  0.6205 -0.0195
 4610SOL    HW125289   1.164   0.219  13.769  0.0835  0.4077  1.9135
 4610SOL    HW225290   1.212   0.351  13.736  1.3971  0.1528 -0.4757
 4611SOL     OW25291   4.468   0.897   8.239 -0.2870 -1.0440 -0.4542
 4611SOL    HW125292   4.418   0.815   8.237 -1.8531 -0.0855 -0.3458
 4611SOL    HW225293   4.556   0.861   8.245  1.0273  1.9567 -2.0483
 4612SOL     OW25294   0.105   1.829   1.839 -0.1462 -0.4775  0.2989
 4612SOL    HW125295   0.171   1.831   1.909 -0.5461 -0.7732  0.6822
 4612SOL    HW225296   0.049   1.903   1.858  2.3596  1.3166  0.7671
 4613SOL     OW25297   1.192   0.770   9.407 -0.8899 -0.0947 -0.5470
 4613SOL    HW125298   1.157   0.697   9.460  2.0424 -1.0468  0.0871
 4613SOL    HW225299   1.169   0.755   9.315 -0.3479 -1.1396 -0.5175
 4614SOL     OW25300   4.581   4.393   4.304 -0.0913  0.4823  0.1445
 4614SOL    HW125301   4.562   4.299   4.299  0.0505  0.5435 -1.5446
 4614SOL    HW225302   4.671   4.389   4.338 -0.5391 -1.7834  1.0236
 4615SOL     OW25303   1.410   2.761   9.332  0.0060  0.2696  0.2004
 4615SOL    HW125304   1.364   2.823   9.275 -1.2622 -0.5771  0.2975
 4615SOL    HW225305   1.347   2.690   9.322 -0.3220  0.5395  0.3649
 4616SOL     OW25306   3.471   1.379   3.378  0.5004 -0.4322 -0.9509
 4616SOL    HW125307   3.417   1.314   3.425  0.5523  1.7022  2.1038
 4616SOL    HW225308   3.446   1.466   3.408  0.8169 -0.0395 -1.8535
 4617SOL     OW25309   2.933   1.129   4.448 -0.0427 -0.1891 -0.7681
 4617SOL    HW125310   2.981   1.126   4.365  1.9518  2.2574  0.2986
 4617SOL    HW225311   2.964   1.210   4.488  2.2535 -1.7244  0.6378
 4618SOL     OW25312   4.089   4.359   5.466  0.5402  0.4154  0.2167
 4618SOL    HW125313   4.065   4.439   5.512 -0.6839 -0.7235  1.5524
 4618SOL    HW225314   4.079   4.379   5.373 -0.0243  3.2477  0.8876
 4619SOL     OW25315   3.560   0.052  11.482 -0.2030 -0.3559 -0.4419
 4619SOL    HW125316   3.561   0.139  11.522 -0.3427 -0.4531 -0.2278
 4619SOL    HW225317   3.543   0.003  11.562 -4.7169 -1.5935 -2.1715
 4620SOL     OW25318   4.619   3.769   7.589  0.4164  0.5201  0.0837
 4620SOL    HW125319   4.604   3.740   7.499 -0.0097  3.5647 -0.8210
 4620SOL    HW225320   4.527   3.779   7.614  0.1916 -0.1754 -0.4739
 4621SOL     OW25321   4.447   0.202   5.249 -0.6802 -0.7099  0.3955
 4621SOL    HW125322   4.407   0.287   5.269 -1.0326 -0.9153  0.5723
 4621SOL    HW225323   4.485   0.220   5.164  0.0588 -2.2151  0.3986
 4622SOL     OW25324   2.730   2.604   3.472  0.2323  0.5165  0.0605
 4622SOL    HW125325   2.767   2.682   3.429  0.2839  0.4611  0.0035
 4622SOL    HW225326   2.666   2.579   3.406 -0.2254  0.6798  0.4468
 4623SOL     OW25327   1.850   4.519   0.982  0.2350  0.0645  0.2797
 4623SOL    HW125328   1.763   4.484   0.966  0.1350  2.0206 -3.2759
 4623SOL    HW225329   1.825   4.603   1.021 -1.2345  0.3042 -1.2045
 4624SOL     OW25330   2.646   1.075   3.963 -0.2270  0.0633  0.9324
 4624SOL    HW125331   2.552   1.056   3.965 -0.3622  0.4234 -2.9850
 4624SOL    HW225332   2.681   0.986   3.963  0.9054  0.5174 -1.0458
 4625SOL     OW25333   0.586   4.365  17.607  0.2368 -0.3424 -0.3478
 4625SOL    HW125334   0.665   4.326  17.568  0.7684 -1.2726  1.6938
 4625SOL    HW225335   0.602   4.351  17.700  1.2268  0.3054 -0.4239
 4626SOL     OW25336   4.677   1.066   1.101 -0.0940 -0.0525 -0.2315
 4626SOL    HW125337   4.639   0.987   1.140  2.2478 -0.1445  1.8678
 4626SOL    HW225338   0.040   1.033   1.090 -0.5548 -2.3204  2.7234
 4627SOL     OW25339   1.492   1.967   3.802 -0.5572 -0.2148 -0.5698
 4627SOL    HW125340   1.504   1.978   3.708  1.3010 -1.3220 -0.4641
 4627SOL    HW225341   1.481   1.873   3.818 -2.5126 -0.0408 -1.0014
 4628SOL     OW25342   3.887   4.334   0.590  0.1936  0.3592  0.1488
 4628SOL    HW125343   3.880   4.333   0.494  0.4657 -2.6842  0.1842
 4628SOL    HW225344   3.966   4.284   0.607 -0.5978 -0.7092  0.6685
 4629SOL     OW25345   0.824   3.807  15.360 -0.0057  0.0748 -0.4613
 4629SOL    HW125346   0.729   3.798  15.369 -0.3573  1.5836 -2.8378
 4629SOL    HW225347   0.841   3.839  15.448  0.7323 -3.2541  0.6311
 4630SOL     OW25348   2.888   3.892   1.258 -0.4972  0.3632  0.7058
 4630SOL    HW125349   2.948   3.850   1.197 -2.1368  1.2963 -1.5408
 4630SOL    HW225350   2.810   3.905   1.204  0.4989  3.5533  0.0610
 4631SOL     OW25351   0.781   2.329   8.057 -0.3545  0.3566  0.2645
 4631SOL    HW125352   0.873   2.328   8.033 -0.8118  1.5567 -1.5330
 4631SOL    HW225353   0.781   2.378   8.139 -0.5594  0.7774  0.0157
 4632SOL     OW25354   0.667   4.076   9.182 -0.2442  0.1781  0.0823
 4632SOL    HW125355   0.577   4.108   9.174 -0.2584 -1.0932 -4.3988
 4632SOL    HW225356   0.713   4.136   9.124 -0.1336  0.9703  0.9740
 4633SOL     OW25357   1.841   0.185   1.650 -0.6026 -0.2448  0.6413
 4633SOL    HW125358   1.859   0.161   1.741  1.1740  3.1107  1.1538
 4633SOL    HW225359   1.763   0.130   1.638 -0.6031 -0.3834  1.2565
 4634SOL     OW25360   4.050   1.605   0.769  0.0731  0.0316  0.2511
 4634SOL    HW125361   4.118   1.569   0.712 -1.5335 -1.0917 -0.9610
 4634SOL    HW225362   4.096   1.683   0.800 -0.4464  0.6645 -0.5706
 4635SOL     OW25363   1.934   2.401  17.625  0.6704  0.3668 -0.4596
 4635SOL    HW125364   1.983   2.381  17.546  1.1978 -0.4674  0.0740
 4635SOL    HW225365   1.953   2.494  17.636 -0.5215  0.6099 -0.4715
 4636SOL     OW25366   3.812   2.335   9.074 -0.0734  0.3883 -0.3221
 4636SOL    HW125367   3.774   2.399   9.135  1.6013  1.0467  0.0369
 4636SOL    HW225368   3.747   2.265   9.079  0.5658 -0.2057 -0.2102
 4637SOL     OW25369   1.701   3.288   6.462 -0.4515 -0.2933 -0.6010
 4637SOL    HW125370   1.730   3.355   6.524 -0.0566  0.8581 -2.0238
 4637SOL    HW225371   1.679   3.219   6.524 -0.3852 -0.3503 -0.6419
 4638SOL     OW25372   3.688   3.763  11.339 -0.4621  0.5607  0.1512
 4638SOL    HW125373   3.648   3.805  11.262 -0.3040  1.2973  0.4714
 4638SOL    HW225374   3.610   3.763  11.394 -0.2233  0.8250  0.4858
 4639SOL     OW25375   1.020   4.269  16.398  0.1380  0.1796 -0.1451
 4639SOL    HW125376   1.082   4.208  16.360 -0.0075 -0.5870  0.8340
 4639SOL    HW225377   1.077   4.336  16.435 -0.1801 -0.5051  1.6082
 4640SOL     OW25378   4.165   4.725   4.666 -0.0884 -0.1907  0.3047
 4640SOL    HW125379   4.192   4.650   4.719  1.0994 -1.6183 -2.3237
 4640SOL    HW225380   4.077   4.696   4.641  0.1061  0.3277 -0.9734
 4641SOL     OW25381   0.428   3.027  16.455  0.5036  0.3420  0.0677
 4641SOL    HW125382   0.403   3.082  16.529  1.8448  0.0516  0.7411
 4641SOL    HW225383   0.483   2.966  16.504 -0.5926  0.0183  0.8883
 4642SOL     OW25384   2.523   0.931  14.922 -0.1404  0.0564 -0.6187
 4642SOL    HW125385   2.444   0.896  14.963  0.7526 -1.9425 -0.6133
 4642SOL    HW225386   2.582   0.855  14.925 -2.1647 -1.4400  0.9613
 4643SOL     OW25387   0.829   4.309  13.828 -0.6294  0.4466  0.6999
 4643SOL    HW125388   0.767   4.380  13.810  0.8139  1.4792 -0.2381
 4643SOL    HW225389   0.780   4.229  13.809  1.5842 -0.2659 -2.0470
 4644SOL     OW25390   2.891   1.181   6.558  0.0343  0.6932  0.4264
 4644SOL    HW125391   2.810   1.230   6.542  0.4688  1.2055 -0.1705
 4644SOL    HW225392   2.891   1.123   6.482  1.6413 -1.3263  1.9608
 4645SOL     OW25393   2.383   2.324  13.569 -0.6443  0.0038 -0.2929
 4645SOL    HW125394   2.476   2.304  13.580 -0.7030  1.2123  2.3266
 4645SOL    HW225395   2.362   2.377  13.646 -1.8608 -1.5449  0.4416
 4646SOL     OW25396   1.971   2.439  13.488 -0.1375  0.0025  0.1919
 4646SOL    HW125397   1.995   2.489  13.566  0.6075 -2.6467  1.6291
 4646SOL    HW225398   1.939   2.500  13.421 -1.4638  1.0886  1.7986
 4647SOL     OW25399   0.106   0.146   5.954  0.5686 -0.2165 -0.5941
 4647SOL    HW125400   0.194   0.142   5.915 -0.5647 -0.7583 -3.0959
 4647SOL    HW225401   0.118   0.222   6.011  1.9477 -0.2519 -0.8222
 4648SOL     OW25402   1.920   0.011   8.813  0.3088  0.0757  0.5259
 4648SOL    HW125403   1.867   0.087   8.787 -0.4280 -0.3064  0.9224
 4648SOL    HW225404   1.896   4.719   8.904 -0.4529 -2.2868 -0.1693
 4649SOL     OW25405   1.182   2.020   3.191 -0.6216 -0.2016  0.1079
 4649SOL    HW125406   1.135   2.025   3.274  2.0572 -1.4868  1.7222
 4649SOL    HW225407   1.256   1.964   3.216 -1.3709 -1.7214 -1.0749
 4650SOL     OW25408   1.744   2.559   1.116 -0.0452  0.2470 -0.4267
 4650SOL    HW125409   1.667   2.598   1.157  1.8355  1.0402  2.3609
 4650SOL    HW225410   1.733   2.578   1.023  1.5859 -1.2529 -0.9336
 4651SOL     OW25411   2.760   4.148  14.695 -0.5637 -0.1272  0.1340
 4651SOL    HW125412   2.829   4.207  14.667  1.1273 -2.0964  0.1554
 4651SOL    HW225413   2.813   4.091  14.750 -1.2309 -0.2636  0.6264
 4652SOL     OW25414   1.243   4.357   4.251 -0.1749 -0.0703  0.0060
 4652SOL    HW125415   1.228   4.451   4.245 -1.1735 -0.3958 -2.7214
 4652SOL    HW225416   1.285   4.357   4.337 -0.4455  1.8836  0.1277
 4653SOL     OW25417   2.814   0.822  13.655  0.1987  0.1040  0.3957
 4653SOL    HW125418   2.828   0.872  13.575 -1.0612  1.2790  0.9035
 4653SOL    HW225419   2.751   0.882  13.696 -3.4350 -2.1595 -1.7872
 4654SOL     OW25420   3.149   3.258  10.885  0.0773  0.1927 -0.1038
 4654SOL    HW125421   3.136   3.251  10.791  1.7623  1.3414 -0.4191
 4654SOL    HW225422   3.130   3.167  10.907  1.2482  0.1746  0.8445
 4655SOL     OW25423   3.413   2.571  14.401  0.2859  0.7522 -0.5878
 4655SOL    HW125424   3.506   2.590  14.395  0.0730  1.7989 -0.5788
 4655SOL    HW225425   3.388   2.632  14.470  0.9478  1.2732 -0.8128
 4656SOL     OW25426   3.826   2.706   3.355  0.8073  0.1992  0.0418
 4656SOL    HW125427   3.817   2.800   3.368 -0.3171  0.1731 -0.5056
 4656SOL    HW225428   3.797   2.663   3.435  0.2383 -1.4642 -1.0554
 4657SOL     OW25429   1.111   1.314   8.187 -0.2112  0.5376  0.1462
 4657SOL    HW125430   1.043   1.347   8.246  1.1958 -0.8929  2.5552
 4657SOL    HW225431   1.167   1.387   8.162  1.5888 -0.8002  0.2696
 4658SOL     OW25432   2.375   4.146   1.854  0.3253  0.3035 -0.3139
 4658SOL    HW125433   2.429   4.217   1.888  0.1806  0.7645 -1.0493
 4658SOL    HW225434   2.426   4.071   1.884  1.1247  1.4251  1.1378
 4659SOL     OW25435   1.103   4.552   6.841 -0.1896 -0.3223  0.4963
 4659SOL    HW125436   1.100   4.621   6.775 -1.2292  0.6760  1.5913
 4659SOL    HW225437   1.173   4.495   6.807 -0.9310 -0.0352 -1.5214
 4660SOL     OW25438   3.529   3.405   6.352 -0.6385  0.3685  0.1655
 4660SOL    HW125439   3.437   3.424   6.364 -0.9323  0.4501 -2.1502
 4660SOL    HW225440   3.561   3.434   6.438 -1.9526 -3.2096  1.8418
 4661SOL     OW25441   4.698   0.065   2.154  0.2521  0.1059 -0.5363
 4661SOL    HW125442   4.633   4.722   2.154  2.1993 -1.7319  1.8204
 4661SOL    HW225443   0.030   0.022   2.216 -0.0644 -0.1486 -0.4226
 4662SOL     OW25444   0.088   0.543   0.930  0.0091 -0.2514  0.0021
 4662SOL    HW125445   0.082   0.476   0.998  0.2024 -3.3705 -3.0292
 4662SOL    HW225446   0.126   0.614   0.982  0.8975 -0.7770  0.0676
 4663SOL     OW25447   2.956   0.995  17.160 -0.6033 -0.1422  0.3636
 4663SOL    HW125448   2.978   0.907  17.127  0.4621  0.0649  0.5000
 4663SOL    HW225449   2.868   1.014  17.128 -0.6506 -0.1365  0.4988
 4664SOL     OW25450   3.374   0.582   7.589  0.4888  0.3245  0.2036
 4664SOL    HW125451   3.461   0.621   7.584  1.3674 -1.8169 -1.3123
 4664SOL    HW225452   3.393   0.493   7.619  3.1134  1.2049  1.1571
 4665SOL     OW25453   2.236   4.414   0.288 -0.2286 -0.6626  0.4223
 4665SOL    HW125454   2.228   4.464   0.369  1.4738 -1.2280  0.9408
 4665SOL    HW225455   2.329   4.427   0.269 -0.5362  0.7940 -0.0603
 4666SOL     OW25456   1.682   3.619  15.269  0.3359  0.4832  0.1835
 4666SOL    HW125457   1.660   3.548  15.330 -1.1625  0.4783 -0.3376
 4666SOL    HW225458   1.740   3.576  15.206  0.9498  0.8531  0.5042
 4667SOL     OW25459   1.558   0.429   5.522 -0.6819  0.9585 -0.3852
 4667SOL    HW125460   1.614   0.439   5.599 -0.7158  2.5425 -0.5775
 4667SOL    HW225461   1.582   0.349   5.475 -0.8021 -0.1175  1.4032
 4668SOL     OW25462   3.356   1.024  11.510  0.2289  0.5329  0.2534
 4668SOL    HW125463   3.417   0.949  11.513  0.7631  0.9177 -1.1691
 4668SOL    HW225464   3.388   1.082  11.441 -0.4643  0.4218 -0.1607
 4669SOL     OW25465   1.395   0.927   2.662  0.4997 -0.2748 -0.1251
 4669SOL    HW125466   1.441   0.883   2.733 -0.8936 -0.8630  0.4196
 4669SOL    HW225467   1.455   0.976   2.606  1.1048 -0.6144  0.2331
 4670SOL     OW25468   3.709   0.484  11.550 -0.0660  0.8588 -1.1346
 4670SOL    HW125469   3.778   0.540  11.514 -0.1174  0.1607 -2.3018
 4670SOL    HW225470   3.705   0.525  11.636  1.1791 -0.4919 -0.4243
 4671SOL     OW25471   0.259   0.617  13.767  0.3451  0.1965  0.1803
 4671SOL    HW125472   0.180   0.669  13.750 -0.2294  0.5497  3.8885
 4671SOL    HW225473   0.289   0.615  13.676  1.2528 -1.3537  0.5192
 4672SOL     OW25474   1.563   0.985   7.126 -0.5449  0.3815  0.9888
 4672SOL    HW125475   1.521   1.028   7.051 -0.0429  3.0353  2.2416
 4672SOL    HW225476   1.500   0.965   7.195 -1.0751 -0.0370  0.3922
 4673SOL     OW25477   2.976   1.816  11.411  0.0475 -0.3895  0.4466
 4673SOL    HW125478   2.916   1.833  11.338  0.1946 -0.6187  0.2719
 4673SOL    HW225479   2.986   1.721  11.400  1.2357 -0.2545  0.3499
 4674SOL     OW25480   3.841   1.662  15.471 -0.1343  0.6132 -0.3061
 4674SOL    HW125481   3.812   1.571  15.463  2.1641 -0.1038 -0.2956
 4674SOL    HW225482   3.935   1.659  15.459  0.1674  0.7070  1.9929
 4675SOL     OW25483   1.950   4.521   3.169  0.1028 -0.3321 -0.0901
 4675SOL    HW125484   1.935   4.612   3.143  1.4628 -0.3006 -0.7884
 4675SOL    HW225485   1.989   4.481   3.091 -2.4192 -2.1800 -0.4263
 4676SOL     OW25486   0.931   2.394  15.803 -0.1401  0.0936  0.2410
 4676SOL    HW125487   0.975   2.367  15.883 -0.7378 -0.4530  0.3863
 4676SOL    HW225488   0.889   2.476  15.826  0.0897  0.1746  0.3698
 4677SOL     OW25489   4.645   1.233   6.112  0.4379  0.2658  0.8609
 4677SOL    HW125490   4.700   1.162   6.079 -0.5395  1.2223 -2.8403
 4677SOL    HW225491   4.680   1.252   6.199  0.3953 -1.7598  1.3212
 4678SOL     OW25492   3.725   0.981   3.002 -0.2578  1.0022  0.4673
 4678SOL    HW125493   3.652   0.939   2.955 -1.0261 -0.5181  2.9941
 4678SOL    HW225494   3.682   1.013   3.082 -0.6823 -1.5674  1.2907
 4679SOL     OW25495   3.486   4.002   2.636  0.7485 -0.4071  0.3279
 4679SOL    HW125496   3.402   3.961   2.615  2.1214 -3.0887 -0.0397
 4679SOL    HW225497   3.473   4.073   2.574 -1.2001  0.3198  1.5972
 4680SOL     OW25498   3.412   0.080   7.774  0.0961 -0.1544  0.0666
 4680SOL    HW125499   3.490   0.024   7.777  1.0074  1.2114  1.6658
 4680SOL    HW225500   3.347   0.022   7.735  1.4807 -2.8771  1.7798
 4681SOL     OW25501   1.485   2.953  12.468 -0.1267  0.1002  0.7211
 4681SOL    HW125502   1.481   2.971  12.374  0.9468 -2.5626  0.1738
 4681SOL    HW225503   1.392   2.941  12.487  0.1618 -2.0820  0.7381
 4682SOL     OW25504   0.149   0.164   2.942  0.1772  0.4307  0.3571
 4682SOL    HW125505   0.092   0.221   2.994 -1.6045 -1.6797  0.7219
 4682SOL    HW225506   0.197   0.128   3.016 -2.4115  0.6867  2.1464
 4683SOL     OW25507   3.768   2.427   8.286  0.5158  0.1301 -0.0718
 4683SOL    HW125508   3.812   2.348   8.317 -0.2016  0.1811  1.0580
 4683SOL    HW225509   3.701   2.390   8.228  0.5528 -0.7240  0.4310
 4684SOL     OW25510   3.976   2.056   6.814  0.2323 -0.0052  0.7924
 4684SOL    HW125511   4.018   2.037   6.897  0.7722  1.0843  0.7729
 4684SOL    HW225512   3.923   1.977   6.806 -2.0707  1.5024  0.9165
 4685SOL     OW25513   4.020   1.011   5.837  0.1951  0.0597  0.0731
 4685SOL    HW125514   3.963   0.940   5.865  0.1850 -0.0517 -0.2263
 4685SOL    HW225515   4.093   1.000   5.898  0.6105  1.8404 -0.0887
 4686SOL     OW25516   4.089   3.020   0.949 -0.0311 -0.0959 -0.3187
 4686SOL    HW125517   4.102   3.113   0.936 -1.3307  0.0841 -0.3589
 4686SOL    HW225518   4.077   3.018   1.044  1.4269  1.9896 -0.1147
 4687SOL     OW25519   1.249   2.755   3.045  0.0421 -0.2130 -0.2256
 4687SOL    HW125520   1.308   2.827   3.023 -0.6821  0.9286  1.5787
 4687SOL    HW225521   1.267   2.773   3.137 -0.0249  0.1966 -0.2911
 4688SOL     OW25522   0.207   3.023   0.598 -0.1558 -0.3702  0.3357
 4688SOL    HW125523   0.159   3.033   0.515  1.6379  0.6311 -0.5577
 4688SOL    HW225524   0.218   3.114   0.625  0.5881 -0.7134  1.1654
 4689SOL     OW25525   4.470   3.355   7.495  0.0871  0.2664 -0.2509
 4689SOL    HW125526   4.523   3.434   7.487 -0.4503  0.5480 -1.0285
 4689SOL    HW225527   4.531   3.292   7.456 -2.0006 -2.3303  0.6863
 4690SOL     OW25528   1.752   1.953   8.939  0.3613  0.2091 -0.0104
 4690SOL    HW125529   1.759   1.859   8.924 -0.4837  0.1629 -0.1178
 4690SOL    HW225530   1.697   1.957   9.017  0.3953 -0.8964  0.0696
 4691SOL     OW25531   3.294   3.841   2.511  0.6294 -0.0018 -0.4530
 4691SOL    HW125532   3.329   3.759   2.477  2.3535  0.7384 -0.4532
 4691SOL    HW225533   3.206   3.807   2.526  0.4439 -0.1618 -1.8944
 4692SOL     OW25534   4.570   1.910  14.540 -0.6496  0.5383 -0.3040
 4692SOL    HW125535   4.650   1.927  14.590 -0.0057  0.3736 -1.2874
 4692SOL    HW225536   4.519   1.862  14.606 -0.4153  1.4487  0.5443
 4693SOL     OW25537   3.788   4.230   9.673  0.6756  0.0375 -0.5445
 4693SOL    HW125538   3.746   4.313   9.696  0.2794 -0.5743  0.9274
 4693SOL    HW225539   3.715   4.183   9.633 -0.7614  1.2222  0.6769
 4694SOL     OW25540   0.707   3.606   3.135 -0.7595 -0.1685  0.0432
 4694SOL    HW125541   0.783   3.621   3.079 -2.1798  3.1457 -0.9943
 4694SOL    HW225542   0.755   3.593   3.217 -2.2903 -0.4106  0.9025
 4695SOL     OW25543   3.643   2.161   7.855  0.0647 -0.3649 -0.5554
 4695SOL    HW125544   3.699   2.110   7.796 -1.3326  1.8408 -3.8072
 4695SOL    HW225545   3.553   2.134   7.836 -0.0755 -0.4575  0.2580
 4696SOL     OW25546   2.024   3.944   2.629  0.2007 -0.0888  0.2677
 4696SOL    HW125547   2.072   4.006   2.574  1.2566 -1.8523 -0.8010
 4696SOL    HW225548   1.944   3.935   2.578  0.1201 -0.9284  0.5306
 4697SOL     OW25549   1.173   4.268   0.899  0.4054 -0.0349 -0.3281
 4697SOL    HW125550   1.103   4.310   0.850  1.1592  2.3470  0.6348
 4697SOL    HW225551   1.127   4.233   0.975 -0.8736  1.0193 -0.6077
 4698SOL     OW25552   2.576   4.580  13.222 -0.0320 -0.5477  0.2900
 4698SOL    HW125553   2.647   4.582  13.287  0.5804 -4.6002 -0.2290
 4698SOL    HW225554   2.605   4.647  13.161  0.2602 -0.9344  0.0015
 4699SOL     OW25555   0.480   2.917   6.914 -0.3736  0.0973 -0.3609
 4699SOL    HW125556   0.528   2.965   6.847  1.7490 -0.5714  0.6645
 4699SOL    HW225557   0.429   2.990   6.948 -1.0585 -0.8642  0.6818
 4700SOL     OW25558   2.131   3.434   4.331  0.0057  0.0099  0.7810
 4700SOL    HW125559   2.072   3.508   4.318  1.8905  1.1784 -1.3292
 4700SOL    HW225560   2.070   3.365   4.305  1.9932 -1.4797  0.0674
 4701SOL     OW25561   1.495   4.223   1.912 -0.1235 -0.2080  0.4792
 4701SOL    HW125562   1.570   4.281   1.921  2.0374 -2.8707 -0.3914
 4701SOL    HW225563   1.490   4.210   1.817 -1.4111 -0.4665  0.5762
 4702SOL     OW25564   1.508   1.813   9.801 -0.1411  0.1046  0.1866
 4702SOL    HW125565   1.484   1.790   9.711 -1.7342  0.8087  0.4471
 4702SOL    HW225566   1.534   1.725   9.828 -1.0772  0.0766  1.0041
 4703SOL     OW25567   2.597   1.238  16.895 -0.3280 -0.4127  0.4367
 4703SOL    HW125568   2.637   1.263  16.812 -1.9774 -0.7079 -0.4499
 4703SOL    HW225569   2.648   1.286  16.961  1.4766 -2.3267  0.4155
 4704SOL     OW25570   3.889   3.092  14.894 -0.0958  0.0968  0.3260
 4704SOL    HW125571   3.836   3.158  14.939 -1.0694 -1.1872  1.0563
 4704SOL    HW225572   3.974   3.100  14.938  0.0467  0.5727 -0.0281
 4705SOL     OW25573   0.549   4.586  17.267 -0.1713  0.3296  0.4524
 4705SOL    HW125574   0.623   4.527  17.281 -1.9016 -1.9556  0.0288
 4705SOL    HW225575   0.483   4.520  17.242  1.0362 -0.2595 -1.1441
 4706SOL     OW25576   2.375   0.151   2.627  0.1532  0.6081  0.2623
 4706SOL    HW125577   2.437   0.135   2.555  0.7922  2.2995  0.4319
 4706SOL    HW225578   2.310   0.207   2.585 -0.7590 -1.2569 -0.8293
 4707SOL     OW25579   3.420   4.539   3.003 -0.3366  0.0694  0.0494
 4707SOL    HW125580   3.349   4.493   3.050  0.6509  0.5449  2.0072
 4707SOL    HW225581   3.406   4.514   2.912  0.4135  0.7410 -0.2439
 4708SOL     OW25582   0.456   4.677   3.991 -0.2240 -0.3805 -0.0495
 4708SOL    HW125583   0.437   0.045   3.991 -1.7034 -0.6806 -0.7174
 4708SOL    HW225584   0.536   4.696   3.942 -1.0920  0.7915 -1.0092
 4709SOL     OW25585   3.012   0.189  13.278  0.3878 -0.6400  0.0996
 4709SOL    HW125586   3.092   0.137  13.284  0.7480 -0.1711 -0.6928
 4709SOL    HW225587   2.998   0.191  13.373  0.2551 -0.2685  0.0739
 4710SOL     OW25588   1.214   0.753  15.795 -0.9248  0.2626  0.2163
 4710SOL    HW125589   1.307   0.730  15.794 -1.2605 -0.9910 -3.4703
 4710SOL    HW225590   1.169   0.669  15.791 -0.0045 -0.2686  0.8582
 4711SOL     OW25591   4.441   3.379  12.197 -0.2898 -0.0970  0.1223
 4711SOL    HW125592   4.410   3.371  12.107  0.6723  1.3236 -0.3417
 4711SOL    HW225593   4.512   3.315  12.201 -0.5555 -0.5083 -1.9685
 4712SOL     OW25594   2.876   1.163  16.202  0.0261  0.2474 -0.2630
 4712SOL    HW125595   2.914   1.251  16.192 -0.0202  0.3487  0.4549
 4712SOL    HW225596   2.929   1.119  16.268 -0.7497 -2.9619 -1.7683
 4713SOL     OW25597   1.083   2.050  16.439  0.3386  0.4782  0.3006
 4713SOL    HW125598   1.025   2.124  16.456  0.7931  1.0650 -0.6760
 4713SOL    HW225599   1.127   2.082  16.359  0.8054  1.4484  0.9387
 4714SOL     OW25600   3.893   3.067   1.424  0.3157 -0.2640  0.2654
 4714SOL    HW125601   3.908   2.987   1.476 -1.5413 -0.8999 -0.1485
 4714SOL    HW225602   3.801   3.086   1.446 -0.0167 -2.3714  0.7278
 4715SOL     OW25603   3.059   2.031   9.196 -1.0032  0.5978  0.9999
 4715SOL    HW125604   3.109   2.016   9.276 -2.0894 -0.2857  1.5067
 4715SOL    HW225605   3.037   2.123   9.210 -1.4560  0.4249  1.3924
 4716SOL     OW25606   2.114   3.447   6.674 -0.4761 -0.4002  0.2334
 4716SOL    HW125607   2.091   3.492   6.756  1.7691  2.4695 -0.7020
 4716SOL    HW225608   2.029   3.409   6.652 -1.2800  2.3166 -1.4157
 4717SOL     OW25609   0.125   2.567   6.156  0.4142 -0.6233  0.3520
 4717SOL    HW125610   0.081   2.518   6.087  1.1941  0.0236 -0.5979
 4717SOL    HW225611   0.163   2.642   6.110  0.4321 -1.9099 -1.7456
 4718SOL     OW25612   2.250   2.157   3.140  0.1178  0.1230 -0.2312
 4718SOL    HW125613   2.305   2.083   3.114  1.9565  0.3843  2.9330
 4718SOL    HW225614   2.190   2.107   3.196  2.1334  0.8063  2.5743
 4719SOL     OW25615   4.118   0.871   3.687  0.0611  0.0425 -0.1060
 4719SOL    HW125616   4.070   0.856   3.605 -1.0757  1.3027  0.3385
 4719SOL    HW225617   4.182   0.802   3.670 -1.8024 -1.3381 -1.6367
 4720SOL     OW25618   2.227   0.997   2.186 -0.4610 -0.1676  0.2058
 4720SOL    HW125619   2.284   1.060   2.229  1.0875 -0.2863 -1.6848
 4720SOL    HW225620   2.285   0.930   2.149  0.5909  0.8290  0.0730
 4721SOL     OW25621   1.453   0.869   9.499  0.2062 -0.5437 -0.0808
 4721SOL    HW125622   1.487   0.781   9.481  0.4269 -0.6686  0.9217
 4721SOL    HW225623   1.361   0.854   9.479  0.1483  0.4557 -0.5191
 4722SOL     OW25624   4.708   3.748   5.658  0.1185  0.2486 -0.0468
 4722SOL    HW125625   0.036   3.726   5.734 -1.5740 -0.7335  0.8867
 4722SOL    HW225626   4.656   3.667   5.650 -0.5651  0.7276 -0.4112
 4723SOL     OW25627   1.668   3.747  16.670 -0.2581 -0.3156 -0.0757
 4723SOL    HW125628   1.750   3.717  16.709  0.4737  1.3206 -0.3492
 4723SOL    HW225629   1.617   3.671  16.698 -1.1801  0.3777  0.1249
 4724SOL     OW25630   1.742   3.518  16.395 -0.8066 -0.2048  0.7344
 4724SOL    HW125631   1.810   3.581  16.416 -0.5754  0.3796 -1.8572
 4724SOL    HW225632   1.695   3.556  16.321  1.1830 -0.3408 -0.5772
 4725SOL     OW25633   2.179   1.291  15.565  0.8054 -0.4049 -0.6553
 4725SOL    HW125634   2.255   1.243  15.597  0.8501  0.5571  0.6497
 4725SOL    HW225635   2.154   1.233  15.493 -1.3051 -0.4198  0.0661
 4726SOL     OW25636   1.996   2.700   1.697 -0.1075  0.2189  0.1427
 4726SOL    HW125637   1.960   2.611   1.699  0.2449  0.0325 -2.6085
 4726SOL    HW225638   1.967   2.733   1.782 -0.5411  0.8599 -0.2625
 4727SOL     OW25639   2.140   4.519   3.370 -0.3509 -0.0770  0.2169
 4727SOL    HW125640   2.126   4.426   3.391 -0.5984  0.1444  1.0421
 4727SOL    HW225641   2.080   4.524   3.296  1.6802 -2.3052 -1.5752
 4728SOL     OW25642   2.593   1.665   4.632 -0.1932  0.4258  0.6272
 4728SOL    HW125643   2.532   1.706   4.694 -2.0304  1.4850 -1.8713
 4728SOL    HW225644   2.677   1.690   4.669 -0.0801 -0.3828  0.9083
 4729SOL     OW25645   3.959   3.528   4.309 -0.1059  0.0989 -0.5100
 4729SOL    HW125646   4.050   3.557   4.314  0.5561 -1.8327 -1.5655
 4729SOL    HW225647   3.929   3.565   4.226  2.1956  0.4559 -1.1667
 4730SOL     OW25648   3.909   1.742   8.181 -0.1117 -0.4445  0.0258
 4730SOL    HW125649   4.001   1.744   8.208  0.1639 -0.3578 -0.9199
 4730SOL    HW225650   3.908   1.674   8.114  0.6104  0.8264 -1.2811
 4731SOL     OW25651   2.510   3.381   5.968  0.2436  0.4173  0.2731
 4731SOL    HW125652   2.451   3.455   5.984  0.6906  0.9395 -0.4973
 4731SOL    HW225653   2.527   3.348   6.056  1.7499  1.0677  0.2331
 4732SOL     OW25654   3.977   4.521  12.680 -0.2087  0.2936  0.9641
 4732SOL    HW125655   4.043   4.565  12.627 -0.6890 -0.1384  0.0216
 4732SOL    HW225656   3.953   4.452  12.619  0.3920  1.4920 -0.6022
 4733SOL     OW25657   3.457   3.181   8.650 -0.4989  0.2273  0.0146
 4733SOL    HW125658   3.548   3.197   8.674  0.2524 -0.2669 -2.4909
 4733SOL    HW225659   3.422   3.241   8.716 -0.1650 -0.6141  0.9583
 4734SOL     OW25660   3.143   3.971   7.014  0.0024 -0.4617  0.3462
 4734SOL    HW125661   3.052   3.971   6.984  0.4968  2.5608 -1.2343
 4734SOL    HW225662   3.150   3.887   7.058  0.1981 -1.3323 -1.3366
 4735SOL     OW25663   3.576   3.505   7.585 -0.8189 -0.2777 -0.7292
 4735SOL    HW125664   3.638   3.574   7.608  0.6507 -1.6639 -0.4927
 4735SOL    HW225665   3.509   3.551   7.535 -0.0980  1.5441  0.0137
 4736SOL     OW25666   3.815   0.623   5.742 -0.0333  0.1670  0.9593
 4736SOL    HW125667   3.779   0.544   5.782 -1.0475  0.0915 -0.1299
 4736SOL    HW225668   3.892   0.595   5.692  1.2954  1.6148  2.1884
 4737SOL     OW25669   0.012   2.128   3.345 -0.4415  0.6414  0.2056
 4737SOL    HW125670   0.006   2.198   3.410  1.2507  0.2889  0.7355
 4737SOL    HW225671   4.710   2.053   3.398 -1.9943 -0.8362 -2.6680
 4738SOL     OW25672   3.109   0.504   5.278  0.7011  0.2600  0.8595
 4738SOL    HW125673   3.161   0.468   5.350  0.4690  0.3139  1.0537
 4738SOL    HW225674   3.093   0.423   5.231 -0.5227  0.7840  0.3746
 4739SOL     OW25675   0.316   2.772   2.380 -0.1108  1.1951  0.3865
 4739SOL    HW125676   0.333   2.704   2.314  0.6393  0.4644  1.3305
 4739SOL    HW225677   0.401   2.815   2.388  0.3311  0.2698  0.6245
 4740SOL     OW25678   2.502   4.681   9.594  0.4023  0.1709  0.0132
 4740SOL    HW125679   2.503   4.715   9.683  0.4817 -1.6381  0.6983
 4740SOL    HW225680   2.571   4.615   9.601 -0.3303 -0.6309 -0.3225
 4741SOL     OW25681   4.696   0.407   5.795 -0.0657  0.0769 -0.0280
 4741SOL    HW125682   0.011   0.494   5.796  0.2466 -0.0829  1.7702
 4741SOL    HW225683   0.009   0.377   5.713  0.5771  1.1022 -0.1077
 4742SOL     OW25684   3.963   0.892   7.844  0.4362  0.3707  0.3707
 4742SOL    HW125685   3.886   0.835   7.836 -0.7619  1.9927  0.4213
 4742SOL    HW225686   3.919   0.974   7.869  1.1587  1.5962 -2.3909
 4743SOL     OW25687   1.062   2.128   8.842 -0.2100 -0.1834 -0.0879
 4743SOL    HW125688   1.151   2.113   8.876  0.9267  4.7479 -0.9706
 4743SOL    HW225689   1.060   2.223   8.847 -1.4040 -0.2498  0.8298
 4744SOL     OW25690   3.807   3.287   9.501  0.3372 -0.6953 -0.1743
 4744SOL    HW125691   3.731   3.275   9.444  0.2836 -0.3353 -0.1804
 4744SOL    HW225692   3.824   3.381   9.492  1.1916 -0.6234  2.1000
 4745SOL     OW25693   2.345   2.330   2.130  1.4048 -0.2436 -0.7143
 4745SOL    HW125694   2.286   2.254   2.129  0.2265  0.6644 -0.1683
 4745SOL    HW225695   2.342   2.362   2.040  0.8951  1.1096 -0.2093
 4746SOL     OW25696   1.493   2.652   4.571  0.0076  0.1567  0.0232
 4746SOL    HW125697   1.507   2.720   4.505  2.6870 -0.3670  0.0362
 4746SOL    HW225698   1.495   2.568   4.527 -1.2654 -0.8624  1.9024
 4747SOL     OW25699   1.418   1.131   6.914 -0.4677  0.7572 -0.1639
 4747SOL    HW125700   1.390   1.065   6.851 -0.6022  1.5279 -0.9041
 4747SOL    HW225701   1.476   1.189   6.865  0.1218 -1.4205 -2.0502
 4748SOL     OW25702   0.844   1.498   4.506 -0.2476  0.5377  0.0139
 4748SOL    HW125703   0.776   1.548   4.461 -0.1409 -0.5047 -1.3128
 4748SOL    HW225704   0.797   1.415   4.509  0.6892 -0.0041 -0.4883
 4749SOL     OW25705   4.005   1.531   3.758 -0.2384  0.4010 -0.7124
 4749SOL    HW125706   4.065   1.493   3.693  1.3655 -0.4401  1.2473
 4749SOL    HW225707   4.063   1.582   3.814  3.1820 -0.7537 -3.2268
 4750SOL     OW25708   0.918   3.896   6.498 -0.1580  0.1730 -0.0218
 4750SOL    HW125709   0.914   3.988   6.526  2.8636  0.8518 -1.7924
 4750SOL    HW225710   0.934   3.908   6.404 -2.4365 -1.1353 -0.5711
 4751SOL     OW25711   4.430   1.165  11.437  0.9933 -0.1277 -0.5228
 4751SOL    HW125712   4.456   1.162  11.345  0.4458 -0.0473 -0.6751
 4751SOL    HW225713   4.347   1.210  11.424  2.0562  1.6507 -1.2184
 4752SOL     OW25714   2.607   3.344  11.556  0.0880 -0.2465  0.3562
 4752SOL    HW125715   2.687   3.310  11.516 -1.5293 -0.7188 -2.4678
 4752SOL    HW225716   2.548   3.275  11.526  2.3969 -1.8158 -0.6342
 4753SOL     OW25717   4.496   0.502   3.567 -0.0969  0.1830  0.2351
 4753SOL    HW125718   4.452   0.478   3.486  3.1317  0.5102 -1.6324
 4753SOL    HW225719   4.581   0.536   3.539 -0.8773  1.0158 -1.1072
 4754SOL     OW25720   0.800   1.955  11.026  0.1564 -0.0401  0.2523
 4754SOL    HW125721   0.763   1.906  10.953  1.2165 -1.3891  0.6400
 4754SOL    HW225722   0.725   2.004  11.059  0.6211  1.0396 -0.2773
 4755SOL     OW25723   3.850   1.415   0.432  0.5326  0.5084  0.3309
 4755SOL    HW125724   3.789   1.353   0.392  2.0956  0.0654 -1.3462
 4755SOL    HW225725   3.860   1.375   0.519  1.5109  1.1355  0.5000
 4756SOL     OW25726   3.664   4.057   2.254  0.0728 -0.6136 -0.6582
 4756SOL    HW125727   3.579   4.037   2.215 -0.5332 -0.4974  0.5852
 4756SOL    HW225728   3.627   4.119   2.317  0.6829 -0.7909 -0.1182
 4757SOL     OW25729   3.072   1.314  14.709 -0.3722  0.4130  0.4022
 4757SOL    HW125730   3.133   1.247  14.738  1.4259  0.7539 -2.5943
 4757SOL    HW225731   3.130   1.389  14.695 -0.7186 -0.0021 -3.2764
 4758SOL     OW25732   0.113   3.454   5.569 -0.0664  0.2846 -0.1314
 4758SOL    HW125733   0.033   3.504   5.587  0.1457 -0.1649  2.0706
 4758SOL    HW225734   0.133   3.408   5.651  0.4257  1.6335  0.5160
 4759SOL     OW25735   3.479   0.820   3.223  0.0380 -0.3054  0.3193
 4759SOL    HW125736   3.414   0.816   3.152  0.9753 -0.1161 -0.5494
 4759SOL    HW225737   3.473   0.913   3.242  0.8000 -0.2901  0.4810
 4760SOL     OW25738   0.026   2.188  17.639 -0.0103 -0.3503  0.4976
 4760SOL    HW125739   0.088   2.115  17.642 -0.0264 -0.4238 -1.1406
 4760SOL    HW225740   4.718   2.193  17.550  1.4175 -0.7899 -0.0695
 4761SOL     OW25741   0.972   1.168  12.489  0.3154 -0.3353 -0.6361
 4761SOL    HW125742   0.989   1.138  12.578  2.6933  0.9062 -0.6443
 4761SOL    HW225743   0.892   1.213  12.514  0.4621 -0.8501  0.7207
 4762SOL     OW25744   4.504   0.712   4.153 -0.4575  0.1682 -0.0453
 4762SOL    HW125745   4.427   0.755   4.115  0.1076  1.5573  0.3762
 4762SOL    HW225746   4.530   0.654   4.081 -2.5307 -1.8007  0.8056
 4763SOL     OW25747   3.657   2.463  16.054  0.2860  0.2658 -0.4983
 4763SOL    HW125748   3.621   2.549  16.030 -1.1626  0.1958  1.4534
 4763SOL    HW225749   3.750   2.486  16.053  0.4933 -0.6830 -3.0214
 4764SOL     OW25750   1.495   4.533   5.128  0.1279 -0.4299 -0.3443
 4764SOL    HW125751   1.540   4.514   5.046  0.1833  1.0598 -0.6635
 4764SOL    HW225752   1.537   4.616   5.152 -1.5742  0.5178 -0.6263
 4765SOL     OW25753   2.155   1.781   7.134  0.4166  0.5927 -0.4037
 4765SOL    HW125754   2.158   1.691   7.165  0.5501  1.0557  0.9487
 4765SOL    HW225755   2.097   1.779   7.057  0.9404  0.4928 -0.7936
 4766SOL     OW25756   3.134   2.902   8.104 -0.3498 -0.0807  0.6046
 4766SOL    HW125757   3.080   2.894   8.182  0.3447 -0.9982  0.9953
 4766SOL    HW225758   3.219   2.889   8.145 -0.8920  0.2809  1.8348
 4767SOL     OW25759   4.620   2.231   6.056  0.3470 -0.2866  0.4033
 4767SOL    HW125760   4.697   2.278   6.027  0.9105 -1.5021 -0.0831
 4767SOL    HW225761   4.594   2.202   5.969  0.3776 -0.3981  0.4310
 4768SOL     OW25762   1.747   4.354   3.954 -0.1375  0.3197  0.0195
 4768SOL    HW125763   1.730   4.277   3.901  0.2585  0.6315 -0.5655
 4768SOL    HW225764   1.680   4.414   3.922 -0.5007  0.4464  1.0127
 4769SOL     OW25765   4.571   4.126   4.327  0.2347  0.2468  0.0140
 4769SOL    HW125766   4.632   4.053   4.338 -1.3887 -1.1280 -0.1290
 4769SOL    HW225767   4.536   4.123   4.238 -0.0262 -1.3490  0.1728
 4770SOL     OW25768   3.158   1.780   2.458  0.5876 -0.2398  0.7273
 4770SOL    HW125769   3.106   1.860   2.455  0.8996 -0.1180 -1.5031
 4770SOL    HW225770   3.242   1.823   2.442  1.7460 -2.3750  0.9498
 4771SOL     OW25771   4.016   0.680  16.420  0.3177 -0.0707 -0.0301
 4771SOL    HW125772   4.014   0.638  16.334 -0.6882 -1.2230  0.5556
 4771SOL    HW225773   3.952   0.751  16.415  0.3725 -0.0735 -0.7487
 4772SOL     OW25774   3.132   4.592   6.861 -0.2829 -0.2340  0.5052
 4772SOL    HW125775   3.136   4.628   6.950 -0.5456 -0.1491  0.4823
 4772SOL    HW225776   3.202   4.528   6.869  0.3548  0.5157  1.0171
 4773SOL     OW25777   4.361   4.569   9.191  1.0040 -0.4648  0.0059
 4773SOL    HW125778   4.372   4.595   9.283 -0.7656  0.4961 -0.0539
 4773SOL    HW225779   4.268   4.549   9.195  0.4601  1.9486 -0.1892
 4774SOL     OW25780   1.181   0.597  13.814  0.4322 -0.1255  0.1182
 4774SOL    HW125781   1.231   0.675  13.790 -1.0647  0.6171 -0.5695
 4774SOL    HW225782   1.158   0.565  13.727  0.3312  0.2833 -0.0022
 4775SOL     OW25783   2.157   2.952   5.984  0.2518 -1.0004  0.2896
 4775SOL    HW125784   2.175   3.042   5.957  0.4047 -0.7737  1.1525
 4775SOL    HW225785   2.233   2.928   6.036  0.6780 -2.1345 -0.8310
 4776SOL     OW25786   2.826   0.542   8.639  0.3030 -0.3714  0.3505
 4776SOL    HW125787   2.863   0.538   8.551 -1.2832  1.7290 -0.3967
 4776SOL    HW225788   2.785   0.628   8.638  0.3010 -0.3924 -1.2255
 4777SOL     OW25789   3.008   3.403   6.632  0.1552 -0.2202  0.3283
 4777SOL    HW125790   2.937   3.467   6.644  0.0062 -0.3923  0.3659
 4777SOL    HW225791   2.979   3.328   6.684 -1.4903 -1.5167 -2.4560
 4778SOL     OW25792   0.707   4.157   7.287  0.6954 -0.3825 -0.0215
 4778SOL    HW125793   0.631   4.167   7.346 -0.0987 -1.0211 -0.9313
 4778SOL    HW225794   0.773   4.122   7.347 -1.0823 -0.3301  2.0089
 4779SOL     OW25795   3.450   2.479   6.185 -0.0134  0.0365  0.0918
 4779SOL    HW125796   3.520   2.441   6.238  1.5269  2.4129 -0.2281
 4779SOL    HW225797   3.510   2.543   6.146 -0.5836  1.2639  1.2109
 4780SOL     OW25798   3.152   1.063   7.906 -0.0893  0.2291  0.2550
 4780SOL    HW125799   3.085   1.085   7.970  0.8507  0.0808  1.2896
 4780SOL    HW225800   3.216   1.134   7.912 -0.6179  0.7837 -0.7005
 4781SOL     OW25801   0.444   1.041   5.712 -0.6255 -0.0682 -0.0440
 4781SOL    HW125802   0.443   1.128   5.673  0.1284  0.4842  1.2005
 4781SOL    HW225803   0.536   1.021   5.697 -0.9607  0.0369 -2.3034
 4782SOL     OW25804   4.524   1.910   4.370 -0.0354  0.5739 -0.1317
 4782SOL    HW125805   4.530   2.005   4.357  2.5178  0.3036 -0.7797
 4782SOL    HW225806   4.535   1.885   4.279 -0.6373  0.4069 -0.1627
 4783SOL     OW25807   0.119   2.434   3.388 -0.1640 -0.1621  0.4532
 4783SOL    HW125808   0.088   2.354   3.432  0.9858  0.4146  2.3113
 4783SOL    HW225809   0.211   2.444   3.414  0.1237  0.1978 -0.6870
 4784SOL     OW25810   3.879   0.247   7.338 -0.7136  0.2993 -0.1770
 4784SOL    HW125811   3.810   0.220   7.399 -0.0853 -2.6430 -0.7789
 4784SOL    HW225812   3.833   0.317   7.292  0.5517  1.9583  1.0762
 4785SOL     OW25813   0.597   2.849   2.508  0.1899  0.6092 -0.0973
 4785SOL    HW125814   0.634   2.834   2.421  2.8144 -1.8498  1.4295
 4785SOL    HW225815   0.636   2.935   2.525 -0.7701  1.2514 -1.1497
 4786SOL     OW25816   4.559   2.741   5.433 -0.5985  0.9790  0.5073
 4786SOL    HW125817   4.589   2.691   5.510  1.1123 -2.0167 -2.0954
 4786SOL    HW225818   4.508   2.672   5.391  1.3083 -0.3217  0.3380
 4787SOL     OW25819   0.030   4.504   3.710  0.0912  0.0487  0.2761
 4787SOL    HW125820   0.120   4.509   3.744  0.3610  1.1987 -0.6193
 4787SOL    HW225821   0.020   4.580   3.654  2.6242  0.5371  0.4996
 4788SOL     OW25822   2.633   0.343   4.362 -0.4417 -0.0827 -0.1083
 4788SOL    HW125823   2.551   0.294   4.366  0.6806 -1.7422  2.0330
 4788SOL    HW225824   2.633   0.407   4.433 -2.0627 -0.5916  0.3479
 4789SOL     OW25825   3.141   2.178   0.406  0.0454 -0.1113  0.3537
 4789SOL    HW125826   3.204   2.136   0.463 -1.2632 -0.6149  1.4196
 4789SOL    HW225827   3.080   2.208   0.473 -0.2116 -1.7150  0.8383
 4790SOL     OW25828   2.176   1.260  12.077 -0.3128 -0.5708  0.3404
 4790SOL    HW125829   2.205   1.311  12.002  4.0046 -0.4076  2.0945
 4790SOL    HW225830   2.234   1.184  12.084 -1.7082 -1.5072  1.7072
 4791SOL     OW25831   2.359   3.541   1.670  0.0826  0.0148  0.1405
 4791SOL    HW125832   2.420   3.522   1.741 -1.2259  0.1325  1.2935
 4791SOL    HW225833   2.404   3.486   1.606  0.7938  0.2442  0.4522
 4792SOL     OW25834   4.298   0.208  11.175  0.4736 -0.3171  0.2948
 4792SOL    HW125835   4.370   0.243  11.123 -0.3245  0.2813 -0.4178
 4792SOL    HW225836   4.240   0.176  11.106 -0.1322 -3.1019  2.1190
 4793SOL     OW25837   0.376   2.031  15.016 -0.0396  0.4956 -0.1284
 4793SOL    HW125838   0.352   2.064  14.929 -1.9027  0.1908  0.2535
 4793SOL    HW225839   0.400   2.108  15.067  1.6331 -0.4570  0.5045
 4794SOL     OW25840   3.662   3.463  11.989 -0.1043  0.3140  0.0421
 4794SOL    HW125841   3.637   3.395  11.927  0.2426  0.5588 -0.3649
 4794SOL    HW225842   3.751   3.438  12.015  0.1038  0.5438 -0.4545
 4795SOL     OW25843   0.804   1.050   2.128  0.0870 -0.0184 -0.7556
 4795SOL    HW125844   0.842   0.998   2.199  0.3251 -0.3083 -1.0979
 4795SOL    HW225845   0.881   1.086   2.083  0.9561 -0.2920  0.5305
 4796SOL     OW25846   2.523   3.845   7.290  0.5261 -0.1006 -0.2424
 4796SOL    HW125847   2.473   3.921   7.318  2.2606  1.2330 -0.8151
 4796SOL    HW225848   2.557   3.808   7.371 -0.4136  0.5207  0.4365
 4797SOL     OW25849   1.751   0.487   9.033  0.3960 -0.2211  0.1387
 4797SOL    HW125850   1.774   0.492   9.126 -1.9910 -1.6722  0.7990
 4797SOL    HW225851   1.690   0.414   9.028  0.0730  0.1946 -1.8756
 4798SOL     OW25852   4.125   1.187   0.351 -0.1436  0.6659  0.0579
 4798SOL    HW125853   4.152   1.199   0.442 -1.9435 -2.5000  1.0386
 4798SOL    HW225854   4.037   1.148   0.354  0.0537  0.1912 -0.3680
 4799SOL     OW25855   3.747   3.939   3.243  0.0885 -0.2186  0.5072
 4799SOL    HW125856   3.805   3.949   3.318  0.6967 -0.3851  0.0577
 4799SOL    HW225857   3.750   4.023   3.197  4.9920  0.7005  2.4908
 4800SOL     OW25858   2.885   3.852   8.979  0.1900 -0.0250 -0.0231
 4800SOL    HW125859   2.911   3.764   9.007 -0.1775 -0.1601 -0.1113
 4800SOL    HW225860   2.925   3.909   9.045  0.4897 -1.3239  0.9298
 4801SOL     OW25861   3.709   2.661  14.719 -0.1446 -0.2556  0.0724
 4801SOL    HW125862   3.621   2.693  14.701  0.1409 -0.3237 -1.4830
 4801SOL    HW225863   3.742   2.730  14.776 -0.2496 -0.6391  0.5991
 4802SOL     OW25864   1.072   3.308   4.668  0.0675  0.0387  0.0353
 4802SOL    HW125865   1.080   3.403   4.679 -0.1591 -0.0837  1.2572
 4802SOL    HW225866   1.163   3.283   4.655  0.2206  0.5660  0.0623
 4803SOL     OW25867   0.809   1.968   7.605 -0.3007 -0.3665  0.7857
 4803SOL    HW125868   0.760   1.898   7.648 -0.7678 -0.2985  0.3642
 4803SOL    HW225869   0.782   1.948   7.515  0.7619 -0.0296  0.3907
 4804SOL     OW25870   1.255   3.989   0.957  0.2471 -0.6433  0.1535
 4804SOL    HW125871   1.217   3.963   1.041  1.8719 -0.6792  0.8719
 4804SOL    HW225872   1.188   4.027   0.900  0.6487  1.0578  0.8163
 4805SOL     OW25873   4.470   1.881   6.325 -1.2056 -0.8601  0.1662
 4805SOL    HW125874   4.453   1.957   6.269  0.5288 -2.7282 -2.9365
 4805SOL    HW225875   4.492   1.924   6.407 -0.4888  0.2799 -0.6178
 4806SOL     OW25876   0.110   3.310   1.169  0.1071  0.5476 -0.1718
 4806SOL    HW125877   0.180   3.272   1.116  0.3327  1.0158 -0.2137
 4806SOL    HW225878   0.115   3.400   1.135 -0.1356  1.0495  1.0995
 4807SOL     OW25879   3.217   1.018   4.441  0.3586 -0.6692  0.2744
 4807SOL    HW125880   3.290   1.053   4.390  1.5415  0.3300  2.6404
 4807SOL    HW225881   3.161   1.007   4.364  0.9081 -0.6273 -0.1276
 4808SOL     OW25882   0.394   1.079  13.257 -0.2856 -0.3537 -0.1322
 4808SOL    HW125883   0.359   1.110  13.341  1.1447  0.3098  0.2205
 4808SOL    HW225884   0.349   0.995  13.251 -1.4170  0.3498 -1.2597
 4809SOL     OW25885   0.693   4.260   4.296 -0.8813 -0.2308 -0.6394
 4809SOL    HW125886   0.695   4.344   4.250  1.2825  0.4991  0.7704
 4809SOL    HW225887   0.607   4.230   4.267  0.4559 -0.4462 -4.2889
 4810SOL     OW25888   2.107   2.415  15.804 -0.5078 -0.5937  0.1110
 4810SOL    HW125889   2.116   2.476  15.878 -1.8152  0.1779 -0.3667
 4810SOL    HW225890   2.038   2.461  15.757 -1.1327 -0.3471  1.2658
 4811SOL     OW25891   0.343   1.284  10.909  0.5022 -0.0078 -0.0898
 4811SOL    HW125892   0.300   1.363  10.938  0.1169 -0.4104  0.4261
 4811SOL    HW225893   0.380   1.311  10.825  0.1689 -0.4751 -0.3846
 4812SOL     OW25894   4.340   4.105   1.910  0.0029  0.1595  0.4941
 4812SOL    HW125895   4.259   4.088   1.958 -0.6026  2.4470  0.2584
 4812SOL    HW225896   4.320   4.197   1.891  1.8357  0.0542 -1.9153
 4813SOL     OW25897   2.891   1.943   6.144  0.3506  0.1613 -0.9534
 4813SOL    HW125898   2.896   1.959   6.050 -3.4765  1.2242 -0.9648
 4813SOL    HW225899   2.941   2.021   6.167 -1.6018  1.0308  0.3958
 4814SOL     OW25900   1.010   1.717   5.365  0.9800  0.0320 -0.4357
 4814SOL    HW125901   0.954   1.650   5.405  2.2857 -0.7494  0.0773
 4814SOL    HW225902   0.968   1.738   5.281 -0.0400  0.1865  0.1174
 4815SOL     OW25903   3.438   1.007  12.826  0.4495  0.0576 -0.3343
 4815SOL    HW125904   3.363   1.060  12.798  0.6804 -0.5889 -2.1750
 4815SOL    HW225905   3.499   1.035  12.758 -0.3651 -0.2737 -1.2132
 4816SOL     OW25906   1.721   0.916   5.052 -0.5923  0.1955 -0.7105
 4816SOL    HW125907   1.705   0.985   4.987  1.5108 -0.5262 -2.0004
 4816SOL    HW225908   1.757   0.960   5.129 -0.4028  0.3283 -0.8743
 4817SOL     OW25909   3.474   4.258   7.723 -0.1907 -0.2170 -0.2445
 4817SOL    HW125910   3.481   4.354   7.730 -0.6432 -0.3306  1.9100
 4817SOL    HW225911   3.378   4.253   7.719 -0.4070  2.5316  0.7550
 4818SOL     OW25912   2.492   0.358   0.881  0.6091  0.3438 -0.1161
 4818SOL    HW125913   2.472   0.427   0.818  2.9362  0.5512 -0.6428
 4818SOL    HW225914   2.545   0.406   0.945 -2.0197  2.5684  0.3348
 4819SOL     OW25915   1.321   1.600  14.649 -0.2998 -0.7615  0.2274
 4819SOL    HW125916   1.398   1.595  14.593 -2.1393 -1.7527 -2.1944
 4819SOL    HW225917   1.300   1.692  14.634  0.5876  0.0211  3.8005
 4820SOL     OW25918   3.499   0.100  10.212  0.1409 -0.1555 -0.2208
 4820SOL    HW125919   3.487   0.190  10.242  1.0413  0.5151 -1.8685
 4820SOL    HW225920   3.590   0.081  10.235 -1.2058  0.2452  5.5026
 4821SOL     OW25921   0.894   1.328   5.306 -0.7084  1.0181 -0.0401
 4821SOL    HW125922   0.936   1.367   5.230  0.6152  0.2556  0.3009
 4821SOL    HW225923   0.808   1.312   5.266 -1.3260  1.0037  1.2744
 4822SOL     OW25924   2.150   2.310   6.122  0.2137  0.6657  0.0414
 4822SOL    HW125925   2.237   2.348   6.134 -0.6343  2.4644  0.5283
 4822SOL    HW225926   2.112   2.336   6.206 -0.4761 -2.6980  0.7583
 4823SOL     OW25927   3.155   3.258   5.759 -0.3182 -0.3706  0.3568
 4823SOL    HW125928   3.084   3.218   5.708 -1.8272 -1.1180  3.0411
 4823SOL    HW225929   3.103   3.325   5.803 -2.7742 -1.6665 -0.5579
 4824SOL     OW25930   1.971   1.244  17.603  0.1649  0.2881  0.0678
 4824SOL    HW125931   1.988   1.333  17.572  0.1494 -0.6158 -2.5227
 4824SOL    HW225932   2.056   1.200  17.595  0.3007  0.2828  1.5748
 4825SOL     OW25933   2.832   0.755   4.217 -0.2605  0.5796  0.9758
 4825SOL    HW125934   2.743   0.783   4.239 -0.2222  1.6039 -0.1660
 4825SOL    HW225935   2.847   0.698   4.292  0.8890 -1.2404 -0.6503
 4826SOL     OW25936   4.109   0.581   6.702  0.2317  0.0261 -0.0334
 4826SOL    HW125937   4.092   0.675   6.693 -0.8094 -0.1663 -0.0707
 4826SOL    HW225938   4.204   0.583   6.693  0.2514 -3.0767 -0.6427
 4827SOL     OW25939   2.474   3.422   7.211  0.7231  0.3499  0.4757
 4827SOL    HW125940   2.539   3.488   7.188 -0.0027  1.0522  0.4259
 4827SOL    HW225941   2.448   3.439   7.301  2.0715  0.9922  0.7500
 4828SOL     OW25942   3.928   0.415  16.690  0.3228 -0.0865 -0.2746
 4828SOL    HW125943   3.857   0.363  16.652  1.7361 -0.6224 -2.1644
 4828SOL    HW225944   3.884   0.463  16.760  0.4186 -0.1663 -0.1613
 4829SOL     OW25945   0.734   1.296   4.305  0.1569  0.3305  0.5198
 4829SOL    HW125946   0.686   1.249   4.237 -1.7745 -3.9820  4.8821
 4829SOL    HW225947   0.685   1.286   4.387 -0.0706  1.4811  0.5363
 4830SOL     OW25948   0.376   3.506   2.947 -0.4338 -0.1995 -0.1176
 4830SOL    HW125949   0.358   3.511   2.853  1.9781 -2.8045 -0.7334
 4830SOL    HW225950   0.292   3.489   2.988  0.1646  0.2176  1.2735
 4831SOL     OW25951   4.511   3.729   9.709  0.3193  0.3872  0.2425
 4831SOL    HW125952   4.486   3.821   9.715 -0.5959  0.1600 -0.1244
 4831SOL    HW225953   4.596   3.729   9.666  0.3541  3.4115  0.2846
 4832SOL     OW25954   1.299   2.152   3.861 -0.0281 -0.1613  0.4366
 4832SOL    HW125955   1.256   2.123   3.781  0.8773  1.9527 -0.8187
 4832SOL    HW225956   1.392   2.134   3.847 -0.2026 -0.6706 -0.0590
 4833SOL     OW25957   2.236   0.737   2.723  0.8277  0.0489  0.0644
 4833SOL    HW125958   2.194   0.752   2.638  0.8162 -1.8534 -0.2619
 4833SOL    HW225959   2.305   0.679   2.689  0.5895  0.3921 -1.0224
 4834SOL     OW25960   4.432   3.193   4.709 -0.3312  0.4037 -0.1755
 4834SOL    HW125961   4.455   3.191   4.616 -0.4946  1.7893 -0.2529
 4834SOL    HW225962   4.452   3.285   4.729  0.5888 -0.3048  2.2361
 4835SOL     OW25963   1.285   2.108  17.692 -0.3066 -0.4312 -0.3511
 4835SOL    HW125964   1.304   2.069  17.607  1.5902 -1.3282  0.4696
 4835SOL    HW225965   1.351   2.068   0.044 -1.8781 -1.2227  0.8916
 4836SOL     OW25966   3.562   2.559  12.620 -0.5169 -0.1395  0.2185
 4836SOL    HW125967   3.628   2.626  12.637  0.5662 -1.2040  0.2202
 4836SOL    HW225968   3.610   2.476  12.628  0.6029  0.5184  0.2047
 4837SOL     OW25969   4.188   0.892   7.206  0.0020 -0.2300  0.5344
 4837SOL    HW125970   4.147   0.809   7.181  1.7296 -0.5327 -1.3345
 4837SOL    HW225971   4.169   0.910   7.298 -0.7197 -2.0473  0.7532
 4838SOL     OW25972   4.580   0.460   8.380 -0.1266 -0.0673 -0.2342
 4838SOL    HW125973   4.487   0.443   8.400  0.1202 -2.9143 -1.4828
 4838SOL    HW225974   4.599   0.505   8.461  0.7140 -3.9644  1.7488
 4839SOL     OW25975   4.376   2.825   4.226 -0.3739  0.0579  0.8403
 4839SOL    HW125976   4.348   2.742   4.188  0.8574 -0.0032  0.0792
 4839SOL    HW225977   4.447   2.853   4.168 -1.8172  1.5885 -0.1893
 4840SOL     OW25978   3.631   2.971   4.288 -0.5151  0.2909 -0.1078
 4840SOL    HW125979   3.642   3.038   4.355 -1.6813  1.6907 -1.3413
 4840SOL    HW225980   3.708   2.986   4.233 -1.2208 -0.7539 -1.3884
 4841SOL     OW25981   1.657   2.379   2.255 -0.0723 -0.5683  0.2841
 4841SOL    HW125982   1.650   2.330   2.337  1.3145 -0.2159  0.6206
 4841SOL    HW225983   1.567   2.372   2.224 -1.1370  1.6495  2.8797
 4842SOL     OW25984   0.576   4.257   7.863 -0.0051  0.0166  0.1588
 4842SOL    HW125985   0.484   4.236   7.875 -0.1879  0.2071 -0.8692
 4842SOL    HW225986   0.567   4.339   7.814  2.4785 -0.0529 -0.4418
 4843SOL     OW25987   0.421   2.693   3.270 -0.1950 -0.1711  0.7362
 4843SOL    HW125988   0.371   2.743   3.335  0.0395  1.1369 -0.0861
 4843SOL    HW225989   0.480   2.763   3.243  0.1982 -1.4543 -1.7277
 4844SOL     OW25990   0.395   2.711   6.730 -0.0234  0.2854  0.9295
 4844SOL    HW125991   0.417   2.796   6.767 -0.1280  0.4548  0.6019
 4844SOL    HW225992   0.472   2.659   6.756  1.0675  0.7092 -1.4428
 4845SOL     OW25993   4.504   2.053   2.700 -0.0593 -0.7812  0.2408
 4845SOL    HW125994   4.461   2.092   2.624  0.7874 -1.1654 -0.4331
 4845SOL    HW225995   4.439   2.009   2.755 -0.9377 -0.1941 -0.3333
 4846SOL     OW25996   1.836   2.337   4.597 -0.1631  0.3814  0.3378
 4846SOL    HW125997   1.873   2.409   4.648  3.1126 -0.6081 -0.6286
 4846SOL    HW225998   1.772   2.304   4.660  0.1799  1.5681  1.3088
 4847SOL     OW25999   4.142   0.573   1.178 -0.0482 -0.0312  0.2358
 4847SOL    HW126000   4.057   0.531   1.163 -0.7508  0.6415  2.3448
 4847SOL    HW226001   4.197   0.499   1.153  0.5747 -0.0372  1.6204
 4848SOL     OW26002   1.010   0.061   3.776  0.0494  0.0494 -0.0563
 4848SOL    HW126003   1.105   0.048   3.764 -0.4730 -3.3526 -0.6578
 4848SOL    HW226004   0.979   4.711   3.728  1.2556 -0.5592  0.1273
 4849SOL     OW26005   0.974   0.769   1.287 -0.3748 -0.0601  0.4767
 4849SOL    HW126006   1.057   0.793   1.329  0.1597 -1.5258  0.2704
 4849SOL    HW226007   0.916   0.790   1.360  0.3889  1.6666  0.5829
 4850SOL     OW26008   3.615   0.126   5.919 -0.4374 -0.6679 -0.0236
 4850SOL    HW126009   3.566   0.165   5.991 -0.4025  0.9288 -0.8473
 4850SOL    HW226010   3.547   0.081   5.868 -0.4762 -1.1814  0.4897
 4851SOL     OW26011   3.935   0.657   4.924 -0.3189 -0.0760 -0.2625
 4851SOL    HW126012   3.954   0.748   4.947  0.7560 -0.8884  2.1447
 4851SOL    HW226013   3.980   0.649   4.840  0.0224 -0.8260 -0.0062
 4852SOL     OW26014   4.565   1.013   2.938 -0.0156  0.3173 -0.0555
 4852SOL    HW126015   4.631   0.963   2.986  0.2413 -1.2526 -2.0149
 4852SOL    HW226016   4.544   0.950   2.868 -1.9321  1.3545 -0.4276
 4853SOL     OW26017   4.718   4.314   6.527  0.3077  0.7913  0.2984
 4853SOL    HW126018   0.028   4.259   6.597 -0.1277  0.2177  0.0765
 4853SOL    HW226019   4.657   4.373   6.571 -1.7227  0.5259 -2.1572
 4854SOL     OW26020   4.035   4.440   7.338 -0.2009  0.0115  0.2761
 4854SOL    HW126021   4.024   4.423   7.244  0.9361  1.9139 -0.2149
 4854SOL    HW226022   3.952   4.420   7.381 -0.4961  1.6630  0.4880
 4855SOL     OW26023   3.960   0.256   8.322  0.2333  0.1650  0.6454
 4855SOL    HW126024   3.889   0.319   8.313  0.0528 -0.0457  0.5786
 4855SOL    HW226025   3.988   0.235   8.233 -1.7646 -0.2654  0.1227
 4856SOL     OW26026   4.662   0.951   9.892 -0.0367 -0.0767 -0.1910
 4856SOL    HW126027   4.623   0.879   9.943 -2.4576  2.1565  1.1197
 4856SOL    HW226028   4.645   0.924   9.802 -0.5000 -2.5823  0.6452
 4857SOL     OW26029   1.163   2.237   4.559 -0.5483 -0.2598 -0.0085
 4857SOL    HW126030   1.192   2.160   4.607  2.3279 -1.0674 -3.0861
 4857SOL    HW226031   1.165   2.296   4.635  0.1743 -2.3074  1.5416
 4858SOL     OW26032   1.915   1.925  15.960  0.1711  0.6546 -0.6780
 4858SOL    HW126033   1.949   1.852  15.909 -0.0006  2.4491 -3.3665
 4858SOL    HW226034   1.825   1.894  15.971  0.1230  0.4575 -1.5988
 4859SOL     OW26035   1.575   3.396   6.969  0.2879 -0.3822 -0.4663
 4859SOL    HW126036   1.592   3.350   7.051  1.9680 -0.7551 -1.0254
 4859SOL    HW226037   1.527   3.472   7.004  0.9711 -0.5148  0.7384
 4860SOL     OW26038   3.582   0.460  12.200  0.2396  0.3169  0.1748
 4860SOL    HW126039   3.663   0.509  12.189  0.9090 -0.6999  0.5186
 4860SOL    HW226040   3.550   0.487  12.114 -0.0807 -0.4900  0.0381
 4861SOL     OW26041   3.464   1.497   7.815 -0.0597  0.2186 -0.1314
 4861SOL    HW126042   3.385   1.549   7.830  1.4117  2.3135  0.2999
 4861SOL    HW226043   3.531   1.548   7.860 -2.1246  2.0878  0.8612
 4862SOL     OW26044   2.545   0.168   8.563 -0.4585  0.2834  0.7195
 4862SOL    HW126045   2.489   0.099   8.599  2.1743 -2.9411 -1.5016
 4862SOL    HW226046   2.629   0.149   8.604  0.0563  0.5508 -0.2147
 4863SOL     OW26047   4.096   4.646   8.017  0.2765  0.2941 -0.3605
 4863SOL    HW126048   4.107   4.649   8.112 -1.2989  0.4900 -0.1780
 4863SOL    HW226049   4.103   0.012   7.992  0.0975  0.1462 -0.9680
 4864SOL     OW26050   1.942   3.298   8.677 -0.4706  0.3706  0.2430
 4864SOL    HW126051   2.014   3.248   8.716 -1.2954 -1.7099 -0.8935
 4864SOL    HW226052   1.964   3.292   8.584 -0.2856 -3.8282  0.5353
 4865SOL     OW26053   0.318   1.383   6.168 -0.0026  0.0311 -0.1623
 4865SOL    HW126054   0.229   1.375   6.203  0.7693 -1.1286  1.4866
 4865SOL    HW226055   0.366   1.408   6.247  2.2529  0.8465 -1.8061
 4866SOL     OW26056   3.017   0.813   7.384  0.4925 -0.3191  0.4510
 4866SOL    HW126057   3.054   0.725   7.392 -0.4037 -0.5942  1.5019
 4866SOL    HW226058   3.092   0.871   7.367 -0.5302  0.4419 -1.3634
 4867SOL     OW26059   1.591   1.694   2.232  0.0099  0.0348 -0.3314
 4867SOL    HW126060   1.680   1.724   2.211 -0.2719  0.3011 -1.1350
 4867SOL    HW226061   1.582   1.609   2.188  1.3565 -0.3580  0.1292
 4868SOL     OW26062   3.908   0.627   9.841  0.1657 -0.0994  0.3111
 4868SOL    HW126063   3.992   0.639   9.885  0.9832 -0.6726 -1.0574
 4868SOL    HW226064   3.884   0.718   9.825 -3.1417 -1.2094 -0.9873
 4869SOL     OW26065   2.813   1.594   6.819  0.1387  0.4064 -0.5651
 4869SOL    HW126066   2.790   1.686   6.820 -2.2229 -0.1869  1.0327
 4869SOL    HW226067   2.813   1.572   6.726 -0.6783 -1.8457 -0.0525
 4870SOL     OW26068   2.473   0.988   9.216  0.5186 -0.0018 -0.3042
 4870SOL    HW126069   2.460   0.936   9.295 -0.2416  0.5569 -0.0674
 4870SOL    HW226070   2.407   1.056   9.226  2.6717  2.2758 -1.7782
 4871SOL     OW26071   3.608   0.468  13.920 -0.1711 -0.0044 -0.4674
 4871SOL    HW126072   3.526   0.518  13.921 -0.3819 -0.3543 -0.1299
 4871SOL    HW226073   3.580   0.380  13.892 -0.3408  0.7195 -2.5952
 4872SOL     OW26074   3.670   4.096   7.942 -0.3351 -0.0180  0.1473
 4872SOL    HW126075   3.631   4.084   7.856  0.5172 -1.6160 -0.0130
 4872SOL    HW226076   3.708   4.184   7.940  1.1851 -0.6958 -0.7971
 4873SOL     OW26077   3.618   2.641   7.987 -0.3562 -0.1880 -0.1591
 4873SOL    HW126078   3.535   2.622   8.032 -1.6592  1.0921 -1.9942
 4873SOL    HW226079   3.659   2.555   7.990 -0.1373 -0.0746  0.0824
 4874SOL     OW26080   4.432   1.435  10.343 -0.4676 -0.7184  0.5098
 4874SOL    HW126081   4.345   1.473  10.337 -0.2957 -0.8271 -2.4332
 4874SOL    HW226082   4.400   1.345  10.331  1.1317 -1.5345  2.2926
 4875SOL     OW26083   1.640   2.649   3.635 -0.3606  0.0516 -0.3058
 4875SOL    HW126084   1.583   2.722   3.658  1.3335  0.7110  1.8563
 4875SOL    HW226085   1.683   2.673   3.553 -1.8680  1.0142 -0.8123
 4876SOL     OW26086   3.733   4.230   3.810  0.0717  0.0945  0.3736
 4876SOL    HW126087   3.796   4.243   3.739  1.5326  0.6125  1.7621
 4876SOL    HW226088   3.696   4.317   3.823  1.8204  0.8480  0.2505
 4877SOL     OW26089   1.875   0.055   3.115 -0.0419 -0.6037 -0.0102
 4877SOL    HW126090   1.879   0.150   3.132  0.2130 -0.5152 -0.5699
 4877SOL    HW226091   1.864   0.062   3.020  1.4777 -0.9867 -0.2087
 4878SOL     OW26092   2.643   0.190   7.576  0.6571  0.4025 -0.2396
 4878SOL    HW126093   2.659   0.096   7.582 -2.3088 -0.0136  1.2177
 4878SOL    HW226094   2.659   0.211   7.668  2.8333 -1.4898 -0.2111
 4879SOL     OW26095   1.406   3.434   3.619  0.7057  0.2065  0.3554
 4879SOL    HW126096   1.367   3.420   3.533 -1.0026  0.9083  1.0102
 4879SOL    HW226097   1.496   3.427   3.588  0.3903 -1.8785 -0.0804
 4880SOL     OW26098   2.255   0.144  16.260 -0.4383 -0.2287  0.1644
 4880SOL    HW126099   2.310   0.185  16.194 -0.3335 -1.6452 -0.6051
 4880SOL    HW226100   2.316   0.118  16.329  1.1127  0.5401 -0.9336
 4881SOL     OW26101   1.317   3.859  15.187 -0.8179  0.9265 -0.3649
 4881SOL    HW126102   1.262   3.801  15.240  0.9277 -0.2544  0.1435
 4881SOL    HW226103   1.269   3.872  15.105 -0.0579 -0.8311 -1.0745
 4882SOL     OW26104   0.539   1.939   3.259 -0.2346 -0.0984 -0.2732
 4882SOL    HW126105   0.459   1.887   3.261 -1.7875  2.2932 -0.5725
 4882SOL    HW226106   0.510   2.023   3.295 -0.6293 -0.4529  0.2337
 4883SOL     OW26107   0.314   2.156  13.772 -0.4103  0.7425 -0.2660
 4883SOL    HW126108   0.368   2.177  13.848 -1.2621 -1.4632  0.9468
 4883SOL    HW226109   0.343   2.068  13.749  1.7845  1.1900  0.8243
 4884SOL     OW26110   0.798   3.552   1.924  0.2488  0.1147  0.0673
 4884SOL    HW126111   0.878   3.505   1.898  1.2731  2.2120 -0.5813
 4884SOL    HW226112   0.793   3.516   2.012  1.0154  1.8725  0.8205
 4885SOL     OW26113   3.325   4.098   9.401 -0.5270  0.0361 -0.2025
 4885SOL    HW126114   3.334   4.192   9.417 -1.6835  0.1198 -0.0398
 4885SOL    HW226115   3.233   4.084   9.427 -0.4998  1.4035  0.6606
 4886SOL     OW26116   1.484   1.522  14.988  0.1249  0.6191 -0.2306
 4886SOL    HW126117   1.508   1.440  15.032 -0.0106 -0.4124 -2.0557
 4886SOL    HW226118   1.570   1.563  14.997 -0.5851  1.7279  1.4984
 4887SOL     OW26119   1.345   3.806  11.351  0.2789  0.3390 -0.2118
 4887SOL    HW126120   1.322   3.880  11.407  0.5050  1.3060 -1.3975
 4887SOL    HW226121   1.283   3.738  11.374 -1.2437  1.8969  0.2544
 4888SOL     OW26122   3.487   2.377  15.819  0.6946  0.1218  0.0302
 4888SOL    HW126123   3.528   2.454  15.859  0.5971 -0.1490  0.6508
 4888SOL    HW226124   3.543   2.314  15.865 -0.8629 -2.3294 -1.4955
 4889SOL     OW26125   1.890   0.758   8.645  0.3890 -0.1469  0.2718
 4889SOL    HW126126   1.965   0.815   8.663  1.4069 -0.9713 -1.3873
 4889SOL    HW226127   1.877   0.722   8.733 -2.2315  0.4827  0.1174
 4890SOL     OW26128   3.575   3.670   8.626 -0.2305 -0.5620  0.1068
 4890SOL    HW126129   3.609   3.694   8.540  0.8826  1.7091  1.1650
 4890SOL    HW226130   3.490   3.632   8.606 -1.1533  1.9985 -0.8272
 4891SOL     OW26131   1.319   3.196  13.889  0.3673  0.5300  0.1435
 4891SOL    HW126132   1.379   3.128  13.920 -2.0807 -2.0696 -0.8730
 4891SOL    HW226133   1.245   3.137  13.878  1.4759 -0.0271 -4.0291
 4892SOL     OW26134   2.204   4.204   2.728 -0.0338 -0.0624  0.1313
 4892SOL    HW126135   2.147   4.252   2.669  1.6907  0.7163 -0.9079
 4892SOL    HW226136   2.288   4.249   2.715  0.0713 -0.3391 -0.1448
 4893SOL     OW26137   1.212   3.703   9.127 -0.1263  0.1883 -0.0291
 4893SOL    HW126138   1.165   3.737   9.051  2.7919  1.0863 -1.4175
 4893SOL    HW226139   1.222   3.610   9.104  2.0129  0.7354 -1.3242
 4894SOL     OW26140   0.984   4.077   3.415  0.0265  0.2576  0.3605
 4894SOL    HW126141   0.929   4.125   3.354  0.6729 -0.3214 -0.6804
 4894SOL    HW226142   1.043   4.147   3.442  1.2918 -1.5159  2.2690
 4895SOL     OW26143   0.601   4.003   3.184 -0.6324  0.9080  0.1481
 4895SOL    HW126144   0.519   4.019   3.136  0.0488 -2.6440 -2.2066
 4895SOL    HW226145   0.574   3.918   3.219 -0.4726  0.4398 -0.8785
 4896SOL     OW26146   4.196   1.215   0.620  0.4751  0.2047  0.4797
 4896SOL    HW126147   4.115   1.208   0.670  0.5068 -0.0773  0.4910
 4896SOL    HW226148   4.244   1.133   0.630 -0.1311 -0.2482 -0.3648
 4897SOL     OW26149   3.367   4.292  15.349 -0.3501 -0.3412  0.1540
 4897SOL    HW126150   3.416   4.291  15.431  0.7916 -0.6152 -0.5273
 4897SOL    HW226151   3.273   4.291  15.365 -0.3897  0.3208 -0.0323
 4898SOL     OW26152   1.540   1.647  14.487 -0.0643 -0.6196  0.2088
 4898SOL    HW126153   1.601   1.574  14.478 -1.4356 -1.7184 -0.2863
 4898SOL    HW226154   1.513   1.660  14.396 -1.5914 -1.7631  0.5035
 4899SOL     OW26155   1.005   0.046   9.312  0.4969 -0.0913  0.5496
 4899SOL    HW126156   0.938   0.025   9.248  2.5430 -0.4875 -1.4305
 4899SOL    HW226157   1.028   0.135   9.285 -0.5727 -0.0809 -0.3099
 4900SOL     OW26158   3.771   3.482   6.934  0.0927 -0.4262 -0.9197
 4900SOL    HW126159   3.817   3.411   6.979  0.8511  1.5725  1.4975
 4900SOL    HW226160   3.703   3.433   6.888 -0.9177 -1.3170  1.5111
 4901SOL     OW26161   2.199   2.669   3.051  0.7294  0.3755 -0.3669
 4901SOL    HW126162   2.257   2.619   2.994 -1.6003 -1.5223 -1.0979
 4901SOL    HW226163   2.251   2.745   3.075  0.3078  0.2502  0.9383
 4902SOL     OW26164   2.553   3.600   5.564 -0.5159 -0.4914  0.2136
 4902SOL    HW126165   2.532   3.673   5.623 -1.3537  0.6591 -1.5323
 4902SOL    HW226166   2.563   3.656   5.487 -2.7877  1.9647  1.6922
 4903SOL     OW26167   0.104   4.643   5.121 -0.1615  0.8785 -0.2315
 4903SOL    HW126168   0.143   4.685   5.045  0.1901  0.1689 -0.4518
 4903SOL    HW226169   0.035   4.594   5.076 -0.6070  2.8800 -1.6794
 4904SOL     OW26170   1.465   3.241   9.773  0.0267 -0.3443  0.0939
 4904SOL    HW126171   1.373   3.260   9.753  0.3333 -0.7986 -1.7875
 4904SOL    HW226172   1.460   3.145   9.779  1.5424 -0.4969 -1.1889
 4905SOL     OW26173   2.076   0.904   3.054 -0.7817  0.0762 -0.3715
 4905SOL    HW126174   2.162   0.921   3.091 -0.3994 -0.4887 -1.0149
 4905SOL    HW226175   2.103   0.829   3.002  2.0757  1.7551 -1.3022
 4906SOL     OW26176   4.066   1.357   7.165  0.4166  0.1525 -0.2654
 4906SOL    HW126177   4.081   1.281   7.223 -0.7633  0.1135  0.0014
 4906SOL    HW226178   4.152   1.399   7.169  0.9877 -1.1687  1.4175
 4907SOL     OW26179   2.964   3.973  16.721  0.1398  0.5031 -0.4821
 4907SOL    HW126180   2.947   3.953  16.629 -1.3030 -0.0962 -0.0897
 4907SOL    HW226181   2.950   3.882  16.748 -1.4435  0.8124 -0.2989
 4908SOL     OW26182   0.293   0.829   5.431  0.2981  0.4660  0.0663
 4908SOL    HW126183   0.237   0.898   5.396  1.4050  1.0297 -0.5952
 4908SOL    HW226184   0.355   0.813   5.359 -0.2446 -0.3314 -0.2274
 4909SOL     OW26185   4.676   3.723   0.600 -0.1875  0.0453 -0.6714
 4909SOL    HW126186   4.684   3.733   0.695  1.3951 -0.0272 -0.7922
 4909SOL    HW226187   4.624   3.797   0.570  0.3978  1.7925  2.6016
 4910SOL     OW26188   2.496   1.081   6.061  0.5514  0.0800  0.4414
 4910SOL    HW126189   2.505   1.001   6.112 -1.0307  1.4601  2.8787
 4910SOL    HW226190   2.511   1.044   5.974  0.7090  1.3332 -0.0573
 4911SOL     OW26191   2.795   0.768   5.759  0.2294  0.6822  0.1751
 4911SOL    HW126192   2.762   0.681   5.783 -0.5967  0.9490  0.0035
 4911SOL    HW226193   2.889   0.754   5.770 -0.0839 -2.9930 -1.7693
 4912SOL     OW26194   4.355   3.196   6.591  0.3567  0.3198 -0.1425
 4912SOL    HW126195   4.320   3.282   6.567  0.0597 -0.3345 -2.0453
 4912SOL    HW226196   4.450   3.209   6.596  0.7346 -2.4940 -0.2888
 4913SOL     OW26197   0.501   3.861   7.594 -0.4644  0.5785 -0.1116
 4913SOL    HW126198   0.441   3.930   7.622 -1.0170  0.8585 -1.9327
 4913SOL    HW226199   0.459   3.838   7.511  3.2379  2.1765 -2.4681
 4914SOL     OW26200   4.403   2.805   1.892 -0.9330 -0.5869  0.4285
 4914SOL    HW126201   4.373   2.809   1.983 -2.1570  0.5135 -0.0295
 4914SOL    HW226202   4.349   2.734   1.857  0.2677 -1.1662 -0.2488
 4915SOL     OW26203   0.020   2.239   5.701  0.0287  0.3085  0.1542
 4915SOL    HW126204   0.104   2.258   5.659 -0.7668 -2.1612 -2.5669
 4915SOL    HW226205   0.048   2.247   5.792  2.6270 -0.6997 -0.5518
 4916SOL     OW26206   1.425   2.119  16.599 -0.3823 -0.0276 -0.0630
 4916SOL    HW126207   1.467   2.123  16.513 -2.3253  0.6750 -0.9813
 4916SOL    HW226208   1.503   2.101  16.651 -0.2360  1.7244  0.3166
 4917SOL     OW26209   0.620   3.546  14.480 -0.4113  0.1079  0.3668
 4917SOL    HW126210   0.592   3.625  14.526  0.4770  0.8232 -0.3028
 4917SOL    HW226211   0.643   3.577  14.393 -0.6720  1.0006  0.6127
 4918SOL     OW26212   3.333   1.300  12.180 -0.8339 -0.2376  0.1683
 4918SOL    HW126213   3.307   1.293  12.088  0.6777 -3.1713 -0.0354
 4918SOL    HW226214   3.417   1.254  12.182 -1.2543 -1.0821 -1.5828
 4919SOL     OW26215   1.497   3.629   0.657  0.2842 -0.1688  0.3833
 4919SOL    HW126216   1.449   3.547   0.662  1.7546 -1.1638 -1.7663
 4919SOL    HW226217   1.440   3.683   0.712  0.7370 -1.7566  2.3942
 4920SOL     OW26218   2.669   1.711   3.821 -0.0312  0.0349  0.2468
 4920SOL    HW126219   2.693   1.804   3.816  0.4009  0.0027  1.9365
 4920SOL    HW226220   2.592   1.709   3.879 -0.4488 -0.1367 -0.3088
 4921SOL     OW26221   1.504   1.111  15.018 -0.2780 -0.2157  0.4889
 4921SOL    HW126222   1.433   1.132  14.958 -0.8548  0.7419  1.5044
 4921SOL    HW226223   1.483   1.168  15.092 -1.3985  2.4784 -1.9143
 4922SOL     OW26224   4.307   2.778   5.149  0.3815  0.6822  0.1884
 4922SOL    HW126225   4.321   2.865   5.186 -1.7137  1.2691 -0.3671
 4922SOL    HW226226   4.320   2.731   5.232 -0.3049  0.1096 -0.0303
 4923SOL     OW26227   2.664   4.101   4.233 -0.2038  0.3096 -0.1165
 4923SOL    HW126228   2.590   4.105   4.172  1.1099 -1.9540 -1.8303
 4923SOL    HW226229   2.647   4.011   4.263  0.4387 -0.3366 -1.6797
 4924SOL     OW26230   2.821   3.380   7.576  0.3531 -0.2029  0.1207
 4924SOL    HW126231   2.814   3.370   7.481 -2.6075 -0.5459  0.3549
 4924SOL    HW226232   2.852   3.470   7.586  0.2018 -0.2507  1.0510
 4925SOL     OW26233   0.475   0.780   5.231  0.1380 -0.2582 -0.4248
 4925SOL    HW126234   0.534   0.705   5.229 -0.4316 -0.7028 -0.6007
 4925SOL    HW226235   0.460   0.822   5.146  1.6094  0.4627 -0.3401
 4926SOL     OW26236   1.998   2.243  10.445 -0.2016 -0.7321 -0.0513
 4926SOL    HW126237   1.919   2.291  10.471  1.6957  1.3691  1.7226
 4926SOL    HW226238   1.979   2.234  10.351  0.2653 -0.3881 -0.1746
 4927SOL     OW26239   0.269   4.443   9.453  0.5086 -0.1397  0.7255
 4927SOL    HW126240   0.247   4.515   9.511  0.2388 -0.8263  1.4741
 4927SOL    HW226241   0.363   4.430   9.468  0.7765 -0.3981 -1.1260
 4928SOL     OW26242   3.578   1.128  11.763 -0.0423  0.4795  0.1036
 4928SOL    HW126243   3.539   1.212  11.740  0.7262  0.8335  0.0708
 4928SOL    HW226244   3.508   1.072  11.796  1.5984 -1.1095  0.8593
 4929SOL     OW26245   1.905   2.753  10.402  0.2591 -0.4486 -0.0477
 4929SOL    HW126246   1.976   2.802  10.444  1.1902  0.4007 -2.5957
 4929SOL    HW226247   1.828   2.787  10.446 -0.3581 -1.8108 -0.0687
 4930SOL     OW26248   4.278   0.602  12.337  0.0014  0.0132  0.2643
 4930SOL    HW126249   4.286   0.575  12.246 -0.2037  0.1145  0.2160
 4930SOL    HW226250   4.370   0.623  12.356  0.2980 -1.2985  0.2952
 4931SOL     OW26251   0.576   3.574   1.474  0.2334  0.3113 -0.3814
 4931SOL    HW126252   0.639   3.543   1.409 -0.2808  0.4552 -0.9444
 4931SOL    HW226253   0.591   3.520   1.551  0.8534  2.0246  0.7002
 4932SOL     OW26254   4.355   1.336   5.700 -0.5719 -0.2719  0.4900
 4932SOL    HW126255   4.341   1.407   5.763 -0.3128  0.2418 -0.0340
 4932SOL    HW226256   4.408   1.276   5.752  0.5917  1.2754  1.0899
 4933SOL     OW26257   4.636   2.244   0.175  0.5024 -0.5366 -0.0722
 4933SOL    HW126258   4.590   2.322   0.144  2.2134  0.5996  0.2609
 4933SOL    HW226259   4.681   2.210   0.098  2.3211 -1.1391  1.2523
 4934SOL     OW26260   3.930   2.283   0.454  0.6423 -0.1803  0.5279
 4934SOL    HW126261   3.980   2.203   0.441  0.1152 -0.4256  0.0318
 4934SOL    HW226262   3.877   2.289   0.375 -0.4494  1.1168  1.3601
 4935SOL     OW26263   4.199   0.104   4.317  0.5447 -0.0924  0.2988
 4935SOL    HW126264   4.201   0.115   4.412 -0.1349 -0.4671  0.3543
 4935SOL    HW226265   4.236   0.186   4.285 -2.3578  1.3211  0.6202
 4936SOL     OW26266   4.037   0.710   4.655 -0.5894 -0.3678 -0.2144
 4936SOL    HW126267   3.985   0.789   4.669 -1.2156 -0.6623 -0.9004
 4936SOL    HW226268   3.989   0.653   4.596  0.7737 -0.0318 -1.6341
 4937SOL     OW26269   2.789   1.718   3.085  0.5116  0.2094  0.0516
 4937SOL    HW126270   2.827   1.674   3.009  1.4912 -0.5286  0.9475
 4937SOL    HW226271   2.788   1.807   3.051  2.6079  0.5268  0.7920
 4938SOL     OW26272   3.001   3.253  12.516  0.0957 -0.3187  0.3623
 4938SOL    HW126273   3.013   3.308  12.439  1.5099  0.3246  1.0587
 4938SOL    HW226274   3.058   3.185  12.480 -2.0839 -1.6633 -0.5464
 4939SOL     OW26275   4.527   2.009  16.109 -0.2366 -0.2990 -0.4435
 4939SOL    HW126276   4.606   1.970  16.071  0.1351 -0.5390  0.5860
 4939SOL    HW226277   4.462   2.001  16.039 -0.5929  0.3239 -0.1833
 4940SOL     OW26278   2.735   2.256   5.683 -0.1177 -0.1753 -0.0780
 4940SOL    HW126279   2.774   2.274   5.597  2.2358 -0.9190  0.8283
 4940SOL    HW226280   2.801   2.194   5.714  1.2221  1.3973  0.2372
 4941SOL     OW26281   4.475   0.308   0.916  0.1278 -0.0169  0.1708
 4941SOL    HW126282   4.541   0.239   0.910  1.0444  1.0289 -1.8087
 4941SOL    HW226283   4.465   0.316   1.011  2.6842  1.1530  0.3322
 4942SOL     OW26284   0.187   3.316   5.799  0.1026 -0.3252 -0.2507
 4942SOL    HW126285   0.283   3.310   5.801 -0.0352 -3.3954 -2.5820
 4942SOL    HW226286   0.175   3.268   5.881 -0.5986  0.7740  0.2812
 4943SOL     OW26287   3.432   4.327   6.212  0.0928  0.0462 -0.6022
 4943SOL    HW126288   3.379   4.369   6.145  0.5051 -0.5898 -1.3292
 4943SOL    HW226289   3.425   4.398   6.276 -1.1866  0.6474 -1.4250
 4944SOL     OW26290   1.146   1.479   2.680 -0.2156  0.1022  0.1002
 4944SOL    HW126291   1.076   1.419   2.653  0.0118  0.7188 -1.8255
 4944SOL    HW226292   1.222   1.422   2.671  0.2204  1.1322 -2.5697
 4945SOL     OW26293   3.445   1.950  10.917  0.8818 -0.3757  0.5236
 4945SOL    HW126294   3.423   1.859  10.938 -0.9863 -0.3890 -1.5084
 4945SOL    HW226295   3.424   1.982  11.005 -1.4071  4.2890 -1.7388
 4946SOL     OW26296   3.512   2.048   3.043  0.0866  0.6828  0.0855
 4946SOL    HW126297   3.583   2.107   3.069  0.6069 -0.1924  0.6218
 4946SOL    HW226298   3.513   2.025   2.950 -3.3048  3.5324 -0.6495
 4947SOL     OW26299   3.601   2.141   6.187  0.1949  0.3492 -0.1984
 4947SOL    HW126300   3.680   2.168   6.233  1.2166  0.5315 -2.0348
 4947SOL    HW226301   3.636   2.104   6.105 -0.6788  0.2086 -0.5108
 4948SOL     OW26302   3.920   3.307   3.172  0.3225 -0.4510  0.3706
 4948SOL    HW126303   3.892   3.374   3.109  0.8736  0.2370  0.8540
 4948SOL    HW226304   3.968   3.246   3.116  0.8713  0.7441 -0.4720
 4949SOL     OW26305   2.240   1.362   5.124  0.4488  0.1521 -0.5927
 4949SOL    HW126306   2.183   1.311   5.066 -1.2583 -0.4355  1.6142
 4949SOL    HW226307   2.330   1.331   5.109  0.5897  0.4784 -0.4241
 4950SOL     OW26308   1.254   2.043   4.743  0.3765  0.4242  0.1315
 4950SOL    HW126309   1.172   2.007   4.777  2.4794 -1.0913  3.5369
 4950SOL    HW226310   1.302   1.960   4.734 -0.9214 -0.1936 -1.1449
 4951SOL     OW26311   2.744   4.506   6.554  0.4379 -0.1161  0.5064
 4951SOL    HW126312   2.709   4.424   6.518 -0.1628  0.6929 -0.7501
 4951SOL    HW226313   2.838   4.491   6.544  0.3695  2.2097 -3.5556
 4952SOL     OW26314   1.629   1.628   5.099  0.2279  0.0080 -0.8992
 4952SOL    HW126315   1.697   1.650   5.162  0.4795 -1.7000 -0.5552
 4952SOL    HW226316   1.668   1.638   5.012 -0.8037 -0.3389 -1.4122
 4953SOL     OW26317   0.566   1.886   8.563 -0.6474 -0.3621  1.0951
 4953SOL    HW126318   0.481   1.921   8.533  0.9274  0.5862 -2.3256
 4953SOL    HW226319   0.586   1.836   8.484  1.1531 -1.2806  2.1420
 4954SOL     OW26320   0.645   0.865   2.502 -0.2081 -0.3442 -0.1425
 4954SOL    HW126321   0.702   0.932   2.464  1.5238 -2.2976 -0.9388
 4954SOL    HW226322   0.589   0.850   2.425 -0.0609  1.6129 -0.6348
 4955SOL     OW26323   4.603   3.957  10.095  0.1942  0.1470  0.4408
 4955SOL    HW126324   4.634   3.867  10.097 -0.1380  0.0853  2.9048
 4955SOL    HW226325   4.619   3.983  10.004 -0.3216 -0.7923  0.0767
 4956SOL     OW26326   1.132   0.217  16.480  0.0411 -0.1519 -0.2054
 4956SOL    HW126327   1.147   0.237  16.572 -0.3658 -0.1769 -0.1336
 4956SOL    HW226328   1.064   0.151  16.494  1.2777 -1.2791  0.5224
 4957SOL     OW26329   3.563   2.202  14.481 -0.7145 -0.2144  0.4113
 4957SOL    HW126330   3.633   2.189  14.417  1.4975  2.8122  2.2157
 4957SOL    HW226331   3.491   2.141  14.464 -1.0019  0.2910 -0.1409
 4958SOL     OW26332   0.323   0.989   7.883 -0.0184  0.0614 -0.6228
 4958SOL    HW126333   0.405   0.948   7.853 -0.7537  0.6848 -3.4333
 4958SOL    HW226334   0.363   1.063   7.929  0.2168 -0.8722  0.6991
 4959SOL     OW26335   0.352   3.955   2.287  1.1837  0.2350  0.1408
 4959SOL    HW126336   0.352   4.017   2.214 -2.4129  0.1763  0.0592
 4959SOL    HW226337   0.391   4.008   2.356 -1.5005 -0.0058  1.8590
 4960SOL     OW26338   2.627   3.452   4.657  0.3533  0.0730 -0.3344
 4960SOL    HW126339   2.642   3.379   4.597  3.5318  1.6998 -1.4986
 4960SOL    HW226340   2.625   3.421   4.747  1.4141 -0.9998 -0.6903
 4961SOL     OW26341   2.221   4.541   4.186 -0.2647  0.0620 -0.0144
 4961SOL    HW126342   2.156   4.499   4.129  1.2657 -0.6159 -1.2373
 4961SOL    HW226343   2.158   4.579   4.248 -1.0454 -0.4889 -0.4735
 4962SOL     OW26344   0.350   4.515   7.231  0.7775 -0.7144 -0.0792
 4962SOL    HW126345   0.348   4.485   7.322  0.7955  1.0777  0.5251
 4962SOL    HW226346   0.307   4.437   7.198  1.8799 -0.5179 -1.9296
 4963SOL     OW26347   2.073   1.185   7.957 -0.5443 -0.5876  0.2697
 4963SOL    HW126348   2.096   1.092   7.959 -1.5554 -0.8545 -0.4777
 4963SOL    HW226349   2.000   1.179   8.019  0.0250 -4.8171  0.4886
 4964SOL     OW26350   1.575   4.205   3.277 -0.2237  0.6835  0.2741
 4964SOL    HW126351   1.614   4.118   3.284  1.4417  1.5252  1.4654
 4964SOL    HW226352   1.646   4.267   3.296 -0.0433  0.5700 -0.0335
 4965SOL     OW26353   1.224   2.581   6.921  0.5427  0.0270  0.3344
 4965SOL    HW126354   1.246   2.541   6.837  2.4716  0.9208  0.4143
 4965SOL    HW226355   1.256   2.514   6.983 -0.4436  1.7926  2.7513
 4966SOL     OW26356   2.280   4.452  17.366  0.1330  0.5748 -0.0776
 4966SOL    HW126357   2.235   4.397  17.302  2.3340  1.4647 -2.4114
 4966SOL    HW226358   2.342   4.396  17.413  0.4637  1.7876  0.9378
 4967SOL     OW26359   4.582   1.320   7.373 -0.2961  0.0635 -0.3388
 4967SOL    HW126360   4.506   1.377   7.371 -1.0765 -0.9991 -0.8090
 4967SOL    HW226361   4.623   1.335   7.458 -0.0965  0.2727 -0.4700
 4968SOL     OW26362   1.140   1.142  11.660 -0.7288  0.1421 -0.1935
 4968SOL    HW126363   1.045   1.146  11.675 -0.7533 -1.5264  0.0732
 4968SOL    HW226364   1.164   1.232  11.683 -0.5731  0.4856 -1.7053
 4969SOL     OW26365   0.083   4.687  12.776 -1.0049  0.1166  0.1625
 4969SOL    HW126366   0.001   4.649  12.745 -0.4880 -0.4107 -0.5796
 4969SOL    HW226367   0.102   4.629  12.849 -1.5260 -2.5171 -1.8044
 4970SOL     OW26368   4.183   2.534   2.849  0.4380  0.5402  0.0741
 4970SOL    HW126369   4.242   2.531   2.924  0.5191 -0.0074 -0.0072
 4970SOL    HW226370   4.215   2.611   2.802 -2.9997  1.7620 -0.2908
 4971SOL     OW26371   3.577   1.777   8.718 -0.4315  0.2080 -0.2661
 4971SOL    HW126372   3.546   1.804   8.804 -4.0492  0.4802 -1.6376
 4971SOL    HW226373   3.496   1.803   8.673  1.6197  2.1112 -2.7817
 4972SOL     OW26374   1.214   2.044  12.435  0.7882 -0.2046 -0.2509
 4972SOL    HW126375   1.187   2.016  12.523  0.3099 -1.0170 -0.6535
 4972SOL    HW226376   1.271   1.971  12.410 -0.2729 -0.6747 -1.3407
 4973SOL     OW26377   3.077   2.863  16.586 -0.0053 -0.0573 -0.0997
 4973SOL    HW126378   2.998   2.822  16.553 -1.4473  2.1741  0.5860
 4973SOL    HW226379   3.096   2.910  16.504  1.7223  1.9003  1.4046
 4974SOL     OW26380   4.366   1.432   4.163  0.2563 -0.9354 -0.1134
 4974SOL    HW126381   4.343   1.349   4.204 -0.1733  0.0346  1.6203
 4974SOL    HW226382   4.457   1.441   4.192 -0.0160  2.2877 -0.2866
 4975SOL     OW26383   2.800   1.082  12.946  0.5468 -0.5851  0.1191
 4975SOL    HW126384   2.760   1.133  12.876 -1.4887 -0.6316  1.2557
 4975SOL    HW226385   2.889   1.118  12.944  0.6745 -0.9111  0.0560
 4976SOL     OW26386   0.508   0.064  11.020 -0.1106  0.5775 -0.2395
 4976SOL    HW126387   0.565   0.139  11.004  1.1347 -0.6891 -1.6931
 4976SOL    HW226388   0.477   0.085  11.108  0.4683  1.2646 -0.2047
 4977SOL     OW26389   3.090   3.308  17.321  0.0491 -0.6259 -0.2783
 4977SOL    HW126390   3.121   3.290  17.410 -2.1937 -3.1029  0.0068
 4977SOL    HW226391   3.156   3.360  17.275 -0.7517  0.8211  0.2417
 4978SOL     OW26392   2.061   4.356   2.961 -0.1006 -0.2089 -0.0186
 4978SOL    HW126393   2.143   4.395   2.929  1.0148 -1.2104  1.6353
 4978SOL    HW226394   2.060   4.270   2.919  1.8065 -0.0293 -0.4263
 4979SOL     OW26395   0.166   0.468   6.858 -0.4647  0.0305 -0.2106
 4979SOL    HW126396   0.113   0.543   6.830 -1.1019 -1.1849 -2.2783
 4979SOL    HW226397   0.105   0.400   6.829  0.5498 -0.4948 -1.0871
 4980SOL     OW26398   2.218   2.009   9.197 -0.3150 -0.0204 -0.2199
 4980SOL    HW126399   2.288   1.990   9.260  0.6979 -1.9728 -1.9183
 4980SOL    HW226400   2.155   1.938   9.206 -1.5119  1.0713 -0.0557
 4981SOL     OW26401   3.146   3.769   4.304  0.3751  0.2166 -0.0543
 4981SOL    HW126402   3.106   3.682   4.307  1.4632 -0.1702  2.8816
 4981SOL    HW226403   3.179   3.775   4.215 -1.3851  1.9099 -0.5945
 4982SOL     OW26404   1.181   4.177   6.210 -0.0811  0.2709  0.4294
 4982SOL    HW126405   1.198   4.241   6.141 -0.3624 -2.1342 -1.8930
 4982SOL    HW226406   1.211   4.235   6.280 -0.2034 -1.0050  1.5429
 4983SOL     OW26407   2.711   4.325   2.754 -0.2449  0.0423  0.1140
 4983SOL    HW126408   2.803   4.341   2.777 -0.6154  1.0638  0.8548
 4983SOL    HW226409   2.685   4.261   2.821  0.6966  0.5518  0.9718
 4984SOL     OW26410   2.037   3.450   2.759 -0.6212  0.4407 -0.2492
 4984SOL    HW126411   1.967   3.443   2.693 -0.5018 -1.5311 -0.1534
 4984SOL    HW226412   2.062   3.543   2.757 -1.8053  0.7979  2.4471
 4985SOL     OW26413   1.243   4.113   6.925  0.2703  0.9618 -0.1164
 4985SOL    HW126414   1.205   4.177   6.865 -2.0995  0.8251  1.2360
 4985SOL    HW226415   1.331   4.150   6.923  0.2474  1.1474  2.0898
 4986SOL     OW26416   3.837   0.991   0.438  0.1092 -0.2942  0.4369
 4986SOL    HW126417   3.804   1.077   0.465  1.2227  1.1282 -2.8241
 4986SOL    HW226418   3.811   0.938   0.513  0.0238 -1.4451 -0.4136
 4987SOL     OW26419   4.663   2.334   2.887  0.3223 -0.1411  0.3342
 4987SOL    HW126420   4.657   2.430   2.884 -2.7551 -0.3630 -0.3968
 4987SOL    HW226421   4.643   2.322   2.980 -0.8320  0.4518  0.1585
 4988SOL     OW26422   0.721   3.651   3.607  0.0410 -0.0355  0.2886
 4988SOL    HW126423   0.746   3.698   3.528 -5.1964  2.4091  0.0569
 4988SOL    HW226424   0.753   3.563   3.586 -0.6502 -0.2322  0.0580
 4989SOL     OW26425   1.916   1.049  13.590  0.2276  0.1537  0.1286
 4989SOL    HW126426   1.948   1.124  13.639  4.5484 -1.4228 -0.3143
 4989SOL    HW226427   1.836   1.034  13.640 -0.8962  0.9680 -1.4189
 4990SOL     OW26428   1.060   1.743  11.772  0.1994  0.2649  0.3705
 4990SOL    HW126429   1.101   1.782  11.694 -1.2760  0.9423 -0.0692
 4990SOL    HW226430   1.060   1.819  11.831 -1.4521  1.8757 -1.6862
 4991SOL     OW26431   1.314   1.772   4.455  0.6383 -0.2715  0.4878
 4991SOL    HW126432   1.261   1.704   4.414  1.0176 -0.5145  0.4028
 4991SOL    HW226433   1.380   1.790   4.388 -0.2434  3.2639  0.5538
 4992SOL     OW26434   0.594   4.494   3.264 -0.2019  0.0972  0.1457
 4992SOL    HW126435   0.596   4.449   3.349  0.2199 -2.6008 -1.2792
 4992SOL    HW226436   0.677   4.542   3.265 -0.3135  0.2802  0.7148
 4993SOL     OW26437   2.238   1.224   5.364  0.7036  0.0914 -0.0036
 4993SOL    HW126438   2.290   1.283   5.419 -1.0949  2.4666 -0.8432
 4993SOL    HW226439   2.248   1.256   5.275 -0.4911  0.2790 -0.0636
 4994SOL     OW26440   0.721   0.621  12.892 -0.6142  0.0000  0.1861
 4994SOL    HW126441   0.797   0.671  12.921  0.3382 -1.4343  0.1813
 4994SOL    HW226442   0.675   0.600  12.974  0.4571 -0.1879  0.7360
 4995SOL     OW26443   2.915   3.136   4.002 -0.3167 -0.0728  0.1355
 4995SOL    HW126444   2.888   3.063   3.947 -0.1832 -2.4924  3.2446
 4995SOL    HW226445   2.976   3.084   4.055  0.7991  1.4904  0.3950
 4996SOL     OW26446   3.840   1.566  12.990 -0.2804 -0.2925  0.3095
 4996SOL    HW126447   3.746   1.549  13.000 -0.4585 -0.1161 -1.0382
 4996SOL    HW226448   3.826   1.637  12.927  4.2035  0.3882  0.0878
 4997SOL     OW26449   1.846   0.559   6.155  0.1075 -0.0988  0.2949
 4997SOL    HW126450   1.907   0.585   6.224 -0.2207 -0.7315  0.8204
 4997SOL    HW226451   1.890   0.481   6.121  0.1877  0.2107 -0.3179
 4998SOL     OW26452   0.492   4.247   1.562  0.6950  0.1338  0.1561
 4998SOL    HW126453   0.578   4.208   1.544  0.1979 -0.3445 -1.2676
 4998SOL    HW226454   0.480   4.229   1.655  0.8386 -1.5149 -0.1320
 4999SOL     OW26455   2.443   0.890  16.938 -0.0585 -0.2265  0.1376
 4999SOL    HW126456   2.470   0.815  16.992  1.3752  0.0937 -0.1278
 4999SOL    HW226457   2.373   0.945  16.974 -3.3898 -2.7311 -2.5854
 5000SOL     OW26458   1.330   0.003   6.988 -0.3863 -0.4332  0.2111
 5000SOL    HW126459   1.372   0.055   6.919 -0.0861 -0.8967  0.0418
 5000SOL    HW226460   1.256   4.694   6.939 -1.8842 -1.1979  3.0186
 5001SOL     OW26461   2.776   2.186   7.287  0.5611 -0.2738 -0.0097
 5001SOL    HW126462   2.766   2.269   7.241  0.6773 -0.3613 -0.1972
 5001SOL    HW226463   2.815   2.221   7.367  0.5947  0.9150 -0.5498
 5002SOL     OW26464   0.497   3.781  16.571  0.6467  0.2731  0.2957
 5002SOL    HW126465   0.425   3.728  16.606 -0.2360  1.1808 -0.1672
 5002SOL    HW226466   0.544   3.713  16.522 -0.2443 -1.7905  2.2956
 5003SOL     OW26467   4.640   1.690   0.894 -0.0064  0.5151 -0.2328
 5003SOL    HW126468   4.613   1.627   0.828 -0.1590  0.0514  0.2724
 5003SOL    HW226469   4.605   1.772   0.858 -1.3394 -0.1033 -0.3626
 5004SOL     OW26470   2.442   3.985  16.159  0.7359  0.0183 -0.4114
 5004SOL    HW126471   2.390   4.046  16.106  0.2012 -0.5492 -0.5323
 5004SOL    HW226472   2.512   4.049  16.175  0.6295 -0.0563  0.3682
 5005SOL     OW26473   2.853   3.750   5.459  0.2471  0.0717  0.2461
 5005SOL    HW126474   2.773   3.737   5.407 -0.4963 -0.1483  1.4352
 5005SOL    HW226475   2.826   3.815   5.524  0.2619 -0.5732  0.9006
 5006SOL     OW26476   4.449   0.995   6.123  0.3051  0.2263 -0.0054
 5006SOL    HW126477   4.446   0.974   6.217 -1.4604 -3.4331 -0.8800
 5006SOL    HW226478   4.497   1.077   6.131  2.7390 -1.2911  1.2423
 5007SOL     OW26479   2.200   1.543   3.873 -0.0841  0.3354 -0.1081
 5007SOL    HW126480   2.219   1.637   3.874 -1.5161  0.6312 -2.6054
 5007SOL    HW226481   2.164   1.521   3.960  0.6385 -1.3599 -0.2244
 5008SOL     OW26482   2.922   3.100   5.425  0.0861  0.2209  0.4123
 5008SOL    HW126483   2.891   3.018   5.463 -0.3428  0.0791 -0.2429
 5008SOL    HW226484   2.905   3.169   5.490  2.2115 -0.6488  1.8775
 5009SOL     OW26485   3.913   1.734  17.274  0.0975 -0.2780 -0.1799
 5009SOL    HW126486   3.934   1.741  17.181 -0.4140  0.1372 -0.2652
 5009SOL    HW226487   3.828   1.772  17.295  0.9637  0.9846  1.0940
 5010SOL     OW26488   2.135   0.818  16.006  0.4249  0.0729  0.2237
 5010SOL    HW126489   2.164   0.750  16.068 -0.7116  1.2695  2.0470
 5010SOL    HW226490   2.194   0.793  15.935 -0.1447 -0.2650 -0.1265
 5011SOL     OW26491   1.970   3.680   1.724  0.1624  0.4339 -0.4308
 5011SOL    HW126492   2.030   3.750   1.751  0.6784 -1.3398  3.0872
 5011SOL    HW226493   1.998   3.690   1.633 -1.5542  2.0540 -0.7767
 5012SOL     OW26494   3.576   1.740   2.080  0.1427  0.2430  0.6194
 5012SOL    HW126495   3.569   1.683   2.157 -0.9219 -2.7558 -1.7276
 5012SOL    HW226496   3.653   1.794   2.099  0.2354  0.0636  0.7509
 5013SOL     OW26497   0.891   0.850   0.078 -0.0529 -0.4632 -0.1769
 5013SOL    HW126498   0.905   0.929   0.130  1.4590  0.0343 -1.3276
 5013SOL    HW226499   0.936   0.784   0.132  0.1158  0.2465  0.5467
 5014SOL     OW26500   0.385   2.474  16.979 -0.3771  0.3776  0.4453
 5014SOL    HW126501   0.407   2.531  17.052  1.4271  0.5262 -0.2173
 5014SOL    HW226502   0.443   2.400  16.992 -0.1815  0.5138  0.3473
 5015SOL     OW26503   0.474   4.532  11.748  0.0113 -0.1868 -0.2783
 5015SOL    HW126504   0.472   4.533  11.652 -0.4353 -2.5733 -0.2805
 5015SOL    HW226505   0.550   4.590  11.755  0.7564 -1.3919  1.3602
 5016SOL     OW26506   1.230   0.843   5.385 -0.2489  0.4097  0.5064
 5016SOL    HW126507   1.168   0.770   5.376 -1.2757  1.1293  1.7832
 5016SOL    HW226508   1.309   0.788   5.383 -0.0395  0.7977 -1.7749
 5017SOL     OW26509   0.938   0.046  16.499 -0.3776  0.0451 -0.2462
 5017SOL    HW126510   1.004   4.708  16.525  1.9291  1.7560 -1.8480
 5017SOL    HW226511   0.869   4.722  16.456  1.1040 -0.7439 -1.6875
 5018SOL     OW26512   2.353   2.832   8.391  0.5021 -0.2358  0.2321
 5018SOL    HW126513   2.349   2.771   8.318  1.6367  0.9745 -0.8404
 5018SOL    HW226514   2.282   2.891   8.367 -0.6879 -2.2406 -1.1210
 5019SOL     OW26515   3.072   3.038   5.228 -0.0630 -1.0706 -0.3172
 5019SOL    HW126516   3.154   3.029   5.276 -0.6251 -0.8045  0.6840
 5019SOL    HW226517   3.010   3.050   5.300  0.4853  0.2080 -0.0592
 5020SOL     OW26518   4.673   1.755   4.585  0.6452  0.6670 -0.1046
 5020SOL    HW126519   4.631   1.798   4.510  0.9098  2.8832  1.0109
 5020SOL    HW226520   4.656   1.663   4.568 -3.3957  1.0862  1.8076
 5021SOL     OW26521   3.383   2.442   4.097  0.5780 -0.2786 -0.1157
 5021SOL    HW126522   3.306   2.389   4.076  1.5999 -1.9331  0.2832
 5021SOL    HW226523   3.353   2.533   4.100  0.4064 -0.3069 -0.9196
 5022SOL     OW26524   1.560   1.635   4.733 -0.3041  0.5232 -0.2554
 5022SOL    HW126525   1.598   1.705   4.785  2.0209 -0.1436 -1.0191
 5022SOL    HW226526   1.489   1.601   4.787  0.4136 -2.8491 -1.4087
 5023SOL     OW26527   1.206   0.596   6.501  0.6491 -0.2991 -0.7751
 5023SOL    HW126528   1.165   0.518   6.538  0.0172  0.2030 -0.4099
 5023SOL    HW226529   1.188   0.579   6.408 -0.4701 -1.4216 -0.3449
 5024SOL     OW26530   1.224   3.080  12.456 -0.3817  0.1397  0.4432
 5024SOL    HW126531   1.173   3.143  12.406 -0.6379 -0.1831  0.2964
 5024SOL    HW226532   1.259   3.028  12.384 -0.4530  1.0941 -0.2709
 5025SOL     OW26533   3.413   2.210   9.235  0.0353 -0.1495  0.3766
 5025SOL    HW126534   3.423   2.162   9.317 -0.4800  0.9845  1.1006
 5025SOL    HW226535   3.356   2.282   9.262 -0.0649  0.2312 -0.8412
 5026SOL     OW26536   3.770   1.466   8.443  0.1731 -0.1306 -0.1503
 5026SOL    HW126537   3.795   1.521   8.518 -0.2194  0.6200 -0.5672
 5026SOL    HW226538   3.678   1.448   8.461  0.2419  0.8339  1.2432
 5027SOL     OW26539   0.495   2.993   9.028  0.8302  0.0414  0.7016
 5027SOL    HW126540   0.573   3.044   9.006  0.0432  0.3996 -1.2529
 5027SOL    HW226541   0.520   2.937   9.102 -1.7543  0.0068  1.5423
 5028SOL     OW26542   0.078   0.359   4.783  0.0868 -0.2376  0.4413
 5028SOL    HW126543   0.086   0.444   4.739 -0.4108 -0.1680  0.4865
 5028SOL    HW226544   0.171   0.347   4.803  0.6489  1.6169 -1.0762
 5029SOL     OW26545   0.680   1.051  16.735  0.5810 -0.5582 -0.2052
 5029SOL    HW126546   0.744   1.121  16.723  1.0067 -1.0272 -0.6551
 5029SOL    HW226547   0.638   1.076  16.817  0.7631 -1.5793  0.1956
 5030SOL     OW26548   4.147   1.014  12.340  0.1386  0.0954  0.0164
 5030SOL    HW126549   4.229   1.056  12.315 -1.0549  1.8242 -0.9887
 5030SOL    HW226550   4.099   1.090  12.373 -0.3157  0.5157 -1.6099
 5031SOL     OW26551   0.223   3.917   7.399 -0.4997 -0.8267  0.2718
 5031SOL    HW126552   0.165   3.841   7.392  1.2068 -2.0287 -0.8723
 5031SOL    HW226553   0.165   3.978   7.355 -0.0415 -0.6873 -0.1443
 5032SOL     OW26554   1.333   2.498   3.698 -0.4651  0.4628  0.1656
 5032SOL    HW126555   1.344   2.583   3.741 -2.1166  1.3454 -1.1392
 5032SOL    HW226556   1.241   2.504   3.670 -0.6209  1.0940  0.8311
 5033SOL     OW26557   0.156   0.582   5.361  0.2388 -0.0715 -0.3399
 5033SOL    HW126558   0.183   0.667   5.396  0.9970 -0.3102 -0.3340
 5033SOL    HW226559   0.065   0.605   5.340 -0.8998 -3.5600  0.9284
 5034SOL     OW26560   3.438   0.414   2.513 -0.0332 -0.1046 -0.2896
 5034SOL    HW126561   3.482   0.355   2.573 -0.7125 -0.4895 -0.1685
 5034SOL    HW226562   3.506   0.419   2.446 -0.1867 -1.4543 -0.5373
 5035SOL     OW26563   2.029   1.972  14.269 -0.4933  0.0186 -0.1321
 5035SOL    HW126564   2.045   1.908  14.338 -1.7456  0.6344  0.7341
 5035SOL    HW226565   1.934   1.969  14.283 -0.3354 -0.3421  0.8780
 5036SOL     OW26566   1.088   4.270   2.206 -0.1170  0.4251  0.1876
 5036SOL    HW126567   1.031   4.329   2.256  0.1702  0.8200  0.0513
 5036SOL    HW226568   1.130   4.326   2.140 -0.7139 -0.1649 -0.6936
 5037SOL     OW26569   1.427   1.919   6.863 -0.0916  0.0777 -0.3530
 5037SOL    HW126570   1.335   1.941   6.876 -0.0186  0.3085 -0.2255
 5037SOL    HW226571   1.463   1.928   6.951 -3.7921 -0.2526  1.1719
 5038SOL     OW26572   1.879   3.830   2.362  0.6973  0.0594  0.1527
 5038SOL    HW126573   1.904   3.770   2.291 -0.4441  1.8173 -1.7345
 5038SOL    HW226574   1.861   3.914   2.320  1.9084  0.0591 -0.3672
 5039SOL     OW26575   2.705   0.752  15.024  0.1067 -0.4854  0.2253
 5039SOL    HW126576   2.719   0.661  15.048 -0.1292 -0.4723  0.4123
 5039SOL    HW226577   2.785   0.772  14.975 -0.1395  1.6235  0.6661
 5040SOL     OW26578   1.315   3.765   1.597 -0.1586  0.1471  0.1520
 5040SOL    HW126579   1.368   3.687   1.610  1.0527  1.0439  0.6814
 5040SOL    HW226580   1.223   3.743   1.614  0.0397  1.0169  2.3771
 5041SOL     OW26581   3.829   4.619   1.749  1.4362 -0.0072  0.1784
 5041SOL    HW126582   3.747   4.591   1.709  0.5502 -0.6450  2.4162
 5041SOL    HW226583   3.804   4.711   1.759  1.7192  0.0908 -0.0185
 5042SOL     OW26584   1.178   2.164  17.298  0.1716 -0.1065  0.4970
 5042SOL    HW126585   1.118   2.196  17.230  1.4247 -1.5484 -1.3028
 5042SOL    HW226586   1.243   2.234  17.294  1.4211 -1.3009 -0.2434
 5043SOL     OW26587   0.941   0.760  10.352  0.2903 -0.0800  0.2894
 5043SOL    HW126588   0.875   0.811  10.400  0.0632  0.4256 -0.5642
 5043SOL    HW226589   1.015   0.776  10.411  0.5767 -3.4734  0.8143
 5044SOL     OW26590   4.683   0.379  10.319  0.7022 -0.2464 -0.3229
 5044SOL    HW126591   4.679   0.341  10.407  2.0453  0.1325 -0.0988
 5044SOL    HW226592   4.645   0.307  10.269 -0.6817  1.1034 -1.1855
 5045SOL     OW26593   3.269   3.791   4.068 -0.0758 -1.1000 -0.4276
 5045SOL    HW126594   3.352   3.750   4.042 -0.3106 -1.5559 -0.4480
 5045SOL    HW226595   3.212   3.776   3.993 -2.0753  0.6231  0.7665
 5046SOL     OW26596   3.653   3.349   4.200 -0.4343 -0.2487  0.3317
 5046SOL    HW126597   3.586   3.312   4.143 -0.6056 -0.0243  0.3892
 5046SOL    HW226598   3.724   3.367   4.138 -0.3150 -1.3680  0.1450
 5047SOL     OW26599   1.810   3.487   9.530  0.5103 -0.1372  0.0352
 5047SOL    HW126600   1.767   3.445   9.605  0.9482 -1.1235 -0.2754
 5047SOL    HW226601   1.798   3.580   9.547  0.2872  0.0731 -1.2654
 5048SOL     OW26602   4.543   2.601   1.600 -0.0050 -0.3323 -0.3137
 5048SOL    HW126603   4.535   2.654   1.679 -0.4002  1.4902 -1.5690
 5048SOL    HW226604   4.631   2.623   1.572 -0.0667  0.3932  0.0698
 5049SOL     OW26605   3.289   1.063   9.594 -0.5520 -0.9533 -0.0289
 5049SOL    HW126606   3.289   0.976   9.632  0.4819 -1.1232 -0.4149
 5049SOL    HW226607   3.327   1.051   9.507  1.4778  1.4902  0.5145
 5050SOL     OW26608   2.905   2.398   6.008 -0.4071  0.1855 -0.4369
 5050SOL    HW126609   2.847   2.469   5.981  0.8826  0.8548 -1.4674
 5050SOL    HW226610   2.968   2.448   6.060 -0.1131 -1.5561  0.9200
 5051SOL     OW26611   3.612   1.091   4.523  0.8306  0.1651 -0.1454
 5051SOL    HW126612   3.579   1.171   4.564 -0.7898  0.7013 -2.4993
 5051SOL    HW226613   3.694   1.123   4.487  0.2004  1.4938 -0.4024
 5052SOL     OW26614   2.648   0.529   5.588  0.1185  0.0105 -0.5726
 5052SOL    HW126615   2.597   0.489   5.659  0.2959 -2.4214 -1.8241
 5052SOL    HW226616   2.583   0.534   5.518 -0.1425 -1.2479 -0.4181
 5053SOL     OW26617   4.523   3.271   4.466 -0.3829  0.3830 -0.2097
 5053SOL    HW126618   4.507   3.258   4.373 -0.6092 -0.1932 -0.0854
 5053SOL    HW226619   4.491   3.360   4.485 -0.5863  0.2130  0.2491
 5054SOL     OW26620   3.116   2.227   7.169 -0.1531  0.8281 -0.1962
 5054SOL    HW126621   3.188   2.189   7.119 -0.1968  2.0991 -1.2110
 5054SOL    HW226622   3.046   2.198   7.110 -0.0388 -1.8284  1.0020
 5055SOL     OW26623   3.990   1.081  13.936  0.2543  0.3690  0.2441
 5055SOL    HW126624   4.079   1.117  13.937 -0.0543  1.1586 -1.0199
 5055SOL    HW226625   3.991   1.015  13.866 -0.1135 -0.0555  0.6355
 5056SOL     OW26626   3.838   1.867   0.299  0.5804  0.1561 -0.0345
 5056SOL    HW126627   3.873   1.792   0.347  0.7948 -0.2518 -0.8334
 5056SOL    HW226628   3.773   1.820   0.246  0.4660 -0.3659  0.5588
 5057SOL     OW26629   4.526   4.659   8.243 -0.3955 -0.6510 -0.0605
 5057SOL    HW126630   4.617   4.689   8.236 -0.7732  0.5469  0.1877
 5057SOL    HW226631   4.508   4.634   8.153 -1.0867  1.8599 -0.6242
 5058SOL     OW26632   0.685   0.827   4.758 -0.2148 -0.4681  0.2231
 5058SOL    HW126633   0.743   0.757   4.787 -1.1481 -0.1579  2.8641
 5058SOL    HW226634   0.649   0.773   4.688  0.8350 -1.2479  0.2786
 5059SOL     OW26635   0.184   0.349   6.120  0.0518  0.3557 -0.2509
 5059SOL    HW126636   0.274   0.345   6.154  0.2712  2.4648 -0.5621
 5059SOL    HW226637   0.134   0.390   6.191  3.1238  0.6349  1.7755
 5060SOL     OW26638   0.942   1.300   2.307  0.2513  0.3449 -0.0466
 5060SOL    HW126639   0.857   1.284   2.268  0.2312  0.2124  0.0526
 5060SOL    HW226640   1.012   1.268   2.250  1.3565  1.0590  0.8900
 5061SOL     OW26641   1.105   2.820   1.112 -0.0729 -0.6538  0.0923
 5061SOL    HW126642   1.144   2.829   1.199 -2.0471  0.4762  0.8641
 5061SOL    HW226643   1.186   2.799   1.066  0.6352  1.4523  0.3686
 5062SOL     OW26644   1.420   2.947   6.055 -0.4660 -0.2978 -0.1561
 5062SOL    HW126645   1.435   2.958   6.149  0.5676 -0.9688 -0.2476
 5062SOL    HW226646   1.507   2.935   6.016 -1.0357 -1.1927 -1.1411
 5063SOL     OW26647   3.092   3.354   7.152 -0.3870  0.4036 -0.4029
 5063SOL    HW126648   3.027   3.289   7.126  0.8231 -1.3135  0.8570
 5063SOL    HW226649   3.066   3.435   7.109  0.3835  1.6958  1.5752
 5064SOL     OW26650   3.309   2.286  17.569 -0.1998  0.5422 -0.0502
 5064SOL    HW126651   3.221   2.293  17.532  0.4136 -1.1071 -1.8345
 5064SOL    HW226652   3.363   2.296  17.491  0.9569  2.2138  0.9738
 5065SOL     OW26653   0.034   1.384   6.811 -0.0701 -0.2962 -0.0594
 5065SOL    HW126654   0.082   1.301   6.803 -0.4316 -0.6294  1.2412
 5065SOL    HW226655   4.687   1.378   6.750 -1.2930 -0.1198  1.4186
 5066SOL     OW26656   2.438   3.283   2.600  0.9835  0.1193  0.1265
 5066SOL    HW126657   2.397   3.248   2.679  1.7527 -0.7569  0.1295
 5066SOL    HW226658   2.470   3.368   2.629 -0.4191  0.5056  0.5612
 5067SOL     OW26659   1.164   4.622  16.506  0.2862  0.5969  0.0376
 5067SOL    HW126660   1.205   4.565  16.441 -0.3340  1.4063 -1.0699
 5067SOL    HW226661   1.244   4.653  16.549  0.4692  1.0607 -0.6273
 5068SOL     OW26662   0.439   1.130   2.168  0.0027  0.1844  0.5472
 5068SOL    HW126663   0.470   1.040   2.160 -3.0825 -0.7379 -1.3299
 5068SOL    HW226664   0.382   1.146   2.092 -0.1661 -1.5485  0.3086
 5069SOL     OW26665   4.085   3.590   9.364  0.2270  0.1519  0.2420
 5069SOL    HW126666   4.141   3.619   9.292 -2.0429  0.7287 -1.3051
 5069SOL    HW226667   4.148   3.597   9.436  0.1210  0.4756  0.3006
 5070SOL     OW26668   1.915   3.445   8.382 -0.9176  0.5271 -0.2267
 5070SOL    HW126669   1.952   3.525   8.345 -1.0769  0.3725 -0.7120
 5070SOL    HW226670   1.980   3.429   8.450  0.4530 -1.2370 -1.9703
 5071SOL     OW26671   3.070   0.974   3.643  0.5938  0.2211 -0.0203
 5071SOL    HW126672   3.074   1.018   3.558  0.7002 -0.7807 -0.5393
 5071SOL    HW226673   3.058   1.050   3.699 -0.1907  0.0189  0.0816
 5072SOL     OW26674   3.994   3.835  12.581  0.5741  0.0452 -0.1688
 5072SOL    HW126675   4.065   3.775  12.560  0.9511  0.8248 -1.0830
 5072SOL    HW226676   3.954   3.788  12.655  1.7260 -1.0699 -0.2491
 5073SOL     OW26677   0.689   1.300   4.575 -0.1337  0.0571 -0.2463
 5073SOL    HW126678   0.593   1.300   4.573 -0.1009  3.2975 -1.0140
 5073SOL    HW226679   0.699   1.214   4.617 -0.7728 -1.4581 -3.1471
 5074SOL     OW26680   0.019   1.895  16.381  0.2349  0.1258 -0.6267
 5074SOL    HW126681   0.014   1.809  16.340  2.1764  0.9125 -2.4715
 5074SOL    HW226682   0.030   1.882  16.476 -0.5865  3.1665 -0.1079
 5075SOL     OW26683   0.674   3.626   4.581 -0.0316  0.2119 -0.2150
 5075SOL    HW126684   0.606   3.579   4.533  0.4451 -1.7326  0.9946
 5075SOL    HW226685   0.633   3.635   4.666 -0.2697  0.5306 -0.3653
 5076SOL     OW26686   4.278   2.558   4.332  0.3344 -0.6756 -0.2379
 5076SOL    HW126687   4.260   2.588   4.421  1.0382  2.3377 -1.1158
 5076SOL    HW226688   4.218   2.484   4.319  1.1259 -1.2623 -0.5425
 5077SOL     OW26689   3.145   3.471   5.343  0.0727 -0.2516 -0.6189
 5077SOL    HW126690   3.151   3.464   5.247  0.1091  1.7428 -0.7745
 5077SOL    HW226691   3.231   3.436   5.367 -0.1861  0.0578  0.7182
 5078SOL     OW26692   1.368   3.332  15.104  0.6059 -0.0572  0.4261
 5078SOL    HW126693   1.424   3.254  15.106 -0.8662 -1.1593 -1.9808
 5078SOL    HW226694   1.327   3.333  15.190  2.9136 -1.7847  1.5486
 5079SOL     OW26695   2.615   1.320   2.393  0.5719  0.4718 -0.1960
 5079SOL    HW126696   2.592   1.396   2.341  2.8506  1.2602 -0.0557
 5079SOL    HW226697   2.695   1.351   2.436  0.5313  0.2247  0.0612
 5080SOL     OW26698   4.102   3.915   4.622 -0.1032  0.6621 -0.7368
 5080SOL    HW126699   4.119   3.963   4.541  2.7785  0.3314 -0.3202
 5080SOL    HW226700   4.011   3.941   4.636 -0.3661  1.5946 -4.0359
 5081SOL     OW26701   0.203   2.029   4.810  0.2113  0.0729 -0.0719
 5081SOL    HW126702   0.145   1.953   4.811  0.5661 -0.2916 -4.6281
 5081SOL    HW226703   0.138   2.099   4.800  1.4353  0.9491 -1.9615
 5082SOL     OW26704   3.899   3.139   2.008  0.3469  0.0184 -0.2594
 5082SOL    HW126705   3.942   3.084   1.943 -0.1617 -0.3655 -0.2705
 5082SOL    HW226706   3.920   3.223   1.966  0.8797 -0.2556 -0.5478
 5083SOL     OW26707   0.134   0.270   1.235 -0.8190 -0.3458  0.1467
 5083SOL    HW126708   0.182   0.245   1.314 -1.0158  0.1066  0.4127
 5083SOL    HW226709   0.147   0.365   1.240 -0.7344 -0.5193  3.0154
 5084SOL     OW26710   3.434   0.119   2.885 -0.3584 -0.1627 -0.3322
 5084SOL    HW126711   3.439   0.024   2.897  0.0814 -0.1476 -0.3896
 5084SOL    HW226712   3.485   0.130   2.804 -1.3982 -2.4179 -1.2759
 5085SOL     OW26713   4.196   4.450  12.424  0.2182  0.3351 -0.0159
 5085SOL    HW126714   4.127   4.385  12.435 -0.9605  1.6876  0.5573
 5085SOL    HW226715   4.246   4.443  12.506 -1.4475 -2.4698  0.7574
 5086SOL     OW26716   4.672   0.405   8.890 -0.5797 -0.5744  0.0971
 5086SOL    HW126717   4.631   0.323   8.917 -1.9107 -0.0677 -0.3824
 5086SOL    HW226718   4.602   0.470   8.899  0.5195  1.1046 -3.4675
 5087SOL     OW26719   3.110   0.423   4.813  0.3996  0.0106  0.4913
 5087SOL    HW126720   3.156   0.438   4.896  0.4688  0.2313  0.4128
 5087SOL    HW226721   3.043   0.357   4.832  0.0614  0.5113  1.0316
 5088SOL     OW26722   2.803   4.267   3.084 -0.1406 -0.1224 -0.1372
 5088SOL    HW126723   2.845   4.184   3.063 -1.7397 -1.2525  1.0499
 5088SOL    HW226724   2.756   4.233   3.161 -1.8122  3.7042  0.5514
 5089SOL     OW26725   1.102   1.574   3.372 -0.0590  0.3168  1.0122
 5089SOL    HW126726   1.172   1.593   3.310  0.0824 -0.0340  1.0657
 5089SOL    HW226727   1.156   1.508   3.416  1.0334  0.5469  0.0140
 5090SOL     OW26728   2.993   4.333  10.063  0.4411 -0.6858  0.1088
 5090SOL    HW126729   3.010   4.281   9.984 -0.6263  0.3812 -0.8296
 5090SOL    HW226730   2.898   4.344  10.064  0.6794  1.2662  0.7560
 5091SOL     OW26731   1.412   1.746   2.010 -0.1885 -0.0966  1.0729
 5091SOL    HW126732   1.423   1.796   2.091  0.8780  0.3519  0.6462
 5091SOL    HW226733   1.472   1.795   1.954 -0.1848 -3.0648 -1.5269
 5092SOL     OW26734   1.938   3.978   7.435 -0.4736  0.1140  0.1412
 5092SOL    HW126735   1.937   4.058   7.486 -2.7845 -1.4788  2.6065
 5092SOL    HW226736   1.853   3.962   7.393 -0.3859 -3.0761  1.1810
 5093SOL     OW26737   3.995   1.241   2.984 -0.1693 -0.7433  0.2715
 5093SOL    HW126738   4.075   1.248   3.037  0.4724  1.8793 -1.0306
 5093SOL    HW226739   3.930   1.252   3.054  0.6810  3.1233  0.4850
 5094SOL     OW26740   1.917   4.368   6.076 -0.0665  0.0027 -0.3621
 5094SOL    HW126741   1.913   4.272   6.073  1.5668 -0.0770  0.4121
 5094SOL    HW226742   1.905   4.393   5.984 -0.1051  0.3480 -0.2599
 5095SOL     OW26743   1.736   2.730   8.506  0.4595 -0.1086  0.0110
 5095SOL    HW126744   1.657   2.689   8.472 -2.0068  3.3234  1.7020
 5095SOL    HW226745   1.778   2.651   8.542  0.4690  0.1807  0.6338
 5096SOL     OW26746   1.105   3.584   3.416 -0.1526 -0.1020 -0.3928
 5096SOL    HW126747   1.144   3.620   3.496 -0.0133 -1.3891  0.1245
 5096SOL    HW226748   1.182   3.551   3.370 -0.5584 -1.8370  0.1653
 5097SOL     OW26749   4.434   0.666  14.383  0.2096 -0.2127  0.2131
 5097SOL    HW126750   4.449   0.582  14.427 -3.3505 -0.4920  0.9237
 5097SOL    HW226751   4.507   0.722  14.410 -0.5311  0.4305  0.8950
 5098SOL     OW26752   4.271   1.470  11.052 -0.1667  0.6958  0.5350
 5098SOL    HW126753   4.203   1.537  11.062  0.7269  1.7589 -0.5513
 5098SOL    HW226754   4.327   1.486  11.128  1.7314 -0.0511 -0.6963
 5099SOL     OW26755   2.215   1.045  16.997  0.0156  0.7427 -0.4102
 5099SOL    HW126756   2.252   1.087  16.919 -2.8167  0.9898 -1.6141
 5099SOL    HW226757   2.135   1.002  16.966 -0.9997  1.1005  1.7225
 5100SOL     OW26758   2.672   1.138   6.815  0.1045  0.1011 -0.1472
 5100SOL    HW126759   2.708   1.190   6.743  0.0285 -3.8444 -3.0299
 5100SOL    HW226760   2.636   1.208   6.870 -0.0675  1.0794 -1.4935
 5101SOL     OW26761   4.662   4.598  16.077 -0.2031  0.2570  0.1332
 5101SOL    HW126762   4.656   4.640  15.991  1.8181  0.8974  0.3074
 5101SOL    HW226763   4.571   4.571  16.078 -1.0876  3.0394 -3.5598
 5102SOL     OW26764   3.088   1.789   5.117 -0.8917 -0.0535 -0.2289
 5102SOL    HW126765   3.102   1.880   5.143 -1.6331 -0.0625  0.2235
 5102SOL    HW226766   3.066   1.757   5.205 -0.4333 -2.1851 -0.9008
 5103SOL     OW26767   2.726   3.520   6.181  0.5635  0.0607  0.2709
 5103SOL    HW126768   2.797   3.567   6.226 -0.3796  1.0635  0.7014
 5103SOL    HW226769   2.658   3.549   6.240 -0.9282  0.1633 -1.5049
 5104SOL     OW26770   3.158   3.504  11.053  0.1223  0.4417  0.2582
 5104SOL    HW126771   3.189   3.455  11.130  0.7092 -0.1094 -0.3261
 5104SOL    HW226772   3.138   3.435  10.989 -0.3067 -0.4713  1.3692
 5105SOL     OW26773   2.859   4.020   3.513 -0.2529  0.3130 -0.3449
 5105SOL    HW126774   2.879   3.934   3.552  0.9651  1.3672  1.3309
 5105SOL    HW226775   2.790   4.053   3.571 -0.3177 -0.1159 -0.1767
 5106SOL     OW26776   2.285   3.858  10.876  0.6785  0.4321 -0.0168
 5106SOL    HW126777   2.252   3.915  10.945  0.0184  0.1532 -0.1068
 5106SOL    HW226778   2.369   3.829  10.911  0.4621 -0.9623 -0.6364
 5107SOL     OW26779   1.176   0.969  15.068 -0.1392  0.5330 -0.1826
 5107SOL    HW126780   1.225   1.002  15.143 -0.8631  1.8223 -0.2725
 5107SOL    HW226781   1.226   1.000  14.992  0.6083  1.8740  0.8537
 5108SOL     OW26782   1.680   1.854  11.477 -0.1622 -0.4243 -0.1192
 5108SOL    HW126783   1.626   1.910  11.422  0.4971  0.8437  0.5416
 5108SOL    HW226784   1.653   1.766  11.450 -0.3236 -0.5068  0.3160
 5109SOL     OW26785   0.418   3.773   9.284 -0.4336  0.1804  0.3138
 5109SOL    HW126786   0.375   3.688   9.295 -0.5884  0.3622  1.0896
 5109SOL    HW226787   0.378   3.795   9.200  0.7067 -0.0044 -0.2857
 5110SOL     OW26788   0.300   3.420   9.079 -0.0889  0.3874 -0.1749
 5110SOL    HW126789   0.386   3.414   9.038 -0.3212  0.7355 -0.7231
 5110SOL    HW226790   0.277   3.330   9.104  0.1332 -0.3052 -2.4274
 5111SOL     OW26791   3.449   0.740  11.693  0.0923  0.0125 -0.0405
 5111SOL    HW126792   3.495   0.658  11.711 -1.5284 -0.3771  2.2313
 5111SOL    HW226793   3.453   0.734  11.597 -0.9294 -0.5042 -0.0449
 5112SOL     OW26794   2.191   0.159   6.589  0.0335  0.2338  0.1264
 5112SOL    HW126795   2.253   0.218   6.545  0.4826 -1.3537 -1.3797
 5112SOL    HW226796   2.226   0.149   6.677 -1.3231 -1.9447  0.4005
 5113SOL     OW26797   1.404   1.610   3.539 -0.1316  0.3508 -0.4939
 5113SOL    HW126798   1.388   1.695   3.578  0.4837 -1.3008  3.3190
 5113SOL    HW226799   1.494   1.625   3.509  0.1205 -2.7144 -1.3351
 5114SOL     OW26800   2.907   4.588   5.269  0.3682 -0.3126 -0.2756
 5114SOL    HW126801   2.941   4.674   5.242  0.3198  0.6749  2.7970
 5114SOL    HW226802   2.968   4.559   5.336  0.5379  2.7851  0.9381
 5115SOL     OW26803   3.356   2.115   7.021  0.5569  0.0934 -0.3830
 5115SOL    HW126804   3.314   2.114   6.935 -0.2286  0.8500 -0.0035
 5115SOL    HW226805   3.433   2.062   6.998  0.5170  1.0747 -2.8412
 5116SOL     OW26806   1.505   4.154   7.248  0.2410 -0.2413 -0.0128
 5116SOL    HW126807   1.576   4.168   7.310  0.7785  1.9594 -1.1233
 5116SOL    HW226808   1.533   4.069   7.213 -0.0020 -0.3414  0.0358
 5117SOL     OW26809   0.822   0.381  12.798  0.3499 -0.3002  0.3878
 5117SOL    HW126810   0.778   0.461  12.826 -0.2619 -0.6560  0.4373
 5117SOL    HW226811   0.755   0.334  12.748  0.8937  1.7970 -2.3187
 5118SOL     OW26812   4.044   0.518   5.614  0.0160 -0.1249 -0.1101
 5118SOL    HW126813   4.071   0.426   5.616 -4.1768 -1.3249  1.7713
 5118SOL    HW226814   4.120   0.567   5.644  0.4432  0.6013 -2.4000
 5119SOL     OW26815   0.639   2.999   6.699  0.1903 -0.3013 -0.0996
 5119SOL    HW126816   0.625   2.933   6.631  1.5946  0.6906 -1.3449
 5119SOL    HW226817   0.632   3.090   6.670  0.4165 -0.1890  0.1943
 5120SOL     OW26818   4.706   1.042   7.519 -0.6157 -0.8609 -0.5556
 5120SOL    HW126819   0.065   1.002   7.534 -0.1364  0.9915  1.5799
 5120SOL    HW226820   4.675   1.053   7.609 -2.2223  1.4019 -1.3733
 5121SOL     OW26821   2.486   3.840   5.685 -0.0260  0.4901 -0.0850
 5121SOL    HW126822   2.505   3.913   5.626  1.0981 -0.9575 -1.5179
 5121SOL    HW226823   2.470   3.884   5.768 -2.1000 -0.8535  0.2269
 5122SOL     OW26824   0.067   3.323   6.300  0.2644 -0.0898 -0.5857
 5122SOL    HW126825   0.008   3.277   6.240 -1.0437  0.2678  0.4258
 5122SOL    HW226826   0.070   3.254   6.366  0.0751  0.6049  0.1477
 5123SOL     OW26827   2.553   3.852   6.016  0.2421 -0.0016  0.0634
 5123SOL    HW126828   2.565   3.946   6.034 -1.5544 -0.0658  1.5781
 5123SOL    HW226829   2.471   3.840   6.063 -0.1209  1.5185 -0.1977
 5124SOL     OW26830   3.773   0.732   8.249 -0.4921 -0.0759 -0.6699
 5124SOL    HW126831   3.702   0.769   8.301 -0.6622  0.5474 -1.3389
 5124SOL    HW226832   3.836   0.804   8.244  1.2987 -1.6506 -0.8536
 5125SOL     OW26833   4.559   2.059  16.833  0.0324  0.4082 -0.4317
 5125SOL    HW126834   4.609   2.140  16.824 -0.5844  0.9458  1.0547
 5125SOL    HW226835   4.482   2.088  16.785 -1.2993 -1.3573  0.6447
 5126SOL     OW26836   2.874   1.555  17.686 -0.5428  0.0873  0.2077
 5126SOL    HW126837   2.877   1.476   0.035 -1.0390 -0.4552 -0.5363
 5126SOL    HW226838   2.961   1.590  17.669 -0.5685  0.3447  0.6183
 5127SOL     OW26839   1.710   3.769   0.334 -0.0495 -0.6075 -0.0734
 5127SOL    HW126840   1.747   3.746   0.249  3.4398  1.4193  0.9478
 5127SOL    HW226841   1.720   3.681   0.371 -1.1941 -0.1907  1.2429
 5128SOL     OW26842   3.732   1.819   7.332 -0.7421  0.1163  0.9604
 5128SOL    HW126843   3.719   1.800   7.239  0.4911 -0.7390  0.9733
 5128SOL    HW226844   3.683   1.745   7.368  0.5285 -1.2055 -0.0479
 5129SOL     OW26845   4.113   3.262   7.422 -0.3237 -0.1686 -0.0941
 5129SOL    HW126846   4.155   3.177   7.409 -0.8349 -0.4930  0.3538
 5129SOL    HW226847   4.064   3.243   7.502 -0.3203  0.4008  0.0464
 5130SOL     OW26848   3.284   2.964   5.375  0.2329  0.2178  0.1806
 5130SOL    HW126849   3.362   2.972   5.321 -0.7068  0.9341 -1.0897
 5130SOL    HW226850   3.297   2.880   5.417 -0.3102  0.6421  1.1931
 5131SOL     OW26851   4.355   0.917  17.630 -0.5118  0.0531 -0.0559
 5131SOL    HW126852   4.434   0.878  17.668  0.6845  0.4105 -2.1893
 5131SOL    HW226853   4.344   0.992  17.688 -1.7547 -0.0922 -0.0967
 5132SOL     OW26854   2.994   1.147   2.131 -0.0525  0.3045  0.3512
 5132SOL    HW126855   3.036   1.112   2.052 -0.5961 -0.6290  0.4648
 5132SOL    HW226856   2.908   1.104   2.134 -0.6047  1.6291  3.3443
 5133SOL     OW26857   0.363   2.223   2.988 -0.2788 -0.0603  0.1793
 5133SOL    HW126858   0.299   2.251   2.923  0.8920  2.4905  0.1008
 5133SOL    HW226859   0.396   2.306   3.023  0.0102 -0.5655  1.1011
 5134SOL     OW26860   4.182   3.845   7.207 -0.2911 -0.0832  0.2044
 5134SOL    HW126861   4.234   3.764   7.200 -0.8926 -0.3840 -0.7179
 5134SOL    HW226862   4.126   3.819   7.135  0.0222  0.2169 -0.1462
 5135SOL     OW26863   4.499   2.160   0.692 -0.5040 -1.0058 -0.1208
 5135SOL    HW126864   4.559   2.213   0.641 -0.5398 -0.8495 -0.0003
 5135SOL    HW226865   4.554   2.142   0.768 -0.0258  0.5122 -0.1153
 5136SOL     OW26866   1.342   2.696   6.016  0.0290  0.8178  0.5422
 5136SOL    HW126867   1.412   2.632   6.025 -0.0768  0.7593  0.9668
 5136SOL    HW226868   1.391   2.775   6.037  1.1706  0.5855 -1.2411
 5137SOL     OW26869   0.694   2.801  14.014 -0.0856 -0.3330 -0.3511
 5137SOL    HW126870   0.668   2.838  14.098 -1.4753 -2.4139  0.1473
 5137SOL    HW226871   0.703   2.708  14.036 -1.1733 -0.5096 -0.6586
 5138SOL     OW26872   1.037   2.198   7.120 -0.2207  0.5136  0.4240
 5138SOL    HW126873   0.966   2.243   7.166  0.1063  1.3308  0.1075
 5138SOL    HW226874   1.113   2.253   7.132 -0.2467  0.7416 -0.4571
 5139SOL     OW26875   0.499   3.699   2.174 -0.4110  0.2427 -0.2740
 5139SOL    HW126876   0.443   3.773   2.154  0.5646  0.9787 -0.3007
 5139SOL    HW226877   0.575   3.704   2.116 -0.1776  1.0864  0.1097
 5140SOL     OW26878   0.799   2.987   5.542  0.5308  0.4729 -0.1011
 5140SOL    HW126879   0.875   3.045   5.536  1.7695 -0.8707  2.5645
 5140SOL    HW226880   0.755   3.016   5.462  2.5103  0.1322 -1.3174
 5141SOL     OW26881   4.640   0.741  15.585 -0.5997  0.0683 -0.3719
 5141SOL    HW126882   4.700   0.788  15.643 -1.3321 -1.1686  1.4021
 5141SOL    HW226883   4.559   0.729  15.635  0.0283 -1.5782  0.2441
 5142SOL     OW26884   0.608   2.051   6.400 -0.5198  0.1190  0.0639
 5142SOL    HW126885   0.588   2.144   6.386 -0.7868  0.1479  0.6146
 5142SOL    HW226886   0.568   2.041   6.486  0.0622 -2.2323  0.0445
 5143SOL     OW26887   2.485   4.121   2.888 -0.3447  1.2398 -0.2272
 5143SOL    HW126888   2.521   4.187   2.948 -0.0055 -0.7594  1.7582
 5143SOL    HW226889   2.394   4.148   2.875 -0.4885  1.2935  0.8706
 5144SOL     OW26890   3.607   3.657   9.347 -0.0646 -0.4204  0.2643
 5144SOL    HW126891   3.649   3.677   9.264 -0.0629  0.1109  0.3913
 5144SOL    HW226892   3.518   3.686   9.329  0.5353 -1.1602 -3.7556
 5145SOL     OW26893   4.298   0.830   4.033 -0.8010  0.3639  0.3119
 5145SOL    HW126894   4.323   0.903   3.976 -1.3178 -0.6857 -1.2564
 5145SOL    HW226895   4.206   0.836   4.008 -1.0098  0.2114  1.0473
 5146SOL     OW26896   0.701   4.519  11.564 -0.5667 -0.3075  0.2375
 5146SOL    HW126897   0.742   4.458  11.626 -0.4390  1.1265  1.5754
 5146SOL    HW226898   0.710   4.462  11.488 -1.3161 -1.8793  1.3374
 5147SOL     OW26899   4.067   1.551   5.241 -0.1818 -0.0572 -0.7570
 5147SOL    HW126900   4.096   1.631   5.197  1.3194 -0.6728 -0.9197
 5147SOL    HW226901   4.069   1.586   5.330 -0.5957  0.6525 -1.0287
 5148SOL     OW26902   0.426   0.478   5.495  0.3807 -0.1294  0.2125
 5148SOL    HW126903   0.437   0.552   5.554  1.6683 -0.8908  0.9303
 5148SOL    HW226904   0.359   0.510   5.435 -0.5639 -0.8857  0.8561
 5149SOL     OW26905   4.183   0.689   6.003 -0.5666 -0.2683 -0.3286
 5149SOL    HW126906   4.151   0.603   6.032 -2.4342  0.3545 -0.5671
 5149SOL    HW226907   4.278   0.689   6.018 -0.4685 -2.1157 -0.9102
 5150SOL     OW26908   3.904   4.651   4.604  0.7406  0.2117 -0.1751
 5150SOL    HW126909   3.907   4.556   4.594  1.3215  0.0964  1.1362
 5150SOL    HW226910   3.832   4.661   4.667  0.5457  1.8693 -0.6527
 5151SOL     OW26911   1.120   2.188   1.962 -0.0449  0.9443  0.2622
 5151SOL    HW126912   1.095   2.096   1.959 -0.8685  1.1501  1.0693
 5151SOL    HW226913   1.056   2.223   2.024  0.0242  1.4922  0.0253
 5152SOL     OW26914   4.640   0.837  14.462  0.0084 -0.6726  0.3747
 5152SOL    HW126915   4.718   0.893  14.461 -0.7488  0.4295  1.9899
 5152SOL    HW226916   4.617   0.864  14.551 -0.0320  1.4485 -0.2702
 5153SOL     OW26917   2.064   2.054   0.328  0.5305 -0.2733  0.4173
 5153SOL    HW126918   2.066   1.997   0.251  0.9945  0.5842 -0.2067
 5153SOL    HW226919   1.977   2.043   0.368  0.2762  0.0205 -0.0479
 5154SOL     OW26920   1.649   1.191   4.406  0.8098 -0.4377  0.6627
 5154SOL    HW126921   1.649   1.097   4.386 -0.8115  0.1604 -2.0551
 5154SOL    HW226922   1.632   1.189   4.500  2.8001  0.5768  1.0364
 5155SOL     OW26923   1.352   3.182   4.346  0.4168  0.6985  0.1746
 5155SOL    HW126924   1.406   3.249   4.304 -0.1395  1.1022  0.0986
 5155SOL    HW226925   1.339   3.224   4.431  0.4827  1.1068 -0.0172
 5156SOL     OW26926   3.671   2.903   0.780 -0.0833 -0.6767 -0.7521
 5156SOL    HW126927   3.631   2.824   0.817  0.9999 -1.0771 -0.4559
 5156SOL    HW226928   3.692   2.875   0.691  1.1448 -1.8229 -0.0942
 5157SOL     OW26929   3.275   2.510   4.886  0.0743 -0.3259  0.2021
 5157SOL    HW126930   3.360   2.529   4.847 -0.4290 -2.2910 -1.8287
 5157SOL    HW226931   3.240   2.598   4.871  0.6705 -0.4010 -1.6179
 5158SOL     OW26932   3.342   1.159   7.332 -0.4318 -0.6855  0.7410
 5158SOL    HW126933   3.317   1.248   7.357  1.8193  0.5342 -1.3533
 5158SOL    HW226934   3.437   1.147   7.335 -0.3029 -0.1378 -1.2179
 5159SOL     OW26935   3.505   3.888   4.197  0.4558  0.2134 -0.4391
 5159SOL    HW126936   3.414   3.858   4.191  0.2869  0.7687 -0.5745
 5159SOL    HW226937   3.496   3.965   4.141  1.5500 -1.6572 -3.2129
 5160SOL     OW26938   3.497   2.648   0.620  0.3322 -0.1401 -0.1007
 5160SOL    HW126939   3.533   2.664   0.707 -1.4965 -1.4728  0.8997
 5160SOL    HW226940   3.562   2.589   0.582  1.2420  1.0559 -0.4197
 5161SOL     OW26941   2.650   1.434   4.463  0.5320 -0.1210  0.4329
 5161SOL    HW126942   2.598   1.356   4.484 -0.1710  0.2720  0.1410
 5161SOL    HW226943   2.624   1.494   4.533  1.5418  1.2150 -0.3566
 5162SOL     OW26944   3.113   3.696   7.988  0.1120  0.0606  0.1461
 5162SOL    HW126945   3.195   3.712   8.034  0.6536  0.6803 -1.0174
 5162SOL    HW226946   3.148   3.661   7.906  3.1020  2.0258  0.5795
 5163SOL     OW26947   4.393   0.885  10.017  0.3055  0.4948  0.0906
 5163SOL    HW126948   4.396   0.957  10.079  0.1197 -0.5083  1.2668
 5163SOL    HW226949   4.309   0.895   9.972 -0.6674 -2.7493  1.1423
 5164SOL     OW26950   2.425   4.700   9.320  0.0946 -0.1992 -0.2750
 5164SOL    HW126951   2.505   4.652   9.300 -0.5029 -1.4416  0.3320
 5164SOL    HW226952   2.421   4.690   9.415  4.3207  0.6021 -0.0426
 5165SOL     OW26953   2.917   2.031   5.572 -0.3294 -0.6054 -0.4726
 5165SOL    HW126954   2.893   2.079   5.493  0.1635 -2.7590 -1.9432
 5165SOL    HW226955   2.976   1.962   5.540  1.5076  0.6508  0.2147
 5166SOL     OW26956   1.396   1.065   5.164 -0.2328 -0.3420 -0.2710
 5166SOL    HW126957   1.435   1.018   5.237  1.1156  0.5613 -0.4078
 5166SOL    HW226958   1.448   1.145   5.165  0.4930 -0.8158 -0.1099
 5167SOL     OW26959   0.869   4.140   6.627 -0.5456  0.2283  0.3868
 5167SOL    HW126960   0.841   4.099   6.709  0.6287 -4.3902 -1.4821
 5167SOL    HW226961   0.801   4.207   6.629 -1.7370 -0.9914  0.8570
 5168SOL     OW26962   1.265   4.103   5.781  0.0360  0.6253 -0.2749
 5168SOL    HW126963   1.275   4.103   5.876 -0.7160 -1.2343 -0.1972
 5168SOL    HW226964   1.330   4.038   5.753 -2.4586 -2.7703  1.8241
 5169SOL     OW26965   1.470   4.293   6.595  0.0910 -0.7360  0.0262
 5169SOL    HW126966   1.444   4.349   6.523 -1.7300 -0.9680  0.5053
 5169SOL    HW226967   1.433   4.209   6.568 -0.1361  0.5207 -3.5005
 5170SOL     OW26968   3.597   4.186   4.541 -0.8708  0.0338  0.0824
 5170SOL    HW126969   3.583   4.095   4.514  1.0933 -0.8696  2.1318
 5170SOL    HW226970   3.530   4.200   4.608 -1.1465  0.4692 -0.2839
 5171SOL     OW26971   1.490   2.849   3.772  0.4701  0.3721 -0.0635
 5171SOL    HW126972   1.441   2.822   3.850  0.0102  1.6134  0.0882
 5171SOL    HW226973   1.456   2.937   3.753 -0.9886  0.3161  2.2705
 5172SOL     OW26974   2.847   2.417  15.688  0.2293  0.2236 -0.7683
 5172SOL    HW126975   2.838   2.488  15.626 -1.3032 -0.1006 -0.9122
 5172SOL    HW226976   2.795   2.351  15.642  0.1864  0.1611 -0.6335
 5173SOL     OW26977   4.504   0.353  12.604 -0.2073 -0.5786  0.3478
 5173SOL    HW126978   4.587   0.399  12.590 -1.4274  0.4919 -3.3752
 5173SOL    HW226979   4.464   0.421  12.658  2.2608  0.1702  1.1885
 5174SOL     OW26980   2.124   0.540   3.621 -0.0714 -0.0513 -0.5677
 5174SOL    HW126981   2.032   0.530   3.600 -0.4952  0.9067  0.8334
 5174SOL    HW226982   2.168   0.535   3.536 -0.7464 -0.7016 -0.8764
 5175SOL     OW26983   0.550   3.054   6.004 -0.1972  0.1788  0.6522
 5175SOL    HW126984   0.580   3.033   5.916 -0.5210 -1.0520  0.8345
 5175SOL    HW226985   0.625   3.029   6.058  0.1962 -0.3273 -0.1449
 5176SOL     OW26986   1.328   4.019  16.488  0.8759 -0.3253 -0.0833
 5176SOL    HW126987   1.260   4.043  16.426 -0.3023  2.1577  2.1807
 5176SOL    HW226988   1.277   4.008  16.568 -1.3199 -2.8485 -1.8137
 5177SOL     OW26989   2.005   1.511   7.094  0.5120  0.2179 -0.0766
 5177SOL    HW126990   2.041   1.456   7.025 -2.5517  0.1873 -1.6671
 5177SOL    HW226991   1.910   1.519   7.081  0.2124 -0.9763  1.3959
 5178SOL     OW26992   3.007   4.542   3.017 -1.0241  0.0582 -0.2994
 5178SOL    HW126993   2.963   4.611   3.067 -2.2454 -0.4612 -0.6577
 5178SOL    HW226994   2.991   4.464   3.069 -0.3353  0.3071  0.3019
 5179SOL     OW26995   3.831   4.339   2.581  0.3222 -0.0684  0.7240
 5179SOL    HW126996   3.887   4.377   2.513  0.5253 -2.9061 -0.6753
 5179SOL    HW226997   3.797   4.415   2.629 -0.4354 -1.9408  3.1509
 5180SOL     OW26998   4.068   3.435  15.487 -0.7206  0.5102 -0.0080
 5180SOL    HW126999   4.070   3.530  15.492  1.5081  0.4096  1.1746
 5180SOL    HW227000   4.162   3.421  15.474 -0.7641 -0.2980  0.4960
 5181SOL     OW27001   2.080   3.631   2.213  0.7301 -0.3586 -0.1855
 5181SOL    HW127002   2.101   3.590   2.130  3.1295 -4.2457  2.3349
 5181SOL    HW227003   2.076   3.554   2.271  1.2136 -0.3641 -0.1648
 5182SOL     OW27004   4.054   3.412  10.655 -0.2123  0.2481 -0.4578
 5182SOL    HW127005   4.024   3.359  10.729 -0.5321  0.0290 -0.7467
 5182SOL    HW227006   4.106   3.357  10.596 -2.5648 -1.4843 -0.9155
 5183SOL     OW27007   2.511   2.959  14.358  0.3447  0.3374  0.5023
 5183SOL    HW127008   2.425   2.992  14.334  0.9304  1.6298  0.1400
 5183SOL    HW227009   2.477   2.885  14.407 -1.0343 -0.3955 -1.5569
 5184SOL     OW27010   3.204   0.028   9.737  0.2812  0.6339  0.0902
 5184SOL    HW127011   3.195   0.010   9.830  0.5384  0.4341  0.0749
 5184SOL    HW227012   3.199   4.664   9.706 -1.4662  0.2884  1.4017
 5185SOL     OW27013   2.017   3.002   2.678 -0.1727  0.0100 -0.5175
 5185SOL    HW127014   2.015   3.058   2.756  1.0321  0.1137 -0.5723
 5185SOL    HW227015   2.077   3.046   2.618 -1.5906  1.2752 -1.0267
 5186SOL     OW27016   1.466   4.253   2.402  0.1700 -0.1404  0.0973
 5186SOL    HW127017   1.474   4.293   2.315 -0.4397 -1.2741 -0.4786
 5186SOL    HW227018   1.390   4.296   2.442 -0.6069 -2.4709  1.1395
 5187SOL     OW27019   1.823   3.769   5.083 -0.8920 -0.0457  0.1705
 5187SOL    HW127020   1.878   3.695   5.106 -1.1400  0.3630  2.0418
 5187SOL    HW227021   1.762   3.764   5.157  1.3161  1.1001  2.0590
 5188SOL     OW27022   2.926   1.060  12.333 -0.1646  0.1004  0.6289
 5188SOL    HW127023   2.875   1.141  12.338  0.8076  0.6096  2.2047
 5188SOL    HW227024   3.015   1.095  12.340 -0.1161  0.3815 -1.3517
 5189SOL     OW27025   4.023   4.631  11.876  0.7305  0.6516  0.3946
 5189SOL    HW127026   4.055   4.555  11.925  1.4150  0.2875 -0.6025
 5189SOL    HW227027   3.979   4.590  11.801 -0.2190  0.9895  0.7695
 5190SOL     OW27028   3.439   3.518   4.318 -0.0372  0.2077  0.3094
 5190SOL    HW127029   3.377   3.444   4.316  0.0821  0.0619  1.6889
 5190SOL    HW227030   3.496   3.480   4.252 -0.3324 -1.3466  0.9298
 5191SOL     OW27031   1.057   3.743  12.079 -0.2102  0.4563  0.0238
 5191SOL    HW127032   0.982   3.713  12.027  0.6251 -0.6638 -0.5307
 5191SOL    HW227033   1.034   3.720  12.169 -1.6920 -0.0754 -0.4950
 5192SOL     OW27034   2.052   0.298   0.147 -0.4924 -0.3747  0.2920
 5192SOL    HW127035   2.074   0.362   0.079 -0.7551 -1.1436 -0.5227
 5192SOL    HW227036   2.010   0.224   0.102  1.8024 -2.3246  1.2850
 5193SOL     OW27037   0.742   0.282   2.366  0.1437  0.3837  0.1479
 5193SOL    HW127038   0.815   0.328   2.407  0.7288 -0.8360  0.4752
 5193SOL    HW227039   0.772   0.285   2.275  0.3835 -0.4312  0.1974
 5194SOL     OW27040   3.073   3.076   2.984 -0.0932  0.4172  0.0597
 5194SOL    HW127041   3.129   3.135   2.935 -0.0375  1.7982  1.7748
 5194SOL    HW227042   3.063   3.115   3.071  0.3974  0.8746 -0.0919
 5195SOL     OW27043   1.252   0.192   7.533  0.8394  0.0813 -0.6395
 5195SOL    HW127044   1.178   0.144   7.495  0.4052 -1.2564  1.8422
 5195SOL    HW227045   1.238   0.275   7.489 -2.0646  0.7273  1.4663
 5196SOL     OW27046   0.602   4.007   5.025  0.4365  0.0808 -0.2791
 5196SOL    HW127047   0.638   3.920   5.042  0.6857  0.3958  0.8658
 5196SOL    HW227048   0.550   4.036   5.101  1.4519  1.1818  0.0156
 5197SOL     OW27049   1.904   4.696   3.994  0.3116  0.4056 -0.2846
 5197SOL    HW127050   1.842   4.685   3.922 -1.7039  2.0323  1.2157
 5197SOL    HW227051   1.970   4.633   3.965 -0.4473 -1.8703  2.9572
 5198SOL     OW27052   4.235   3.404   1.725 -0.0300 -0.2946 -0.4496
 5198SOL    HW127053   4.307   3.424   1.784 -1.1391  1.4039  0.3438
 5198SOL    HW227054   4.284   3.347   1.666  2.3739  0.6240  0.6700
 5199SOL     OW27055   3.823   2.755   8.727  0.3908  0.3090  0.1678
 5199SOL    HW127056   3.795   2.667   8.752 -1.5197  0.5205 -1.2183
 5199SOL    HW227057   3.820   2.738   8.633 -0.8344  2.4798 -0.1844
 5200SOL     OW27058   2.487   0.657   3.046 -0.2476  0.3866 -0.2029
 5200SOL    HW127059   2.478   0.741   3.001  1.8934  1.3556  1.1494
 5200SOL    HW227060   2.518   0.590   2.985  0.2203 -0.6144  1.1329
 5201SOL     OW27061   4.370   2.615  12.117 -0.0116  0.0576  0.6964
 5201SOL    HW127062   4.462   2.592  12.132 -0.2257 -0.3973  1.3269
 5201SOL    HW227063   4.329   2.548  12.172 -0.9394  0.9702  1.1151
 5202SOL     OW27064   0.383   4.485   6.686  0.1089 -0.4393  0.0316
 5202SOL    HW127065   0.451   4.551   6.698 -1.4580  1.1228  0.4197
 5202SOL    HW227066   0.394   4.436   6.767 -1.7513  0.6765  0.9542
 5203SOL     OW27067   3.429   3.549   3.999 -0.5000 -0.3815  0.4092
 5203SOL    HW127068   3.391   3.477   3.949 -1.2919  1.8054 -2.1283
 5203SOL    HW227069   3.509   3.559   3.948 -1.3944 -1.2473 -1.1366
 5204SOL     OW27070   1.218   0.065   7.806  0.5575 -0.0871  0.5462
 5204SOL    HW127071   1.310   0.044   7.819  1.2639  2.7377  0.0633
 5204SOL    HW227072   1.227   0.143   7.752 -0.9818 -0.4628 -0.2512
 5205SOL     OW27073   0.885   2.453  17.371 -0.5996  0.3029 -0.1118
 5205SOL    HW127074   0.867   2.406  17.289 -0.9869  1.2505 -0.5645
 5205SOL    HW227075   0.811   2.423  17.424 -1.2882 -0.9074 -1.7438
 5206SOL     OW27076   2.848   3.269  11.406 -0.4887 -0.1516 -0.1344
 5206SOL    HW127077   2.785   3.238  11.341 -2.0002  1.5730  0.5099
 5206SOL    HW227078   2.880   3.199  11.462 -0.2507 -0.2030 -0.3360
 5207SOL     OW27079   2.322   1.304   3.578 -0.2649 -0.8282  0.1262
 5207SOL    HW127080   2.334   1.209   3.581 -0.8422 -0.9215 -0.4747
 5207SOL    HW227081   2.357   1.332   3.662  0.2084 -0.0354 -0.3307
 5208SOL     OW27082   4.634   4.516   4.946  0.3364  0.3911  0.6528
 5208SOL    HW127083   4.631   4.598   4.897 -1.5990  0.0071  0.1431
 5208SOL    HW227084   4.549   4.474   4.935 -0.1224  1.8915 -1.4958
 5209SOL     OW27085   4.657   1.737   9.435  0.2285  0.1576  0.4269
 5209SOL    HW127086   4.593   1.675   9.400  1.7444  0.1537 -2.3781
 5209SOL    HW227087   4.594   1.803   9.465 -2.5992 -0.9627 -3.0584
 5210SOL     OW27088   1.132   3.596   5.661 -0.4662 -0.2347  1.2054
 5210SOL    HW127089   1.201   3.536   5.689 -0.0432 -0.9955 -1.5389
 5210SOL    HW227090   1.061   3.568   5.720  0.7378 -0.0445  2.7512
 5211SOL     OW27091   4.150   1.032   3.266 -0.2903  0.4688  0.0798
 5211SOL    HW127092   4.197   1.089   3.205  0.8935  0.4330  0.9608
 5211SOL    HW227093   4.073   1.003   3.216 -0.4455  0.9633  0.0201
 5212SOL     OW27094   2.923   0.422   7.815 -0.2672 -0.1588 -0.0341
 5212SOL    HW127095   3.001   0.473   7.839 -0.0300 -0.2806 -0.5429
 5212SOL    HW227096   2.904   0.467   7.733  0.1869 -1.3021 -0.7571
 5213SOL     OW27097   3.003   3.542   4.298 -0.0162 -0.1557  0.1026
 5213SOL    HW127098   2.908   3.553   4.287  0.0557 -0.4002 -0.7492
 5213SOL    HW227099   3.010   3.513   4.388  1.9671 -1.2289 -0.4008
 5214SOL     OW27100   2.438   1.896   3.611 -0.0112 -0.4111 -0.1229
 5214SOL    HW127101   2.370   1.831   3.629  0.2362 -0.9221 -1.0773
 5214SOL    HW227102   2.487   1.862   3.536 -2.1622 -1.2228 -1.1379
 5215SOL     OW27103   0.791   2.896   6.257  0.2010 -0.9364  0.4672
 5215SOL    HW127104   0.853   2.869   6.325 -1.9477 -1.3142  2.3053
 5215SOL    HW227105   0.838   2.974   6.229 -0.9638 -0.3433  0.1542
 5216SOL     OW27106   0.946   1.740   4.407 -0.3102  0.2757 -0.1126
 5216SOL    HW127107   0.951   1.793   4.486 -1.8892 -1.9129  1.4502
 5216SOL    HW227108   0.927   1.659   4.454 -0.9145 -0.1567 -1.0919
 5217SOL     OW27109   2.273   3.298   2.166  0.1018 -0.5864 -0.2062
 5217SOL    HW127110   2.220   3.344   2.101  2.7315  1.8783 -0.6337
 5217SOL    HW227111   2.361   3.327   2.141  0.4859  0.7077  2.5765
 5218SOL     OW27112   2.953   2.756   2.687 -0.2662  0.0960  0.0329
 5218SOL    HW127113   2.883   2.806   2.644 -0.1880 -1.3572 -1.7600
 5218SOL    HW227114   2.896   2.686   2.718  0.4408  0.1683  1.4825
 5219SOL     OW27115   1.174   1.261  15.328 -0.0140 -0.6512  0.4058
 5219SOL    HW127116   1.146   1.294  15.242 -0.7897  1.0907  1.3288
 5219SOL    HW227117   1.094   1.246  15.379 -2.2754  1.3769 -2.5129
 5220SOL     OW27118   0.179   2.690   7.079 -0.2749  0.0607 -0.4255
 5220SOL    HW127119   0.154   2.601   7.104  2.3066  0.1182  2.3271
 5220SOL    HW227120   0.163   2.746   7.155  1.4615  1.8035 -1.3418
 5221SOL     OW27121   1.882   4.625   3.554  0.0470  0.0521  0.1611
 5221SOL    HW127122   1.958   4.678   3.527  1.0185  0.0473  2.8599
 5221SOL    HW227123   1.923   4.559   3.610  1.8429  1.9362  1.0716
 5222SOL     OW27124   3.848   0.810   8.583  0.2952 -0.0734 -0.0199
 5222SOL    HW127125   3.937   0.812   8.547  0.6385 -1.9898  0.7193
 5222SOL    HW227126   3.859   0.844   8.672  1.0250 -1.4131  0.4051
 5223SOL     OW27127   1.666   2.079   2.069  0.0558  0.1887  0.2730
 5223SOL    HW127128   1.570   2.072   2.073  0.0854 -1.3374 -1.9088
 5223SOL    HW227129   1.667   2.044   1.980 -2.2585 -0.4397  0.4719
 5224SOL     OW27130   1.481   1.711   3.876  0.1891  0.3609 -0.3880
 5224SOL    HW127131   1.386   1.702   3.872  0.2138  0.8979 -2.4748
 5224SOL    HW227132   1.508   1.658   3.950 -0.4244  0.4756 -0.0808
 5225SOL     OW27133   0.036   1.428  14.852 -0.0476  0.1394  1.1974
 5225SOL    HW127134   0.098   1.439  14.780 -0.8848  2.4006  0.8245
 5225SOL    HW227135   0.073   1.495  14.909  2.6511  0.5723 -1.0545
 5226SOL     OW27136   4.272   2.070   3.455 -0.5204 -0.1649 -0.2320
 5226SOL    HW127137   4.348   2.032   3.411 -0.3489  0.6749 -0.6578
 5226SOL    HW227138   4.195   2.069   3.398 -0.3959 -0.2285 -0.3992
 5227SOL     OW27139   1.160   2.087   8.511 -0.2308  0.0083  0.1927
 5227SOL    HW127140   1.254   2.073   8.519 -0.0953 -0.7166 -2.7777
 5227SOL    HW227141   1.145   2.162   8.569 -1.5759  0.2778 -0.4896
 5228SOL     OW27142   4.700   3.809   1.775 -0.1071 -0.7236 -0.0363
 5228SOL    HW127143   4.703   3.798   1.870 -0.5184  0.8161  0.1484
 5228SOL    HW227144   4.617   3.857   1.776  0.5974  0.4902 -0.3269
 5229SOL     OW27145   4.689   3.947   5.120 -0.6391  0.4321  0.2023
 5229SOL    HW127146   4.662   3.922   5.209 -1.2162  0.2997 -0.0150
 5229SOL    HW227147   4.699   3.862   5.078  0.1744  0.9065 -0.5632
 5230SOL     OW27148   1.087   1.835   8.004  0.5163 -0.0567 -0.0093
 5230SOL    HW127149   1.157   1.805   7.947 -0.3770 -2.5534  0.2151
 5230SOL    HW227150   1.142   1.867   8.075 -0.5052  0.1119  0.7091
 5231SOL     OW27151   2.609   0.422   7.448 -0.6941 -0.1251  0.2121
 5231SOL    HW127152   2.698   0.418   7.415  0.0923 -0.9806  2.4509
 5231SOL    HW227153   2.615   0.345   7.505  1.1151 -1.4112 -1.6818
 5232SOL     OW27154   0.549   3.687   4.843 -0.1412  0.1675 -0.2195
 5232SOL    HW127155   0.458   3.674   4.870 -0.4054 -1.0816 -1.6622
 5232SOL    HW227156   0.593   3.711   4.924  0.5430  1.8541 -1.0854
 5233SOL     OW27157   3.014   2.498   4.312  0.8165  0.0323 -0.3789
 5233SOL    HW127158   2.929   2.512   4.271  1.3132 -0.5045 -1.5979
 5233SOL    HW227159   3.066   2.453   4.245  0.1438  0.2013 -1.0239
 5234SOL     OW27160   3.944   0.382   6.602  0.3925  0.6116  0.5171
 5234SOL    HW127161   3.981   0.300   6.636 -0.1150  0.3083  0.3392
 5234SOL    HW227162   3.981   0.452   6.656  1.2529 -0.1501  0.9236
 5235SOL     OW27163   2.589   0.017   4.869 -0.0418  0.6181 -0.4043
 5235SOL    HW127164   2.611   0.052   4.782 -2.0845 -1.5780 -1.8032
 5235SOL    HW227165   2.571   4.651   4.852  2.5910 -0.1184  0.7965
 5236SOL     OW27166   1.155   1.471   5.825  0.1083  0.6753 -0.3418
 5236SOL    HW127167   1.090   1.402   5.807  0.7872 -0.2169  0.6016
 5236SOL    HW227168   1.224   1.431   5.772  1.1384 -0.2763  1.6806
 5237SOL     OW27169   2.506   1.218  13.663  0.0548  0.1975  0.3027
 5237SOL    HW127170   2.411   1.214  13.657 -0.0600  2.1989  0.5436
 5237SOL    HW227171   2.524   1.296  13.610  0.8255 -0.4861 -0.4447
 5238SOL     OW27172   2.296   3.579   2.482  0.3844  0.3884 -0.1336
 5238SOL    HW127173   2.258   3.492   2.477  2.6114 -0.7117  2.0078
 5238SOL    HW227174   2.251   3.617   2.407 -0.2429  1.8596  0.9700
 5239SOL     OW27175   2.935   4.021   3.128  0.1348 -0.6313  0.0299
 5239SOL    HW127176   2.967   3.961   3.061  1.4611 -1.5484  1.4891
 5239SOL    HW227177   2.898   3.966   3.196  1.8653 -0.5131  1.0804
 5240SOL     OW27178   3.723   1.628   2.345 -0.1227  0.5044  0.5516
 5240SOL    HW127179   3.804   1.671   2.321  0.8787  0.0016  3.0081
 5240SOL    HW227180   3.710   1.565   2.274  1.5621  0.3163  0.4277
 5241SOL     OW27181   2.537   2.359   4.742 -0.2361  0.2665 -0.6833
 5241SOL    HW127182   2.585   2.278   4.726  0.3618  0.2145  1.4363
 5241SOL    HW227183   2.498   2.342   4.827  1.6404  1.5317  0.4175
 5242SOL     OW27184   2.714   2.104  13.210  0.0168  0.2101  0.4237
 5242SOL    HW127185   2.656   2.032  13.186 -1.3345  1.4254  0.0516
 5242SOL    HW227186   2.797   2.060  13.224 -0.4859 -0.7271  0.4394
 5243SOL     OW27187   1.702   2.673   7.747 -0.3734 -0.2763  0.9102
 5243SOL    HW127188   1.785   2.713   7.775 -1.3733  1.3957  1.4979
 5243SOL    HW227189   1.635   2.734   7.778  0.2186  0.9439 -0.2065
 5244SOL     OW27190   3.076   1.073   7.637  0.3511  0.2650 -0.4927
 5244SOL    HW127191   3.106   1.087   7.727 -0.5272  0.5039 -0.2449
 5244SOL    HW227192   3.014   1.003   7.657 -0.8989  1.4323 -0.2804
 5245SOL     OW27193   2.097   0.759   4.119  0.3332 -0.2779  0.2574
 5245SOL    HW127194   2.100   0.816   4.043 -2.7102 -1.4988 -0.7547
 5245SOL    HW227195   2.097   0.820   4.193 -0.2170 -0.0239  0.0513
 5246SOL     OW27196   2.864   3.832  14.030  0.0447 -0.7816  0.4820
 5246SOL    HW127197   2.900   3.746  14.008 -0.1011 -0.7110 -0.0466
 5246SOL    HW227198   2.810   3.847  13.952  0.3187  0.7280  0.5765
 5247SOL     OW27199   2.177   4.323   8.892  0.1456  1.0201  0.1987
 5247SOL    HW127200   2.136   4.405   8.921  3.6572  1.4168  3.9396
 5247SOL    HW227201   2.106   4.262   8.910 -0.5942  2.2179  1.3413
 5248SOL     OW27202   3.019   3.197   3.234 -0.1180  0.1174  0.2193
 5248SOL    HW127203   2.953   3.264   3.251  0.6925  1.2151 -0.9678
 5248SOL    HW227204   2.984   3.125   3.287 -3.1495  0.5213 -1.2149
 5249SOL     OW27205   0.403   2.362   8.963  0.0029  0.0307 -0.2913
 5249SOL    HW127206   0.360   2.446   8.978 -0.0374 -0.0303 -0.0715
 5249SOL    HW227207   0.474   2.393   8.907 -0.4842  1.5570 -0.0556
 5250SOL     OW27208   1.480   0.862   2.118 -0.0212  0.3059 -0.2467
 5250SOL    HW127209   1.520   0.941   2.082  1.5229  0.1660  1.1284
 5250SOL    HW227210   1.536   0.843   2.193 -0.6631 -0.2714  0.0897
 5251SOL     OW27211   1.450   1.809   6.602  0.0059  0.4906  0.8033
 5251SOL    HW127212   1.414   1.723   6.625  0.5773  0.4612  1.6372
 5251SOL    HW227213   1.443   1.853   6.687 -2.6013  1.9442 -0.1980
 5252SOL     OW27214   0.354   2.452   5.877 -0.0768 -0.0988 -0.3130
 5252SOL    HW127215   0.387   2.538   5.853 -2.2365  0.2345 -2.0199
 5252SOL    HW227216   0.424   2.428   5.938 -0.1102  0.1682 -0.1694
 5253SOL     OW27217   4.322   1.433   2.816  0.2707 -0.0944 -0.2272
 5253SOL    HW127218   4.244   1.392   2.781 -0.1413  0.1897  0.3451
 5253SOL    HW227219   4.374   1.353   2.815  0.1946 -0.1465 -0.0924
 5254SOL     OW27220   2.520   1.882  17.574 -0.2555  0.3006 -0.9658
 5254SOL    HW127221   2.590   1.869  17.510 -0.0494  0.7541 -0.8348
 5254SOL    HW227222   2.491   1.792  17.589 -1.0446  0.6290 -0.4950
 5255SOL     OW27223   2.492   4.346  13.018 -0.0579  0.5431  0.5819
 5255SOL    HW127224   2.442   4.409  12.966  1.9151 -0.6338 -2.7549
 5255SOL    HW227225   2.450   4.260  13.006 -0.2098  0.6809  0.1011
 5256SOL     OW27226   3.373   0.894   1.787  0.1089  0.1065  0.5817
 5256SOL    HW127227   3.302   0.871   1.728  0.8160 -0.0572 -0.2021
 5256SOL    HW227228   3.377   0.988   1.768  1.8499  0.1427  1.0933
 5257SOL     OW27229   1.869   3.591   8.948 -0.6228  0.1239  0.2171
 5257SOL    HW127230   1.930   3.591   9.021 -1.7978  1.4368  1.2066
 5257SOL    HW227231   1.812   3.516   8.966  0.1592 -0.8349 -1.2224
 5258SOL     OW27232   2.250   4.335   3.798  0.0536  0.1363 -0.3428
 5258SOL    HW127233   2.234   4.247   3.763  0.7485 -0.3119  0.4522
 5258SOL    HW227234   2.339   4.328   3.830  0.1856 -0.3819 -0.8268
 5259SOL     OW27235   3.063   3.673   7.574  0.0016 -0.0067  0.6730
 5259SOL    HW127236   3.007   3.629   7.638  2.9412 -2.1212  1.7395
 5259SOL    HW227237   3.134   3.680   7.638  2.1214  0.0535 -1.7388
 5260SOL     OW27238   3.865   3.631   7.288  0.3516  0.0760  0.2158
 5260SOL    HW127239   3.793   3.683   7.251 -0.2457  1.0226  2.7010
 5260SOL    HW227240   3.907   3.586   7.215  0.9083  2.5016 -0.9835
 5261SOL     OW27241   0.628   1.075   7.320  0.1975 -0.2388  0.6456
 5261SOL    HW127242   0.637   0.993   7.271 -1.3224 -0.8070  1.3010
 5261SOL    HW227243   0.693   1.131   7.279 -0.5655 -0.1885 -0.4820
 5262SOL     OW27244   3.314   3.094   3.640  0.6788 -0.1515 -0.0315
 5262SOL    HW127245   3.222   3.119   3.630  0.5193 -0.4260  0.7141
 5262SOL    HW227246   3.361   3.148   3.577  0.6001 -1.0438 -0.8522
 5263SOL     OW27247   0.970   0.182   3.533 -0.0698 -0.0835  0.2476
 5263SOL    HW127248   0.936   0.168   3.621  1.8591 -3.1102  0.5191
 5263SOL    HW227249   0.887   0.179   3.486 -0.5743  1.0797  1.0762
 5264SOL     OW27250   1.858   2.507  10.258 -0.2086  0.3981  0.5823
 5264SOL    HW127251   1.893   2.587  10.296  1.9523 -0.3405  0.1587
 5264SOL    HW227252   1.771   2.508  10.298 -0.6852  0.2211 -0.4289
 5265SOL     OW27253   3.636   1.052   4.937 -0.2334  0.0708  0.0930
 5265SOL    HW127254   3.722   1.067   4.976 -0.6717 -1.6680  1.7113
 5265SOL    HW227255   3.589   1.125   4.978 -1.9200 -0.0828 -1.5859
 5266SOL     OW27256   2.511   0.321  16.315 -0.3015 -0.1937  0.0051
 5266SOL    HW127257   2.571   0.370  16.259  0.2106  1.3656  1.9213
 5266SOL    HW227258   2.446   0.387  16.338  0.5840  0.4950  0.4982
 5267SOL     OW27259   2.601   2.441   7.675  0.3619 -0.5780  0.3024
 5267SOL    HW127260   2.551   2.482   7.746 -0.6284 -1.0482 -0.1158
 5267SOL    HW227261   2.685   2.483   7.691 -0.3112  0.8434  0.0243
 5268SOL     OW27262   1.185   1.850  16.591  0.4634 -0.3348 -0.2413
 5268SOL    HW127263   1.107   1.821  16.640  0.0990  0.8063 -0.1473
 5268SOL    HW227264   1.149   1.928  16.549  0.6899  1.2635  2.4915
 5269SOL     OW27265   2.119   0.889   3.623  0.2233  0.2124 -0.5617
 5269SOL    HW127266   2.092   0.845   3.543  1.0267  0.8191 -1.1759
 5269SOL    HW227267   2.140   0.975   3.587 -3.3397  1.5437  0.5948
 5270SOL     OW27268   3.530   0.108  17.144  0.0763  0.4777 -0.1334
 5270SOL    HW127269   3.610   0.121  17.093 -0.4955  1.7887 -0.6955
 5270SOL    HW227270   3.501   0.018  17.126  1.4011 -0.1131  0.7414
 5271SOL     OW27271   0.039   0.186   5.189 -0.5358  0.3766  0.3514
 5271SOL    HW127272   0.086   0.105   5.171 -1.0318  0.1852 -0.1051
 5271SOL    HW227273   4.704   0.189   5.115 -0.2308  2.4856  0.1656
 5272SOL     OW27274   4.263   0.658   9.620  0.0122  0.3710  0.3800
 5272SOL    HW127275   4.169   0.636   9.623 -0.2296  1.1282 -2.2338
 5272SOL    HW227276   4.305   0.576   9.594  0.6497  0.8833 -0.1812
 5273SOL     OW27277   2.273   2.446   2.409  0.0252 -0.0691  0.3583
 5273SOL    HW127278   2.304   2.440   2.318  0.5734 -0.3241  0.5606
 5273SOL    HW227279   2.187   2.486   2.401 -0.8976 -2.7770 -3.6219
 5274SOL     OW27280   2.160   4.522   0.022  0.5049  0.2231 -0.2315
 5274SOL    HW127281   2.139   4.434  17.697 -3.1890  1.1090 -0.2302
 5274SOL    HW227282   2.165   4.500   0.115 -2.0782 -0.8994 -0.3628
 5275SOL     OW27283   1.736   3.411   4.125 -0.3068 -0.1549  0.5761
 5275SOL    HW127284   1.700   3.358   4.195 -1.1241 -0.2153  0.1161
 5275SOL    HW227285   1.819   3.364   4.117 -0.5457 -0.5187  0.2299
 5276SOL     OW27286   2.001   1.988   4.769 -0.5809  0.8550  0.5242
 5276SOL    HW127287   2.019   1.953   4.856 -0.1856 -0.0981  0.0595
 5276SOL    HW227288   1.918   2.033   4.780 -1.9267 -1.5886  0.2537
 5277SOL     OW27289   0.875   2.461   8.269  0.2290  0.1630 -0.4863
 5277SOL    HW127290   0.889   2.547   8.309  1.7862 -1.0687  1.5990
 5277SOL    HW227291   0.943   2.403   8.304  0.7361  0.8380 -0.3571
 5278SOL     OW27292   2.188   3.341   3.985  0.5805 -0.6812 -0.9525
 5278SOL    HW127293   2.123   3.331   4.055  2.2708 -0.3826  0.6630
 5278SOL    HW227294   2.154   3.420   3.943  1.1611 -0.0788 -0.2713
 5279SOL     OW27295   1.903   4.678   2.120 -0.1346  0.3362  0.3827
 5279SOL    HW127296   1.913   4.703   2.028  2.4935  3.2267  1.4576
 5279SOL    HW227297   1.817   4.635   2.124  0.7027 -1.3862 -0.0283
 5280SOL     OW27298   4.666   2.689   2.353 -0.0610 -0.1767 -0.2251
 5280SOL    HW127299   4.662   2.669   2.446 -0.7640  0.6886 -0.0644
 5280SOL    HW227300   4.666   2.784   2.362 -1.7515 -0.1558 -0.4664
 5281SOL     OW27301   0.015   3.053   4.986  0.4055  0.6320  0.2198
 5281SOL    HW127302   0.093   2.997   4.977 -1.3569 -1.8278  0.4953
 5281SOL    HW227303   4.672   3.006   4.940  0.7374 -0.9124  1.2946
 5282SOL     OW27304   0.283   0.190  16.055  0.2232  0.1372 -0.1890
 5282SOL    HW127305   0.224   0.214  16.126 -0.4510 -0.8805 -0.3992
 5282SOL    HW227306   0.367   0.178  16.099  0.9602 -0.7255 -1.7944
 5283SOL     OW27307   4.255   1.709   7.647  0.2541 -0.1358 -0.8291
 5283SOL    HW127308   4.222   1.781   7.702  2.0837 -0.4813  0.7460
 5283SOL    HW227309   4.350   1.715   7.661  0.4014 -0.7017 -1.5675
 5284SOL     OW27310   1.307   2.943   7.784 -0.2320  0.4498 -0.1351
 5284SOL    HW127311   1.249   2.872   7.754 -2.2087  0.7230  3.0770
 5284SOL    HW227312   1.369   2.906   7.846  1.3273  0.4835 -1.6673
 5285SOL     OW27313   4.376   1.873   2.244 -0.2562  0.6326  0.9041
 5285SOL    HW127314   4.394   1.964   2.220 -1.0868  0.7577  0.7746
 5285SOL    HW227315   4.436   1.823   2.188 -1.4253 -0.3985  0.5710
 5286SOL     OW27316   2.290   0.962   9.507 -0.3181  0.4954  0.3155
 5286SOL    HW127317   2.334   1.047   9.507  0.9562 -0.1626 -0.6556
 5286SOL    HW227318   2.368   0.907   9.506 -0.1734  0.7074 -0.0658
 5287SOL     OW27319   3.352   2.737   3.327 -0.3857 -0.2661  0.0416
 5287SOL    HW127320   3.448   2.728   3.328 -0.5094 -1.5648  1.1149
 5287SOL    HW227321   3.348   2.773   3.239 -0.7444  0.5796  0.4121
 5288SOL     OW27322   2.528   3.305   5.150  0.5463  0.3965 -0.3947
 5288SOL    HW127323   2.526   3.239   5.081  0.0660  0.7524 -0.7220
 5288SOL    HW227324   2.608   3.274   5.193  0.6111 -0.4158 -1.1037
 5289SOL     OW27325   3.715   1.661  11.059 -0.1767 -0.2789  0.1611
 5289SOL    HW127326   3.627   1.623  11.067  0.0475 -0.0899  3.4008
 5289SOL    HW227327   3.730   1.684  11.151 -1.6915  0.7190  0.1625
 5290SOL     OW27328   2.896   1.900   2.688  0.4853  0.1643  0.8721
 5290SOL    HW127329   2.803   1.899   2.667  0.5779 -0.6904  0.5102
 5290SOL    HW227330   2.933   1.950   2.615 -1.9692  0.9372  0.1642
 5291SOL     OW27331   3.803   3.994   7.630 -0.2578 -0.4182  0.3628
 5291SOL    HW127332   3.811   4.041   7.547 -0.9972  0.4264  0.7787
 5291SOL    HW227333   3.887   4.013   7.671  0.1908 -1.5992 -0.0037
 5292SOL     OW27334   2.719   1.060  14.519 -0.0938  0.2293  0.2200
 5292SOL    HW127335   2.790   1.009  14.558  1.0983  1.6792 -0.0728
 5292SOL    HW227336   2.761   1.144  14.499  1.0525 -0.5065 -0.4325
 5293SOL     OW27337   1.723   1.478   9.173  0.5796  0.1514 -0.2851
 5293SOL    HW127338   1.652   1.542   9.176 -0.1369 -0.6045 -1.0656
 5293SOL    HW227339   1.804   1.529   9.178  0.8314 -0.2876  0.1106
 5294SOL     OW27340   3.594   0.830   5.219 -0.0382 -0.3330  0.7706
 5294SOL    HW127341   3.666   0.863   5.167 -1.8426 -0.8465 -2.0538
 5294SOL    HW227342   3.508   0.868   5.200  0.7395 -0.1328 -2.2260
 5295SOL     OW27343   1.498   0.611   8.335 -0.0198  0.3892 -0.6248
 5295SOL    HW127344   1.414   0.591   8.293  0.1181 -1.5020  0.0152
 5295SOL    HW227345   1.524   0.698   8.305  1.5229 -0.0522 -0.5899
 5296SOL     OW27346   3.331   3.986   5.390 -0.6270 -0.2932 -0.1896
 5296SOL    HW127347   3.255   3.927   5.385 -2.0382  1.5037 -0.2118
 5296SOL    HW227348   3.399   3.920   5.378  0.6629  1.0977 -0.5124
 5297SOL     OW27349   0.895   0.844   8.806 -0.4690 -0.3793 -0.4564
 5297SOL    HW127350   0.957   0.779   8.839  2.1981  1.9456 -0.8485
 5297SOL    HW227351   0.847   0.792   8.741 -0.4309  2.0931 -2.4554
 5298SOL     OW27352   0.909   1.106  11.412  0.8205 -0.0445 -0.4231
 5298SOL    HW127353   1.004   1.108  11.403  0.9983  0.4406  1.6845
 5298SOL    HW227354   0.882   1.191  11.446 -0.6272 -0.3323 -0.8559
 5299SOL     OW27355   4.500   2.305   3.915  0.2497  0.7351  0.5487
 5299SOL    HW127356   4.496   2.322   4.009 -4.6381  0.8545  0.3455
 5299SOL    HW227357   4.443   2.375   3.882  0.5044 -0.5786 -2.6619
 5300SOL     OW27358   3.710   3.977   6.799  0.6146 -0.2711 -0.0281
 5300SOL    HW127359   3.720   3.882   6.805 -0.1243 -0.3242  0.3202
 5300SOL    HW227360   3.623   3.993   6.835  0.3584 -1.1162 -0.2631
 5301SOL     OW27361   4.403   0.717  15.685 -0.4339 -0.2188  0.3239
 5301SOL    HW127362   4.393   0.720  15.780  1.8296  2.5801  0.4934
 5301SOL    HW227363   4.311   0.726  15.659 -0.0507  2.1285 -0.3004
 5302SOL     OW27364   3.988   2.572   3.141  0.6772  0.3943  0.0251
 5302SOL    HW127365   3.934   2.593   3.065  0.1225 -0.8941  0.0674
 5302SOL    HW227366   3.941   2.619   3.210 -0.4716 -0.2723 -0.3068
 5303SOL     OW27367   3.334   1.315   7.982 -0.1648  0.7800  0.1289
 5303SOL    HW127368   3.374   1.376   7.920  0.7232 -0.3464 -0.3996
 5303SOL    HW227369   3.239   1.329   7.988 -0.2568  0.6497 -0.9158
 5304SOL     OW27370   1.136   0.395   8.839  0.0092  0.0198  0.4914
 5304SOL    HW127371   1.144   0.426   8.749 -1.1828 -0.8293  0.0977
 5304SOL    HW227372   1.225   0.359   8.849 -0.9220 -2.8087 -1.3217
 5305SOL     OW27373   1.428   4.235   5.094 -0.4220  0.4335  0.0344
 5305SOL    HW127374   1.479   4.222   5.013 -3.0917 -1.9985 -1.2550
 5305SOL    HW227375   1.493   4.253   5.162 -2.2211 -0.4630  1.9791
 5306SOL     OW27376   1.683   4.685   1.566  0.4030  0.7866 -0.0781
 5306SOL    HW127377   1.705   4.601   1.606  0.5429  1.0157  0.3299
 5306SOL    HW227378   1.673   4.656   1.475  0.3329 -2.3546  0.9320
 5307SOL     OW27379   4.630   1.560   2.399  0.6412  0.1915  0.7695
 5307SOL    HW127380   4.578   1.600   2.469 -1.6409 -1.3682 -0.0265
 5307SOL    HW227381   4.576   1.572   2.321  1.8611  0.7590  0.0172
 5308SOL     OW27382   0.800   0.193  16.989  0.3432 -0.0990  0.3332
 5308SOL    HW127383   0.791   0.180  16.894  0.7262  1.2452  0.1216
 5308SOL    HW227384   0.730   0.257  16.999  1.5155  1.5006 -1.7494
 5309SOL     OW27385   4.032   2.583  14.626 -0.0419 -0.2384  0.6113
 5309SOL    HW127386   4.003   2.672  14.608 -0.3339 -0.9358 -2.4324
 5309SOL    HW227387   3.974   2.563  14.699  1.5670  1.1396  2.2611
 5310SOL     OW27388   2.583   0.932   4.979  0.1972  0.1183 -0.0735
 5310SOL    HW127389   2.540   0.874   4.916 -0.5040  0.7675 -0.1970
 5310SOL    HW227390   2.514   0.921   5.045  0.7520 -4.4370 -0.3133
 5311SOL     OW27391   1.944   2.832  16.228 -0.1578 -0.3333  0.8032
 5311SOL    HW127392   1.921   2.835  16.321 -0.0338 -0.8261  0.8486
 5311SOL    HW227393   2.038   2.813  16.227  0.3175  1.8311  3.0413
 5312SOL     OW27394   3.920   4.166  10.296  0.7158 -0.1234  0.0361
 5312SOL    HW127395   3.939   4.134  10.384  0.3497 -0.5875 -0.0466
 5312SOL    HW227396   3.969   4.097  10.251  0.3838 -0.3269 -0.0169
 5313SOL     OW27397   2.395   0.592   9.484  0.6571 -0.2995  0.1273
 5313SOL    HW127398   2.429   0.535   9.415 -2.1731  1.5886 -2.7973
 5313SOL    HW227399   2.302   0.584   9.465  0.7437 -1.2791  0.1063
 5314SOL     OW27400   4.430   2.806  11.887 -0.3364 -0.4695 -0.0927
 5314SOL    HW127401   4.489   2.776  11.956  1.6600  0.5961 -1.3526
 5314SOL    HW227402   4.497   2.827  11.823 -1.3334 -0.1828 -1.0330
 5315SOL     OW27403   1.792   0.741   6.545  0.3934  0.3600 -0.3277
 5315SOL    HW127404   1.820   0.672   6.605 -0.8546 -0.8917 -1.1804
 5315SOL    HW227405   1.707   0.709   6.517 -0.1383  2.1831 -0.8239
 5316SOL     OW27406   0.662   3.041   1.745 -0.2574  0.1863  0.0278
 5316SOL    HW127407   0.709   3.124   1.746 -1.5237  0.9444 -2.3516
 5316SOL    HW227408   0.694   2.996   1.666 -0.3343  1.8564 -0.9592
 5317SOL     OW27409   0.148   0.112  12.993 -0.7666  0.1433  0.2365
 5317SOL    HW127410   0.090   0.056  13.045  3.1272 -1.0723  3.2843
 5317SOL    HW227411   0.132   0.079  12.905 -0.5347  0.3891  0.1043
 5318SOL     OW27412   2.091   1.805   8.794 -0.2494  0.4366 -0.0625
 5318SOL    HW127413   2.186   1.790   8.799 -0.5339 -0.6804  2.2974
 5318SOL    HW227414   2.067   1.759   8.874  1.3105 -1.2462 -0.5741
 5319SOL     OW27415   2.107   0.396  15.968  0.0217 -0.5524  0.2896
 5319SOL    HW127416   2.150   0.375  15.885 -0.8170 -0.4261 -0.1739
 5319SOL    HW227417   2.103   0.491  15.973  0.9844 -0.3863 -2.1321
 5320SOL     OW27418   2.323   2.135   6.832 -0.2945  0.4492  0.1941
 5320SOL    HW127419   2.384   2.131   6.905  0.2492 -0.0642 -0.2841
 5320SOL    HW227420   2.281   2.049   6.831 -1.2446  0.9387 -1.4315
 5321SOL     OW27421   3.015   4.288   6.791  0.3093  0.1079 -0.5342
 5321SOL    HW127422   2.948   4.357   6.789  1.4687  1.2819  0.3771
 5321SOL    HW227423   3.027   4.279   6.885 -1.0485  0.2754 -0.3378
 5322SOL     OW27424   2.130   3.264   5.927 -0.2337  0.8089 -0.1106
 5322SOL    HW127425   2.051   3.296   5.884 -1.1110 -0.0840  0.8479
 5322SOL    HW227426   2.192   3.243   5.857 -0.0660  0.9201  0.0040
 5323SOL     OW27427   0.483   4.089   8.128 -0.5455  0.2254 -0.0288
 5323SOL    HW127428   0.395   4.051   8.128 -0.2930 -0.3630 -1.7265
 5323SOL    HW227429   0.457   4.178   8.106 -0.4693  0.5487  1.1885
 5324SOL     OW27430   1.271   1.321   4.619 -0.3860  0.2571 -0.3548
 5324SOL    HW127431   1.230   1.406   4.606 -2.6976 -0.5418  1.7166
 5324SOL    HW227432   1.267   1.288   4.530 -1.6670  0.5603 -0.4101
 5325SOL     OW27433   4.230   3.716   6.195 -0.2242 -0.0513 -0.4248
 5325SOL    HW127434   4.216   3.622   6.195 -2.1286  0.2213  1.4664
 5325SOL    HW227435   4.148   3.752   6.161  1.0954  2.1019 -1.3568
 5326SOL     OW27436   0.035   3.165   4.423  0.6661  0.3671 -0.3874
 5326SOL    HW127437   4.666   3.170   4.421  0.7182  1.3110 -0.2351
 5326SOL    HW227438   0.046   3.116   4.504 -2.3232 -1.7562 -1.2531
 5327SOL     OW27439   2.616   3.381   1.705 -0.3929 -0.4039 -0.2586
 5327SOL    HW127440   2.691   3.395   1.764 -0.9877  0.9067  0.1734
 5327SOL    HW227441   2.656   3.351   1.623 -0.4098 -2.8713  0.6101
 5328SOL     OW27442   1.337   1.681   2.916  0.2884  0.3446  0.3434
 5328SOL    HW127443   1.261   1.685   2.859  0.8922 -1.2423 -0.5529
 5328SOL    HW227444   1.400   1.721   2.856  0.7184 -0.8145  0.0216
 5329SOL     OW27445   2.695   2.120  10.656  0.1870  0.0695 -0.4222
 5329SOL    HW127446   2.622   2.181  10.663  0.3933  0.5304 -2.2870
 5329SOL    HW227447   2.653   2.035  10.675 -0.3753  0.6911  1.1323
 5330SOL     OW27448   2.736   1.905   4.462 -0.1478 -0.2635  0.7065
 5330SOL    HW127449   2.713   1.812   4.471  0.5805 -0.3389  1.7416
 5330SOL    HW227450   2.831   1.902   4.457 -0.1604 -1.1958  1.0349
 5331SOL     OW27451   3.890   0.557   4.182 -0.7975 -0.4340 -0.2118
 5331SOL    HW127452   3.796   0.561   4.201 -0.3085  1.7044  1.7104
 5331SOL    HW227453   3.910   0.463   4.185  0.0981 -0.2283  0.0848
 5332SOL     OW27454   0.262   2.245   6.590 -0.3347 -0.1730 -0.2189
 5332SOL    HW127455   0.269   2.294   6.508  0.0858 -0.6526 -0.4709
 5332SOL    HW227456   0.166   2.246   6.599 -0.2781  2.7863  0.1296
 5333SOL     OW27457   1.244   0.582   3.377  0.1318  0.1478  1.1827
 5333SOL    HW127458   1.282   0.496   3.363 -0.6796 -0.1088  0.5575
 5333SOL    HW227459   1.192   0.568   3.456 -0.3151  2.6150  1.3257
 5334SOL     OW27460   0.570   2.895  16.654  0.5928 -0.3197 -0.2924
 5334SOL    HW127461   0.612   2.809  16.662  0.1970 -0.4403  0.5242
 5334SOL    HW227462   0.634   2.965  16.643 -0.4970  0.7099 -0.0120
 5335SOL     OW27463   3.459   0.609  11.994  0.3483 -0.1156 -0.7540
 5335SOL    HW127464   3.384   0.582  12.047 -0.5063  1.8781 -0.9446
 5335SOL    HW227465   3.465   0.704  12.008  2.9623 -0.3077 -0.6602
 5336SOL     OW27466   4.194   2.465  10.752  0.0134  0.0431 -0.3673
 5336SOL    HW127467   4.111   2.506  10.777 -0.0496  0.7411 -1.7263
 5336SOL    HW227468   4.250   2.467  10.829 -3.3781 -0.0906  2.0919
 5337SOL     OW27469   1.870   4.481  12.425  0.0614  0.4345  0.2758
 5337SOL    HW127470   1.950   4.533  12.423 -0.8266  1.8217  1.3574
 5337SOL    HW227471   1.894   4.390  12.406  0.3496  0.6889 -0.5589
 5338SOL     OW27472   0.343   0.726  10.937 -0.8687 -0.1814  0.4811
 5338SOL    HW127473   0.406   0.656  10.921  0.5587  1.3199 -0.5705
 5338SOL    HW227474   0.297   0.690  11.013 -1.4979  0.2889  0.3212
 5339SOL     OW27475   3.038   0.263   0.031  0.3734 -0.0620 -0.6881
 5339SOL    HW127476   3.130   0.240   0.043  0.3898  0.0506 -0.6000
 5339SOL    HW227477   2.999   0.182   0.063 -1.0903  0.9538  0.1020
 5340SOL     OW27478   1.974   1.866   2.994  0.2697 -0.3373  0.0559
 5340SOL    HW127479   1.987   1.935   3.059 -1.3495  1.4971 -1.5954
 5340SOL    HW227480   2.036   1.871   2.921  1.1938 -1.4714  0.7418
 5341SOL     OW27481   2.929   3.694   2.896  0.5451  0.0558  0.0455
 5341SOL    HW127482   2.887   3.711   2.812  0.7961  0.3170 -0.0282
 5341SOL    HW227483   2.994   3.762   2.878 -1.0358  2.2690  2.7706
 5342SOL     OW27484   1.119   2.303   9.506  0.0105  0.6805  0.0570
 5342SOL    HW127485   1.124   2.293   9.411 -2.6601  0.5544 -0.0627
 5342SOL    HW227486   1.026   2.315   9.525 -0.2712 -0.8695 -0.3445
 5343SOL     OW27487   1.708   1.956   8.652  0.8092  0.3091 -0.2934
 5343SOL    HW127488   1.715   1.960   8.748  1.0563  0.3960 -0.3153
 5343SOL    HW227489   1.748   1.877   8.617 -0.0315 -0.8397  1.3510
 5344SOL     OW27490   4.148   0.416   3.150 -0.6718  0.5084 -0.0982
 5344SOL    HW127491   4.166   0.421   3.056 -2.6000 -2.9294 -0.6436
 5344SOL    HW227492   4.142   0.505   3.184  0.0132  0.5757 -0.1671
 5345SOL     OW27493   4.695   3.152   3.524  0.4662  0.4325 -0.0229
 5345SOL    HW127494   4.617   3.113   3.563  1.1772  2.6365  3.5886
 5345SOL    HW227495   0.036   3.117   3.583  1.5205  1.1344 -0.8070
 5346SOL     OW27496   0.230   0.948   7.563  0.3941 -0.5410 -0.4674
 5346SOL    HW127497   0.311   0.978   7.521  0.3956 -0.0046 -0.0721
 5346SOL    HW227498   0.251   0.964   7.655  0.2266 -0.3070 -0.4720
 5347SOL     OW27499   1.746   1.480  14.417 -0.2021  0.1913 -0.3009
 5347SOL    HW127500   1.724   1.403  14.365  0.8744 -0.0841 -0.3550
 5347SOL    HW227501   1.840   1.465  14.425 -0.1738  1.2740  1.5254
 5348SOL     OW27502   1.871   1.344   2.572  0.0118 -0.1469 -0.2473
 5348SOL    HW127503   1.940   1.285   2.542 -1.5023 -2.0327 -0.0590
 5348SOL    HW227504   1.812   1.278   2.610  1.6712 -0.2267  2.1456
 5349SOL     OW27505   3.448   0.388   3.010  0.4984  0.5007 -0.6736
 5349SOL    HW127506   3.477   0.425   2.927  0.6772 -0.4449 -1.0321
 5349SOL    HW227507   3.446   0.294   2.990  0.5779  0.2292  0.6228
 5350SOL     OW27508   0.367   0.519   4.952 -0.2417  0.4251 -0.1689
 5350SOL    HW127509   0.442   0.577   4.966  1.1158 -2.0106  2.5356
 5350SOL    HW227510   0.355   0.480   5.038  3.4609  1.0642  0.6524
 5351SOL     OW27511   0.467   2.669   4.339  0.4986 -0.1508 -0.0096
 5351SOL    HW127512   0.509   2.696   4.257 -1.6906 -0.8462 -1.3580
 5351SOL    HW227513   0.532   2.698   4.402 -1.4636 -0.0413  1.9526
 5352SOL     OW27514   3.038   4.420   9.314  0.1734  0.5582 -0.4377
 5352SOL    HW127515   3.111   4.383   9.265 -0.3141  1.8094 -2.1119
 5352SOL    HW227516   2.981   4.441   9.240 -2.5711 -1.2324  1.1651
 5353SOL     OW27517   4.085   2.123   7.993  0.0447  0.3576 -0.0861
 5353SOL    HW127518   3.995   2.149   8.011 -0.3318 -2.2320  1.6373
 5353SOL    HW227519   4.136   2.192   8.036  1.6983 -0.1559 -1.2459
 5354SOL     OW27520   0.701   4.337   6.561 -0.6048 -0.3325  0.2654
 5354SOL    HW127521   0.747   4.351   6.478  0.7736  0.1937  1.1143
 5354SOL    HW227522   0.715   4.422   6.602  1.0591 -1.6444  2.4484
 5355SOL     OW27523   2.288   2.214   5.707 -0.1332 -0.2855 -0.1583
 5355SOL    HW127524   2.373   2.233   5.746 -0.2908  1.1340 -0.5044
 5355SOL    HW227525   2.295   2.129   5.664 -0.7997  0.3766 -1.5936
 5356SOL     OW27526   1.431   4.469  16.299  0.0858 -0.6473 -0.3395
 5356SOL    HW127527   1.362   4.515  16.251 -1.0162  0.0786  1.8996
 5356SOL    HW227528   1.491   4.541  16.285 -0.2414  0.0741  1.9225
 5357SOL     OW27529   1.386   3.700   3.453 -0.1161 -0.0460  0.4569
 5357SOL    HW127530   1.476   3.731   3.459 -0.8766  1.9814  1.5898
 5357SOL    HW227531   1.400   3.642   3.378  0.1316  2.2694 -1.2957
 5358SOL     OW27532   1.435   3.454   4.146  0.3014  0.3149  0.7439
 5358SOL    HW127533   1.518   3.408   4.137  1.0540  1.8131  0.1365
 5358SOL    HW227534   1.451   3.533   4.096  3.3170  0.3033  1.7223
 5359SOL     OW27535   0.009   1.590   2.970 -0.1173  0.3428  0.5556
 5359SOL    HW127536   0.100   1.614   2.952  1.2301 -3.6307  2.1756
 5359SOL    HW227537   4.703   1.623   2.886  0.8535  1.5578  0.6645
 5360SOL     OW27538   0.869   2.992  10.960  0.3988  0.2138  0.6076
 5360SOL    HW127539   0.775   2.977  10.963  0.1558  1.3749 -1.0781
 5360SOL    HW227540   0.881   3.087  10.971  1.0981  0.1911  0.0070
 5361SOL     OW27541   0.190   4.283   5.380  0.2893 -0.0378  0.4708
 5361SOL    HW127542   0.193   4.229   5.301 -0.3529 -0.2221  0.5706
 5361SOL    HW227543   0.211   4.226   5.454  2.3914  0.7355  0.4568
 5362SOL     OW27544   4.367   3.244  15.111  0.8714  0.0228  0.2889
 5362SOL    HW127545   4.422   3.275  15.183 -0.3169  1.9493  0.3662
 5362SOL    HW227546   4.408   3.159  15.093 -0.1286 -0.3268 -0.3428
 5363SOL     OW27547   0.965   3.604   4.907  0.3646  0.0067 -0.8304
 5363SOL    HW127548   1.010   3.648   4.979 -0.6458  0.9881 -0.7971
 5363SOL    HW227549   1.023   3.610   4.830  0.0176 -0.9645 -1.1690
 5364SOL     OW27550   2.533   4.432   4.477 -0.2001  0.5516  0.4324
 5364SOL    HW127551   2.501   4.405   4.391 -1.4391  2.3168  0.3300
 5364SOL    HW227552   2.450   4.473   4.502 -0.2540 -0.5799  2.0973
 5365SOL     OW27553   0.316   0.443   9.350  0.0967  0.4461 -0.7161
 5365SOL    HW127554   0.314   0.538   9.339 -2.8245  0.4196 -0.5313
 5365SOL    HW227555   0.223   0.420   9.348  0.1822  0.0101  0.1998
 5366SOL     OW27556   3.228   4.643   3.268 -0.4034 -0.0219 -0.0071
 5366SOL    HW127557   3.215   4.556   3.229 -1.0045  0.3155 -0.5617
 5366SOL    HW227558   3.156   4.693   3.228  0.0858  0.3198 -0.4660
 5367SOL     OW27559   2.842   4.288   6.224 -0.4347 -0.3356  0.0468
 5367SOL    HW127560   2.925   4.250   6.253  0.3239 -0.0998 -1.7829
 5367SOL    HW227561   2.866   4.323   6.138 -1.0123  1.2131  0.5052
 5368SOL     OW27562   3.546   0.976   9.672  0.0318 -0.1318 -0.1645
 5368SOL    HW127563   3.491   1.053   9.657  0.4861  0.1701 -0.2502
 5368SOL    HW227564   3.528   0.971   9.766  1.8358  0.4900  0.1977
 5369SOL     OW27565   3.346   1.538   6.821  0.7278 -0.4501  0.0726
 5369SOL    HW127566   3.267   1.586   6.847  1.0140 -1.0506  2.0172
 5369SOL    HW227567   3.347   1.469   6.887 -2.3380 -0.9327 -0.3867
 5370SOL     OW27568   2.834   0.824   6.830 -0.5574 -0.2153  0.6669
 5370SOL    HW127569   2.788   0.752   6.788  0.5053  0.9214 -2.4125
 5370SOL    HW227570   2.779   0.894   6.793 -1.1408 -1.1205 -0.1802
 5371SOL     OW27571   1.896   3.786   3.507 -0.1655  0.5808 -0.0457
 5371SOL    HW127572   1.967   3.767   3.568 -1.2087  2.7275  1.8613
 5371SOL    HW227573   1.934   3.804   3.422  0.0908  1.3701  0.2368
 5372SOL     OW27574   3.058   3.316   4.848  0.0369 -0.2362  0.6922
 5372SOL    HW127575   2.993   3.268   4.898 -0.5262  0.7587  0.9116
 5372SOL    HW227576   3.076   3.250   4.782 -0.4602  1.9681 -1.6464
 5373SOL     OW27577   4.249   3.970  12.243 -0.1431 -0.2132  0.4274
 5373SOL    HW127578   4.272   3.924  12.162 -0.9601 -3.1158  1.8706
 5373SOL    HW227579   4.256   4.059  12.208 -0.4218 -0.4716 -0.2950
 5374SOL     OW27580   2.185   2.707  16.139 -0.3188 -0.3990  0.0209
 5374SOL    HW127581   2.250   2.700  16.069 -0.0250 -1.2629  0.3899
 5374SOL    HW227582   2.222   2.658  16.212 -1.7180 -0.4968  0.6547
 5375SOL     OW27583   4.704   1.200   4.341 -0.9338 -0.0117  0.1809
 5375SOL    HW127584   4.651   1.129   4.306 -0.3453 -0.7684  0.8299
 5375SOL    HW227585   4.685   1.275   4.285  0.8743  0.2112 -0.1458
 5376SOL     OW27586   3.550   2.829   2.702 -0.0724 -0.1664 -0.0441
 5376SOL    HW127587   3.590   2.870   2.779  0.7909 -2.2409  0.6382
 5376SOL    HW227588   3.621   2.816   2.640  1.2280  1.1002  1.1705
 5377SOL     OW27589   1.448   1.474  17.539  0.5061  0.1601  0.3841
 5377SOL    HW127590   1.457   1.467  17.444  1.2438 -0.1744  0.4769
 5377SOL    HW227591   1.529   1.437  17.575  0.0555 -0.2403  0.9739
 5378SOL     OW27592   2.969   4.324   5.956  0.2278  0.1092 -0.0572
 5378SOL    HW127593   2.998   4.265   5.886  0.1431  1.6800 -1.4014
 5378SOL    HW227594   2.900   4.371   5.909 -1.4358  0.3082  2.6090
 5379SOL     OW27595   0.772   1.046  16.315 -0.1441  0.5199  0.6883
 5379SOL    HW127596   0.736   0.982  16.376  0.5892 -2.5282 -2.0864
 5379SOL    HW227597   0.826   0.984  16.266  3.8686  3.3588  1.4771
 5380SOL     OW27598   4.565   4.664   7.035  0.2904  0.1414  0.1808
 5380SOL    HW127599   4.650   4.646   6.997  0.4064  2.1411 -0.5037
 5380SOL    HW227600   4.528   4.576   7.043  2.4785 -0.7675  0.2162
 5381SOL     OW27601   0.353   1.283  12.912 -0.3642  0.1540 -0.2490
 5381SOL    HW127602   0.274   1.230  12.921 -2.1563  2.8236 -0.2776
 5381SOL    HW227603   0.335   1.333  12.833 -2.0254 -1.5901 -0.9801
 5382SOL     OW27604   0.516   0.633   5.881 -0.1857 -0.5562 -0.5639
 5382SOL    HW127605   0.516   0.663   5.790  1.9124 -1.4933 -0.8672
 5382SOL    HW227606   0.453   0.561   5.877  0.6023 -1.1719 -1.6427
 5383SOL     OW27607   0.282   3.155   9.041  0.2823 -0.2162  0.3370
 5383SOL    HW127608   0.349   3.088   9.027  1.5462  1.2238 -0.3843
 5383SOL    HW227609   0.206   3.098   9.057  0.6588 -1.0450 -0.8442
 5384SOL     OW27610   2.913   3.436  13.584  0.3807  0.0100  0.1623
 5384SOL    HW127611   2.991   3.382  13.570  0.4695 -0.0958  1.0661
 5384SOL    HW227612   2.855   3.377  13.536  1.7437  0.3393 -1.8546
 5385SOL     OW27613   2.266   2.111  15.535 -0.4378  0.2246  0.7492
 5385SOL    HW127614   2.215   2.119  15.615 -1.1899  0.6824  0.2257
 5385SOL    HW227615   2.247   2.019  15.517  1.2749  0.0034  0.0881
 5386SOL     OW27616   1.402   3.713   5.445 -0.2524 -0.3951  0.1147
 5386SOL    HW127617   1.463   3.774   5.486 -1.7896  2.3829 -1.8191
 5386SOL    HW227618   1.317   3.745   5.473  0.1910  0.1926  0.7741
 5387SOL     OW27619   1.958   1.946  14.672  0.1252  0.3649  0.3730
 5387SOL    HW127620   1.944   1.935  14.765  3.5933  0.6798  0.9554
 5387SOL    HW227621   1.913   1.872  14.632 -0.9973  1.6466 -0.7412
 5388SOL     OW27622   2.814   3.096   7.918 -0.7935  0.1685 -0.1846
 5388SOL    HW127623   2.789   3.096   8.010 -1.6420 -1.4807 -0.4144
 5388SOL    HW227624   2.799   3.187   7.893  2.5997  0.8054  0.1301
 5389SOL     OW27625   0.451   4.682  15.741  0.0901 -0.3727  0.0769
 5389SOL    HW127626   0.434   4.642  15.826  0.4485  1.0365  0.8089
 5389SOL    HW227627   0.481   0.043  15.766 -0.1060  0.3554 -2.1766
 5390SOL     OW27628   4.349   1.252   8.062  0.2107  0.3268  0.2879
 5390SOL    HW127629   4.380   1.271   8.150 -1.8352  1.1083  0.8509
 5390SOL    HW227630   4.274   1.311   8.061  0.7517  1.0246  1.6062
 5391SOL     OW27631   2.661   2.784   8.344 -0.1072  0.2768  0.3670
 5391SOL    HW127632   2.706   2.708   8.308  1.1684  1.9553 -1.6242
 5391SOL    HW227633   2.570   2.770   8.318  0.8222 -2.6009 -1.3959
 5392SOL     OW27634   0.468   4.233   6.488  0.0056 -0.3927  0.2838
 5392SOL    HW127635   0.458   4.183   6.569  2.9480 -0.4876  0.6022
 5392SOL    HW227636   0.531   4.301   6.513 -1.4004  1.4210 -1.1688
 5393SOL     OW27637   1.732   3.357   9.017 -0.5884 -0.2053  0.7739
 5393SOL    HW127638   1.647   3.314   9.010 -1.8510  2.5821 -0.5567
 5393SOL    HW227639   1.760   3.341   9.107 -0.8333  0.6848  1.0040
 5394SOL     OW27640   4.601   0.728   9.477 -0.1593 -0.2514 -0.0929
 5394SOL    HW127641   4.647   0.649   9.449  1.6566  0.6905  0.2332
 5394SOL    HW227642   4.672   0.793   9.474  0.0318 -0.3902  1.7669
 5395SOL     OW27643   3.345   4.408   6.849  0.0177 -0.7972 -0.1373
 5395SOL    HW127644   3.314   4.332   6.899  2.5888 -1.1925  0.8877
 5395SOL    HW227645   3.382   4.355   6.779  0.3740  0.7102 -1.0758
 5396SOL     OW27646   0.756   1.539  14.586  0.1014 -0.4958 -0.3326
 5396SOL    HW127647   0.775   1.506  14.674 -2.7909  1.0187  0.8709
 5396SOL    HW227648   0.694   1.473  14.556  0.7738 -0.9290 -0.7476
 5397SOL     OW27649   3.794   0.018   4.950 -0.4423  0.4406 -0.0368
 5397SOL    HW127650   3.862   4.677   4.964  1.3216  1.9179 -1.5003
 5397SOL    HW227651   3.755   4.699   4.875  0.0038  0.4250 -0.2636
 5398SOL     OW27652   3.109   3.831   2.086  0.0617 -0.0242 -0.2497
 5398SOL    HW127653   3.150   3.914   2.108  0.5703 -0.0385 -1.1355
 5398SOL    HW227654   3.056   3.867   2.014 -0.3443 -0.5277 -0.2060
 5399SOL     OW27655   1.916   0.889   5.608 -0.7129  0.4773 -0.6882
 5399SOL    HW127656   1.928   0.980   5.579 -0.7678 -0.3552 -3.3281
 5399SOL    HW227657   1.954   0.842   5.534 -0.1726  1.6129 -1.1393
 5400SOL     OW27658   3.033   4.384   1.815 -1.2021 -0.1534 -0.0566
 5400SOL    HW127659   2.986   4.425   1.742  1.1664  1.7089 -0.5301
 5400SOL    HW227660   3.067   4.313   1.761  0.9888  0.4076  0.5815
 5401SOL     OW27661   3.040   1.873   4.847 -0.2122  0.0700 -0.7503
 5401SOL    HW127662   3.027   1.889   4.941  4.0820 -0.4489 -0.0931
 5401SOL    HW227663   3.105   1.803   4.840  2.0012  1.9695  0.9536
 5402SOL     OW27664   3.538   0.803   3.616  0.6980  0.4378  0.5784
 5402SOL    HW127665   3.471   0.855   3.572 -0.4531 -0.6443  1.0632
 5402SOL    HW227666   3.478   0.751   3.670  0.0115 -2.4863 -3.0269
 5403SOL     OW27667   0.802   2.147   8.794  0.1946  0.4515 -0.3806
 5403SOL    HW127668   0.782   2.164   8.886 -1.4851  3.0229 -1.2158
 5403SOL    HW227669   0.897   2.159   8.800  0.1252 -0.0330  1.7161
 5404SOL     OW27670   0.127   3.211  16.634 -0.5570 -0.4419  0.0716
 5404SOL    HW127671   0.099   3.172  16.717 -1.1582 -2.3429 -1.0366
 5404SOL    HW227672   0.222   3.215  16.635 -0.5587 -0.0328 -1.4142
 5405SOL     OW27673   0.254   0.119   3.694  0.0576  0.3156 -0.7250
 5405SOL    HW127674   0.187   0.186   3.695  2.1647  2.4345 -0.7967
 5405SOL    HW227675   0.282   0.138   3.604  1.3097  0.3766 -0.3306
 5406SOL     OW27676   4.667   0.780   1.988 -0.2015  0.2229  0.0058
 5406SOL    HW127677   4.577   0.748   1.993  0.2183 -1.1139 -1.0001
 5406SOL    HW227678   4.715   0.701   1.964  0.0024  0.9288 -1.9082
 5407SOL     OW27679   0.250   4.258   3.238 -0.1354 -0.0274 -0.0138
 5407SOL    HW127680   0.294   4.339   3.213  1.1387 -0.3604  1.1548
 5407SOL    HW227681   0.252   4.263   3.334  0.0638  0.9795 -0.0660
 5408SOL     OW27682   3.870   1.105  12.043  0.3366 -0.4758 -0.8157
 5408SOL    HW127683   3.819   1.184  12.026 -0.8929 -1.0316  0.3073
 5408SOL    HW227684   3.957   1.145  12.047  0.4049 -0.8753  1.8083
 5409SOL     OW27685   1.319   0.306   3.650 -0.6033  0.0094 -0.0180
 5409SOL    HW127686   1.238   0.356   3.647  0.0453  1.1803  1.9878
 5409SOL    HW227687   1.379   0.377   3.671 -2.4827  1.6422 -0.1790
 5410SOL     OW27688   1.780   3.755   5.935  0.0338  0.3284 -0.3023
 5410SOL    HW127689   1.758   3.708   6.016  0.9280 -0.5484 -0.5705
 5410SOL    HW227690   1.828   3.690   5.885  1.8105  0.5619  1.0959
 5411SOL     OW27691   2.936   0.435   9.037 -0.0132 -0.5029  0.2026
 5411SOL    HW127692   2.863   0.402   8.984 -0.2366  0.4232 -0.0607
 5411SOL    HW227693   2.996   0.461   8.967 -1.6350 -0.2691 -1.1088
 5412SOL     OW27694   2.645   3.797   1.532 -0.0479 -0.3561  0.5196
 5412SOL    HW127695   2.621   3.787   1.440 -2.4666 -0.1558  1.1267
 5412SOL    HW227696   2.735   3.831   1.531 -0.6821  1.2909 -0.4157
 5413SOL     OW27697   3.167   1.849   6.046  0.2890 -0.0513 -0.1451
 5413SOL    HW127698   3.245   1.867   5.994  0.9734 -0.3705  0.7680
 5413SOL    HW227699   3.177   1.905   6.124  0.5775  1.8684 -1.5697
 5414SOL     OW27700   4.651   0.222   1.929 -0.4363  0.2224 -0.0269
 5414SOL    HW127701   4.572   0.241   1.978 -0.8517 -0.0570 -0.5876
 5414SOL    HW227702   4.694   0.149   1.975  1.1242  1.6349  0.7411
 5415SOL     OW27703   4.595   3.102   5.841 -0.2621  0.1079  0.1463
 5415SOL    HW127704   4.591   3.006   5.845  0.3198  0.0870  0.1783
 5415SOL    HW227705   4.609   3.109   5.746  2.0362 -0.2473  0.4561
 5416SOL     OW27706   1.778   3.935   9.204 -0.3793  0.2001 -0.1091
 5416SOL    HW127707   1.758   3.851   9.164 -1.2672  0.4922 -0.2779
 5416SOL    HW227708   1.693   3.966   9.235 -0.5516 -0.5487  0.1480
 5417SOL     OW27709   3.244   2.053  15.904  0.0714  0.2029  0.2365
 5417SOL    HW127710   3.299   2.025  15.830  1.6770  2.1285  0.6944
 5417SOL    HW227711   3.215   2.141  15.880  2.5420  1.0845  0.4582
 5418SOL     OW27712   1.726   3.644   1.858  0.5817 -0.6889  0.0634
 5418SOL    HW127713   1.717   3.739   1.861  1.6953 -0.6062  0.7341
 5418SOL    HW227714   1.799   3.632   1.796 -0.9357 -0.8736 -1.6912
 5419SOL     OW27715   0.247   2.718  15.891 -0.6295  0.3215  0.3538
 5419SOL    HW127716   0.253   2.715  15.796 -1.5848 -0.9592  0.3396
 5419SOL    HW227717   0.205   2.803  15.904  0.2086  0.7518  0.2425
 5420SOL     OW27718   0.446   3.015  12.589  0.1269 -0.6180 -0.3855
 5420SOL    HW127719   0.517   3.021  12.652 -0.0591  0.2774 -0.2638
 5420SOL    HW227720   0.385   2.966  12.645 -0.1752 -1.4126 -1.4075
 5421SOL     OW27721   1.782   2.868   5.565  0.2498  0.5314  0.7146
 5421SOL    HW127722   1.809   2.843   5.654  1.5980 -0.9216 -0.1025
 5421SOL    HW227723   1.695   2.830   5.563  0.0227  1.1324 -0.3916
 5422SOL     OW27724   4.598   3.085  17.357 -0.0053 -0.6036  0.1951
 5422SOL    HW127725   4.511   3.103  17.394 -1.0513  1.6674 -3.3452
 5422SOL    HW227726   4.592   3.103  17.263  2.0536  1.6213  0.4995
 5423SOL     OW27727   3.180   3.124   9.020  0.4097  0.4477  0.0308
 5423SOL    HW127728   3.272   3.099   9.017  0.7723  1.7824  0.2545
 5423SOL    HW227729   3.148   3.046   9.066  2.4442 -1.3020 -1.5382
 5424SOL     OW27730   0.666   0.973   6.399  0.0964 -0.6375  0.6162
 5424SOL    HW127731   0.749   0.991   6.443 -0.0996 -0.7769  1.0428
 5424SOL    HW227732   0.678   0.983   6.305 -0.6712 -1.4087  0.4385
 5425SOL     OW27733   4.373   2.890   7.964 -0.0438  0.2588  0.1121
 5425SOL    HW127734   4.330   2.858   8.044 -1.6338  0.9423 -0.4576
 5425SOL    HW227735   4.310   2.956   7.932  1.0228  0.9928 -0.4587
 5426SOL     OW27736   3.146   2.928   3.358  0.3848 -0.3613  0.0300
 5426SOL    HW127737   3.177   2.853   3.408  3.5688  0.4588 -0.6719
 5426SOL    HW227738   3.224   2.957   3.310 -0.2755  1.3134 -0.0523
 5427SOL     OW27739   3.909   3.123  13.499 -0.2403 -0.4840 -0.6422
 5427SOL    HW127740   3.844   3.124  13.570 -0.1990 -1.0520 -0.5983
 5427SOL    HW227741   3.941   3.033  13.500  0.8016 -0.1126 -0.7988
 5428SOL     OW27742   3.937   2.785   0.482 -0.4496 -0.2061 -0.5982
 5428SOL    HW127743   3.856   2.835   0.472 -1.2836 -1.6101 -0.9578
 5428SOL    HW227744   3.974   2.821   0.562  0.2774  0.4166 -1.2137
 5429SOL     OW27745   1.716   4.670   3.326 -0.7975  0.7888  0.0476
 5429SOL    HW127746   1.772   4.666   3.404  1.2010  0.5269 -1.3735
 5429SOL    HW227747   1.783   4.690   3.260 -3.0743  1.6755 -1.9823
 5430SOL     OW27748   1.756   0.313   4.774  0.4912 -0.5414 -0.2449
 5430SOL    HW127749   1.806   0.382   4.818 -0.3254  2.3595 -3.8461
 5430SOL    HW227750   1.715   0.367   4.706  0.9026 -1.8776 -1.5618
 5431SOL     OW27751   4.167   0.198   6.748  0.6917 -0.4760 -0.2004
 5431SOL    HW127752   4.109   0.173   6.820  0.8862  2.1187  0.8418
 5431SOL    HW227753   4.148   0.117   6.700 -1.0260 -1.8120  2.7245
 5432SOL     OW27754   4.190   2.282   1.445 -0.6218  0.2048 -0.1767
 5432SOL    HW127755   4.266   2.234   1.413 -0.6629 -0.5971  0.9290
 5432SOL    HW227756   4.225   2.371   1.457  0.2063 -0.3591  1.6284
 5433SOL     OW27757   2.513   2.135  11.663 -0.9132  0.1303  0.3741
 5433SOL    HW127758   2.598   2.131  11.707 -0.1680 -0.7359 -1.1257
 5433SOL    HW227759   2.477   2.047  11.666 -0.9186  0.2073  2.2542
 5434SOL     OW27760   1.832   3.637   8.682  0.2046  0.7374  0.5043
 5434SOL    HW127761   1.854   3.663   8.771  1.8756 -3.0748  1.2400
 5434SOL    HW227762   1.846   3.542   8.687 -0.0959  0.5973 -1.1341
 5435SOL     OW27763   3.211   4.361   3.177  0.1334 -0.4490  0.2368
 5435SOL    HW127764   3.278   4.319   3.231  1.3335  0.4113 -0.5669
 5435SOL    HW227765   3.137   4.359   3.238  0.7798 -0.6139  1.0182
 5436SOL     OW27766   0.609   2.236   3.159 -0.3791 -0.0808 -0.2680
 5436SOL    HW127767   0.663   2.256   3.083 -0.2458 -2.0553 -0.6756
 5436SOL    HW227768   0.522   2.241   3.121 -0.2025  0.2409 -0.6267
 5437SOL     OW27769   0.462   2.004   7.793  0.5165 -0.0523  0.6859
 5437SOL    HW127770   0.369   2.021   7.777  1.1185  1.5943 -1.0067
 5437SOL    HW227771   0.477   2.031   7.884 -2.0272 -0.9258  1.3681
 5438SOL     OW27772   4.217   4.569   2.058  0.0447 -0.0086  0.4105
 5438SOL    HW127773   4.201   4.600   1.969  2.2474  0.4682  0.1685
 5438SOL    HW227774   4.290   4.507   2.047  2.5235  2.8112  0.8277
 5439SOL     OW27775   3.440   3.063   9.020 -0.6048  0.4650  0.3231
 5439SOL    HW127776   3.515   3.023   8.978 -2.0842 -0.1941 -1.6601
 5439SOL    HW227777   3.473   3.145   9.058  0.6546  0.3859 -0.6325
 5440SOL     OW27778   1.444   2.799  11.884  0.2666  0.2128 -0.5330
 5440SOL    HW127779   1.528   2.782  11.926  0.5306 -0.7387 -1.4514
 5440SOL    HW227780   1.461   2.892  11.868 -0.8454  1.1874  3.9968
 5441SOL     OW27781   2.663   1.208   3.698 -0.0389  0.0889 -0.2651
 5441SOL    HW127782   2.621   1.289   3.724  0.3973  0.7614 -1.6497
 5441SOL    HW227783   2.685   1.160   3.778  2.5191  0.0409 -1.0094
 5442SOL     OW27784   3.705   4.390   8.183 -0.6833  0.0585  0.2512
 5442SOL    HW127785   3.635   4.328   8.165 -0.2983 -0.3798  0.2566
 5442SOL    HW227786   3.760   4.338   8.242  0.8785  0.3126 -0.9673
 5443SOL     OW27787   1.508   2.947   8.283 -0.0578 -0.5301  0.2574
 5443SOL    HW127788   1.513   3.025   8.339 -2.2374 -0.6090  0.5821
 5443SOL    HW227789   1.587   2.906   8.317 -0.6680 -1.6447  0.3247
 5444SOL     OW27790   4.000   4.503   3.406 -0.1891  0.2162 -0.0749
 5444SOL    HW127791   4.035   4.562   3.340 -0.2337 -1.4071 -1.5401
 5444SOL    HW227792   3.914   4.534   3.432  0.0658 -0.4070  1.5989
 5445SOL     OW27793   1.771   2.387   0.833  0.3585 -0.6050 -0.1733
 5445SOL    HW127794   1.771   2.291   0.842  0.8243 -0.4990  0.9005
 5445SOL    HW227795   1.841   2.399   0.768 -0.5724 -0.8817 -1.2375
 5446SOL     OW27796   3.213   0.034  17.543 -0.0522 -0.0698  0.3536
 5446SOL    HW127797   3.227   4.702  17.469  0.7037 -0.5755  0.8952
 5446SOL    HW227798   3.118   0.021  17.555  0.5278 -2.5193  2.4628
 5447SOL     OW27799   1.442   2.972   0.622 -0.1357  0.1039 -0.2886
 5447SOL    HW127800   1.478   2.976   0.533  1.3934 -1.0971  0.2759
 5447SOL    HW227801   1.520   3.001   0.669  0.5552 -0.5874 -1.0026
 5448SOL     OW27802   3.687   0.362   3.272 -0.2875 -0.1028 -0.1142
 5448SOL    HW127803   3.663   0.324   3.356  0.0586  0.0542  0.0545
 5448SOL    HW227804   3.606   0.411   3.252 -0.2858 -0.2241 -0.4234
 5449SOL     OW27805   2.546   1.373  12.890  0.3574  0.2207  0.5619
 5449SOL    HW127806   2.629   1.380  12.842  0.4295 -1.2042  0.4965
 5449SOL    HW227807   2.558   1.444  12.953  2.6975 -0.9660  1.4343
 5450SOL     OW27808   3.190   1.098   8.540  0.2129  0.1638  0.2305
 5450SOL    HW127809   3.238   1.119   8.620 -1.7370  0.2852  1.3895
 5450SOL    HW227810   3.100   1.107   8.571 -0.0973  0.5887 -0.7931
 5451SOL     OW27811   0.854   1.728  15.110  0.0143 -0.1841  0.5613
 5451SOL    HW127812   0.942   1.749  15.078 -0.4052  1.3423  0.4031
 5451SOL    HW227813   0.864   1.742  15.205  0.1411  2.3035  0.1956
 5452SOL     OW27814   0.254   1.988   3.546 -0.6184 -0.2175 -0.1135
 5452SOL    HW127815   0.171   1.981   3.499 -0.3906  0.1251 -0.5604
 5452SOL    HW227816   0.269   1.897   3.571  1.7983 -0.3938 -2.1701
 5453SOL     OW27817   4.239   3.708   3.180 -0.1718 -0.3795  0.4458
 5453SOL    HW127818   4.167   3.735   3.122  1.4871  1.3140 -0.8218
 5453SOL    HW227819   4.293   3.785   3.198  0.5316 -0.4773 -1.2753
 5454SOL     OW27820   0.056   1.197   3.538 -0.1160  0.1912 -0.8116
 5454SOL    HW127821   0.142   1.172   3.504  0.7081  3.5265 -1.1108
 5454SOL    HW227822   0.074   1.220   3.629  0.4678 -2.0045 -0.3665
 5455SOL     OW27823   3.336   2.168   6.202  0.0635 -0.0657  0.4347
 5455SOL    HW127824   3.326   2.237   6.135  0.2919  0.5604  1.0419
 5455SOL    HW227825   3.430   2.153   6.194  0.5467  1.8861  2.4833
 5456SOL     OW27826   1.319   1.417   3.766 -0.0183 -0.6842  0.1253
 5456SOL    HW127827   1.322   1.458   3.852  0.9877 -1.5115  0.4746
 5456SOL    HW227828   1.362   1.479   3.706  1.4785 -1.8593 -0.0247
 5457SOL     OW27829   4.249   2.612   8.434  0.2260 -0.0837  0.1943
 5457SOL    HW127830   4.265   2.598   8.527  0.0248 -1.0701  0.0890
 5457SOL    HW227831   4.193   2.534   8.424  0.5414 -0.0593 -1.8617
 5458SOL     OW27832   1.431   0.528  10.824 -0.0842 -0.0628  0.5305
 5458SOL    HW127833   1.413   0.504  10.915 -1.3280 -0.1299  0.2631
 5458SOL    HW227834   1.518   0.489  10.821 -0.5127 -0.7454 -3.1618
 5459SOL     OW27835   4.680   1.799   5.253  0.3120  0.4050  0.0669
 5459SOL    HW127836   4.644   1.806   5.342  1.1575 -0.4860  0.4815
 5459SOL    HW227837   4.617   1.738   5.217  0.0545  0.2333  0.8084
 5460SOL     OW27838   3.060   0.478  11.223 -0.5384 -1.3253 -0.0606
 5460SOL    HW127839   3.143   0.473  11.175  0.6051 -0.6322  1.8404
 5460SOL    HW227840   2.993   0.495  11.156 -0.3636  0.3641  0.1748
 5461SOL     OW27841   2.206   0.335   2.522  0.4013 -0.0964 -0.3274
 5461SOL    HW127842   2.181   0.427   2.533  1.4460  0.1057  0.3698
 5461SOL    HW227843   2.121   0.302   2.492 -0.0650  2.4517 -1.8878
 5462SOL     OW27844   0.355   0.857   2.833  0.0466 -0.0896 -0.0024
 5462SOL    HW127845   0.277   0.906   2.806  0.2095 -0.3563 -0.9310
 5462SOL    HW227846   0.424   0.921   2.812 -2.2113  2.2311 -0.3130
 5463SOL     OW27847   4.516   2.102   9.164 -0.3930 -0.6019 -0.0173
 5463SOL    HW127848   4.432   2.128   9.200 -0.1497 -0.7770  0.6675
 5463SOL    HW227849   4.564   2.186   9.168 -1.7989  0.1194  1.4131
 5464SOL     OW27850   2.813   1.371  12.834 -0.3721 -0.5224  0.2128
 5464SOL    HW127851   2.836   1.374  12.927 -0.1195 -0.2828  0.1406
 5464SOL    HW227852   2.890   1.410  12.792  0.9378 -1.8172  1.3984
 5465SOL     OW27853   2.415   2.607  12.277  0.5403  0.2887 -0.3914
 5465SOL    HW127854   2.364   2.531  12.304 -1.7484  1.3697 -1.6756
 5465SOL    HW227855   2.483   2.575  12.218  1.4725 -0.0763  0.8819
 5466SOL     OW27856   4.235   1.557  10.001  0.2664 -0.3798  0.3301
 5466SOL    HW127857   4.328   1.564  10.022  0.7327 -0.1227 -1.7737
 5466SOL    HW227858   4.197   1.583  10.085  1.9888  1.4769  0.5348
 5467SOL     OW27859   2.862   3.464  15.709 -0.5985  0.0968  0.6836
 5467SOL    HW127860   2.826   3.454  15.797 -1.2411  2.1004  0.6557
 5467SOL    HW227861   2.956   3.452  15.725 -0.7855 -1.7173  0.4714
 5468SOL     OW27862   4.487   4.161   2.739 -0.0600  0.4269  0.5837
 5468SOL    HW127863   4.479   4.238   2.796 -2.0613 -0.2910  1.2742
 5468SOL    HW227864   4.430   4.096   2.779  1.5899 -1.8275 -0.7714
 5469SOL     OW27865   1.661   3.083   5.449 -0.2987 -0.1901  0.0947
 5469SOL    HW127866   1.671   3.092   5.354 -2.5001 -2.1335 -0.3164
 5469SOL    HW227867   1.727   3.018   5.471 -0.9449 -1.3000 -1.2520
 5470SOL     OW27868   4.538   0.581   8.127 -0.5616  0.2498  0.0540
 5470SOL    HW127869   4.600   0.654   8.127  0.2715 -0.4581 -0.9753
 5470SOL    HW227870   4.561   0.551   8.215 -1.5184  1.8500  0.8485
 5471SOL     OW27871   1.510   0.103   7.516  0.3726 -0.2173 -0.8169
 5471SOL    HW127872   1.417   0.123   7.526  0.7839  1.8937 -1.3392
 5471SOL    HW227873   1.498   0.018   7.472  1.0968 -0.1960 -1.0482
 5472SOL     OW27874   0.230   2.188   8.873  0.0524  0.5552 -0.6114
 5472SOL    HW127875   0.278   2.192   8.790  1.2436 -0.4085  0.0351
 5472SOL    HW227876   0.284   2.250   8.922 -3.4234  3.6024 -0.6708
 5473SOL     OW27877   0.035   4.191   4.665 -0.1607  0.5340 -0.4838
 5473SOL    HW127878   4.699   4.132   4.707  0.6683 -0.0129 -0.0342
 5473SOL    HW227879   0.077   4.228   4.742  1.4383 -0.7662 -0.7496
 5474SOL     OW27880   3.685   4.417   3.472 -0.1186  0.4271  0.3919
 5474SOL    HW127881   3.715   4.507   3.488 -2.3449  1.2499 -0.0601
 5474SOL    HW227882   3.591   4.436   3.475 -0.2281 -0.0953  0.0977
 5475SOL     OW27883   3.351   4.495   7.908  0.1562 -0.4258  0.1837
 5475SOL    HW127884   3.364   4.404   7.935  0.5315 -0.4777 -0.1637
 5475SOL    HW227885   3.352   4.536   7.994 -1.4049  1.3792 -0.6653
 5476SOL     OW27886   2.901   0.377  11.423  0.0119 -0.0485 -0.2573
 5476SOL    HW127887   2.845   0.454  11.414 -0.8606 -0.8275 -1.3895
 5476SOL    HW227888   2.963   0.396  11.352  0.8446 -1.0307  0.2113
 5477SOL     OW27889   3.654   3.983   5.684 -0.3448  0.6694  0.0410
 5477SOL    HW127890   3.731   3.990   5.628 -0.2209 -2.0664 -0.1545
 5477SOL    HW227891   3.625   4.073   5.678 -1.0994  0.2417 -2.5756
 5478SOL     OW27892   2.513   4.120  13.362 -0.7461 -0.0409  0.2701
 5478SOL    HW127893   2.493   4.052  13.427  0.4318 -0.5849  0.0631
 5478SOL    HW227894   2.490   4.197  13.414 -1.4381  0.1312 -0.2888
 5479SOL     OW27895   4.710   2.093   6.801  0.2532  0.5927 -0.1431
 5479SOL    HW127896   0.001   2.157   6.732 -2.1991  0.4666 -0.8890
 5479SOL    HW227897   4.717   2.148   6.879  0.1189  1.3564 -0.6721
 5480SOL     OW27898   2.731   3.720   4.511  0.2405 -0.2658 -0.3867
 5480SOL    HW127899   2.718   3.625   4.521 -0.6236  0.0759  1.7069
 5480SOL    HW227900   2.807   3.727   4.569  1.6448  0.1500 -2.3029
 5481SOL     OW27901   1.483   3.199  12.648 -0.7499  0.0332 -0.0942
 5481SOL    HW127902   1.448   3.122  12.604  0.5773  0.0185 -1.1037
 5481SOL    HW227903   1.418   3.200  12.718  0.5975 -0.6895  1.1633
 5482SOL     OW27904   1.678   1.849   4.854 -0.7153  0.0643  0.4993
 5482SOL    HW127905   1.649   1.939   4.866 -2.1539 -0.2764 -0.4987
 5482SOL    HW227906   1.753   1.846   4.915  0.4234 -0.0007 -0.8959
 5483SOL     OW27907   4.277   4.564   4.266  0.3166  0.3105  0.3893
 5483SOL    HW127908   4.362   4.562   4.223 -0.4625  0.3543 -1.1371
 5483SOL    HW227909   4.271   4.655   4.293 -1.8702  0.2241  0.2019
 5484SOL     OW27910   3.656   3.759   7.193 -0.4718  0.6072  0.0512
 5484SOL    HW127911   3.618   3.823   7.252 -0.8739 -1.3038  1.8816
 5484SOL    HW227912   3.586   3.756   7.127  1.6436 -1.4928 -2.1024
 5485SOL     OW27913   0.983   3.409  12.109  0.0162  0.5831  0.3151
 5485SOL    HW127914   0.920   3.455  12.054 -1.3537 -0.8305  0.6807
 5485SOL    HW227915   0.945   3.413  12.197 -0.6220 -0.1537  0.0718
 5486SOL     OW27916   4.462   3.252   2.465  0.4887 -0.2101 -0.3290
 5486SOL    HW127917   4.471   3.266   2.371 -2.6023  1.9953 -0.2870
 5486SOL    HW227918   4.553   3.228   2.481  0.0817 -1.2227  0.4644
 5487SOL     OW27919   1.197   0.482   6.826  0.0788 -0.5084 -0.4230
 5487SOL    HW127920   1.139   0.410   6.803 -0.9433  0.6356 -1.4624
 5487SOL    HW227921   1.275   0.465   6.773  0.9640 -1.6770  1.2511
 5488SOL     OW27922   0.770   3.695   2.774  0.0748 -0.2403 -0.1929
 5488SOL    HW127923   0.824   3.658   2.844 -0.9685  0.5667  1.0586
 5488SOL    HW227924   0.826   3.765   2.742  1.0900 -1.7853 -1.7477
 5489SOL     OW27925   2.603   0.132   6.779 -0.1542  0.6033  0.0859
 5489SOL    HW127926   2.510   0.119   6.796 -0.1062  1.7446  1.2180
 5489SOL    HW227927   2.655   0.093   6.848  0.7170 -1.4352 -1.7131
 5490SOL     OW27928   1.798   1.858   7.132 -0.4029  0.1057  0.0568
 5490SOL    HW127929   1.829   1.891   7.217  1.3385 -0.6168 -0.3191
 5490SOL    HW227930   1.800   1.764   7.147  1.2395 -0.2092 -2.2299
 5491SOL     OW27931   3.321   0.181   3.537 -0.3641  0.1316  0.2596
 5491SOL    HW127932   3.248   0.119   3.543 -0.4322 -0.0319 -2.0038
 5491SOL    HW227933   3.295   0.260   3.584 -0.3714 -0.8508  1.8745
 5492SOL     OW27934   3.402   4.224   2.971 -0.2894 -0.0085 -0.0432
 5492SOL    HW127935   3.344   4.232   3.047  0.5577  0.5164  0.5510
 5492SOL    HW227936   3.488   4.220   3.013 -0.9764 -1.3689  1.2412
 5493SOL     OW27937   2.530   0.457   4.083 -0.3197 -0.1041  0.2904
 5493SOL    HW127938   2.536   0.432   4.175 -0.0623 -0.2198  0.2429
 5493SOL    HW227939   2.622   0.455   4.056 -0.5730  0.6161 -0.6109
 5494SOL     OW27940   2.527   0.065   9.876  0.7840  0.1497  0.2909
 5494SOL    HW127941   2.593   0.094   9.938 -0.7696  0.9089  1.5862
 5494SOL    HW227942   2.531   0.135   9.811 -1.9329  1.6509  1.7456
 5495SOL     OW27943   0.412   2.224   9.198  0.0877 -0.3932  0.0084
 5495SOL    HW127944   0.365   2.142   9.187  1.0238 -0.7594 -1.3319
 5495SOL    HW227945   0.408   2.269   9.113 -0.1495  0.0820  0.2743
 5496SOL     OW27946   2.196   4.516   7.409 -0.1063 -0.3298 -0.0427
 5496SOL    HW127947   2.180   4.472   7.492 -0.0702  1.1960  0.7688
 5496SOL    HW227948   2.111   4.523   7.366 -0.5136 -0.2207  0.7765
 5497SOL     OW27949   3.785   0.684   1.303 -0.3912 -0.0438 -0.0939
 5497SOL    HW127950   3.784   0.776   1.274 -3.1438 -0.5019 -1.4357
 5497SOL    HW227951   3.690   0.670   1.308 -0.0410 -1.2634  3.1488
 5498SOL     OW27952   1.191   4.368   7.062  0.3642 -0.1262 -0.4093
 5498SOL    HW127953   1.247   4.392   6.988 -0.3422 -1.4610 -1.3653
 5498SOL    HW227954   1.133   4.303   7.023 -0.9402  0.2261  0.9826
 5499SOL     OW27955   1.745   2.267   3.363  0.4045  0.0303  0.6640
 5499SOL    HW127956   1.779   2.298   3.278 -0.4956 -1.2987 -0.1707
 5499SOL    HW227957   1.775   2.341   3.416  1.4236 -0.7337  1.1450
 5500SOL     OW27958   2.990   0.947  16.762  0.3605  0.0223 -0.4858
 5500SOL    HW127959   3.070   0.954  16.814 -0.3215 -1.9223  0.7782
 5500SOL    HW227960   2.990   1.034  16.722 -1.8224  0.6030  0.8207
 5501SOL     OW27961   4.667   3.455   7.321  0.0761 -0.2005 -0.0449
 5501SOL    HW127962   4.621   3.400   7.258  0.6678  1.5637 -2.0249
 5501SOL    HW227963   0.034   3.436   7.310 -0.1410 -0.6942 -0.9964
 5502SOL     OW27964   1.125   2.661   6.147  0.1512  0.4100  0.5569
 5502SOL    HW127965   1.210   2.668   6.105 -0.4655  0.5036 -0.6690
 5502SOL    HW227966   1.116   2.752   6.176  1.2045  0.5190  0.5402
 5503SOL     OW27967   1.326   2.491  17.409 -0.2562  0.2890 -0.5686
 5503SOL    HW127968   1.304   2.575  17.368 -2.2948  0.2803  0.4912
 5503SOL    HW227969   1.322   2.441  17.327 -2.8168  1.3737 -1.1124
 5504SOL     OW27970   0.204   4.058  15.027  0.0054  0.2197 -1.0238
 5504SOL    HW127971   0.199   4.107  15.109  1.1920  1.5642 -1.7532
 5504SOL    HW227972   0.261   3.986  15.053 -1.3930 -0.4593  0.1675
 5505SOL     OW27973   4.726   3.929  11.705 -0.7307  0.3046 -0.6080
 5505SOL    HW127974   0.015   4.021  11.680  0.4837  0.5060  0.8585
 5505SOL    HW227975   0.035   3.885  11.628  3.4694  0.5446  1.2032
 5506SOL     OW27976   3.334   3.330   3.822 -0.1201 -0.1210 -0.1627
 5506SOL    HW127977   3.294   3.403   3.773 -0.3960 -0.2710 -0.1629
 5506SOL    HW227978   3.318   3.260   3.759 -0.4503 -0.2112  0.0220
 5507SOL     OW27979   2.725   3.308   0.244 -0.5348  0.1165  0.2281
 5507SOL    HW127980   2.820   3.297   0.242 -0.4879  0.3636  1.3349
 5507SOL    HW227981   2.706   3.315   0.150  3.0909 -0.2232 -0.5495
 5508SOL     OW27982   2.680   4.174   4.670 -0.2988  0.3355  0.4439
 5508SOL    HW127983   2.654   4.210   4.585  0.7589  1.4676  0.6020
 5508SOL    HW227984   2.595   4.152   4.708 -1.3823 -1.2412 -2.9407
 5509SOL     OW27985   4.533   2.640   7.195 -0.4365  0.0717 -0.0797
 5509SOL    HW127986   4.450   2.658   7.240  0.8328  1.9162  1.4964
 5509SOL    HW227987   4.506   2.627   7.103  0.3672  0.7968 -0.4166
 5510SOL     OW27988   2.185   1.987  10.918  0.0176  0.3314  0.2819
 5510SOL    HW127989   2.267   2.014  10.959  0.3500  0.0803 -0.2218
 5510SOL    HW227990   2.153   1.920  10.977  2.5844 -1.7085 -0.6741
 5511SOL     OW27991   0.924   0.329  13.790  0.2907  0.4853 -0.0746
 5511SOL    HW127992   0.959   0.388  13.857  2.6667 -0.4355 -0.5211
 5511SOL    HW227993   0.952   0.244  13.823 -0.3672  0.7644  1.2048
 5512SOL     OW27994   4.324   2.673   5.744  0.5286  0.3684 -0.2632
 5512SOL    HW127995   4.273   2.673   5.663  0.1833 -0.3698 -0.0417
 5512SOL    HW227996   4.262   2.672   5.816  0.3929  2.6347 -0.3272
 5513SOL     OW27997   2.125   2.753   9.174  0.3033  0.2522 -0.6641
 5513SOL    HW127998   2.128   2.661   9.148  1.6079 -0.4874  2.1701
 5513SOL    HW227999   2.041   2.751   9.220 -0.7255  0.5663 -2.5001
 5514SOL     OW28000   2.972   0.269   5.475  0.3312 -0.0169 -0.7484
 5514SOL    HW128001   3.057   0.253   5.434  1.0882  0.6686  0.5589
 5514SOL    HW228002   2.913   0.298   5.407 -2.6257 -2.1895  0.8901
 5515SOL     OW28003   1.576   1.890  12.521  0.3328 -1.0966 -0.1134
 5515SOL    HW128004   1.623   1.828  12.465  2.3897  1.3679 -1.1388
 5515SOL    HW228005   1.488   1.888  12.485  0.1303  1.9475  0.1719
 5516SOL     OW28006   2.631   0.085   5.233  0.2926 -0.2605 -0.1138
 5516SOL    HW128007   2.669   0.079   5.321 -0.4986 -0.5095  0.2180
 5516SOL    HW228008   2.538   0.061   5.241  0.9586 -2.6372  0.3676
 5517SOL     OW28009   2.147   0.048   5.245 -0.0351 -0.1120 -0.0575
 5517SOL    HW128010   2.219   0.005   5.199  0.1208  0.1869 -0.0889
 5517SOL    HW228011   2.165   0.028   5.337  3.2543  0.3641 -0.5972
 5518SOL     OW28012   2.576   0.097   5.663 -0.2808 -0.4456 -0.1405
 5518SOL    HW128013   2.621   0.036   5.605  0.8253 -1.9024  2.2086
 5518SOL    HW228014   2.529   0.158   5.606 -0.1382 -0.9263 -0.7647
 5519SOL     OW28015   1.157   2.340   4.018 -0.5368 -0.0356 -0.3415
 5519SOL    HW128016   1.210   2.270   3.978 -0.9364 -0.6388  0.1927
 5519SOL    HW228017   1.230   2.402   4.009  1.4699 -2.1019  1.5981
 5520SOL     OW28018   1.822   2.796   4.394 -0.1468 -0.4562  0.2406
 5520SOL    HW128019   1.912   2.765   4.391 -0.4935 -1.3985 -0.3265
 5520SOL    HW228020   1.776   2.712   4.395 -1.3569  0.2095  0.9071
 5521SOL     OW28021   1.612   3.722   4.691  0.4438  0.5287  0.1558
 5521SOL    HW128022   1.551   3.767   4.749  0.8446  0.2238  0.8096
 5521SOL    HW228023   1.692   3.728   4.743  1.2124  0.3880 -0.9849
 5522SOL     OW28024   2.516   4.274   7.452  0.1807 -0.0833  0.0082
 5522SOL    HW128025   2.551   4.362   7.440 -1.1052  0.5322  0.7458
 5522SOL    HW228026   2.473   4.286   7.537 -0.8994  0.9361 -0.6864
 5523SOL     OW28027   1.258   0.207   4.603  0.6906 -0.9333 -0.0417
 5523SOL    HW128028   1.335   0.171   4.647 -1.1418 -3.1930  1.3341
 5523SOL    HW228029   1.195   0.135   4.610  1.1260 -1.2873  0.2810
 5524SOL     OW28030   2.269   3.418   6.956 -0.0686 -0.2805 -0.2967
 5524SOL    HW128031   2.247   3.343   6.900 -1.2715 -0.0184 -0.1834
 5524SOL    HW228032   2.317   3.371   7.024  1.9011  1.1208 -0.7400
 5525SOL     OW28033   1.738   1.698   3.000 -0.3146  0.4913 -0.0584
 5525SOL    HW128034   1.808   1.763   3.002  2.7880 -2.9171 -0.1774
 5525SOL    HW228035   1.661   1.746   3.033 -0.0568  0.7588  0.1513
 5526SOL     OW28036   0.486   4.229   8.615 -0.4449  0.1227  0.6954
 5526SOL    HW128037   0.433   4.174   8.672  1.1019 -0.2745  1.7416
 5526SOL    HW228038   0.485   4.187   8.529  1.2324 -0.8320  1.1599
 5527SOL     OW28039   2.892   3.599   8.534  0.1241 -0.5038  0.0987
 5527SOL    HW128040   2.896   3.694   8.523  1.7261 -0.3481  1.8945
 5527SOL    HW228041   2.881   3.599   8.629 -0.2614  2.1324  0.0543
 5528SOL     OW28042   0.094   3.168  12.648  1.0490  0.4585 -0.4186
 5528SOL    HW128043   0.001   3.189  12.652  1.4586  1.9821  1.3320
 5528SOL    HW228044   0.093   3.082  12.691 -0.8167  0.0118 -1.4036
 5529SOL     OW28045   1.173   1.161   3.897  0.1987 -0.1665  0.4826
 5529SOL    HW128046   1.137   1.250   3.893  0.2939 -0.2265 -1.6718
 5529SOL    HW228047   1.252   1.154   3.843 -0.2049 -0.3830 -0.0766
 5530SOL     OW28048   4.092   2.941   2.442 -0.0776  0.0375  0.6189
 5530SOL    HW128049   4.045   2.865   2.408 -2.2153  0.3928  2.7618
 5530SOL    HW228050   4.068   3.008   2.377  0.2167 -0.8224 -0.3719
 5531SOL     OW28051   1.359   2.397   3.330 -0.0573  0.1761  0.1455
 5531SOL    HW128052   1.417   2.446   3.271  1.1765 -0.3637  0.8967
 5531SOL    HW228053   1.425   2.361   3.389 -1.5089 -0.8031  1.1629
 5532SOL     OW28054   0.894   1.251   6.076 -0.1144  0.0540  0.1000
 5532SOL    HW128055   0.971   1.259   6.020  0.1455  1.8382  0.7285
 5532SOL    HW228056   0.922   1.201   6.153  2.8577  2.4107  0.5433
 5533SOL     OW28057   1.660   0.162   8.469  0.2733  0.0183  0.0927
 5533SOL    HW128058   1.582   0.199   8.426  0.8240  0.0282 -0.9038
 5533SOL    HW228059   1.703   0.142   8.386 -0.0658 -2.2323  0.4782
 5534SOL     OW28060   1.943   3.969   0.575  0.3317  0.0887 -0.0415
 5534SOL    HW128061   1.980   3.888   0.610 -0.4029 -0.8438 -1.4073
 5534SOL    HW228062   1.878   3.980   0.644  2.7727 -0.0386  2.2920
 5535SOL     OW28063   1.529   2.310   6.640 -0.1117 -0.1968  0.1133
 5535SOL    HW128064   1.490   2.293   6.554  2.2970  2.2078 -1.4267
 5535SOL    HW228065   1.471   2.379   6.672  0.5640  0.1446  0.5967
 5536SOL     OW28066   3.995   4.678   4.192  0.7637 -0.2924  0.5612
 5536SOL    HW128067   4.055   0.009   4.239  0.5734  0.8936 -0.6288
 5536SOL    HW228068   4.005   4.597   4.241 -1.1366 -0.9593 -0.1524
 5537SOL     OW28069   0.732   0.805  15.259  0.0548  0.1513 -0.0864
 5537SOL    HW128070   0.800   0.861  15.223 -1.4544  1.6599 -0.6274
 5537SOL    HW228071   0.697   0.774  15.175 -0.7600 -0.0214  0.3163
 5538SOL     OW28072   3.773   1.270   4.368 -0.3735 -0.1936 -0.4367
 5538SOL    HW128073   3.863   1.299   4.355  0.1973 -1.2201  1.3592
 5538SOL    HW228074   3.738   1.358   4.385 -0.8673 -0.7790  1.5862
 5539SOL     OW28075   3.034   0.644   5.787 -0.2642  0.0377 -0.2805
 5539SOL    HW128076   2.997   0.573   5.734  0.9329  0.0013 -1.0676
 5539SOL    HW228077   3.118   0.605   5.808 -1.5281 -1.5866  1.7701
 5540SOL     OW28078   4.486   1.969   3.797 -0.1020 -0.0028  0.1363
 5540SOL    HW128079   4.426   2.042   3.782  2.2860  2.0255  0.5129
 5540SOL    HW228080   4.479   1.914   3.718 -2.2046 -0.3163  0.5358
 5541SOL     OW28081   3.375   0.575   1.562  0.1023  0.5252  0.3193
 5541SOL    HW128082   3.302   0.533   1.516 -0.4630  0.2651  1.4428
 5541SOL    HW228083   3.332   0.627   1.630  0.9121  2.3013 -0.5426
 5542SOL     OW28084   2.742   0.831  16.793 -0.1043 -0.3218 -0.0259
 5542SOL    HW128085   2.682   0.898  16.758  0.3449 -0.8670 -1.8627
 5542SOL    HW228086   2.825   0.877  16.799 -0.6814  0.8112 -0.6952
 5543SOL     OW28087   3.159   4.096   4.255  0.1643  0.2750 -0.2761
 5543SOL    HW128088   3.070   4.109   4.286  1.4250  2.3200  2.4745
 5543SOL    HW228089   3.187   4.027   4.315  1.5957  2.2544  1.3283
 5544SOL     OW28090   2.393   0.201   0.097 -0.0962 -0.0529 -0.1685
 5544SOL    HW128091   2.336   0.169   0.167 -0.5295  1.7546  0.2786
 5544SOL    HW228092   2.351   0.159   0.021 -0.9116 -0.7235  0.6500
 5545SOL     OW28093   4.400   3.741  12.916 -0.7419 -0.3479  0.0796
 5545SOL    HW128094   4.477   3.719  12.968 -1.6322 -0.9047  1.1441
 5545SOL    HW228095   4.385   3.833  12.939  1.7332  0.0420  0.0871
 5546SOL     OW28096   0.831   4.710   4.912 -0.3989  0.0731 -0.0569
 5546SOL    HW128097   0.771   4.640   4.939 -0.5366 -0.1870 -1.0341
 5546SOL    HW228098   0.907   4.702   4.971 -0.5191  1.8199  0.3419
 5547SOL     OW28099   2.916   3.156   4.997  0.2214 -0.4026 -0.2365
 5547SOL    HW128100   2.970   3.098   5.050  1.3692 -0.6820 -1.7397
 5547SOL    HW228101   2.835   3.151   5.048  0.1730  2.4464 -0.0378
 5548SOL     OW28102   1.327   4.476   0.956 -0.0580  0.2465  0.7174
 5548SOL    HW128103   1.270   4.402   0.936  0.3705  0.9729 -3.1311
 5548SOL    HW228104   1.263   4.532   0.999  0.3247  0.2285  1.3111
 5549SOL     OW28105   2.693   4.230   6.445 -0.6933  0.3720 -0.3443
 5549SOL    HW128106   2.769   4.236   6.387 -0.3567  0.9784  0.1715
 5549SOL    HW228107   2.700   4.145   6.489  2.6979 -0.6233 -2.8294
 5550SOL     OW28108   0.212   0.539   1.279 -0.3544 -0.2313  0.2345
 5550SOL    HW128109   0.182   0.590   1.354 -0.0913 -1.2450  1.0320
 5550SOL    HW228110   0.205   0.606   1.212  0.3440 -1.1343 -0.7533
 5551SOL     OW28111   3.917   2.880   6.897 -0.1117 -0.8012  0.7974
 5551SOL    HW128112   3.875   2.951   6.945 -1.2587  0.2633 -1.8256
 5551SOL    HW228113   3.984   2.859   6.963  0.7384  0.5061  0.3473
 5552SOL     OW28114   0.614   1.291   5.240  0.1765  0.4088  0.3306
 5552SOL    HW128115   0.550   1.283   5.169 -0.5191 -1.1524  1.1351
 5552SOL    HW228116   0.621   1.201   5.273  0.7012  0.4215  0.2511
 5553SOL     OW28117   1.211   0.449  15.033 -0.1671 -0.3434  0.0642
 5553SOL    HW128118   1.235   0.465  15.124  1.0944  0.3390 -0.3935
 5553SOL    HW228119   1.276   0.386  15.001 -0.7698  0.5228 -2.8139
 5554SOL     OW28120   4.439   1.582   7.840  0.1426 -0.0762 -0.5782
 5554SOL    HW128121   4.521   1.542   7.869 -0.6000 -1.3623 -0.2485
 5554SOL    HW228122   4.382   1.508   7.820  0.8007 -1.1299  1.4984
 5555SOL     OW28123   3.025   4.317   5.558 -0.3751 -0.2429 -0.8468
 5555SOL    HW128124   3.008   4.256   5.487 -1.0775 -2.8459  1.5424
 5555SOL    HW228125   2.940   4.347   5.589 -1.4486 -0.1618 -3.9155
 5556SOL     OW28126   2.625   2.018   6.766 -0.0905  0.5132  0.4997
 5556SOL    HW128127   2.555   2.084   6.771  0.9659  1.7552 -1.0967
 5556SOL    HW228128   2.679   2.036   6.843  2.1684  0.2259 -1.0383
 5557SOL     OW28129   2.807   1.887   2.339  0.8090 -0.1264  0.4706
 5557SOL    HW128130   2.877   1.945   2.369  2.0596 -2.0376  1.2465
 5557SOL    HW228131   2.850   1.801   2.345 -3.6795 -2.2726  1.5972
 5558SOL     OW28132   2.702   4.016   7.134 -0.6459  0.0503  0.2480
 5558SOL    HW128133   2.654   4.095   7.110 -1.5993 -0.2573  1.1943
 5558SOL    HW228134   2.628   3.971   7.172 -0.8580  0.3493  0.1894
 5559SOL     OW28135   0.011   1.822  10.362 -0.3627 -0.2501 -0.1241
 5559SOL    HW128136   0.013   1.839  10.456 -3.6729 -1.4909  0.1990
 5559SOL    HW228137   4.700   1.734  10.368 -0.2085 -0.5130 -2.8726
 5560SOL     OW28138   3.867   1.141   5.476  0.2010 -0.9246 -0.0644
 5560SOL    HW128139   3.822   1.170   5.396  0.7357  0.6207  0.1928
 5560SOL    HW228140   3.933   1.084   5.436  0.5635 -2.1835  2.3100
 5561SOL     OW28141   0.773   4.543   7.459  0.0007 -0.1211 -0.5133
 5561SOL    HW128142   0.802   4.453   7.449  1.7889  0.1146  2.6122
 5561SOL    HW228143   0.702   4.548   7.394  1.4295 -1.3579 -2.1483
 5562SOL     OW28144   1.090   1.378  15.079 -0.2306  0.4853 -0.3609
 5562SOL    HW128145   1.115   1.467  15.052 -0.1004 -0.1337 -2.2570
 5562SOL    HW228146   1.104   1.341  14.992  1.5797  0.4018 -0.0394
 5563SOL     OW28147   0.354   1.394  12.638 -0.1026  0.4688 -0.6299
 5563SOL    HW128148   0.420   1.327  12.657 -1.0828 -0.2333  0.3152
 5563SOL    HW228149   0.403   1.442  12.571 -0.6995 -1.2792 -2.3077
 5564SOL     OW28150   3.828   2.345   5.318  0.7077 -0.3802  0.0292
 5564SOL    HW128151   3.857   2.313   5.232 -0.8399  2.4885 -1.5714
 5564SOL    HW228152   3.793   2.433   5.306 -1.1009 -0.7485  2.6297
 5565SOL     OW28153   0.857   4.340   6.326  0.2012  0.7267  0.0720
 5565SOL    HW128154   0.891   4.414   6.276  2.7260 -0.0614  0.6021
 5565SOL    HW228155   0.939   4.298   6.354  1.4706  3.4983  0.4580
 5566SOL     OW28156   1.839   2.125  15.765 -0.1109  0.1964  0.3684
 5566SOL    HW128157   1.789   2.047  15.738  0.3508  0.5582 -1.5532
 5566SOL    HW228158   1.886   2.069  15.827 -2.4822 -1.1023  1.0354
 5567SOL     OW28159   3.033   3.584  13.293 -0.0545 -0.7462 -0.0462
 5567SOL    HW128160   2.974   3.518  13.330  0.1393 -0.4914  0.7158
 5567SOL    HW228161   2.986   3.612  13.214  1.2869  0.6085 -0.3656
 5568SOL     OW28162   3.710   0.514  14.903  0.2755  0.0130  0.7046
 5568SOL    HW128163   3.646   0.584  14.913  1.7962  1.0511  3.0923
 5568SOL    HW228164   3.680   0.478  14.820  1.8447 -1.4792  0.7917
 5569SOL     OW28165   3.443   0.130   6.173  0.0681  0.2841  0.5202
 5569SOL    HW128166   3.361   0.177   6.187 -0.6414 -0.2553 -1.7632
 5569SOL    HW228167   3.410   0.042   6.186 -1.0347  0.8546  1.5305
 5570SOL     OW28168   3.144   3.728   7.127 -0.5097  0.8968  0.1158
 5570SOL    HW128169   3.062   3.684   7.106  0.0119 -0.4051  0.8202
 5570SOL    HW228170   3.164   3.691   7.213  0.8559  0.6691 -0.2994
 5571SOL     OW28171   2.405   4.688   0.922 -0.2195 -0.2496  0.9580
 5571SOL    HW128172   2.311   4.675   0.917 -0.6441  2.8489  0.6364
 5571SOL    HW228173   2.409   0.026   0.994 -0.4992 -0.1867  0.9172
 5572SOL     OW28174   1.009   0.356   1.022 -0.6208 -0.2159  0.6204
 5572SOL    HW128175   1.011   0.406   0.940  1.2139 -0.9792  0.2195
 5572SOL    HW228176   0.964   0.280   0.985  0.6563 -1.3339  1.4126
 5573SOL     OW28177   2.409   2.749   8.645 -0.4652 -0.4595 -0.0663
 5573SOL    HW128178   2.403   2.797   8.562  2.3210 -0.4647 -0.2650
 5573SOL    HW228179   2.452   2.670   8.613  0.5860  0.1198 -0.0585
 5574SOL     OW28180   3.074   4.580   8.785  0.1494 -0.0111 -0.0910
 5574SOL    HW128181   3.113   4.643   8.846  0.6058 -1.2377  0.9074
 5574SOL    HW228182   3.033   4.518   8.846  0.4500  0.0734  0.1995
 5575SOL     OW28183   0.035   3.894  17.262 -0.0267 -0.2723 -0.2980
 5575SOL    HW128184   0.018   3.821  17.321  4.2240 -1.6048 -0.7882
 5575SOL    HW228185   0.011   3.847  17.183  0.5529  0.3862 -0.8623
 5576SOL     OW28186   0.908   4.396   0.935  0.3990 -0.0849  0.3459
 5576SOL    HW128187   0.819   4.364   0.951 -0.5021  2.0539 -0.3968
 5576SOL    HW228188   0.900   4.489   0.955  0.3489  0.5221 -2.5311
 5577SOL     OW28189   4.628   4.500  10.723  0.0913  0.2530  0.4814
 5577SOL    HW128190   4.721   4.513  10.741  0.2949  0.8072 -0.9123
 5577SOL    HW228191   4.596   4.589  10.707  1.6909  1.2429  2.7479
 5578SOL     OW28192   1.429   3.850   9.497 -0.2340 -0.2016 -0.1770
 5578SOL    HW128193   1.386   3.772   9.531 -2.7397  1.4781  0.4536
 5578SOL    HW228194   1.356   3.890   9.450 -0.6569  0.5868  1.1321
 5579SOL     OW28195   4.023   2.555   6.699  0.6965  0.3618 -0.2685
 5579SOL    HW128196   4.089   2.579   6.634  1.4437  0.8243  0.6660
 5579SOL    HW228197   3.952   2.618   6.685  0.5347 -0.3814 -2.8990
 5580SOL     OW28198   3.080   4.266  12.659 -0.0326 -0.0460  0.4710
 5580SOL    HW128199   3.158   4.315  12.685 -0.2214  1.0918 -1.1232
 5580SOL    HW228200   3.053   4.234  12.745 -1.5475 -0.7497 -0.2543
 5581SOL     OW28201   1.006   3.262   3.077  0.3621 -0.1132 -0.8478
 5581SOL    HW128202   0.959   3.185   3.043 -0.4523  0.2791 -0.6102
 5581SOL    HW228203   1.005   3.247   3.171  0.2140  0.5215 -0.7484
 5582SOL     OW28204   1.031   3.902   4.198  0.0850  0.1530  0.0674
 5582SOL    HW128205   0.937   3.914   4.190  0.0264  1.2732  2.2854
 5582SOL    HW228206   1.063   3.956   4.125  2.4358 -0.3789  0.7027
 5583SOL     OW28207   2.492   2.589  15.177  0.0508 -0.0154  0.2098
 5583SOL    HW128208   2.450   2.613  15.094 -0.6689 -0.6932  0.3746
 5583SOL    HW228209   2.519   2.676  15.206 -0.5812  0.7070 -1.3499
 5584SOL     OW28210   0.006   1.952   8.665 -0.2842  0.3465  0.0183
 5584SOL    HW128211   0.027   1.887   8.733  1.0201  0.4084 -0.3301
 5584SOL    HW228212   4.720   2.033   8.714  1.7446 -0.3330  1.6756
 5585SOL     OW28213   0.273   1.666  15.964 -0.5761 -0.7024 -0.4304
 5585SOL    HW128214   0.330   1.675  16.041 -0.2821  0.6831 -0.8124
 5585SOL    HW228215   0.331   1.705  15.898 -1.3385  0.5112 -0.3750
 5586SOL     OW28216   1.996   4.490   9.691 -0.3110 -0.1971 -0.5757
 5586SOL    HW128217   2.013   4.400   9.663  3.1157  0.2202  0.1994
 5586SOL    HW228218   1.909   4.487   9.731 -0.3398  0.8469 -0.5573
 5587SOL     OW28219   3.497   1.685   9.332  0.6631 -0.2794 -0.2890
 5587SOL    HW128220   3.559   1.612   9.333  0.2689 -0.5494  3.3298
 5587SOL    HW228221   3.450   1.678   9.415 -1.6211 -0.1884 -1.5991
 5588SOL     OW28222   3.289   0.317   4.654  0.6951  0.0664  0.2020
 5588SOL    HW128223   3.211   0.354   4.695  0.2469 -1.2866  0.5790
 5588SOL    HW228224   3.306   0.367   4.574 -1.7314 -0.9273 -0.9243
 5589SOL     OW28225   0.173   1.280   5.440 -0.2706 -0.4816 -0.2787
 5589SOL    HW128226   0.251   1.335   5.451 -0.1805 -0.8179  0.7543
 5589SOL    HW228227   0.100   1.338   5.419  0.3573  1.2208  2.2245
 5590SOL     OW28228   4.020   1.803  10.144 -0.0060  0.1848 -0.3518
 5590SOL    HW128229   3.972   1.802  10.061 -0.2669  0.9404 -0.2071
 5590SOL    HW228230   4.078   1.873  10.116  2.1704 -0.0170  3.6744
 5591SOL     OW28231   3.482   3.798   6.249 -0.4411 -0.0733 -0.5338
 5591SOL    HW128232   3.468   3.850   6.328  0.8061  0.1022 -0.4218
 5591SOL    HW228233   3.424   3.724   6.264  0.1641 -0.7193 -1.3883
 5592SOL     OW28234   3.630   4.458   3.918 -0.2022  0.2062 -0.0763
 5592SOL    HW128235   3.608   4.547   3.947 -2.8710 -0.3270 -0.3982
 5592SOL    HW228236   3.546   4.417   3.942 -0.0382 -0.0211  0.1124
 5593SOL     OW28237   2.490   2.160   8.584 -0.0369 -0.0676 -0.3358
 5593SOL    HW128238   2.522   2.170   8.674 -4.5574  0.9552  1.1693
 5593SOL    HW228239   2.429   2.089   8.602  1.0966 -0.4868  1.8268
 5594SOL     OW28240   3.417   1.694   6.350 -0.3497  0.0638 -0.4816
 5594SOL    HW128241   3.367   1.613   6.361  0.3935 -0.1636  1.1775
 5594SOL    HW228242   3.348   1.758   6.336 -0.2593  0.9868  3.3412
 5595SOL     OW28243   2.090   0.085   2.760 -0.4216  0.4156 -0.0085
 5595SOL    HW128244   2.105   0.028   2.684  0.1719 -1.7414  1.7411
 5595SOL    HW228245   2.170   0.138   2.760 -0.5466  0.6042  0.2450
 5596SOL     OW28246   0.898   0.987   7.200 -0.1412 -0.0152 -0.1915
 5596SOL    HW128247   0.837   0.914   7.190 -1.1660  0.7296  0.5333
 5596SOL    HW228248   0.975   0.935   7.179  0.0934  0.9813 -1.8310
 5597SOL     OW28249   0.120   1.999   5.137  0.7960  0.0883  0.0039
 5597SOL    HW128250   0.073   1.928   5.179 -0.5473  1.1347  0.2889
 5597SOL    HW228251   0.086   2.077   5.182  2.5032  0.6811  0.3125
 5598SOL     OW28252   2.491   2.438   2.591 -0.0541 -0.3984  0.4073
 5598SOL    HW128253   2.457   2.461   2.505 -1.6053 -1.3010  0.7712
 5598SOL    HW228254   2.418   2.384   2.622 -1.3453 -0.5422 -2.9533
 5599SOL     OW28255   4.519   1.224   9.115 -0.0194 -0.5191  0.3247
 5599SOL    HW128256   4.494   1.264   9.199 -2.1753  2.2133 -1.6330
 5599SOL    HW228257   4.597   1.180   9.148 -2.1320 -2.9903  2.1185
 5600SOL     OW28258   3.124   2.479   2.380 -0.2876  0.0002  0.1419
 5600SOL    HW128259   3.129   2.569   2.347  0.0042 -0.5644 -1.3672
 5600SOL    HW228260   3.032   2.460   2.362 -0.2421  0.9480 -1.0977
 5601SOL     OW28261   2.899   0.052   3.861 -0.1086 -0.1210 -0.0773
 5601SOL    HW128262   2.926   0.143   3.861  2.0743 -0.7694 -1.4928
 5601SOL    HW228263   2.852   0.059   3.944 -1.8382 -2.1367 -0.8640
 5602SOL     OW28264   1.546   4.411   3.777  0.2226 -0.5219 -0.0790
 5602SOL    HW128265   1.571   4.385   3.688  0.0689 -1.0327  0.0280
 5602SOL    HW228266   1.451   4.398   3.772  0.0642  1.2838 -2.0298
 5603SOL     OW28267   2.345   0.592   7.111  0.5546 -0.3225 -0.4194
 5603SOL    HW128268   2.408   0.621   7.045  1.8528  1.0079  1.4403
 5603SOL    HW228269   2.375   0.505   7.138 -1.5530 -0.7377  0.6349
 5604SOL     OW28270   2.380   0.258   9.475  0.8512  0.0611  0.1468
 5604SOL    HW128271   2.288   0.237   9.494  0.8245  1.0869  1.1691
 5604SOL    HW228272   2.377   0.283   9.383  1.7688  1.1274  0.4146
 5605SOL     OW28273   0.979   2.186  11.946  0.2179  0.2075  0.6110
 5605SOL    HW128274   1.069   2.173  11.916 -0.9826 -2.0617 -2.0717
 5605SOL    HW228275   0.983   2.196  12.041 -0.8096 -0.9631  0.7789
 5606SOL     OW28276   3.210   1.505   1.403 -0.0245 -0.8328  0.2706
 5606SOL    HW128277   3.182   1.432   1.347 -1.4117 -0.9718  1.1704
 5606SOL    HW228278   3.306   1.502   1.395  0.3499  0.6961  4.2651
 5607SOL     OW28279   4.589   1.724  15.796 -0.0615  0.2246 -0.2384
 5607SOL    HW128280   4.591   1.795  15.732 -1.2723 -1.1981 -1.8226
 5607SOL    HW228281   4.639   1.761  15.869  0.5957 -0.9223 -0.1013
 5608SOL     OW28282   3.604   3.469   5.937 -0.3530  0.2586  0.2131
 5608SOL    HW128283   3.575   3.554   5.903 -1.8770 -1.1008 -1.9340
 5608SOL    HW228284   3.580   3.408   5.868  2.0385  0.2852 -0.6454
 5609SOL     OW28285   1.886   0.120   8.265 -0.0427 -0.3095 -0.4609
 5609SOL    HW128286   1.894   0.144   8.173 -2.4527 -0.0442 -0.5879
 5609SOL    HW228287   1.917   0.200   8.308 -1.5342 -0.8564  1.6568
 5610SOL     OW28288   1.995   4.003   2.067 -0.2505 -0.6144  0.0861
 5610SOL    HW128289   1.946   4.042   2.140 -1.1045 -2.6540  0.6169
 5610SOL    HW228290   2.022   4.086   2.028 -2.7918 -1.3870 -3.2454
 5611SOL     OW28291   4.296   4.001   9.317 -0.3315 -0.2113  0.2958
 5611SOL    HW128292   4.348   3.965   9.389  1.0427 -1.0457 -1.1312
 5611SOL    HW228293   4.210   4.001   9.359  0.8657 -0.6285  2.7241
 5612SOL     OW28294   3.630   0.651   4.762  0.1726 -0.1114  0.1931
 5612SOL    HW128295   3.675   0.732   4.784  1.0749 -1.0585  1.8913
 5612SOL    HW228296   3.572   0.639   4.837  0.2582  0.9704  0.4333
 5613SOL     OW28297   2.753   3.826   3.847  0.0390 -0.4588  0.5285
 5613SOL    HW128298   2.688   3.896   3.846 -0.9755 -1.4060  0.5766
 5613SOL    HW228299   2.807   3.845   3.924 -1.1649 -2.3707  1.8467
 5614SOL     OW28300   2.791   1.918  11.211  0.0842 -0.3985 -0.3852
 5614SOL    HW128301   2.848   1.992  11.186  1.6102 -2.0026 -1.6538
 5614SOL    HW228302   2.802   1.871  11.129 -0.3686  0.4978 -0.9587
 5615SOL     OW28303   2.651   2.479   9.022 -0.1127  0.1166 -0.0692
 5615SOL    HW128304   2.740   2.466   8.988  0.0978 -0.2476  0.6171
 5615SOL    HW228305   2.654   2.575   9.022  0.0383  0.1156  1.4102
 5616SOL     OW28306   4.183   2.146  12.447 -0.4356  0.2653 -0.2872
 5616SOL    HW128307   4.168   2.114  12.359  0.8186  0.3205 -0.5262
 5616SOL    HW228308   4.264   2.106  12.480 -0.7947 -0.6533 -0.5164
 5617SOL     OW28309   3.030   2.252  10.091 -0.1265  0.0293 -0.3052
 5617SOL    HW128310   3.023   2.343  10.120  1.8121 -0.5329  1.8499
 5617SOL    HW228311   3.095   2.265  10.021 -0.1684 -0.8728 -0.5147
 5618SOL     OW28312   2.358   2.803  14.513 -0.2263 -0.3717  0.3206
 5618SOL    HW128313   2.263   2.814  14.521 -0.1703  1.5252 -1.8703
 5618SOL    HW228314   2.371   2.708  14.511  2.7487  0.0670 -0.8131
 5619SOL     OW28315   0.263   4.185  17.490  0.7518 -0.4262  0.1875
 5619SOL    HW128316   0.222   4.136  17.560  0.6943  0.7046  0.9496
 5619SOL    HW228317   0.336   4.226  17.536 -0.5834  1.1041  0.9553
 5620SOL     OW28318   0.304   1.927   9.573 -0.2621  0.0588  0.2726
 5620SOL    HW128319   0.372   1.897   9.512  1.3342  2.3789  0.9059
 5620SOL    HW228320   0.240   1.858   9.555 -0.0996  0.2242 -0.9783
 5621SOL     OW28321   1.588   2.571  10.949  0.6115  0.0038 -0.4253
 5621SOL    HW128322   1.548   2.631  11.012 -0.7273 -0.9892 -0.3237
 5621SOL    HW228323   1.675   2.568  10.988 -0.0150 -1.7503  0.8517
 5622SOL     OW28324   3.433   2.364   3.193  0.2961  0.6271 -0.5088
 5622SOL    HW128325   3.481   2.429   3.243 -0.5937  0.1143  1.0254
 5622SOL    HW228326   3.492   2.372   3.118  0.2395  2.3126 -0.3719
 5623SOL     OW28327   2.009   3.177   2.884  0.2564  0.0053 -0.0887
 5623SOL    HW128328   1.936   3.205   2.939  0.1075  0.3905 -0.4858
 5623SOL    HW228329   2.026   3.262   2.844 -0.4424  0.2376  0.1203
 5624SOL     OW28330   3.193   1.535   3.192 -0.2321  0.5682 -0.6111
 5624SOL    HW128331   3.182   1.450   3.235  1.8070  0.0683 -1.0795
 5624SOL    HW228332   3.109   1.571   3.220  1.0230  0.9952  2.5519
 5625SOL     OW28333   2.229   0.178   8.758 -0.2989 -0.3204 -0.4663
 5625SOL    HW128334   2.174   0.121   8.705  1.7153 -0.9070 -1.9078
 5625SOL    HW228335   2.200   0.265   8.730  0.7992  0.1643 -0.1010
 5626SOL     OW28336   1.243   1.197   3.174  0.1521 -0.1182 -0.4579
 5626SOL    HW128337   1.220   1.253   3.100  0.8087  0.8648  0.0847
 5626SOL    HW228338   1.311   1.246   3.221  1.0434 -0.8470 -0.9700
 5627SOL     OW28339   1.010   2.378  16.393  0.7039 -0.3052 -0.3827
 5627SOL    HW128340   1.097   2.363  16.429 -0.1434 -1.9202  0.9669
 5627SOL    HW228341   0.960   2.384  16.474  0.5501 -1.0210 -0.4266
 5628SOL     OW28342   0.019   3.823  11.023 -0.1117 -0.7259 -0.0060
 5628SOL    HW128343   4.684   3.897  11.026  0.2522 -0.4521  0.6667
 5628SOL    HW228344   0.007   3.790  10.934  0.4828  0.6470 -0.5893
 5629SOL     OW28345   3.724   3.044   8.665 -0.1725 -0.5524 -0.0528
 5629SOL    HW128346   3.731   3.132   8.702  2.2920 -1.1615  0.8724
 5629SOL    HW228347   3.764   3.058   8.579 -0.8197  0.6949 -0.1636
 5630SOL     OW28348   3.247   4.678   9.339  0.3769 -0.4506 -0.3717
 5630SOL    HW128349   3.297   0.033   9.340  1.1804 -0.9255 -2.0522
 5630SOL    HW228350   3.190   4.696   9.414  0.1569  2.7273 -1.2928
 5631SOL     OW28351   0.114   4.366  11.907 -0.2225 -0.3029 -0.9243
 5631SOL    HW128352   0.164   4.412  11.838 -0.0780  0.3274 -0.4039
 5631SOL    HW228353   0.082   4.441  11.958 -0.7839 -0.6552 -0.7686
 5632SOL     OW28354   0.926   3.199  14.483  0.4709  0.0434 -0.1332
 5632SOL    HW128355   0.954   3.277  14.530 -0.9668  0.2821  0.3271
 5632SOL    HW228356   0.844   3.175  14.526 -0.8223  1.2401 -1.9386
 5633SOL     OW28357   1.573   0.179   9.270  0.0904 -0.0197 -0.3511
 5633SOL    HW128358   1.578   0.156   9.177 -2.8922  1.1968 -0.8222
 5633SOL    HW228359   1.595   0.105   9.326  1.9201  1.4965  0.9140
 5634SOL     OW28360   0.743   4.549   5.756  0.1165  0.3468 -0.5539
 5634SOL    HW128361   0.744   4.472   5.700 -2.3050 -1.8658  2.4954
 5634SOL    HW228362   0.652   4.549   5.785  0.6316  0.6987  1.0324
 5635SOL     OW28363   2.844   3.158   7.060 -0.2148 -0.1644 -0.7156
 5635SOL    HW128364   2.912   3.117   7.007  0.3076  0.9482 -0.9136
 5635SOL    HW228365   2.807   3.204   6.984 -1.7328  2.2013  1.4665
 5636SOL     OW28366   2.256   0.148   7.678  0.4058  0.9976  0.4866
 5636SOL    HW128367   2.212   0.205   7.615 -2.5254  1.8356  3.2470
 5636SOL    HW228368   2.308   0.212   7.726 -1.1535  2.0733  0.7368
 5637SOL     OW28369   0.766   1.927  15.515 -0.7805 -0.0370  0.1960
 5637SOL    HW128370   0.772   1.851  15.457  1.0464  0.5524 -0.4009
 5637SOL    HW228371   0.845   1.899  15.562 -0.9312  0.0437  0.4962
 5638SOL     OW28372   2.123   3.083   4.280  0.4861  0.2050 -0.2895
 5638SOL    HW128373   2.148   2.991   4.290 -3.0190 -0.7875 -0.7538
 5638SOL    HW228374   2.054   3.091   4.345  1.0192  1.6725  0.1009
 5639SOL     OW28375   4.624   1.686   6.525  0.1846 -0.1716  0.0030
 5639SOL    HW128376   4.698   1.678   6.585 -1.5046  0.3105  2.1661
 5639SOL    HW228377   4.603   1.779   6.535  0.6169 -0.2618  1.7559
 5640SOL     OW28378   1.677   0.687   3.948  0.2817 -0.7175  0.0185
 5640SOL    HW128379   1.627   0.765   3.926 -0.9280 -1.3818  0.4053
 5640SOL    HW228380   1.759   0.705   3.903  0.2795 -1.0588 -0.1197
 5641SOL     OW28381   3.641   4.380   4.807  0.6591  0.3903  0.0237
 5641SOL    HW128382   3.646   4.349   4.717 -0.6769 -0.0463  0.1091
 5641SOL    HW228383   3.611   4.302   4.854  0.1657  0.0512 -0.8624
 5642SOL     OW28384   1.436   1.561   7.319  0.0664  0.5424  0.6906
 5642SOL    HW128385   1.352   1.598   7.289 -0.3806 -1.4037 -0.4336
 5642SOL    HW228386   1.435   1.468   7.297  1.1008  0.2282  1.9969
 5643SOL     OW28387   2.321   1.478   7.575 -0.2969  0.2704 -0.0435
 5643SOL    HW128388   2.330   1.562   7.619 -0.7881  1.3726 -2.0834
 5643SOL    HW228389   2.314   1.417   7.649 -1.1015  1.1771  0.6256
 5644SOL     OW28390   4.541   4.532  15.079  0.2609  0.5442  0.2533
 5644SOL    HW128391   4.546   4.611  15.133  0.6907 -0.0484  1.0912
 5644SOL    HW228392   4.470   4.490  15.128  1.3386 -3.3807 -1.5529
 5645SOL     OW28393   1.278   4.417   3.874 -0.3726 -0.1519 -0.2604
 5645SOL    HW128394   1.244   4.500   3.906 -1.5490 -2.0006  3.3123
 5645SOL    HW228395   1.262   4.360   3.950  0.2660 -1.9440 -1.4603
 5646SOL     OW28396   2.303   3.847  16.389 -0.8103 -0.0542  0.2399
 5646SOL    HW128397   2.370   3.891  16.337 -1.7827 -1.4227 -2.1552
 5646SOL    HW228398   2.356   3.785  16.438  2.3940  0.8569 -2.1179
 5647SOL     OW28399   0.143   1.643  16.842  0.8407  0.3005 -0.0260
 5647SOL    HW128400   0.237   1.631  16.852  0.9932 -0.4093 -2.3439
 5647SOL    HW228401   0.112   1.598  16.921 -1.0197 -0.6417 -1.2856
 5648SOL     OW28402   4.217   1.023   8.090  0.6853  0.3730  0.3799
 5648SOL    HW128403   4.255   1.111   8.086  1.7489 -0.1549 -1.1489
 5648SOL    HW228404   4.284   0.979   8.143 -0.4091  0.9736  2.2423
 5649SOL     OW28405   3.493   0.753  11.422 -0.2485 -0.4837  0.0392
 5649SOL    HW128406   3.527   0.686  11.363  0.5492  0.7589 -0.8952
 5649SOL    HW228407   3.478   0.823  11.358 -1.7991  0.9285  1.9451
 5650SOL     OW28408   0.715   2.306  12.184 -0.1133  0.0561 -0.3407
 5650SOL    HW128409   0.660   2.323  12.108  0.6443  0.6105 -0.7558
 5650SOL    HW228410   0.727   2.211  12.180  0.7859  0.2401 -1.7424
 5651SOL     OW28411   4.060   1.082   4.141 -0.6135  0.2556  0.3089
 5651SOL    HW128412   4.035   1.017   4.076  0.8804  0.7927 -0.7981
 5651SOL    HW228413   4.025   1.162   4.104  1.0003  0.9662  0.3066
 5652SOL     OW28414   0.889   3.648   3.979  0.1056 -0.0461  0.3525
 5652SOL    HW128415   0.905   3.708   4.052  0.5786 -0.4881  0.6134
 5652SOL    HW228416   0.837   3.686   3.908 -1.1840 -0.3032  1.1514
 5653SOL     OW28417   0.555   1.254   9.003  0.9178  0.3400 -0.0499
 5653SOL    HW128418   0.517   1.299   8.928  1.2469  0.0138 -0.4123
 5653SOL    HW228419   0.490   1.245   9.073 -0.4963 -0.9885 -1.5215
 5654SOL     OW28420   0.630   2.077   4.178 -0.9164  0.4803  0.4835
 5654SOL    HW128421   0.587   2.093   4.094  0.7957 -0.5217 -0.6042
 5654SOL    HW228422   0.566   2.017   4.215  0.2922 -0.7747  0.5260
 5655SOL     OW28423   1.917   1.101   9.467 -0.0186 -0.6589  1.1909
 5655SOL    HW128424   1.972   1.077   9.541 -0.0249  1.2269  1.8121
 5655SOL    HW228425   1.920   1.196   9.458 -0.8444 -0.8972 -1.8504
 5656SOL     OW28426   0.464   2.359  17.417 -0.0241  0.1371  0.5925
 5656SOL    HW128427   0.463   2.263  17.424 -1.7698  0.1602  0.5354
 5656SOL    HW228428   0.409   2.395  17.487 -1.7772 -2.2189  0.4189
 5657SOL     OW28429   3.946   4.022   9.746  0.0773 -0.2185  0.2734
 5657SOL    HW128430   3.882   4.090   9.727  0.0529 -0.3885 -0.2512
 5657SOL    HW228431   4.000   4.060   9.816 -0.6087  1.0438  0.1109
 5658SOL     OW28432   4.005   0.263  15.100  0.0479  0.1919  0.0512
 5658SOL    HW128433   3.968   0.352  15.104 -0.3340  0.1046 -1.2509
 5658SOL    HW228434   3.937   0.219  15.151  0.2682 -0.1552  0.0423
 5659SOL     OW28435   0.928   2.052   7.943  0.1581  0.3032  0.0962
 5659SOL    HW128436   0.970   2.076   7.860  2.5700 -1.6048  0.7544
 5659SOL    HW228437   0.975   1.971   7.962  0.1830  0.3926  0.4078
 5660SOL     OW28438   2.121   2.430   5.751 -0.2575  0.0050 -0.1247
 5660SOL    HW128439   2.189   2.368   5.778  0.0619  0.7722  0.8126
 5660SOL    HW228440   2.049   2.371   5.727 -0.8268  1.2110 -1.3802
 5661SOL     OW28441   2.400   3.349   5.537 -0.0329 -0.2959  0.6075
 5661SOL    HW128442   2.386   3.323   5.446  2.0390 -0.6620  0.4087
 5661SOL    HW228443   2.469   3.414   5.529 -1.5524  1.0448 -1.6842
 5662SOL     OW28444   2.658   4.476   3.602  0.4912 -0.6696  0.7469
 5662SOL    HW128445   2.616   4.422   3.534  0.8381  1.7884 -1.4047
 5662SOL    HW228446   2.614   4.446   3.682  0.0868  1.0727  1.1836
 5663SOL     OW28447   1.607   3.916  15.322  0.2315 -0.2111  0.7705
 5663SOL    HW128448   1.641   3.907  15.411  2.4741 -0.2205 -0.0717
 5663SOL    HW228449   1.642   4.003  15.300 -1.6308  0.3907  0.2475
 5664SOL     OW28450   2.292   1.487   5.662  0.6309 -0.5815 -0.3215
 5664SOL    HW128451   2.197   1.492   5.672  1.1928  2.1280  3.6494
 5664SOL    HW228452   2.311   1.410   5.716 -1.3072  0.9797  2.5164
 5665SOL     OW28453   1.995   1.226   6.436  0.1293 -0.0599 -0.2304
 5665SOL    HW128454   2.018   1.215   6.343  1.8311 -1.8931  0.3936
 5665SOL    HW228455   1.932   1.155   6.448 -0.5378  0.7306  0.9333
 5666SOL     OW28456   2.648   0.794  10.706  0.1511 -0.4861 -0.1219
 5666SOL    HW128457   2.684   0.747  10.631  1.3197  0.5458 -0.2161
 5666SOL    HW228458   2.556   0.777  10.685 -0.3827  0.7508  1.2186
 5667SOL     OW28459   2.183   0.074  11.476  0.2003  0.5359 -0.3870
 5667SOL    HW128460   2.192   0.149  11.534 -0.2309 -0.1276  0.5404
 5667SOL    HW228461   2.117   0.024  11.523  0.3958  0.4175 -0.2373
 5668SOL     OW28462   1.849   4.284   0.181 -0.0521 -0.2418  0.3229
 5668SOL    HW128463   1.832   4.377   0.190 -0.4062 -0.2500 -0.2833
 5668SOL    HW228464   1.792   4.253   0.251  1.0278 -1.4767  0.6709
 5669SOL     OW28465   0.221   3.290   8.810 -0.2494  0.4732 -0.2564
 5669SOL    HW128466   0.247   3.276   8.901 -0.6628  0.5004 -0.1372
 5669SOL    HW228467   0.292   3.247   8.762 -0.4664 -2.3947  1.9838
 5670SOL     OW28468   0.022   2.742   9.723 -0.4334  0.2878 -0.2679
 5670SOL    HW128469   4.726   2.698   9.806  0.0744  0.3080 -0.1213
 5670SOL    HW228470   0.024   2.831   9.757  1.2397  0.0825  0.1529
 5671SOL     OW28471   4.196   4.110  15.187 -0.3227 -0.4877 -0.2210
 5671SOL    HW128472   4.123   4.171  15.192 -0.1055 -0.2037 -0.4852
 5671SOL    HW228473   4.261   4.180  15.182 -2.9873  1.8839 -1.6973
 5672SOL     OW28474   0.638   4.543   7.234  0.8916  0.1736  0.2519
 5672SOL    HW128475   0.670   4.573   7.149 -2.4337 -1.1462 -1.4597
 5672SOL    HW228476   0.554   4.507   7.204  0.7327  0.7364  0.0120
 5673SOL     OW28477   1.655   4.407   3.524 -0.4078 -0.3118 -0.4631
 5673SOL    HW128478   1.636   4.485   3.472 -0.8017 -1.0399 -1.4106
 5673SOL    HW228479   1.726   4.371   3.471 -0.5978  0.4722 -1.2366
 5674SOL     OW28480   0.007   2.241   7.269  0.3275 -0.0048 -0.4272
 5674SOL    HW128481   0.028   2.176   7.336  2.4962  1.4601  0.3432
 5674SOL    HW228482   4.661   2.282   7.316 -0.2397  0.9366 -2.1324
 5675SOL     OW28483   2.587   1.848  12.084 -0.3818 -0.2558  0.3934
 5675SOL    HW128484   2.514   1.839  12.146  0.1161  0.9216  1.1542
 5675SOL    HW228485   2.627   1.928  12.119 -0.9276  1.0134 -1.8872
 5676SOL     OW28486   2.063   4.487   6.793  0.1930 -0.1686 -0.6657
 5676SOL    HW128487   2.095   4.422   6.730 -0.2829  0.2466 -1.3256
 5676SOL    HW228488   2.062   4.571   6.748  3.0226 -0.8206 -1.9440
 5677SOL     OW28489   2.206   4.008   1.239 -0.4868  0.3142  0.2013
 5677SOL    HW128490   2.281   4.020   1.298 -0.2409 -2.0317  0.3843
 5677SOL    HW228491   2.213   3.914   1.218 -0.6091  0.5837 -1.0718
 5678SOL     OW28492   0.389   1.203   4.732  0.4566  0.2928 -0.3153
 5678SOL    HW128493   0.335   1.170   4.804 -0.7263 -0.8663 -1.7340
 5678SOL    HW228494   0.443   1.125   4.717  0.5358  0.3532 -0.3447
 5679SOL     OW28495   3.500   4.596  16.448  0.0198  0.3350  0.4691
 5679SOL    HW128496   3.496   4.534  16.521 -2.0098 -1.6951 -1.3659
 5679SOL    HW228497   3.570   4.561  16.392  2.4407  3.6442  1.4455
 5680SOL     OW28498   0.178   1.028   8.768 -0.5546 -0.0123  0.3158
 5680SOL    HW128499   0.174   0.936   8.794  0.5043 -0.6570 -1.9054
 5680SOL    HW228500   0.141   1.067   8.848  0.0375  0.7442  0.2209
 5681SOL     OW28501   4.663   1.370  15.658  0.3380 -0.3319 -0.3539
 5681SOL    HW128502   4.616   1.449  15.630  2.1515  0.7395 -0.3486
 5681SOL    HW228503   0.008   1.415  15.704  0.0084  0.2252 -0.3885
 5682SOL     OW28504   0.096   4.314  16.241 -0.5157 -0.0307 -0.1296
 5682SOL    HW128505   0.178   4.338  16.284  0.4327 -0.9721 -1.4109
 5682SOL    HW228506   0.121   4.285  16.153  0.0622  2.6211 -0.8284
 5683SOL     OW28507   3.914   3.807   8.799 -0.2956  0.2666  0.1199
 5683SOL    HW128508   3.826   3.785   8.831  0.3132  2.0670  2.9494
 5683SOL    HW228509   3.965   3.817   8.879 -0.3146  1.1787  0.0127
 5684SOL     OW28510   3.785   2.696   7.652 -0.1800 -0.0557  0.1655
 5684SOL    HW128511   3.771   2.602   7.659 -2.2025  0.2712  0.6514
 5684SOL    HW228512   3.860   2.687   7.593  0.2857 -0.2552  0.7879
 5685SOL     OW28513   1.169   3.934  15.825 -0.0438 -0.5128  0.1540
 5685SOL    HW128514   1.221   4.004  15.785  1.1572 -0.8486  1.1068
 5685SOL    HW228515   1.148   3.982  15.905  0.3743 -1.2671  0.7167
 5686SOL     OW28516   2.074   1.145   6.123 -0.0475  0.1240  0.1288
 5686SOL    HW128517   2.006   1.100   6.073 -1.1034 -0.1832  1.8291
 5686SOL    HW228518   2.096   1.219   6.067  1.9098 -1.8481 -1.7534
 5687SOL     OW28519   2.695   0.221   8.102  0.2721  0.3924  0.4384
 5687SOL    HW128520   2.629   0.234   8.169 -1.2127 -3.3879 -0.2863
 5687SOL    HW228521   2.726   0.133   8.122 -1.9465 -0.2577  0.9537
 5688SOL     OW28522   3.556   2.265   1.244 -0.4248  0.2198  0.1082
 5688SOL    HW128523   3.617   2.193   1.262  0.1279  0.4089 -0.9562
 5688SOL    HW228524   3.534   2.298   1.331  4.4304  3.0705  0.2804
 5689SOL     OW28525   0.452   1.452   6.402  0.8875  0.1449 -0.1537
 5689SOL    HW128526   0.442   1.523   6.465 -0.9728  0.4618 -0.7900
 5689SOL    HW228527   0.531   1.413   6.439  1.6904  1.0478 -0.9026
 5690SOL     OW28528   3.339   2.809   6.504  0.2718 -0.7947 -0.1004
 5690SOL    HW128529   3.390   2.865   6.563  0.1075 -1.5566  0.7653
 5690SOL    HW228530   3.380   2.830   6.420 -2.2751 -1.1609 -1.4259
 5691SOL     OW28531   3.892   3.300   7.087  0.2982  0.7049 -0.4802
 5691SOL    HW128532   3.849   3.305   7.173  1.0702  2.1621 -0.1833
 5691SOL    HW228533   3.871   3.213   7.054 -0.9901  1.8804 -2.7210
 5692SOL     OW28534   3.252   3.225   2.812 -0.0246  0.3254  0.6193
 5692SOL    HW128535   3.326   3.198   2.757 -0.1696 -0.1090  0.6402
 5692SOL    HW228536   3.281   3.317   2.816  0.6394  0.1530 -0.1979
 5693SOL     OW28537   1.603   4.409   4.555  0.1671  0.4877  0.4751
 5693SOL    HW128538   1.508   4.421   4.552  0.3091  1.4878 -0.2737
 5693SOL    HW228539   1.603   4.325   4.510 -1.6632  0.0159  1.3682
 5694SOL     OW28540   2.152   3.659   3.600 -0.4811 -0.7105  0.1973
 5694SOL    HW128541   2.197   3.592   3.549 -0.1055 -0.9862  0.8961
 5694SOL    HW228542   2.217   3.728   3.614  0.9846 -2.2189  0.7513
 5695SOL     OW28543   4.171   3.653   6.618 -0.3343 -0.4288 -0.2354
 5695SOL    HW128544   4.101   3.590   6.600 -0.7409 -0.5176  1.6421
 5695SOL    HW228545   4.186   3.699   6.536 -0.9317 -0.8062 -0.5552
 5696SOL     OW28546   2.561   2.172   7.984  0.0776 -0.4426 -0.2871
 5696SOL    HW128547   2.523   2.215   7.907  2.1202 -2.4937 -2.3933
 5696SOL    HW228548   2.558   2.079   7.962  1.2263 -0.8994  1.5565
 5697SOL     OW28549   3.879   1.341   8.807 -0.7870  0.2422 -0.0591
 5697SOL    HW128550   3.818   1.405   8.769 -0.3969  0.5635 -0.1527
 5697SOL    HW228551   3.955   1.389   8.840  0.8690 -2.0401 -0.5931
 5698SOL     OW28552   4.555   4.170   3.065  0.6393  0.0012  0.0059
 5698SOL    HW128553   4.615   4.243   3.082 -0.8096  1.2454 -0.2939
 5698SOL    HW228554   4.584   4.153   2.975 -0.1364  0.5777 -0.3527
 5699SOL     OW28555   2.441   4.718   8.022  0.4808  0.2193  0.4382
 5699SOL    HW128556   2.384   0.069   8.028 -0.8047 -0.4447 -3.1351
 5699SOL    HW228557   2.523   0.018   8.064  2.2728 -2.7155 -1.1955
 5700SOL     OW28558   2.180   1.796   3.976  0.1526  0.4226  0.2295
 5700SOL    HW128559   2.168   1.835   4.063 -1.1205 -0.3213  0.3925
 5700SOL    HW228560   2.099   1.817   3.930  1.1663  1.0744 -1.2658
 5701SOL     OW28561   1.538   2.432  15.072 -0.6167 -0.5924  0.1161
 5701SOL    HW128562   1.443   2.434  15.067 -0.5242  0.8801 -1.1624
 5701SOL    HW228563   1.569   2.357  15.020 -1.4412 -1.1922  0.4796
 5702SOL     OW28564   1.773   3.969   5.776 -0.6341 -0.2199 -0.2760
 5702SOL    HW128565   1.771   3.900   5.842 -1.3175  2.0240  2.0451
 5702SOL    HW228566   1.846   4.022   5.809 -2.9019  1.7526  1.5594
 5703SOL     OW28567   0.175   3.094  17.679  1.0189  0.0481  0.0608
 5703SOL    HW128568   0.236   3.154  17.637  0.5306 -0.0184 -0.7308
 5703SOL    HW228569   0.125   3.160   0.021  1.4654 -0.3036  1.0165
 5704SOL     OW28570   0.289   4.255   2.716 -0.6254  0.1888  0.0293
 5704SOL    HW128571   0.203   4.283   2.747 -0.5088 -0.2686  0.7501
 5704SOL    HW228572   0.304   4.323   2.651 -0.8884  0.0802 -0.1485
 5705SOL     OW28573   2.789   2.141   5.962 -0.1416  0.1113  0.1519
 5705SOL    HW128574   2.851   2.085   5.917 -0.1620  0.8914 -0.8352
 5705SOL    HW228575   2.835   2.224   5.972  2.6613 -1.5911  1.2685
 5706SOL     OW28576   1.958   2.771   5.912  0.5570 -0.4321 -0.3514
 5706SOL    HW128577   2.020   2.834   5.949  0.1150 -1.4686  2.1373
 5706SOL    HW228578   2.003   2.745   5.831  1.2244 -0.2314 -0.0460
 5707SOL     OW28579   1.305   0.215   2.091  0.1334  0.3899  0.1767
 5707SOL    HW128580   1.289   0.301   2.130 -2.5683  0.2753 -0.7010
 5707SOL    HW228581   1.259   0.158   2.153 -1.2323  0.2352 -0.9750
 5708SOL     OW28582   3.789   1.748  16.246 -0.4231 -0.8103 -0.3931
 5708SOL    HW128583   3.706   1.779  16.209  0.7021  1.5748 -0.9122
 5708SOL    HW228584   3.844   1.761  16.169  2.6720  1.2895  2.2327
 5709SOL     OW28585   3.539   4.482   2.231  0.4624 -0.3040 -0.3467
 5709SOL    HW128586   3.555   4.552   2.168 -2.3643 -0.4839 -1.2402
 5709SOL    HW228587   3.503   4.414   2.173  1.9477 -1.4301  0.0444
 5710SOL     OW28588   3.873   2.598   4.618 -0.0094 -0.4351 -0.9010
 5710SOL    HW128589   3.920   2.678   4.594 -1.4927  0.4815 -0.7082
 5710SOL    HW228590   3.945   2.535   4.617  0.1827 -0.2766  2.2592
 5711SOL     OW28591   2.087   3.039  11.260  0.1302 -0.3073  0.3316
 5711SOL    HW128592   2.083   2.945  11.278 -1.0259  0.0431  1.8297
 5711SOL    HW228593   2.082   3.063  11.352  1.6556 -1.4953  0.7417
 5712SOL     OW28594   2.915   1.484   5.755 -0.8339 -0.1098 -0.3087
 5712SOL    HW128595   3.000   1.501   5.795 -0.1299  0.0594 -1.8904
 5712SOL    HW228596   2.868   1.453   5.833 -0.9370 -0.6448 -0.5798
 5713SOL     OW28597   4.040   2.045   0.377 -0.1786 -0.1926 -0.0206
 5713SOL    HW128598   3.970   1.981   0.361  1.4293 -1.3555 -2.4218
 5713SOL    HW228599   4.100   2.000   0.436 -1.2547  0.6135  1.6940
 5714SOL     OW28600   1.423   2.810   1.028  0.1890 -0.2937 -0.1426
 5714SOL    HW128601   1.394   2.727   0.990  1.4320 -0.9741  0.3932
 5714SOL    HW228602   1.376   2.864   0.964 -1.5816 -1.6837 -0.0357
 5715SOL     OW28603   0.529   1.057   2.772  0.0877 -0.2823  0.4891
 5715SOL    HW128604   0.505   1.126   2.833  3.0792  0.5947  0.6968
 5715SOL    HW228605   0.623   1.064   2.756  0.1852 -1.5574  0.5401
 5716SOL     OW28606   2.830   1.158   3.058  0.5536  0.1842 -0.2776
 5716SOL    HW128607   2.816   1.221   3.129 -0.6276  0.6208 -0.8902
 5716SOL    HW228608   2.833   1.077   3.108  1.2456 -0.3010 -1.1177
 5717SOL     OW28609   3.375   2.212  10.354  0.1257 -0.3048  0.3738
 5717SOL    HW128610   3.439   2.214  10.282  0.0554 -0.6511  0.2973
 5717SOL    HW228611   3.342   2.301  10.347 -2.2464 -1.3145 -1.3705
 5718SOL     OW28612   1.572   0.704   8.579  0.1349  0.7050 -0.5559
 5718SOL    HW128613   1.598   0.791   8.550 -1.2304  2.1648  2.5115
 5718SOL    HW228614   1.506   0.683   8.513  0.3237  1.6257 -1.0412
 5719SOL     OW28615   1.295   3.478  14.563 -0.3170 -0.2434 -0.3629
 5719SOL    HW128616   1.277   3.566  14.597  0.8079 -0.3747  0.5553
 5719SOL    HW228617   1.209   3.445  14.537 -0.6020 -0.6514  1.1309
 5720SOL     OW28618   4.549   4.557  11.793  0.1693 -0.2954 -0.0877
 5720SOL    HW128619   4.486   4.588  11.858  0.6787 -0.3471  0.4334
 5720SOL    HW228620   4.552   4.464  11.815  1.4750 -0.1112  0.5027
 5721SOL     OW28621   2.205   1.483  13.238  0.0130 -0.0919  0.1966
 5721SOL    HW128622   2.153   1.559  13.213  0.9902 -0.4360 -2.9031
 5721SOL    HW228623   2.218   1.433  13.158  0.0696  1.1362 -0.5547
 5722SOL     OW28624   4.455   4.207   6.234 -0.2710  0.3485  0.2842
 5722SOL    HW128625   4.433   4.217   6.141  0.7406 -0.6366 -0.0584
 5722SOL    HW228626   4.379   4.254   6.270 -0.8508  0.8845 -1.6253
 5723SOL     OW28627   0.026   4.341   3.084 -0.3103  0.0373  0.0611
 5723SOL    HW128628   0.052   4.384   3.002 -1.6528 -1.1411 -0.9774
 5723SOL    HW228629   0.077   4.398   3.141  0.6945 -0.4603 -0.3349
 5724SOL     OW28630   0.016   1.039  14.630 -0.0398 -0.7117 -0.7514
 5724SOL    HW128631   0.080   1.062  14.698 -1.2295  0.7215 -0.1235
 5724SOL    HW228632   4.666   1.041  14.688 -0.1527  0.6767 -0.9609
 5725SOL     OW28633   1.667   2.666   9.598 -0.2066  0.1450 -0.0025
 5725SOL    HW128634   1.725   2.741   9.610 -1.8903  1.5819 -0.9124
 5725SOL    HW228635   1.663   2.656   9.503  0.2519 -0.2203  0.0140
 5726SOL     OW28636   4.304   1.309  13.286 -0.5456  0.0907  0.1792
 5726SOL    HW128637   4.346   1.341  13.205  0.3245 -0.1457  0.5348
 5726SOL    HW228638   4.320   1.215  13.279  0.3866  0.2681 -0.1680
 5727SOL     OW28639   2.324   2.152   5.221  0.4786  0.0083  0.3133
 5727SOL    HW128640   2.298   2.209   5.148  1.6921 -0.6715 -0.6466
 5727SOL    HW228641   2.327   2.212   5.296  1.0135 -0.2191  0.4759
 5728SOL     OW28642   2.421   2.675   6.726 -0.6549  0.2987 -0.0368
 5728SOL    HW128643   2.469   2.594   6.714 -1.5305 -0.1582 -0.4090
 5728SOL    HW228644   2.346   2.639   6.679 -0.6553 -1.0202  0.9743
 5729SOL     OW28645   1.128   4.657   5.632  0.0205 -0.1998 -0.1155
 5729SOL    HW128646   1.123   4.561   5.626  1.8053 -0.3026  0.0597
 5729SOL    HW228647   1.093   4.668   5.544 -0.6254  3.1840  0.5631
 5730SOL     OW28648   2.911   0.446   5.661 -0.0014  0.2017  0.3025
 5730SOL    HW128649   2.825   0.466   5.624 -0.5715  0.4181  1.7425
 5730SOL    HW228650   2.939   0.376   5.602 -0.5354  0.8880 -0.7801
 5731SOL     OW28651   2.089   4.647   6.365  0.2636  0.4206  0.7464
 5731SOL    HW128652   2.070   4.690   6.448  0.6744 -0.5365  1.3300
 5731SOL    HW228653   2.181   4.664   6.345  0.8418 -2.4616  0.9223
 5732SOL     OW28654   4.028   4.092  10.581 -0.3583  0.3039  0.4053
 5732SOL    HW128655   3.949   4.048  10.612  0.3732 -2.2076 -1.3094
 5732SOL    HW228656   4.057   4.134  10.662  1.0115 -0.8181  0.4859
 5733SOL     OW28657   3.772   2.437   2.209  0.3348 -0.0424  0.2166
 5733SOL    HW128658   3.694   2.480   2.173  0.8790  0.5494 -0.2419
 5733SOL    HW228659   3.830   2.512   2.199 -0.3040  0.3999 -0.1464
 5734SOL     OW28660   0.763   0.689  10.654  0.8721  0.3106  0.1419
 5734SOL    HW128661   0.722   0.774  10.671 -0.3103  0.0343 -1.2959
 5734SOL    HW228662   0.725   0.669  10.568  1.1190  0.5859 -0.0351
 5735SOL     OW28663   4.466   3.831  14.373 -0.2778 -0.6085  0.3341
 5735SOL    HW128664   4.554   3.823  14.335  0.4847 -1.7037  2.2929
 5735SOL    HW228665   4.461   3.767  14.444 -0.4349 -1.0105 -0.0384
 5736SOL     OW28666   2.707   0.965   2.818  0.1132  0.3599 -0.2320
 5736SOL    HW128667   2.796   0.933   2.802 -0.3200 -0.5361 -0.8332
 5736SOL    HW228668   2.724   1.044   2.870  1.9852  1.6416 -2.7946
 5737SOL     OW28669   4.058   4.690   2.236  0.4650 -0.3028 -0.4795
 5737SOL    HW128670   4.133   4.653   2.188  1.7221 -2.1815  2.8979
 5737SOL    HW228671   3.991   4.695   2.168 -0.1463  0.1163  0.1502
 5738SOL     OW28672   0.701   1.983   5.757  0.0243 -0.4635  0.4205
 5738SOL    HW128673   0.778   1.958   5.809  0.7239 -0.0337 -0.4205
 5738SOL    HW228674   0.742   2.026   5.682  1.0056 -1.1844  0.5438
 5739SOL     OW28675   3.514   0.646   1.311  0.0368  0.8253 -0.1148
 5739SOL    HW128676   3.453   0.585   1.269 -0.4454  1.2758 -0.0699
 5739SOL    HW228677   3.495   0.633   1.404  1.4899 -1.0361 -0.0680
 5740SOL     OW28678   3.413   1.411   0.990 -0.3946 -0.1467  0.1208
 5740SOL    HW128679   3.444   1.339   1.047  1.9112 -0.6574 -1.7636
 5740SOL    HW228680   3.462   1.388   0.911  0.2182  1.2125  0.1025
 5741SOL     OW28681   2.150   4.585   8.766  0.4261 -0.1057 -0.4891
 5741SOL    HW128682   2.076   4.645   8.776  1.1891  0.8265 -0.4387
 5741SOL    HW228683   2.109   4.518   8.712 -0.3502  0.8232 -1.0656
 5742SOL     OW28684   4.001   3.319   1.618  0.2107 -0.3041 -0.4322
 5742SOL    HW128685   4.085   3.359   1.643 -1.5608  3.3827 -0.4074
 5742SOL    HW228686   4.024   3.227   1.625  1.1379 -0.1303 -1.1422
 5743SOL     OW28687   0.549   1.565   0.414  0.1651  0.0309 -0.5065
 5743SOL    HW128688   0.471   1.575   0.359  0.9217  1.9623 -1.2396
 5743SOL    HW228689   0.624   1.556   0.355  0.9633  2.4103  0.1438
 5744SOL     OW28690   3.906   0.272   9.558 -0.0253  0.6357 -0.3288
 5744SOL    HW128691   3.833   0.322   9.593 -1.6486 -0.3475 -2.3011
 5744SOL    HW228692   3.980   0.311   9.604 -0.6325  2.4583 -0.9036
 5745SOL     OW28693   0.246   4.626  15.262  0.1706  0.0582  0.3443
 5745SOL    HW128694   0.315   4.577  15.306  0.1506  0.7788  1.1857
 5745SOL    HW228695   0.207   4.557  15.208  0.9852 -1.4897  1.7352
 5746SOL     OW28696   2.523   2.702   1.058 -0.2401 -0.0022  0.5703
 5746SOL    HW128697   2.523   2.771   0.991  1.1201  0.8154  1.4098
 5746SOL    HW228698   2.609   2.712   1.099  0.4029 -0.8403 -0.5858
 5747SOL     OW28699   3.881   2.429  14.812  0.3812  0.3937 -0.1767
 5747SOL    HW128700   3.868   2.394  14.900  0.8424 -0.1289 -0.3160
 5747SOL    HW228701   3.792   2.453  14.786 -0.9465 -0.6914  3.4706
 5748SOL     OW28702   4.283   2.688   7.305  0.1238 -0.4525  0.0673
 5748SOL    HW128703   4.259   2.596   7.302  0.0466 -0.4510  0.7506
 5748SOL    HW228704   4.305   2.701   7.397 -0.1907 -2.7759  0.4728
 5749SOL     OW28705   4.197   3.393   9.662  0.8423 -0.5114 -0.3123
 5749SOL    HW128706   4.205   3.487   9.649  1.9199 -0.4471  0.7600
 5749SOL    HW228707   4.257   3.358   9.596 -1.6796 -0.2886 -2.7173
 5750SOL     OW28708   4.635   1.196   7.078 -0.1584 -0.7381 -0.3367
 5750SOL    HW128709   4.556   1.190   7.025 -1.4211  0.4877  1.4330
 5750SOL    HW228710   4.691   1.252   7.024 -1.8571  2.2579  1.0739
 5751SOL     OW28711   2.886   1.171   8.468 -0.0581  0.9185 -0.2657
 5751SOL    HW128712   2.796   1.160   8.439  0.4060  0.0235 -1.3700
 5751SOL    HW228713   2.874   1.236   8.537 -1.0149 -1.0270  1.4023
 5752SOL     OW28714   4.712   1.200  15.468 -0.0678 -0.6952 -0.5138
 5752SOL    HW128715   4.681   1.249  15.543 -0.1417  0.5738 -1.3830
 5752SOL    HW228716   0.076   1.203  15.499 -0.3983 -0.7866  0.4515
 5753SOL     OW28717   2.083   2.459   1.274 -0.7788 -0.5415 -0.4060
 5753SOL    HW128718   2.166   2.437   1.315 -1.0688  1.2681  1.1318
 5753SOL    HW228719   2.093   2.548   1.238  1.7482 -0.1564  1.3077
 5754SOL     OW28720   2.953   2.486   8.923  0.2748 -0.0493 -0.1700
 5754SOL    HW128721   2.929   2.548   8.855  1.1909  0.8603  0.3316
 5754SOL    HW228722   2.989   2.410   8.877  1.2064  2.0889 -2.9445
 5755SOL     OW28723   1.953   3.648  14.269 -0.0687  0.5820 -0.1352
 5755SOL    HW128724   2.030   3.703  14.255 -1.4705  2.5976  0.0759
 5755SOL    HW228725   1.909   3.705  14.332 -0.9595  1.3327 -1.4239
 5756SOL     OW28726   2.378   3.604   1.964  0.1605  0.1199 -0.1129
 5756SOL    HW128727   2.427   3.529   1.997 -1.6613 -1.0034  0.0702
 5756SOL    HW228728   2.375   3.659   2.043  0.8866  2.0596 -1.4478
 5757SOL     OW28729   1.615   2.243  16.158 -0.3630  0.8376 -0.1089
 5757SOL    HW128730   1.704   2.261  16.127 -0.6720  1.5663 -0.5632
 5757SOL    HW228731   1.562   2.250  16.079  0.3649 -0.1269 -0.6836
 5758SOL     OW28732   2.603   3.136  11.256 -0.3340  0.3933 -0.0178
 5758SOL    HW128733   2.539   3.152  11.325 -1.5681 -2.3785 -0.5185
 5758SOL    HW228734   2.552   3.181  11.188 -0.7888  2.7004  1.8339
 5759SOL     OW28735   0.728   2.151   6.027  0.1371 -0.3288 -0.5087
 5759SOL    HW128736   0.677   2.137   5.947 -1.6130 -0.1050  0.5504
 5759SOL    HW228737   0.719   2.065   6.067 -2.5706  0.2057  0.0547
 5760SOL     OW28738   1.295   2.952   0.847  0.3522  0.6598  0.4596
 5760SOL    HW128739   1.346   2.971   0.768 -2.6026 -3.3017 -2.4082
 5760SOL    HW228740   1.242   2.882   0.808  1.0811 -0.7742  2.0525
 5761SOL     OW28741   2.974   2.965   2.373 -0.1294 -0.5939  0.1743
 5761SOL    HW128742   2.883   2.941   2.389 -0.4261  1.7161  2.0127
 5761SOL    HW228743   2.995   3.007   2.456  2.2411  1.9225 -1.7110
 5762SOL     OW28744   2.599   2.111   8.930 -0.9525  0.2737  0.5297
 5762SOL    HW128745   2.627   2.120   9.021 -0.5851 -0.2501  0.4696
 5762SOL    HW228746   2.507   2.088   8.943 -1.8080  2.1151 -2.3879
 5763SOL     OW28747   0.803   2.313  12.449 -0.2143 -0.1103 -0.3822
 5763SOL    HW128748   0.772   2.303  12.359  1.9624 -0.6504 -1.0671
 5763SOL    HW228749   0.739   2.265  12.501 -1.4416  0.8255 -1.0271
 5764SOL     OW28750   1.882   1.605   2.451 -0.1795 -0.2043 -0.0736
 5764SOL    HW128751   1.870   1.559   2.368 -1.7247  1.1739 -0.6057
 5764SOL    HW228752   1.880   1.529   2.510 -1.2271  0.9790  1.4265
 5765SOL     OW28753   2.564   4.488   7.903 -0.2247  0.0402  0.4779
 5765SOL    HW128754   2.607   4.442   7.975  2.3070  0.1042 -0.9975
 5765SOL    HW228755   2.498   4.540   7.947 -0.0976  0.0677  0.6370
 5766SOL     OW28756   0.103   1.422   6.328  0.0405 -0.6447 -0.3645
 5766SOL    HW128757   0.085   1.331   6.353  1.1869 -0.7212  0.1805
 5766SOL    HW228758   0.129   1.455   6.414 -2.1553 -4.8162  1.8953
 5767SOL     OW28759   0.548   3.940   1.752  0.7693  0.1571 -0.0991
 5767SOL    HW128760   0.481   4.007   1.768  0.2785 -0.6957  1.4445
 5767SOL    HW228761   0.506   3.897   1.678  5.9164 -2.8798 -1.2339
 5768SOL     OW28762   2.045   4.690  11.188 -0.5591 -0.0064 -0.1996
 5768SOL    HW128763   2.002   0.048  11.170 -0.4903 -0.2867 -1.7056
 5768SOL    HW228764   2.089   4.717  11.268 -0.2425  1.6111 -0.9135
 5769SOL     OW28765   0.989   2.149  10.888 -0.8130 -0.1478 -0.0432
 5769SOL    HW128766   0.935   2.090  10.941  0.6419 -0.5826  0.9673
 5769SOL    HW228767   1.024   2.208  10.955 -1.9764  1.0253 -0.4837
 5770SOL     OW28768   1.024   1.873   4.922  0.0836 -0.2587 -0.5362
 5770SOL    HW128769   1.004   1.828   4.840 -1.7941  1.4614 -1.0223
 5770SOL    HW228770   0.973   1.826   4.989  1.2698  0.6565  1.0080
 5771SOL     OW28771   2.808   4.540  11.100  0.7341 -0.5553 -0.0859
 5771SOL    HW128772   2.741   4.580  11.044  0.2311 -0.0737  0.8514
 5771SOL    HW228773   2.863   4.615  11.124  1.4786 -1.3271  0.6411
 5772SOL     OW28774   1.996   0.523  13.240 -0.1824 -0.0747 -0.4678
 5772SOL    HW128775   1.934   0.530  13.312  0.3950 -0.1949  0.0447
 5772SOL    HW228776   1.945   0.453  13.200 -0.1235  0.2722 -1.1534
 5773SOL     OW28777   1.849   0.523   3.615 -0.3448 -0.4673 -0.3104
 5773SOL    HW128778   1.779   0.571   3.570 -2.0945 -0.2739  2.5942
 5773SOL    HW228779   1.816   0.440   3.580 -3.1269  1.1504 -1.4712
 5774SOL     OW28780   0.817   4.214  13.067  0.2604  0.0047 -0.4896
 5774SOL    HW128781   0.747   4.165  13.023  0.4740 -0.5685 -0.1947
 5774SOL    HW228782   0.853   4.145  13.123  1.2428 -0.3749 -1.6003
 5775SOL     OW28783   3.813   2.590   0.645  0.0127  0.2192  0.4846
 5775SOL    HW128784   3.819   2.647   0.722 -1.2911 -1.4656  1.7980
 5775SOL    HW228785   3.859   2.646   0.581  0.2303  0.4324  0.8280
 5776SOL     OW28786   3.167   0.591   1.768 -0.1398  0.0462  0.7221
 5776SOL    HW128787   3.074   0.616   1.766 -0.2641 -0.8514 -3.1144
 5776SOL    HW228788   3.165   0.524   1.700 -1.9095  1.5555 -0.7212
 5777SOL     OW28789   4.505   0.405   4.363  0.5433 -0.0568 -0.1609
 5777SOL    HW128790   4.472   0.393   4.274  0.0950  0.7729 -0.1113
 5777SOL    HW228791   4.548   0.323   4.384 -1.5248 -1.1671 -0.2736
 5778SOL     OW28792   3.045   2.278  11.754 -0.0715 -0.2006  0.2241
 5778SOL    HW128793   2.967   2.332  11.749 -1.7834 -2.7899 -1.2391
 5778SOL    HW228794   2.994   2.197  11.748 -0.3924  0.0279 -0.0777
 5779SOL     OW28795   2.424   2.661   7.773 -1.0290  0.4217 -0.3734
 5779SOL    HW128796   2.482   2.719   7.824 -1.1018  2.1194 -2.2277
 5779SOL    HW228797   2.367   2.732   7.745 -0.4238  0.9595 -0.2617
 5780SOL     OW28798   2.217   3.704   6.592  0.6080  0.1230  0.4969
 5780SOL    HW128799   2.171   3.623   6.612  2.9216 -1.2755  0.0726
 5780SOL    HW228800   2.179   3.716   6.505  0.5983  0.5146  0.5553
 5781SOL     OW28801   1.563   0.283  15.288  0.1514  0.2989 -0.5628
 5781SOL    HW128802   1.482   0.330  15.268  0.3976  1.3614  0.9144
 5781SOL    HW228803   1.577   0.230  15.209 -0.7407 -1.5582  0.5246
 5782SOL     OW28804   0.133   4.196   6.720 -0.1997 -0.0844  0.0246
 5782SOL    HW128805   0.171   4.134   6.782 -2.2521  0.8661  2.2660
 5782SOL    HW228806   0.165   4.281   6.750  1.0453 -0.6044  0.1617
 5783SOL     OW28807   0.130   3.310  11.373  0.7701  0.8677  0.0533
 5783SOL    HW128808   0.044   3.350  11.382  0.3992 -0.5391  2.7378
 5783SOL    HW228809   0.115   3.217  11.360 -0.7104  1.0324  0.5947
 5784SOL     OW28810   1.058   0.324   2.328 -0.4823  0.7200 -0.2262
 5784SOL    HW128811   1.061   0.418   2.344 -0.0358  0.6865 -0.1089
 5784SOL    HW228812   1.140   0.292   2.366 -0.6986  2.3299  1.6046
 5785SOL     OW28813   0.977   4.331   5.355 -0.2671 -0.1942 -0.1786
 5785SOL    HW128814   1.055   4.303   5.307  0.3835  1.9182 -0.3639
 5785SOL    HW228815   0.965   4.410   5.302  0.0689  0.2347  0.3868
 5786SOL     OW28816   3.802   1.452  14.269 -0.0555 -0.3292 -0.0057
 5786SOL    HW128817   3.861   1.377  14.259  0.2692  0.0783 -1.1698
 5786SOL    HW228818   3.859   1.522  14.301  0.6224 -0.2093 -1.4833
 5787SOL     OW28819   1.396   3.066   4.790  0.4935  0.3824 -0.3515
 5787SOL    HW128820   1.357   3.043   4.874  1.1612  1.7293  0.3211
 5787SOL    HW228821   1.349   3.004   4.733 -0.2335  0.7826 -0.1857
 5788SOL     OW28822   4.168   2.027  12.118 -0.0645 -0.3310 -0.6074
 5788SOL    HW128823   4.250   2.076  12.122 -1.0795  1.3354 -0.4618
 5788SOL    HW228824   4.157   2.033  12.023  2.5550 -0.2216 -0.8841
 5789SOL     OW28825   2.968   1.394  13.399  0.9316 -0.4858  0.3589
 5789SOL    HW128826   2.898   1.446  13.439  0.8417  0.4986 -1.0500
 5789SOL    HW228827   2.977   1.326  13.465  0.9254 -1.3921 -0.5660
 5790SOL     OW28828   4.002   1.761   1.182  0.4365  0.2649  0.0093
 5790SOL    HW128829   3.974   1.675   1.151  2.7434 -1.1064  1.7190
 5790SOL    HW228830   4.083   1.729   1.223  1.0848  1.1539 -0.5611
 5791SOL     OW28831   3.573   3.366   9.375 -0.5243  0.5539  0.1140
 5791SOL    HW128832   3.577   3.458   9.347 -0.4558  0.6755  0.5312
 5791SOL    HW228833   3.502   3.367   9.440 -0.1443 -0.9436  0.5578
 5792SOL     OW28834   4.083   4.058   2.013 -0.1528  0.5230 -0.5443
 5792SOL    HW128835   4.013   4.099   1.963 -0.6106  2.2322  1.4956
 5792SOL    HW228836   4.048   4.068   2.101  0.8444  2.7101 -0.4116
 5793SOL     OW28837   3.691   2.820  16.852 -0.5679 -0.2400 -0.6846
 5793SOL    HW128838   3.629   2.857  16.790  0.9203 -2.2694 -3.4135
 5793SOL    HW228839   3.772   2.860  16.819  0.8817 -2.0517  0.6556
 5794SOL     OW28840   3.299   0.414  15.148  0.2486 -0.1941 -0.3557
 5794SOL    HW128841   3.325   0.353  15.079  0.0894  1.5339 -1.9436
 5794SOL    HW228842   3.203   0.412  15.146  0.2920  0.0692 -2.8064
 5795SOL     OW28843   2.473   1.565   6.441 -0.5019  0.4913 -0.3240
 5795SOL    HW128844   2.518   1.649   6.448  0.4022  0.0968 -1.5049
 5795SOL    HW228845   2.469   1.542   6.534  4.2644 -1.2454 -0.5660
 5796SOL     OW28846   1.317   4.423   9.482  0.2772 -0.2780  0.1456
 5796SOL    HW128847   1.230   4.459   9.463 -0.3936 -1.5060  0.8541
 5796SOL    HW228848   1.327   4.368   9.405 -2.4223  0.1378 -0.5175
 5797SOL     OW28849   0.549   3.307   8.898 -0.4445 -0.0666  0.0705
 5797SOL    HW128850   0.505   3.258   8.828 -0.3470  1.7567 -1.2808
 5797SOL    HW228851   0.561   3.396   8.865  1.7602 -0.4584 -0.1810
 5798SOL     OW28852   0.395   4.050   5.210 -0.4757 -0.0324  0.0148
 5798SOL    HW128853   0.441   4.107   5.272  1.0563 -2.2222  0.8884
 5798SOL    HW228854   0.365   3.969   5.251  2.2524 -0.8938  0.3227
 5799SOL     OW28855   1.527   0.567   7.984  0.4927 -0.2588  0.2458
 5799SOL    HW128856   1.564   0.480   7.975  1.0926  0.3027 -2.6453
 5799SOL    HW228857   1.558   0.594   8.071  2.7900  1.6636 -1.1915
 5800SOL     OW28858   1.214   1.445   6.886 -0.1149 -0.1235 -0.1100
 5800SOL    HW128859   1.209   1.534   6.851  1.5482  0.9786  2.4370
 5800SOL    HW228860   1.165   1.461   6.966  1.2963  1.4493  0.4529
 5801SOL     OW28861   1.167   4.098   1.962  0.3117  0.0108 -1.0035
 5801SOL    HW128862   1.194   4.175   2.012 -0.4416 -0.9706  0.9217
 5801SOL    HW228863   1.229   4.034   1.998 -0.6888  1.2545  2.9684
 5802SOL     OW28864   0.767   0.007   6.831 -0.8116 -0.6885 -0.0427
 5802SOL    HW128865   0.774   0.101   6.845 -0.0651 -0.3633 -2.5525
 5802SOL    HW228866   0.820   4.700   6.904  0.2021  0.2200 -0.3574
 5803SOL     OW28867   2.414   2.474   0.345  0.4517  0.2766 -0.4010
 5803SOL    HW128868   2.486   2.536   0.352  0.0924  0.3903  2.2635
 5803SOL    HW228869   2.443   2.383   0.344 -0.3742  0.0086  0.2642
 5804SOL     OW28870   3.934   0.683   0.870  0.4950 -0.2630 -0.1653
 5804SOL    HW128871   3.843   0.708   0.857  0.5463 -0.2106 -0.4106
 5804SOL    HW228872   3.932   0.625   0.946  0.3420  1.5932  1.2534
 5805SOL     OW28873   1.053   3.151   8.967 -0.2812  0.6214  0.7904
 5805SOL    HW128874   1.015   3.067   8.993 -0.6735  0.1398 -1.4274
 5805SOL    HW228875   1.017   3.158   8.879  0.7871  2.2451  0.4727
 5806SOL     OW28876   2.256   0.466   1.125  0.0204  0.0412  0.0354
 5806SOL    HW128877   2.277   0.549   1.083  0.2762  0.0375  0.1601
 5806SOL    HW228878   2.230   0.504   1.208 -0.5238 -0.0124 -0.1067
 5807SOL     OW28879   2.164   0.362   6.373  0.5556  0.3556 -0.4736
 5807SOL    HW128880   2.109   0.290   6.403 -1.6680  1.4779 -1.8410
 5807SOL    HW228881   2.253   0.329   6.364  1.5828  3.1113 -0.4675
 5808SOL     OW28882   0.310   2.593   1.302 -0.3655 -0.1908 -0.1957
 5808SOL    HW128883   0.356   2.656   1.358 -0.5135  1.0328 -1.4474
 5808SOL    HW228884   0.357   2.512   1.320  0.6379 -0.1129 -2.4322
 5809SOL     OW28885   0.344   4.281  15.753 -0.1142  0.0603  0.1499
 5809SOL    HW128886   0.283   4.344  15.791  0.2734  0.4145  0.1787
 5809SOL    HW228887   0.352   4.220  15.827  1.3852 -3.9275 -3.2753
 5810SOL     OW28888   3.730   0.524   5.056  0.5509  0.0519  0.8061
 5810SOL    HW128889   3.802   0.581   5.030 -0.5177  0.2803 -1.6722
 5810SOL    HW228890   3.738   0.451   4.995  0.3959  0.6096  0.1170
 5811SOL     OW28891   2.176   2.940   4.897  0.3458 -0.3684 -0.0087
 5811SOL    HW128892   2.184   3.033   4.917  0.1557  0.1819 -2.5269
 5811SOL    HW228893   2.270   2.922   4.889  0.1590 -1.6452  0.6236
 5812SOL     OW28894   2.073   0.844   8.303 -0.1070  0.4942 -0.8938
 5812SOL    HW128895   2.167   0.832   8.319 -0.2907 -0.9263 -0.8474
 5812SOL    HW228896   2.056   0.938   8.312 -2.1402 -0.2679  2.9743
 5813SOL     OW28897   2.875   1.633  17.373 -0.6197 -0.8361 -0.1147
 5813SOL    HW128898   2.854   1.717  17.332  2.0710 -0.2744 -0.2956
 5813SOL    HW228899   2.803   1.612  17.433 -0.5157 -2.5599 -0.6186
 5814SOL     OW28900   2.022   4.380   8.515  0.0449  0.0989  0.4878
 5814SOL    HW128901   2.043   4.288   8.502  0.1240 -0.0410  1.6119
 5814SOL    HW228902   1.930   4.371   8.491  0.4970 -2.8911 -0.0883
 5815SOL     OW28903   4.677   4.264   1.999  0.1477 -0.0380 -0.3080
 5815SOL    HW128904   4.680   4.177   2.039  2.1486  0.4661  0.6614
 5815SOL    HW228905   0.016   4.257   1.930 -1.1799 -0.1792 -1.5394
 5816SOL     OW28906   1.680   0.943   4.294  0.4358  0.1024 -0.6834
 5816SOL    HW128907   1.704   0.949   4.202  0.5197 -0.7933 -0.7245
 5816SOL    HW228908   1.653   0.851   4.302  0.3697 -0.0440 -2.6062
 5817SOL     OW28909   3.483   3.852   9.657  0.0070  0.0847 -0.0266
 5817SOL    HW128910   3.421   3.789   9.620 -0.4426 -0.4293  1.5972
 5817SOL    HW228911   3.568   3.810   9.649  0.8442  1.8270 -0.1808
 5818SOL     OW28912   1.556   0.921   5.327 -0.2583  0.1762  0.3080
 5818SOL    HW128913   1.536   0.835   5.363 -0.6192 -0.3057 -1.0229
 5818SOL    HW228914   1.608   0.886   5.254  0.9605 -1.5777  2.0211
 5819SOL     OW28915   3.443   1.803   8.943 -0.3672  0.2092  0.5149
 5819SOL    HW128916   3.404   1.885   8.974  0.9604  1.2704 -0.6059
 5819SOL    HW228917   3.521   1.814   8.996 -0.0146 -3.4179  0.7552
 5820SOL     OW28918   1.630   4.266  14.624 -1.0759  0.1738  0.5636
 5820SOL    HW128919   1.708   4.318  14.606  1.9707 -3.0672  4.3693
 5820SOL    HW228920   1.660   4.185  14.582 -2.2481  0.7555 -1.3892
 5821SOL     OW28921   0.023   1.828   1.133  0.5136 -0.4815  0.4755
 5821SOL    HW128922   4.716   1.774   1.205 -0.0726  0.5356  0.9621
 5821SOL    HW228923   4.703   1.793   1.057  1.3792  1.0927 -0.7735
 5822SOL     OW28924   0.371   4.036  12.540 -0.2114  0.5038  0.3284
 5822SOL    HW128925   0.466   4.038  12.546 -0.1416  2.6881 -1.7442
 5822SOL    HW228926   0.354   4.082  12.458 -0.5712 -0.1655  0.0251
 5823SOL     OW28927   3.463   3.445   2.125 -0.4418 -0.1838 -0.4318
 5823SOL    HW128928   3.390   3.393   2.089 -0.1308  0.2200 -1.6521
 5823SOL    HW228929   3.479   3.404   2.210 -0.9098 -2.3620 -1.3852
 5824SOL     OW28930   1.497   0.654   3.224 -0.3656 -0.3201  0.1764
 5824SOL    HW128931   1.410   0.660   3.263  0.4466  0.0781  1.9115
 5824SOL    HW228932   1.477   0.612   3.141  1.3036  1.2512 -1.0299
 5825SOL     OW28933   3.996   2.618  17.299 -0.7971  0.1282  0.2997
 5825SOL    HW128934   4.017   2.708  17.276  1.1978 -0.0330  1.4498
 5825SOL    HW228935   4.068   2.562  17.270 -0.8050  0.6779 -0.7681
 5826SOL     OW28936   3.996   0.963   2.586  0.0338  0.2332  0.0565
 5826SOL    HW128937   3.964   1.040   2.538  0.4368  0.2637 -0.1617
 5826SOL    HW228938   3.995   0.898   2.516 -0.0911  2.5574 -2.0917
 5827SOL     OW28939   2.648   0.319   5.065 -0.1494 -0.2451  0.0772
 5827SOL    HW128940   2.628   0.231   5.096 -1.4022  0.2036  0.5357
 5827SOL    HW228941   2.563   0.347   5.031 -0.2907  1.4667  1.8517
 5828SOL     OW28942   0.322   3.117   3.473  0.2511 -0.5200  0.3926
 5828SOL    HW128943   0.278   3.075   3.399 -1.0953 -0.6287  1.2334
 5828SOL    HW228944   0.317   3.209   3.446  1.2259 -0.2498  1.1388
 5829SOL     OW28945   4.065   1.718   6.013 -0.0320  0.2203 -0.2219
 5829SOL    HW128946   4.016   1.720   6.095 -0.3779 -0.8413 -0.3984
 5829SOL    HW228947   4.131   1.654   6.040  0.3154  1.3774  1.6405
 5830SOL     OW28948   4.341   3.507   5.415  0.7052 -0.2027  0.1279
 5830SOL    HW128949   4.273   3.494   5.349  0.4090  2.5820 -0.1172
 5830SOL    HW228950   4.312   3.585   5.461  0.8092  0.0192 -0.1830
 5831SOL     OW28951   0.484   4.371   6.955  0.2898 -0.1071 -0.5448
 5831SOL    HW128952   0.422   4.329   7.015  0.8322 -1.4603 -0.9333
 5831SOL    HW228953   0.483   4.463   6.980 -2.5603 -0.8441  2.1261
 5832SOL     OW28954   4.705   0.773   8.704 -0.0754  0.1596 -0.5728
 5832SOL    HW128955   4.674   0.854   8.744 -0.6538 -0.8733  1.0885
 5832SOL    HW228956   0.029   0.739   8.778 -0.9656  1.7829  0.7610
 5833SOL     OW28957   0.499   3.760   7.324  0.4721  0.2183  0.2715
 5833SOL    HW128958   0.425   3.702   7.307  0.3712  1.5987 -3.8849
 5833SOL    HW228959   0.556   3.732   7.254 -0.0684  0.2918 -0.1987
 5834SOL     OW28960   4.184   2.294   4.274 -0.2802 -0.7207  0.4315
 5834SOL    HW128961   4.110   2.261   4.325 -0.4257  0.2758  0.8770
 5834SOL    HW228962   4.138   2.316   4.194 -2.1462 -2.4245  1.0376
 5835SOL     OW28963   3.612   0.739   4.485 -0.2982  0.1034  0.3130
 5835SOL    HW128964   3.689   0.793   4.503 -0.5966  1.0939 -1.4370
 5835SOL    HW228965   3.624   0.675   4.556  0.8069 -1.0328 -0.8816
 5836SOL     OW28966   3.446   3.994   8.895 -0.4733 -0.0849  0.6451
 5836SOL    HW128967   3.437   3.900   8.880 -2.8547  0.3479 -0.6913
 5836SOL    HW228968   3.387   4.038   8.833 -0.1376  0.0832  0.4446
 5837SOL     OW28969   2.107   0.720   7.656  0.1901  0.6076 -0.4269
 5837SOL    HW128970   2.030   0.694   7.708 -0.0424  0.7285 -0.7107
 5837SOL    HW228971   2.082   0.782   7.587 -2.2706 -1.9338 -1.8231
 5838SOL     OW28972   3.838   0.450   4.697  0.0576 -0.5085  0.3419
 5838SOL    HW128973   3.772   0.513   4.725  1.5820  0.7632  1.0950
 5838SOL    HW228974   3.792   0.372   4.727 -0.8442  0.0212  0.3151
 5839SOL     OW28975   0.662   1.574   0.682 -0.4321 -0.1678 -0.0750
 5839SOL    HW128976   0.659   1.512   0.754 -2.2731  1.5870  1.3714
 5839SOL    HW228977   0.584   1.541   0.637  0.5157 -3.0489  0.4161
 5840SOL     OW28978   4.443   4.213  16.197  0.4550 -0.2447 -0.2717
 5840SOL    HW128979   4.487   4.211  16.112  1.9293  3.7777  0.3994
 5840SOL    HW228980   4.405   4.125  16.201 -0.4105  0.1768  0.9907
 5841SOL     OW28981   3.624   1.528   5.180  0.6685 -0.5792 -0.2716
 5841SOL    HW128982   3.709   1.505   5.217  0.3053 -1.9406 -0.2915
 5841SOL    HW228983   3.630   1.624   5.173  0.9588 -0.7790 -2.7170
 5842SOL     OW28984   2.557   2.476  12.076 -0.0974  0.3797  0.5434
 5842SOL    HW128985   2.528   2.448  11.989 -2.1336  0.3716  1.2293
 5842SOL    HW228986   2.634   2.526  12.050 -1.2836  2.1784  0.5219
 5843SOL     OW28987   1.171   2.137   5.660 -0.1523 -0.5143  0.1365
 5843SOL    HW128988   1.203   2.221   5.691  1.8492 -0.1516 -2.8785
 5843SOL    HW228989   1.218   2.111   5.581  2.6223 -1.0437  1.9736
 5844SOL     OW28990   3.914   0.625  11.435 -0.0852  0.0353 -0.2588
 5844SOL    HW128991   4.007   0.606  11.447 -0.0976 -0.2331 -0.5870
 5844SOL    HW228992   3.917   0.721  11.429  0.3869 -0.0783 -2.0400
 5845SOL     OW28993   3.654   1.002   9.016 -0.0652  0.3328  0.5604
 5845SOL    HW128994   3.663   1.043   8.930  1.7547 -3.1155 -0.8858
 5845SOL    HW228995   3.600   1.064   9.064 -2.1650  0.1886 -1.6497
 5846SOL     OW28996   2.937   3.265   1.731  0.6694 -0.1159 -0.0236
 5846SOL    HW128997   2.893   3.290   1.649  1.8447  0.2023 -0.5507
 5846SOL    HW228998   3.025   3.295   1.709 -0.7383  3.6454 -0.6431
 5847SOL     OW28999   4.719   1.871   6.032  0.0273  0.1577 -0.2779
 5847SOL    HW129000   4.709   1.858   6.126 -1.8453 -1.2027 -0.6704
 5847SOL    HW229001   0.050   1.948   6.033  2.2458 -1.4751 -2.9225
 5848SOL     OW29002   1.127   2.394  12.114  0.4475 -0.5408  0.2009
 5848SOL    HW129003   1.041   2.426  12.142  0.0901 -0.2691 -1.2387
 5848SOL    HW229004   1.146   2.436  12.030 -0.4144  1.3014  0.9206
 5849SOL     OW29005   1.767   4.083   0.748 -0.2960 -0.4139  0.3134
 5849SOL    HW129006   1.765   4.171   0.710 -0.9646  0.0903  1.4800
 5849SOL    HW229007   1.686   4.095   0.798 -0.1159  2.0670  0.0130
 5850SOL     OW29008   1.541   1.726   2.744 -0.2338  0.1509 -0.2102
 5850SOL    HW129009   1.602   1.799   2.751 -1.3234  0.8707  2.0826
 5850SOL    HW229010   1.589   1.664   2.691 -1.4166 -0.5848 -0.4248
 5851SOL     OW29011   2.930   2.099   4.251  0.1362  0.5870  0.1306
 5851SOL    HW129012   2.994   2.086   4.322  0.4805  1.9855  0.0804
 5851SOL    HW229013   2.895   2.184   4.276  1.4161  0.7339  1.4531
 5852SOL     OW29014   0.334   2.210   6.217 -0.3565  0.2726  0.1258
 5852SOL    HW129015   0.405   2.252   6.169 -1.7419  0.4980 -1.7239
 5852SOL    HW229016   0.308   2.134   6.165 -0.4519  0.3062  0.1231
 5853SOL     OW29017   4.242   2.853   3.706  0.0495 -0.3086 -0.3742
 5853SOL    HW129018   4.151   2.875   3.688  0.0714  0.0020 -0.1075
 5853SOL    HW229019   4.240   2.762   3.676 -1.0296 -1.3284  2.8514
 5854SOL     OW29020   4.231   2.615   3.620  0.4009 -0.3821  0.1116
 5854SOL    HW129021   4.195   2.537   3.661  1.2961 -0.2900  1.0961
 5854SOL    HW229022   4.184   2.609   3.537  0.4815  1.4351 -0.0564
 5855SOL     OW29023   0.404   0.834  13.483 -0.3789  0.0447  0.2095
 5855SOL    HW129024   0.405   0.746  13.520  3.1741  0.9516  2.2858
 5855SOL    HW229025   0.394   0.813  13.390 -0.4434  0.6064  0.0911
 5856SOL     OW29026   1.989   2.097  10.761  0.1281  0.0801 -0.0746
 5856SOL    HW129027   1.980   2.188  10.788  1.0007 -0.6564  2.6069
 5856SOL    HW229028   2.048   2.056  10.824 -1.1352 -2.1289 -0.3272
 5857SOL     OW29029   1.746   1.803  15.329  0.0065 -0.0205 -0.0093
 5857SOL    HW129030   1.782   1.851  15.404 -1.2595 -1.3183  1.4276
 5857SOL    HW229031   1.819   1.797  15.267  0.7983  1.7970  0.7197
 5858SOL     OW29032   1.305   0.956   1.904  0.2145 -0.5179 -0.1408
 5858SOL    HW129033   1.322   1.021   1.837 -0.8704  1.7829  1.8287
 5858SOL    HW229034   1.395   0.955   1.938  0.7703 -1.2772 -1.6147
 5859SOL     OW29035   0.263   4.275   7.142 -0.3289 -0.3076  0.0343
 5859SOL    HW129036   0.170   4.253   7.140 -0.3905 -0.0407  0.0163
 5859SOL    HW229037   0.311   4.195   7.166  0.7661  0.5589  0.7411
 5860SOL     OW29038   3.375   2.862   3.747  0.2340 -0.2063 -0.1229
 5860SOL    HW129039   3.290   2.847   3.705 -0.1498 -0.2617  0.6808
 5860SOL    HW229040   3.378   2.951   3.714 -1.0577 -0.1527 -0.1001
 5861SOL     OW29041   3.931   1.404   1.370 -0.6904 -0.9365  0.2968
 5861SOL    HW129042   3.933   1.432   1.279 -1.3767 -1.6805  0.0569
 5861SOL    HW229043   4.016   1.432   1.404 -0.6482  2.4605 -2.6055
 5862SOL     OW29044   2.641   4.015  16.479 -0.0094 -0.3481  0.4764
 5862SOL    HW129045   2.630   3.964  16.399 -4.1330  0.2813  0.6436
 5862SOL    HW229046   2.735   4.019  16.495 -0.0469 -0.1478  0.6489
 5863SOL     OW29047   4.604   4.013   6.059 -0.1844 -0.0772 -0.0777
 5863SOL    HW129048   4.587   4.036   5.968 -2.0428 -0.6558  0.1058
 5863SOL    HW229049   4.526   4.022   6.115  0.0789 -0.6633  0.3871
 5864SOL     OW29050   1.990   2.968   2.141  0.2847 -0.4489  0.3654
 5864SOL    HW129051   1.962   2.995   2.054 -1.3044 -3.6181 -0.1252
 5864SOL    HW229052   2.058   2.906   2.115  0.5703  0.0904 -0.1684
 5865SOL     OW29053   4.144   3.420  15.092  0.2337  0.2236 -0.1231
 5865SOL    HW129054   4.136   3.495  15.033  1.1415 -0.5282 -1.2089
 5865SOL    HW229055   4.236   3.394  15.092  0.6418  1.6896 -2.3531
 5866SOL     OW29056   3.718   3.726   6.789 -0.8417 -0.2389  0.4356
 5866SOL    HW129057   3.770   3.720   6.709  1.0374 -1.8821  1.7755
 5866SOL    HW229058   3.739   3.643   6.831 -1.5002 -1.4074 -1.5545
 5867SOL     OW29059   3.389   2.604   5.880  0.2067  0.2241 -0.2575
 5867SOL    HW129060   3.298   2.626   5.900 -0.0143 -1.4690  0.5360
 5867SOL    HW229061   3.404   2.665   5.807  2.3088  0.9670  0.7942
 5868SOL     OW29062   1.583   4.364  16.622  0.0450 -0.4754  0.2302
 5868SOL    HW129063   1.634   4.409  16.556 -1.0064  1.3744  0.6859
 5868SOL    HW229064   1.538   4.429  16.676 -1.2181  0.6419 -2.1697
 5869SOL     OW29065   4.628   0.748   5.060  0.3545  0.2902  0.3721
 5869SOL    HW129066   4.711   0.764   5.015  0.1518  1.6888  0.5032
 5869SOL    HW229067   4.562   0.736   4.992 -0.8886  1.9558  1.2689
 5870SOL     OW29068   2.649   1.451   9.151 -0.3605 -0.4335 -0.5173
 5870SOL    HW129069   2.692   1.411   9.227 -0.1570  1.2566  0.2558
 5870SOL    HW229070   2.703   1.527   9.128  0.6062 -1.0814 -0.3917
 5871SOL     OW29071   3.746   3.332  12.261  0.1495  0.3122  0.0200
 5871SOL    HW129072   3.812   3.397  12.240 -1.2909  0.8784 -2.6443
 5871SOL    HW229073   3.768   3.254  12.209  0.8841 -0.2298  1.1351
 5872SOL     OW29074   2.980   0.032   6.037  0.4703  0.2126 -0.2499
 5872SOL    HW129075   2.946   0.016   6.125  0.5086 -0.9785 -0.4585
 5872SOL    HW229076   2.916   4.723   5.976  0.1717 -1.6240  1.1363
 5873SOL     OW29077   4.037   2.282   3.062  0.0755  0.1493 -0.7443
 5873SOL    HW129078   4.016   2.374   3.079 -1.8233 -0.6738  1.4781
 5873SOL    HW229079   3.952   2.257   3.025 -0.1277  0.5101 -0.5221
 5874SOL     OW29080   3.209   3.336   4.314 -0.0519  0.4513 -0.0347
 5874SOL    HW129081   3.205   3.312   4.222  1.7584 -0.2422  0.0648
 5874SOL    HW229082   3.143   3.405   4.306 -2.0072 -1.5023 -0.8120
 5875SOL     OW29083   0.400   1.074   2.515  0.1659 -0.0371  0.2928
 5875SOL    HW129084   0.462   1.058   2.587 -2.4678 -0.4800  2.4590
 5875SOL    HW229085   0.442   1.030   2.441  0.9272 -0.5051  0.9972
 5876SOL     OW29086   4.481   2.446  10.576  0.2027  0.2997 -0.4803
 5876SOL    HW129087   4.499   2.382  10.507  0.2384  1.2759 -1.3757
 5876SOL    HW229088   4.543   2.422  10.645 -0.2897 -0.6630 -0.3831
 5877SOL     OW29089   4.332   2.028   6.072  0.3190 -0.4096  0.1501
 5877SOL    HW129090   4.418   2.068   6.062  0.0429  0.4479  1.1684
 5877SOL    HW229091   4.299   2.029   5.982 -1.4547 -0.0900  0.7984
 5878SOL     OW29092   0.067   2.946   2.464 -0.3847  0.0111  0.2621
 5878SOL    HW129093   0.037   2.964   2.553  1.1444 -0.9897  0.9877
 5878SOL    HW229094   4.724   2.978   2.407 -1.2486 -1.6483  0.3780
 5879SOL     OW29095   0.988   3.218   8.437  0.2416 -0.9768  0.4401
 5879SOL    HW129096   1.077   3.206   8.470  1.2864 -1.2995 -2.5033
 5879SOL    HW229097   0.982   3.313   8.441 -2.0648 -1.1101  0.1479
 5880SOL     OW29098   0.301   1.330   2.558  0.4522  0.2113 -0.4592
 5880SOL    HW129099   0.304   1.234   2.550  0.7768  0.2272 -0.5022
 5880SOL    HW229100   0.381   1.359   2.602  0.8439  0.7285 -1.5200
 5881SOL     OW29101   3.330   2.736   5.466  0.1440 -0.1928 -0.7159
 5881SOL    HW129102   3.268   2.684   5.518 -0.5906  0.1229 -1.2809
 5881SOL    HW229103   3.393   2.672   5.434 -0.2388 -0.0633 -1.7217
 5882SOL     OW29104   2.272   2.899   6.615  0.0388  0.0986 -0.2597
 5882SOL    HW129105   2.182   2.872   6.632 -0.4572  1.3552 -0.8672
 5882SOL    HW229106   2.331   2.846   6.668 -1.2493 -1.1305 -0.0460
 5883SOL     OW29107   0.492   2.215   5.015  0.3836 -0.5386  0.2879
 5883SOL    HW129108   0.540   2.276   5.070 -0.7044 -0.7087  1.4194
 5883SOL    HW229109   0.486   2.136   5.069 -1.5263 -1.1912 -0.8652
 5884SOL     OW29110   2.383   4.075   7.324 -0.1432 -0.4250  0.1582
 5884SOL    HW129111   2.403   4.116   7.408 -1.4783 -0.0475  0.2927
 5884SOL    HW229112   2.427   4.136   7.265  0.2735 -1.7772 -0.9269
 5885SOL     OW29113   2.287   4.553  16.522 -0.6987  0.5562 -0.1825
 5885SOL    HW129114   2.362   4.519  16.473 -0.7646  1.2223 -0.7370
 5885SOL    HW229115   2.247   4.470  16.545  0.5532  0.1860  0.6695
 5886SOL     OW29116   3.307   2.759  16.069  0.1071  0.2430  0.3176
 5886SOL    HW129117   3.275   2.833  16.017  0.2982  1.2304  1.6124
 5886SOL    HW229118   3.358   2.796  16.141 -0.4687 -2.8303  2.2581
 5887SOL     OW29119   1.152   2.639   4.301  0.7591  0.4481  0.3685
 5887SOL    HW129120   1.189   2.628   4.388  0.1558 -2.2060  0.2758
 5887SOL    HW229121   1.215   2.584   4.254  2.5272  0.9528  2.1419
 5888SOL     OW29122   2.307   0.126   6.826 -1.0187 -0.2153  0.1150
 5888SOL    HW129123   2.291   0.186   6.899 -0.9929  0.2472 -0.2592
 5888SOL    HW229124   2.317   0.044   6.876 -0.1477  1.3495  2.5164
 5889SOL     OW29125   4.344   0.923   6.361  0.2462  0.2794  0.1142
 5889SOL    HW129126   4.294   1.005   6.362 -2.0054 -1.0406 -1.4672
 5889SOL    HW229127   4.285   0.860   6.320  3.0883 -2.7176  0.6715
 5890SOL     OW29128   2.843   1.774   3.507  0.5711 -0.1345  0.0797
 5890SOL    HW129129   2.855   1.764   3.601 -0.5527 -1.6309  0.0620
 5890SOL    HW229130   2.747   1.778   3.498  0.6060  0.2356 -0.1290
 5891SOL     OW29131   1.150   1.738   4.214  0.6265  0.6310  0.6775
 5891SOL    HW129132   1.194   1.816   4.179  0.2840 -0.1207 -1.4497
 5891SOL    HW229133   1.082   1.763   4.277 -1.0523  0.4425 -1.0415
 5892SOL     OW29134   4.548   4.134   6.718  0.4684  0.0034  0.0270
 5892SOL    HW129135   4.554   4.118   6.624 -1.2185 -0.0774 -0.0613
 5892SOL    HW229136   4.635   4.106   6.748  0.8033  1.7327  0.6960
 5893SOL     OW29137   0.589   0.675   7.533 -0.2756  0.5101  0.7633
 5893SOL    HW129138   0.656   0.681   7.601  1.3634  1.6022 -0.9257
 5893SOL    HW229139   0.530   0.611   7.572  0.9292 -0.3665  1.1568
 5894SOL     OW29140   0.942   4.596   4.630 -1.0032 -0.0368  0.1816
 5894SOL    HW129141   0.915   4.623   4.718 -2.4032  1.7851 -0.7958
 5894SOL    HW229142   0.858   4.565   4.595 -0.9256 -0.8094  0.7047
 5895SOL     OW29143   2.094   0.937   8.715  0.1285  0.3072 -0.1757
 5895SOL    HW129144   2.146   0.912   8.792  1.4935  0.3973 -1.0734
 5895SOL    HW229145   2.091   1.032   8.729 -0.5764  0.4956 -1.5920
 5896SOL     OW29146   0.430   3.317   2.031 -0.9368  0.3313  0.0771
 5896SOL    HW129147   0.447   3.404   1.992  1.0437 -0.9824 -2.0340
 5896SOL    HW229148   0.411   3.265   1.953 -0.7760  1.0871 -0.4755
 5897SOL     OW29149   4.160   1.228   3.838  0.4912 -0.2682  0.4841
 5897SOL    HW129150   4.127   1.306   3.883  0.9021  1.0586 -1.5013
 5897SOL    HW229151   4.178   1.256   3.748  1.9441  0.3806  0.9779
 5898SOL     OW29152   3.699   3.450   2.480  0.3411 -0.0516 -0.3830
 5898SOL    HW129153   3.771   3.424   2.538  1.2571 -0.2636 -1.6036
 5898SOL    HW229154   3.734   3.469   2.392  0.3677 -0.6202 -0.4934
 5899SOL     OW29155   3.540   0.762   9.080 -0.3432  0.3588 -0.4907
 5899SOL    HW129156   3.612   0.745   9.140 -1.9077 -0.3122  1.2007
 5899SOL    HW229157   3.566   0.840   9.032  1.7410  0.0700  0.1820
 5900SOL     OW29158   3.573   2.439   3.778 -0.4134  0.2129 -0.3501
 5900SOL    HW129159   3.515   2.459   3.705 -1.7178 -0.2066  0.5786
 5900SOL    HW229160   3.543   2.354   3.809 -1.2133  0.1644 -1.2448
 5901SOL     OW29161   1.245   2.685  10.697  0.1711  0.1811  0.2652
 5901SOL    HW129162   1.245   2.716  10.788  0.0277  0.1609  0.2726
 5901SOL    HW229163   1.230   2.591  10.709  4.1522 -0.4676 -0.0678
 5902SOL     OW29164   3.470   4.559  13.187  0.8094 -0.4478  0.1110
 5902SOL    HW129165   3.469   4.654  13.172 -0.1334 -0.5959 -0.7359
 5902SOL    HW229166   3.377   4.546  13.208 -0.1235  5.0490 -0.6006
 5903SOL     OW29167   4.224   1.524   6.204 -0.4840  0.5707  0.5405
 5903SOL    HW129168   4.257   1.434   6.202 -0.8990  0.4161  0.6641
 5903SOL    HW229169   4.134   1.511   6.234 -0.5751  1.8947  0.8392
 5904SOL     OW29170   4.024   3.798  12.868 -0.2394  0.2937  0.4580
 5904SOL    HW129171   3.998   3.835  12.952 -0.5578  0.2714  0.3672
 5904SOL    HW229172   3.986   3.710  12.875 -0.9103  0.3308 -2.6207
 5905SOL     OW29173   4.605   0.170   0.283  0.6113 -0.2881  0.5633
 5905SOL    HW129174   4.521   0.217   0.280 -0.6547 -2.6640 -1.0046
 5905SOL    HW229175   4.604   0.169   0.378  1.0613 -3.2644  0.5327
 5906SOL     OW29176   3.725   3.027   1.022  0.3495 -0.3577  0.2395
 5906SOL    HW129177   3.686   2.957   1.075  0.6257  0.3420  1.3704
 5906SOL    HW229178   3.738   2.986   0.936  1.0064 -0.6985  0.4976
 5907SOL     OW29179   2.302   0.093  12.827  0.2083  0.5751 -0.2522
 5907SOL    HW129180   2.258   0.167  12.869 -1.4202 -0.4651 -0.1346
 5907SOL    HW229181   2.243   0.019  12.843  2.5159 -0.8615  1.6021
 5908SOL     OW29182   1.621   2.524  10.422 -0.9526  0.2638 -0.2183
 5908SOL    HW129183   1.594   2.586  10.490 -0.5461  1.1465 -0.8499
 5908SOL    HW229184   1.538   2.525  10.374 -0.9443 -1.3788 -0.2635
 5909SOL     OW29185   1.004   3.233   6.645  0.0182  0.2300  0.4830
 5909SOL    HW129186   1.042   3.312   6.683  4.1101 -0.4157 -2.2615
 5909SOL    HW229187   1.086   3.186   6.630  0.6430  2.1384 -1.9858
 5910SOL     OW29188   0.431   1.230   8.020 -0.5238  0.4949 -0.1517
 5910SOL    HW129189   0.359   1.279   8.061 -1.3759 -2.4793  1.9263
 5910SOL    HW229190   0.498   1.278   8.070  0.8160  0.3657 -1.8273
 5911SOL     OW29191   2.850   2.448  11.718 -0.1634  0.0984  0.5244
 5911SOL    HW129192   2.836   2.463  11.812  2.3860 -1.0550  1.0907
 5911SOL    HW229193   2.770   2.490  11.688 -0.8473 -0.6637  1.2711
 5912SOL     OW29194   4.179   0.217   6.183 -0.8512 -0.2129 -0.1547
 5912SOL    HW129195   4.183   0.179   6.095  3.1384  0.7308 -0.3665
 5912SOL    HW229196   4.114   0.285   6.165  0.3793  1.3408  1.2791
 5913SOL     OW29197   2.494   2.329  14.875  1.0648 -0.0108  0.8215
 5913SOL    HW129198   2.425   2.343  14.811 -0.2034 -2.7021  1.6107
 5913SOL    HW229199   2.512   2.235  14.870 -2.0211 -0.5645  0.4807
 5914SOL     OW29200   3.295   0.968   7.488 -0.2616 -0.0490  0.4761
 5914SOL    HW129201   3.213   0.985   7.534  0.1098  0.0325  1.1068
 5914SOL    HW229202   3.299   1.033   7.418  3.7919 -1.5416 -0.7016
 5915SOL     OW29203   0.441   1.656  11.971  0.9199 -0.6019 -0.5774
 5915SOL    HW129204   0.389   1.707  12.032 -0.1876 -2.5175  0.0808
 5915SOL    HW229205   0.411   1.683  11.884 -0.5102 -0.6371 -0.0897
 5916SOL     OW29206   3.324   2.287   8.598  0.5215  0.0598 -0.0586
 5916SOL    HW129207   3.381   2.258   8.670  1.3806 -1.9497 -1.5587
 5916SOL    HW229208   3.332   2.214   8.537 -0.9667  0.4174 -0.6860
 5917SOL     OW29209   2.567   2.830  15.258  0.0337 -0.4025 -0.4799
 5917SOL    HW129210   2.546   2.867  15.344  0.6141  1.6700 -1.2077
 5917SOL    HW229211   2.573   2.908  15.203  0.1233  0.4263  0.6864
 5918SOL     OW29212   3.405   1.277  13.779  0.2409  0.7974 -0.0638
 5918SOL    HW129213   3.384   1.317  13.863 -2.4088 -0.1279 -0.2661
 5918SOL    HW229214   3.354   1.336  13.722 -0.3034  0.9262  0.5542
 5919SOL     OW29215   1.240   4.619   4.315 -0.5025 -0.0750  0.3806
 5919SOL    HW129216   1.288   4.645   4.393  2.3638 -1.3535 -0.9385
 5919SOL    HW229217   1.252   4.694   4.257 -1.8137 -0.1624 -0.0045
 5920SOL     OW29218   4.431   0.782   7.872  0.1855 -0.3550 -0.3043
 5920SOL    HW129219   4.448   0.699   7.828 -0.6355 -0.8614  0.3259
 5920SOL    HW229220   4.342   0.771   7.907  0.9194  3.8155  2.7838
 5921SOL     OW29221   1.197   2.403  10.507 -0.0189 -0.0756 -0.1045
 5921SOL    HW129222   1.102   2.390  10.507  0.0923 -0.8705  1.8147
 5921SOL    HW229223   1.215   2.371  10.596  2.5052 -0.4447 -0.7471
 5922SOL     OW29224   3.296   2.774   0.494  0.8948 -0.4177 -0.1711
 5922SOL    HW129225   3.321   2.745   0.581  2.2771 -1.8447 -1.0312
 5922SOL    HW229226   3.345   2.718   0.434  0.5336 -0.2630 -0.6106
 5923SOL     OW29227   3.268   2.162   0.171  0.0402 -0.7198  0.0369
 5923SOL    HW129228   3.221   2.179   0.253 -0.7635 -1.7246 -0.2110
 5923SOL    HW229229   3.247   2.243   0.124 -2.3123 -0.3939  1.6495
 5924SOL     OW29230   2.899   2.175   8.010  0.8221 -0.1997  0.4649
 5924SOL    HW129231   2.806   2.187   7.991  0.9740 -2.4044 -1.6159
 5924SOL    HW229232   2.922   2.262   8.042 -2.6954  1.8180 -2.6016
 5925SOL     OW29233   3.921   2.468  16.070  0.1558  0.3999 -0.3223
 5925SOL    HW129234   3.931   2.464  15.975  1.1612  0.8180 -0.2393
 5925SOL    HW229235   4.011   2.454  16.099 -0.5790 -1.2797  1.0840
 5926SOL     OW29236   2.889   0.319  16.833  0.3862 -0.0776 -0.2663
 5926SOL    HW129237   2.930   0.393  16.788  0.8151 -0.1597 -0.0139
 5926SOL    HW229238   2.798   0.325  16.805  0.2619 -0.0155  0.1384
 5927SOL     OW29239   0.774   1.769  10.426  0.4159 -0.5728  0.2313
 5927SOL    HW129240   0.833   1.726  10.363 -1.1444 -1.7083 -0.4510
 5927SOL    HW229241   0.700   1.793  10.369 -0.1203  1.2457  1.6933
 5928SOL     OW29242   1.831   0.564  10.583 -0.0804  0.2653  0.4014
 5928SOL    HW129243   1.831   0.473  10.552  0.6637  0.6866 -0.8247
 5928SOL    HW229244   1.760   0.607  10.534 -2.2982 -2.7252  0.9554
 5929SOL     OW29245   1.797   4.089   7.735 -0.2336 -0.4960  0.1013
 5929SOL    HW129246   1.812   4.162   7.676  1.1899  0.6775  1.9196
 5929SOL    HW229247   1.711   4.077   7.694  0.0862 -0.6817 -0.5230
 5930SOL     OW29248   4.017   2.064  11.626  0.1575  0.5009  0.1865
 5930SOL    HW129249   3.924   2.044  11.633 -0.0204  0.4019 -2.5098
 5930SOL    HW229250   4.026   2.109  11.542 -0.0534 -0.0954 -0.1583
 5931SOL     OW29251   1.421   1.884  13.909  0.4149 -0.6480 -0.6025
 5931SOL    HW129252   1.332   1.920  13.907  1.0592  1.0986  2.2298
 5931SOL    HW229253   1.466   1.903  13.827  0.9485  0.2184 -0.1140
 5932SOL     OW29254   4.324   4.232   6.833 -0.2088  0.0755 -0.1099
 5932SOL    HW129255   4.334   4.150   6.882  1.9881 -0.1076 -0.8540
 5932SOL    HW229256   4.416   4.246   6.809 -0.3594  0.6482 -0.3562
 5933SOL     OW29257   1.316   1.116   5.875  0.6477  0.2154  0.5548
 5933SOL    HW129258   1.341   1.201   5.839  0.4278 -0.9308 -2.2970
 5933SOL    HW229259   1.340   1.053   5.807  1.1191  0.4800  0.4813
 5934SOL     OW29260   2.560   3.651  11.578  0.4846  0.4081 -0.1000
 5934SOL    HW129261   2.617   3.575  11.571 -0.8525 -0.6263  0.1274
 5934SOL    HW229262   2.492   3.625  11.640  0.0895  0.0161 -0.6952
 5935SOL     OW29263   4.596   2.432   2.654  0.1405  0.4069 -0.5369
 5935SOL    HW129264   4.585   2.357   2.713 -0.4590  0.3245 -0.7495
 5935SOL    HW229265   4.661   2.402   2.590 -1.5241 -0.8580 -1.6536
 5936SOL     OW29266   1.286   1.969   4.126  0.1785 -0.2550 -0.1896
 5936SOL    HW129267   1.253   2.033   4.063  0.1688 -2.0473 -1.9935
 5936SOL    HW229268   1.381   1.983   4.129 -0.1928  2.0930  1.0129
 5937SOL     OW29269   0.478   0.222  15.821 -0.3344 -0.3455 -0.7830
 5937SOL    HW129270   0.426   0.300  15.802 -0.1083 -0.3119 -1.2476
 5937SOL    HW229271   0.464   0.212  15.916 -1.4923 -1.2632 -1.0424
 5938SOL     OW29272   4.255   1.790  13.550  0.4812 -0.3156 -1.0607
 5938SOL    HW129273   4.198   1.721  13.583  2.3558 -1.5731 -0.5180
 5938SOL    HW229274   4.324   1.739  13.508  0.2217 -0.8412 -0.8462
 5939SOL     OW29275   3.199   2.562   5.614  0.5049 -0.3375  0.4427
 5939SOL    HW129276   3.150   2.489   5.651 -0.8496 -0.0366 -0.7545
 5939SOL    HW229277   3.158   2.626   5.671  0.5431 -0.7584  0.9417
 5940SOL     OW29278   2.439   1.467   2.942 -0.2552  0.4754 -0.9044
 5940SOL    HW129279   2.479   1.410   2.877  0.6900  0.3096 -0.1671
 5940SOL    HW229280   2.453   1.554   2.904  0.5346 -0.0045 -1.7284
 5941SOL     OW29281   1.257   2.192  11.814  0.4286  0.4138 -0.4294
 5941SOL    HW129282   1.348   2.163  11.816 -0.1313 -1.3749 -1.1022
 5941SOL    HW229283   1.255   2.255  11.742 -2.2135  2.2008  1.2218
 5942SOL     OW29284   2.962   1.380   9.367  0.6317  0.0793 -0.2717
 5942SOL    HW129285   2.898   1.413   9.431  0.7510  1.6077 -0.9374
 5942SOL    HW229286   3.032   1.445   9.376  0.7562 -0.1349  0.3098
 5943SOL     OW29287   0.689   3.456  10.720  0.2217  0.2787  0.2627
 5943SOL    HW129288   0.684   3.521  10.790  0.0049  1.4631 -0.8525
 5943SOL    HW229289   0.735   3.393  10.777  0.2178  1.2142  1.3079
 5944SOL     OW29290   4.063   3.801  16.728 -0.0719  0.1064 -0.0561
 5944SOL    HW129291   4.039   3.845  16.810 -0.8439 -0.4918  0.0394
 5944SOL    HW229292   4.125   3.864  16.691  0.2634 -0.6839 -0.8226
 5945SOL     OW29293   3.334   0.486   6.312 -0.1842  0.5721  0.7271
 5945SOL    HW129294   3.291   0.566   6.283 -4.0041 -2.0197 -0.8243
 5945SOL    HW229295   3.258   0.427   6.321  1.6059 -1.7112  1.0020
 5946SOL     OW29296   1.269   3.360  12.805 -0.1095 -0.3295  0.0710
 5946SOL    HW129297   1.174   3.363  12.792 -0.0883 -3.0873 -0.6116
 5946SOL    HW229298   1.263   3.305  12.883 -2.5477  0.8234  0.6866
 5947SOL     OW29299   2.662   1.833   0.113 -0.0788  0.7241 -0.4616
 5947SOL    HW129300   2.649   1.920   0.149  2.1076  0.9063 -0.1213
 5947SOL    HW229301   2.609   1.835   0.033  0.8802 -2.2237 -1.2036
 5948SOL     OW29302   0.002   4.271   8.026  0.2391  0.0108  0.9054
 5948SOL    HW129303   4.693   4.236   7.944  0.4425  1.1938  0.3241
 5948SOL    HW229304   4.675   4.219   8.087 -2.1991  0.7680 -0.6015
 5949SOL     OW29305   2.911   3.703  13.591 -0.9149 -0.0798  0.2697
 5949SOL    HW129306   2.918   3.609  13.608 -1.4060 -0.8848 -3.8208
 5949SOL    HW229307   2.964   3.718  13.513  0.0888 -1.0905  0.7497
 5950SOL     OW29308   1.415   3.708   6.716 -0.3608  0.3408  0.5731
 5950SOL    HW129309   1.389   3.740   6.803  1.7130  0.4128  1.1617
 5950SOL    HW229310   1.467   3.782   6.685  4.9332 -2.7559  2.1874
 5951SOL     OW29311   0.822   2.021  17.129  0.1320  0.1112 -0.0194
 5951SOL    HW129312   0.818   1.929  17.154 -0.2336  0.2767  0.5392
 5951SOL    HW229313   0.816   2.065  17.214  0.6342  1.2077 -0.5492
 5952SOL     OW29314   0.696   1.491   3.023 -0.4390  0.0092 -0.2531
 5952SOL    HW129315   0.762   1.495   2.953 -1.2593  1.5968 -0.9227
 5952SOL    HW229316   0.700   1.583   3.048 -1.9013 -0.5672  2.0791
 5953SOL     OW29317   3.269   2.110  11.592 -0.2954 -0.5893  0.0692
 5953SOL    HW129318   3.184   2.084  11.627 -0.8798 -0.9744 -1.6189
 5953SOL    HW229319   3.263   2.053  11.516 -0.5273 -1.1133  0.4847
 5954SOL     OW29320   3.944   3.817  13.124  0.0682  0.3218 -0.2432
 5954SOL    HW129321   3.872   3.766  13.162  2.7742 -2.6991  0.7925
 5954SOL    HW229322   4.020   3.790  13.175 -0.1006  0.2476 -0.0279
 5955SOL     OW29323   2.512   0.226   8.293  0.1618  0.4647  0.5695
 5955SOL    HW129324   2.494   0.177   8.373  3.2852 -0.5196  0.6756
 5955SOL    HW229325   2.578   0.284   8.330 -0.2555  1.8237 -0.7802
 5956SOL     OW29326   2.432   0.892   2.931 -0.2039 -0.1867  0.0824
 5956SOL    HW129327   2.513   0.920   2.888 -0.8834  1.8825  0.1569
 5956SOL    HW229328   2.370   0.874   2.861 -0.1982  1.0912 -0.2520
 5957SOL     OW29329   2.662   2.216  15.585 -0.7791 -0.1870  0.4150
 5957SOL    HW129330   2.600   2.161  15.632 -2.3426  0.5579 -0.7781
 5957SOL    HW229331   2.655   2.206  15.490  0.9319  0.4338  0.2195
 5958SOL     OW29332   0.419   0.706   7.329 -0.6562 -0.2168  0.0561
 5958SOL    HW129333   0.447   0.638   7.268  4.5295  0.4490  1.6058
 5958SOL    HW229334   0.480   0.692   7.402 -0.2925  1.6884  0.1248
 5959SOL     OW29335   4.350   0.638  10.116 -0.0427 -0.1160  0.0386
 5959SOL    HW129336   4.425   0.579  10.125 -2.0493 -2.5452  0.8226
 5959SOL    HW229337   4.393   0.715  10.078 -3.0980  0.1882 -2.8359
 5960SOL     OW29338   1.061   0.041   5.097  0.2340  0.7489  0.3966
 5960SOL    HW129339   1.132   0.101   5.073  1.1401  0.0451  1.2611
 5960SOL    HW229340   1.121   4.692   5.101 -2.6157 -1.4348  2.0394
 5961SOL     OW29341   2.920   3.867   8.440  0.0995  0.3983 -0.2224
 5961SOL    HW129342   2.944   3.931   8.373  3.1120  0.2734  0.7237
 5961SOL    HW229343   2.850   3.913   8.486  0.1148 -0.4767  0.6686
 5962SOL     OW29344   2.128   1.803   9.397  0.5519 -0.5743 -0.8227
 5962SOL    HW129345   2.220   1.812   9.421  0.8964  0.3547 -2.5181
 5962SOL    HW229346   2.087   1.821   9.482  0.9091 -2.7858 -0.1770
 5963SOL     OW29347   2.896   1.271  15.827  0.2287 -0.1729  0.0235
 5963SOL    HW129348   2.948   1.247  15.750  0.2615 -0.5983  0.1813
 5963SOL    HW229349   2.966   1.289  15.890  0.5704 -1.4135 -0.0092
 5964SOL     OW29350   2.544   1.023   7.211 -0.4108 -0.0937 -0.0928
 5964SOL    HW129351   2.520   1.109   7.248 -2.2378  0.2000 -1.9882
 5964SOL    HW229352   2.621   1.007   7.267 -0.4431  1.2527  0.3541
 5965SOL     OW29353   3.141   3.566   8.467  0.3250 -0.4858 -0.3859
 5965SOL    HW129354   3.048   3.570   8.488  0.1953 -2.1481 -0.6303
 5965SOL    HW229355   3.138   3.491   8.407 -1.9888 -1.9875  1.5967
 5966SOL     OW29356   1.018   2.420  17.614 -0.4603  0.6539 -0.2582
 5966SOL    HW129357   1.029   2.327  17.593 -2.0321  0.4203 -0.0369
 5966SOL    HW229358   0.981   2.446  17.530 -0.6630  1.3591  0.0521
 5967SOL     OW29359   3.265   0.416   9.743 -0.2237  0.3845  0.0560
 5967SOL    HW129360   3.254   0.449   9.832 -1.4105  1.7122 -0.5776
 5967SOL    HW229361   3.205   0.477   9.701  0.7346  0.4136 -1.2744
 5968SOL     OW29362   4.505   2.034   0.054  0.1066  0.1003  0.7743
 5968SOL    HW129363   4.537   2.109   0.104 -1.9969  1.5434 -0.0247
 5968SOL    HW229364   4.432   2.072   0.005 -1.3730 -0.9869  2.1166
 5969SOL     OW29365   0.338   2.385   8.367 -0.3963 -0.1248 -0.1712
 5969SOL    HW129366   0.426   2.380   8.328 -0.2859  1.1190 -0.1051
 5969SOL    HW229367   0.278   2.359   8.298 -0.0673 -2.4438  0.4187
 5970SOL     OW29368   1.900   3.805  14.504 -0.3873  0.5372 -0.1069
 5970SOL    HW129369   1.944   3.743  14.562 -1.1632  1.7545  1.7648
 5970SOL    HW229370   1.977   3.856  14.480  1.2100 -1.9612 -0.3170
 5971SOL     OW29371   3.325   1.421   7.085  0.0345 -0.0513 -0.6190
 5971SOL    HW129372   3.403   1.367   7.097 -0.7552 -1.1134 -0.2817
 5971SOL    HW229373   3.248   1.366   7.100  0.0221  0.2288  0.3682
 5972SOL     OW29374   1.333   4.707   9.470 -0.1810  0.0613  0.3427
 5972SOL    HW129375   1.397   4.642   9.498  0.5831  1.8545  2.7835
 5972SOL    HW229376   1.255   4.656   9.495  1.0624 -3.3045 -2.6164
 5973SOL     OW29377   3.287   2.218   5.089 -0.1921  0.1725  0.1002
 5973SOL    HW129378   3.313   2.263   5.170  2.8614 -0.2548 -0.6656
 5973SOL    HW229379   3.221   2.169   5.138 -0.4120  1.1725  0.8201
 5974SOL     OW29380   4.449   1.973  14.303 -0.0945  0.1487  0.1508
 5974SOL    HW129381   4.477   1.946  14.391  0.2549 -0.4269 -0.1341
 5974SOL    HW229382   4.510   2.046  14.300 -1.1586  0.9520 -1.3805
 5975SOL     OW29383   0.305   3.404  14.289  0.3987 -0.1562 -0.3414
 5975SOL    HW129384   0.298   3.360  14.204 -0.1540  1.2933 -1.0407
 5975SOL    HW229385   0.277   3.491  14.261  2.0399  0.2155 -0.8223
 5976SOL     OW29386   0.731   4.257  11.456 -0.3859 -0.4679 -0.3105
 5976SOL    HW129387   0.775   4.195  11.398  2.0745 -1.9726  3.1289
 5976SOL    HW229388   0.642   4.223  11.457 -0.8447  0.7463 -0.4007
 5977SOL     OW29389   2.679   0.630  15.320 -0.2863 -0.5270 -0.7767
 5977SOL    HW129390   2.641   0.705  15.274 -1.4965 -0.2890  0.5878
 5977SOL    HW229391   2.710   0.567  15.255 -2.9769 -1.8819 -0.7455
 5978SOL     OW29392   0.581   3.402   9.427 -0.3110  0.0185 -0.2111
 5978SOL    HW129393   0.555   3.325   9.377 -1.3331  2.8104 -4.0076
 5978SOL    HW229394   0.616   3.455   9.355 -0.1755  0.4562  0.1828
 5979SOL     OW29395   1.450   2.121   4.964  0.3120 -0.1914  0.1116
 5979SOL    HW129396   1.455   2.208   5.001  0.0391 -0.4329  0.7167
 5979SOL    HW229397   1.418   2.144   4.876  2.0199  0.9502 -0.1984
 5980SOL     OW29398   4.348   1.752   5.411 -0.2042  0.2840  0.3898
 5980SOL    HW129399   4.379   1.725   5.325  1.7327  0.3659  1.0519
 5980SOL    HW229400   4.361   1.847   5.408  0.6431  0.1519 -0.0685
 5981SOL     OW29401   3.390   2.343   7.167  0.3336  0.0663  0.6600
 5981SOL    HW129402   3.392   2.259   7.120  2.2945  0.5110 -0.0717
 5981SOL    HW229403   3.445   2.392   7.106 -0.0533  0.2324  0.4427
 5982SOL     OW29404   1.711   2.501   5.322  0.0126  0.1440  0.6050
 5982SOL    HW129405   1.748   2.578   5.364 -1.6906  0.8032  0.9061
 5982SOL    HW229406   1.767   2.494   5.245 -2.3079 -1.6614 -0.9047
 5983SOL     OW29407   1.678   2.607   5.870 -0.6367  0.5013  0.0487
 5983SOL    HW129408   1.690   2.608   5.965 -0.2473  0.6227 -0.0026
 5983SOL    HW229409   1.675   2.515   5.841 -0.0310 -0.5234  3.2284
 5984SOL     OW29410   3.475   0.909  10.173 -0.4314 -0.0238 -0.5643
 5984SOL    HW129411   3.458   0.996  10.137  1.7973  1.6822  2.4270
 5984SOL    HW229412   3.550   0.882  10.121  1.0982  2.2292  0.4650
 5985SOL     OW29413   0.137   4.155   5.130 -0.3579 -0.1437 -0.2428
 5985SOL    HW129414   0.223   4.112   5.121 -1.3152 -2.6959  2.8108
 5985SOL    HW229415   0.068   4.090   5.118 -0.5548 -0.0090  0.1833
 5986SOL     OW29416   4.535   0.153   3.351  0.6458 -0.2576 -0.6701
 5986SOL    HW129417   4.460   0.099   3.329 -0.4826  0.1655  2.1132
 5986SOL    HW229418   4.486   0.230   3.379  1.7959 -0.1553  1.0739
 5987SOL     OW29419   1.961   0.275   3.415 -0.5342  0.0494 -0.1349
 5987SOL    HW129420   1.993   0.190   3.446  1.0144  0.4162 -0.6871
 5987SOL    HW229421   1.869   0.268   3.439 -0.1515 -0.0717  1.2750
 5988SOL     OW29422   0.808   2.027  10.290  0.3509 -0.2231  0.3690
 5988SOL    HW129423   0.798   2.102  10.348 -2.1839 -1.4352  1.4864
 5988SOL    HW229424   0.805   1.954  10.352 -1.8772 -0.2456  0.2285
 5989SOL     OW29425   1.443   0.040  12.914  0.3348 -0.2984  0.2295
 5989SOL    HW129426   1.399   4.685  12.889  0.6590 -0.6104  0.6741
 5989SOL    HW229427   1.397   0.103  12.860 -1.6871 -0.0817  2.1923
 5990SOL     OW29428   3.818   2.111   8.893 -0.1340 -0.2358  0.0596
 5990SOL    HW129429   3.731   2.077   8.915  0.0849 -0.4421  0.6045
 5990SOL    HW229430   3.804   2.205   8.898  1.3163 -0.1549  2.6043
 5991SOL     OW29431   2.606   1.856   6.185 -0.1506  0.0280  0.1065
 5991SOL    HW129432   2.559   1.928   6.143  3.9717  0.4409 -3.8646
 5991SOL    HW229433   2.697   1.849   6.157  0.2830  0.9168  1.3153
 5992SOL     OW29434   2.924   0.005   8.338  0.4747  0.0686  0.2706
 5992SOL    HW129435   2.982   4.660   8.364  1.6066  0.1955 -1.9620
 5992SOL    HW229436   2.969   0.039   8.261  1.4532 -0.8294  0.4522
 5993SOL     OW29437   4.483   1.686   6.023  0.0617 -0.1250 -0.2004
 5993SOL    HW129438   4.548   1.617   6.034 -0.4551 -0.4469  0.8658
 5993SOL    HW229439   4.530   1.758   5.982  0.2247  0.2595  0.6448
 5994SOL     OW29440   0.408   1.046   6.509 -0.2808  0.3980  0.6557
 5994SOL    HW129441   0.358   1.010   6.435 -0.9833  3.5214 -0.3783
 5994SOL    HW229442   0.492   1.005   6.489 -0.9880  0.3311 -2.2812
 5995SOL     OW29443   0.286   3.171   7.341 -0.0207 -0.0778  0.0724
 5995SOL    HW129444   0.245   3.224   7.272 -1.3145 -0.2376  0.7182
 5995SOL    HW229445   0.219   3.142   7.403 -1.8494  1.3968 -1.2201
 5996SOL     OW29446   1.934   0.624  15.272 -0.0291  0.1436 -0.1540
 5996SOL    HW129447   1.847   0.606  15.236 -0.3164 -0.2668  0.7502
 5996SOL    HW229448   1.989   0.600  15.198  0.2612  0.7362 -0.1358
 5997SOL     OW29449   4.567   3.497   9.839  1.1254 -0.0432 -0.3499
 5997SOL    HW129450   4.549   3.586   9.806  0.5107  0.3692  1.1115
 5997SOL    HW229451   4.539   3.446   9.763  1.2106  0.6093 -0.8324
 5998SOL     OW29452   0.729   2.232  10.757 -0.2436 -0.3331 -0.0168
 5998SOL    HW129453   0.672   2.200  10.828  1.9067 -1.8789  0.9985
 5998SOL    HW229454   0.753   2.314  10.801  0.9401 -1.1415  0.8505
 5999SOL     OW29455   3.729   2.524   9.241 -0.9055  0.6760  0.2104
 5999SOL    HW129456   3.663   2.591   9.220 -0.3470  0.5273 -2.0567
 5999SOL    HW229457   3.762   2.557   9.324 -3.4597  1.6256  0.8648
 6000SOL     OW29458   0.184   3.208   6.728 -0.6904  0.5395  0.3730
 6000SOL    HW129459   0.221   3.125   6.758 -4.3460 -0.2835  2.5117
 6000SOL    HW229460   0.244   3.225   6.655  1.7747 -3.5056  1.4615
 6001SOL     OW29461   1.581   0.492   8.757 -0.3478  0.5110 -0.5176
 6001SOL    HW129462   1.603   0.569   8.705 -0.7992  0.4529 -0.7856
 6001SOL    HW229463   1.575   0.534   8.843  2.1116  1.1509 -0.6472
 6002SOL     OW29464   0.889   1.235   1.820 -0.3959  0.4690 -0.6138
 6002SOL    HW129465   0.796   1.258   1.820 -1.3566 -3.2958  1.7463
 6002SOL    HW229466   0.913   1.203   1.733  3.2616 -1.8389  1.2451
 6003SOL     OW29467   4.507   3.860   2.349 -0.7896  0.4336 -0.6482
 6003SOL    HW129468   4.484   3.886   2.260 -1.5821  0.8764 -0.3130
 6003SOL    HW229469   4.594   3.901   2.345  0.0154 -1.0797  1.1305
 6004SOL     OW29470   3.814   3.349   5.427 -0.4996 -0.4021 -0.0336
 6004SOL    HW129471   3.764   3.390   5.356  0.8569 -0.3442 -0.9608
 6004SOL    HW229472   3.743   3.291   5.455  0.6188 -0.4060  2.8279
 6005SOL     OW29473   1.762   2.701   8.827  0.3416  0.5237 -0.0638
 6005SOL    HW129474   1.856   2.702   8.808  0.5964  0.1329  1.1222
 6005SOL    HW229475   1.775   2.669   8.917 -0.1242  0.3265 -0.0695
 6006SOL     OW29476   3.438   3.612  10.295  0.2924 -0.1182  0.3845
 6006SOL    HW129477   3.404   3.698  10.317 -0.7863 -0.6547  0.8169
 6006SOL    HW229478   3.451   3.622  10.201  2.5084  0.0004  0.6944
 6007SOL     OW29479   2.992   2.320   2.637  0.1080 -0.4528 -0.0092
 6007SOL    HW129480   2.945   2.378   2.578 -0.0516 -0.0827  0.4793
 6007SOL    HW229481   2.992   2.370   2.719  1.1593 -1.2056  0.4554
 6008SOL     OW29482   0.975   0.005   7.437 -0.0847 -0.1523  0.3521
 6008SOL    HW129483   1.051   4.717   7.381 -0.9834 -0.4194 -0.8258
 6008SOL    HW229484   0.911   4.662   7.418  0.5960 -0.5016 -0.6447
 6009SOL     OW29485   0.467   1.097  12.560  0.0299 -0.2380  0.1932
 6009SOL    HW129486   0.551   1.139  12.544  0.2260 -1.2211 -1.3936
 6009SOL    HW229487   0.475   1.038  12.485  0.0554  1.0055 -0.7817
 6010SOL     OW29488   2.135   2.793   2.384 -0.1182  0.0333 -0.3334
 6010SOL    HW129489   2.105   2.829   2.300  1.2728 -0.0371 -0.8719
 6010SOL    HW229490   2.230   2.808   2.379 -0.2730  1.8662  2.3229
 6011SOL     OW29491   1.750   2.628   8.088 -0.1419  0.4785  0.4768
 6011SOL    HW129492   1.770   2.694   8.155 -1.5384  0.0495  1.3158
 6011SOL    HW229493   1.687   2.682   8.040 -0.5883  0.0788  0.6120
 6012SOL     OW29494   3.787   1.336   9.062 -0.2861  0.0053  0.1711
 6012SOL    HW129495   3.855   1.355   8.998  0.6889 -1.7162  0.6829
 6012SOL    HW229496   3.719   1.312   8.999 -2.5530  0.3121  2.4717
 6013SOL     OW29497   2.025   2.416   6.336 -0.4264  0.2878  0.1087
 6013SOL    HW129498   2.014   2.465   6.417 -1.7354 -0.0444  0.1238
 6013SOL    HW229499   2.017   2.327   6.368 -0.2480  0.2276 -0.0143
 6014SOL     OW29500   0.661   3.802   1.976 -0.0636  0.2699 -0.1045
 6014SOL    HW129501   0.628   3.859   1.907  0.7612  2.0192  0.9321
 6014SOL    HW229502   0.712   3.745   1.918  0.4777 -0.2208  0.8547
 6015SOL     OW29503   0.043   2.125   8.237  0.1187  0.2640  0.7091
 6015SOL    HW129504   0.089   2.205   8.210  1.6280  0.6269  4.3442
 6015SOL    HW229505   4.703   2.165   8.292  0.5123  0.2723  1.1766
 6016SOL     OW29506   0.878   2.465  15.267  0.0321 -0.2149  0.0992
 6016SOL    HW129507   0.792   2.507  15.256  0.6777  1.1567  0.3183
 6016SOL    HW229508   0.849   2.377  15.292  0.1996 -0.1979  0.3497
 6017SOL     OW29509   0.054   2.076  13.905  0.0187  0.0923 -0.0742
 6017SOL    HW129510   4.716   2.133  13.948 -0.0342  0.3183 -0.4532
 6017SOL    HW229511   0.124   2.137  13.879  1.8563 -2.1636 -0.4220
 6018SOL     OW29512   4.623   3.887  11.954 -0.0834  0.3971  0.1659
 6018SOL    HW129513   4.626   3.792  11.941  1.1040  0.4227  0.2397
 6018SOL    HW229514   4.662   3.909  11.870  0.3079  2.5128  0.8850
 6019SOL     OW29515   1.105   2.733   4.846  0.1818  0.5521 -0.7751
 6019SOL    HW129516   1.033   2.729   4.784 -1.5854 -2.0127  1.4150
 6019SOL    HW229517   1.170   2.784   4.797 -1.8379  4.1520  0.2829
 6020SOL     OW29518   2.977   3.433   4.574 -0.2130  0.0083 -0.5522
 6020SOL    HW129519   3.005   3.342   4.570  0.5017  0.3100 -2.2937
 6020SOL    HW229520   2.949   3.439   4.666 -0.0568  0.5237 -0.5376
 6021SOL     OW29521   3.799   2.996   4.612 -0.1633 -0.0941  0.0096
 6021SOL    HW129522   3.773   3.051   4.539 -3.6631  0.0755  1.3857
 6021SOL    HW229523   3.885   2.963   4.586 -0.3411 -1.9913  1.7781
 6022SOL     OW29524   2.237   4.003   6.434 -0.1216 -0.1414  0.2370
 6022SOL    HW129525   2.194   4.067   6.377 -0.5048 -1.6098 -1.1316
 6022SOL    HW229526   2.205   3.924   6.390  0.0203 -0.4746  0.7330
 6023SOL     OW29527   0.811   1.438  10.298  0.3358  0.3240 -0.0859
 6023SOL    HW129528   0.863   1.362  10.324  1.4451  0.7412 -1.0776
 6023SOL    HW229529   0.737   1.408  10.245  0.4104  2.1345 -1.2230
 6024SOL     OW29530   4.253   2.195   9.477 -0.0466  0.6652 -0.2230
 6024SOL    HW129531   4.162   2.220   9.492 -1.2008 -2.8102 -1.4841
 6024SOL    HW229532   4.246   2.199   9.382  1.5473  1.5495 -0.3031
 6025SOL     OW29533   4.076   3.010   2.172 -0.1203 -0.2111 -0.7478
 6025SOL    HW129534   4.074   3.095   2.217  0.1644 -0.5368 -0.1148
 6025SOL    HW229535   4.000   3.021   2.115 -0.8380  3.1550  0.8541
 6026SOL     OW29536   2.121   0.150  14.836 -0.3247 -0.1137 -0.0987
 6026SOL    HW129537   2.180   0.163  14.762 -1.6660  1.4378 -0.8792
 6026SOL    HW229538   2.157   0.205  14.905  1.2618 -1.2938  0.0327
 6027SOL     OW29539   2.469   0.565   1.639 -0.3875  0.0251 -0.0281
 6027SOL    HW129540   2.553   0.548   1.681 -0.3233 -1.7552 -0.9190
 6027SOL    HW229541   2.482   0.651   1.599 -2.0594  0.0062 -0.6248
 6028SOL     OW29542   0.523   3.419   7.075 -0.1248  1.1151 -0.7780
 6028SOL    HW129543   0.595   3.356   7.071 -0.3298  0.8536 -0.3402
 6028SOL    HW229544   0.546   3.470   6.997 -2.8873  1.8537 -1.1070
 6029SOL     OW29545   1.127   1.749  12.422  0.2043  0.5485  0.4267
 6029SOL    HW129546   1.095   1.666  12.388  2.5103 -0.4139  0.6073
 6029SOL    HW229547   1.086   1.750  12.509 -1.2777 -0.8960 -0.2535
 6030SOL     OW29548   1.569   3.803   8.912  0.2462  0.3334  0.6944
 6030SOL    HW129549   1.657   3.765   8.914 -0.9665 -2.4563  1.6173
 6030SOL    HW229550   1.534   3.765   8.993  1.3694 -1.0052  0.5499
 6031SOL     OW29551   0.171   1.616   4.329  0.7349 -0.5288  0.2355
 6031SOL    HW129552   0.246   1.664   4.364 -0.5486  1.8443 -0.2508
 6031SOL    HW229553   0.108   1.619   4.401 -0.5809 -1.9761 -0.8447
 6032SOL     OW29554   0.134   3.156   1.615 -0.1576  0.0864  0.3261
 6032SOL    HW129555   0.093   3.240   1.596  2.0290  1.3383  1.1289
 6032SOL    HW229556   0.226   3.162   1.589  0.3687 -1.7261  1.8393
 6033SOL     OW29557   1.552   3.997  16.310  0.1114 -0.0354 -0.4911
 6033SOL    HW129558   1.641   4.031  16.298 -0.1381  1.2311  1.2630
 6033SOL    HW229559   1.509   4.059  16.369  1.1010  0.8797 -0.7255
 6034SOL     OW29560   3.334   3.289   5.554 -0.3707  0.1579  0.2511
 6034SOL    HW129561   3.331   3.315   5.646 -0.1704  0.7599  0.0809
 6034SOL    HW229562   3.256   3.233   5.552  0.3705 -0.8462 -0.5933
 6035SOL     OW29563   1.277   4.093   5.479 -0.0985 -0.1822  0.1160
 6035SOL    HW129564   1.238   4.010   5.505 -1.2974  0.2511 -0.3316
 6035SOL    HW229565   1.282   4.125   5.569 -1.2877  0.7173 -0.1468
 6036SOL     OW29566   3.432   3.921   1.714 -0.5889 -0.2636  0.6067
 6036SOL    HW129567   3.375   3.899   1.640 -0.1811  2.6175 -0.5601
 6036SOL    HW229568   3.478   3.838   1.728  1.0541  0.5872  0.2296
 6037SOL     OW29569   2.771   2.711   4.319 -0.2445  0.1990 -0.7019
 6037SOL    HW129570   2.840   2.690   4.382  0.1100 -1.0960 -1.5322
 6037SOL    HW229571   2.699   2.747   4.373  0.3594 -1.0529  0.9403
 6038SOL     OW29572   2.106   1.784  14.458 -0.1631 -0.6571 -0.1350
 6038SOL    HW129573   2.055   1.707  14.434  0.0948 -1.1848  1.0284
 6038SOL    HW229574   2.101   1.788  14.554 -3.9653 -1.5754 -0.3068
 6039SOL     OW29575   1.149   0.734   7.687 -0.0615  0.1060  0.3015
 6039SOL    HW129576   1.108   0.790   7.752  1.4115  1.6775 -0.1291
 6039SOL    HW229577   1.238   0.731   7.722  0.5754  0.1987 -1.3433
 6040SOL     OW29578   3.189   0.391  16.908 -0.6171  0.0854  0.3605
 6040SOL    HW129579   3.129   0.368  16.979  0.8553 -1.1149  1.2072
 6040SOL    HW229580   3.278   0.384  16.941 -0.0308 -1.1840 -1.5254
 6041SOL     OW29581   4.479   0.720   4.438  0.2000  0.2322  0.2921
 6041SOL    HW129582   4.463   0.662   4.363  1.3631 -0.9888  0.9783
 6041SOL    HW229583   4.444   0.663   4.506  2.4089 -1.8595 -0.3227
 6042SOL     OW29584   3.735   1.454   2.124 -0.1637  0.1493 -0.5282
 6042SOL    HW129585   3.699   1.370   2.097 -0.8923  0.4852 -0.5968
 6042SOL    HW229586   3.814   1.472   2.073  0.8652 -1.1238  0.6173
 6043SOL     OW29587   2.365   1.381   8.264  0.1970 -0.4205 -0.0449
 6043SOL    HW129588   2.455   1.369   8.293  0.5797  2.0975 -0.2226
 6043SOL    HW229589   2.369   1.456   8.204 -1.4892 -0.3814 -0.1015
 6044SOL     OW29590   0.790   3.842   1.390 -0.0422  0.0662  0.3768
 6044SOL    HW129591   0.788   3.833   1.485  0.2110 -1.0223  0.2873
 6044SOL    HW229592   0.771   3.756   1.353 -0.0247 -0.3118  1.2332
 6045SOL     OW29593   4.077   3.130  15.103 -0.3145 -0.4085 -0.1370
 6045SOL    HW129594   4.023   3.176  15.168  1.8394  0.6143  0.9412
 6045SOL    HW229595   4.157   3.183  15.104  0.1143 -1.0468 -0.5695
 6046SOL     OW29596   3.677   0.828   6.113 -1.1339 -0.3505  0.3421
 6046SOL    HW129597   3.712   0.862   6.196 -0.5668 -0.0394 -0.0233
 6046SOL    HW229598   3.761   0.811   6.071 -0.0631  0.8335  1.9798
 6047SOL     OW29599   0.884   2.282   6.203 -0.4074 -0.4194 -0.3407
 6047SOL    HW129600   0.813   2.265   6.140 -1.7175 -1.2104  1.3569
 6047SOL    HW229601   0.944   2.209   6.190 -0.0583 -0.0385 -0.9151
 6048SOL     OW29602   1.292   2.936  14.873 -0.8978 -0.0185 -0.0380
 6048SOL    HW129603   1.215   2.932  14.929  0.7202 -1.3770  2.0715
 6048SOL    HW229604   1.359   2.898  14.930 -1.3173  0.5278  0.8002
 6049SOL     OW29605   3.052   0.118   7.723  0.3655 -0.2493  0.0217
 6049SOL    HW129606   3.129   0.066   7.747  1.7877  3.0067  2.6727
 6049SOL    HW229607   2.983   0.054   7.737  0.7877 -1.0919 -1.8351
 6050SOL     OW29608   2.398   2.737   2.291 -0.3595  0.2074  0.1468
 6050SOL    HW129609   2.413   2.692   2.208 -1.0963 -0.0060  0.1326
 6050SOL    HW229610   2.373   2.816   2.244  1.0082 -0.4562 -1.7285
 6051SOL     OW29611   1.220   1.520  10.283  0.5091 -0.6347 -0.0756
 6051SOL    HW129612   1.182   1.451  10.229  1.2949 -0.2351 -1.1316
 6051SOL    HW229613   1.264   1.574  10.218  0.9088 -1.4069 -0.4396
 6052SOL     OW29614   0.882   0.715  10.075 -0.3360 -0.4364  0.4952
 6052SOL    HW129615   0.915   0.721  10.165  0.4834  0.5793  0.1305
 6052SOL    HW229616   0.788   0.704  10.091 -0.6217 -0.0182 -0.9173
 6053SOL     OW29617   1.108   1.526   4.617 -0.0938  0.1500 -0.1852
 6053SOL    HW129618   1.076   1.614   4.636  0.3000 -0.1382  1.7575
 6053SOL    HW229619   1.021   1.485   4.612  0.0563  0.0412 -2.0298
 6054SOL     OW29620   1.030   3.374  12.598 -0.6727  0.1450  0.2715
 6054SOL    HW129621   1.099   3.429  12.562  0.4751 -2.2501 -1.1655
 6054SOL    HW229622   1.050   3.304  12.537 -0.5955 -0.0894  0.5686
 6055SOL     OW29623   3.633   2.909   8.898 -0.4431  0.5007  0.4147
 6055SOL    HW129624   3.688   2.936   8.824 -0.2136 -0.1725  0.3417
 6055SOL    HW229625   3.696   2.861   8.952 -0.1102 -1.1206 -1.4610
 6056SOL     OW29626   3.455   1.360  11.703  0.7628  0.1838  0.4477
 6056SOL    HW129627   3.457   1.456  11.701  1.8796  0.1854  1.5178
 6056SOL    HW229628   3.371   1.345  11.658  2.6087  1.1658 -3.3192
 6057SOL     OW29629   0.419   2.719   6.263  0.2295 -0.6027  0.8287
 6057SOL    HW129630   0.447   2.681   6.346  1.4352 -0.0980  0.6585
 6057SOL    HW229631   0.493   2.707   6.203  1.8108 -0.1033  2.6664
 6058SOL     OW29632   2.300   2.832   0.357 -0.0709  0.7999 -0.1759
 6058SOL    HW129633   2.258   2.871   0.434 -0.2591  1.9415 -0.8593
 6058SOL    HW229634   2.301   2.911   0.303 -0.5165  1.3407  0.6022
 6059SOL     OW29635   1.075   2.174   2.763 -0.0220  0.1886  0.4544
 6059SOL    HW129636   1.097   2.129   2.845  2.9548  0.9773  0.0921
 6059SOL    HW229637   1.016   2.237   2.804  0.8624  3.5377 -3.4122
 6060SOL     OW29638   4.474   2.565   6.937  0.3379 -0.4962 -1.1266
 6060SOL    HW129639   4.398   2.539   6.885 -0.9293  0.5109  0.2242
 6060SOL    HW229640   4.538   2.578   6.867  3.6361 -1.1695  1.8270
 6061SOL     OW29641   3.236   2.325  15.865  0.0189  0.1951 -0.2114
 6061SOL    HW129642   3.220   2.404  15.814  1.1379  0.3814 -0.2820
 6061SOL    HW229643   3.330   2.339  15.880 -0.0547 -0.1548  0.5630
 6062SOL     OW29644   0.976   1.363   7.676 -0.0856  0.8929 -0.0310
 6062SOL    HW129645   0.990   1.403   7.761  1.3514 -0.4718  0.3757
 6062SOL    HW229646   1.047   1.301   7.662 -2.4760 -1.5886 -1.1768
 6063SOL     OW29647   2.138   0.174   0.852  1.0572  0.4005  0.2040
 6063SOL    HW129648   2.180   0.202   0.934  1.1442  0.5746  0.1003
 6063SOL    HW229649   2.046   0.171   0.875  0.8900  2.6426 -0.1984
 6064SOL     OW29650   2.317   3.364   8.715 -0.4365  0.4020 -0.2518
 6064SOL    HW129651   2.326   3.436   8.778  1.6204  0.6242 -0.7903
 6064SOL    HW229652   2.387   3.384   8.652 -0.0884  0.1667  0.0653
 6065SOL     OW29653   1.245   3.279   9.431  0.2397  0.5206  0.1458
 6065SOL    HW129654   1.226   3.185   9.431  1.4493  0.2840  0.0549
 6065SOL    HW229655   1.333   3.293   9.396  0.1282 -1.8407 -1.0295
 6066SOL     OW29656   0.206   3.167   6.043 -0.0044  0.1044 -0.4704
 6066SOL    HW129657   0.277   3.224   6.074  1.2576 -2.3309  1.1182
 6066SOL    HW229658   0.239   3.080   6.066 -0.8838 -0.0500  0.2171
 6067SOL     OW29659   3.580   4.450   6.442  0.2300 -0.3848 -0.2661
 6067SOL    HW129660   3.648   4.472   6.379 -0.3057  0.6765 -0.4914
 6067SOL    HW229661   3.595   4.358   6.463  1.9601  0.1224  0.6905
 6068SOL     OW29662   0.651   0.868   7.142 -0.3069  0.2983 -0.1244
 6068SOL    HW129663   0.620   0.777   7.140 -2.1450  0.8969  0.7503
 6068SOL    HW229664   0.648   0.875   7.047 -0.6814 -2.9637 -0.3649
 6069SOL     OW29665   0.814   0.236   0.101 -0.2088 -0.5029 -0.4556
 6069SOL    HW129666   0.773   0.185   0.032  0.5951 -1.3701 -0.2783
 6069SOL    HW229667   0.863   0.171   0.151 -0.7414 -0.0011  0.7438
 6070SOL     OW29668   2.695   4.620   9.245  0.0623  0.2296  0.4618
 6070SOL    HW129669   2.709   4.572   9.163  2.1369  1.3954  0.1171
 6070SOL    HW229670   2.759   4.691   9.244 -2.5693  2.5659 -1.4275
 6071SOL     OW29671   1.188   1.688   9.012  0.1058 -0.2805 -0.3182
 6071SOL    HW129672   1.125   1.746   8.967 -0.9885 -2.7926 -2.0095
 6071SOL    HW229673   1.182   1.610   8.956 -1.7612 -0.5117  0.2082
 6072SOL     OW29674   2.203   3.714  13.300  0.3119 -0.0080  0.4282
 6072SOL    HW129675   2.270   3.782  13.294  0.2035 -0.0901 -1.6021
 6072SOL    HW229676   2.256   3.637  13.280  0.0866 -0.5557  1.8951
 6073SOL     OW29677   2.107   1.651   8.072 -0.2230  0.1227 -0.2175
 6073SOL    HW129678   2.178   1.609   8.023  0.3341  1.6890 -0.7343
 6073SOL    HW229679   2.038   1.612   8.019 -2.6999  2.4631  1.3097
 6074SOL     OW29680   0.524   4.522   4.466  0.6904 -0.0706  0.6790
 6074SOL    HW129681   0.500   4.432   4.486  0.6868 -0.2636 -0.2450
 6074SOL    HW229682   0.506   4.526   4.373  2.3284  2.5418  0.4704
 6075SOL     OW29683   1.448   3.955   5.151 -0.5027  0.2388 -0.2783
 6075SOL    HW129684   1.385   4.024   5.171 -1.6413 -0.3005 -2.0602
 6075SOL    HW229685   1.459   3.966   5.057  0.0930  3.0318  0.1171
 6076SOL     OW29686   1.367   4.287   7.751  0.1733  0.1043  0.2214
 6076SOL    HW129687   1.342   4.361   7.695 -0.9137  0.3625  1.0331
 6076SOL    HW229688   1.321   4.314   7.831 -2.1821 -0.6503 -0.8594
 6077SOL     OW29689   2.513   4.245   0.127 -0.2453  0.2798  0.4533
 6077SOL    HW129690   2.458   4.185   0.177 -0.1182 -0.5021 -0.3319
 6077SOL    HW229691   2.512   4.316   0.191  0.2154  1.4683 -0.8320
 6078SOL     OW29692   4.298   1.233   1.366  0.7753 -0.4390  0.2932
 6078SOL    HW129693   4.288   1.257   1.274 -1.8143 -0.9267  0.4446
 6078SOL    HW229694   4.354   1.156   1.358 -0.1209 -1.1757  1.0961
 6079SOL     OW29695   2.031   4.722   4.235 -0.1767 -0.5552 -0.4417
 6079SOL    HW129696   1.961   4.724   4.169 -0.5762 -1.9358 -0.0533
 6079SOL    HW229697   2.083   0.073   4.215 -0.1940 -0.7396 -1.1816
 6080SOL     OW29698   2.700   0.721  15.752 -0.1961 -0.0742  0.6569
 6080SOL    HW129699   2.684   0.800  15.700 -0.3016  0.2793  1.2248
 6080SOL    HW229700   2.701   0.656  15.681  3.4670  0.9529 -0.2218
 6081SOL     OW29701   0.901   4.206   7.071  0.6720  0.0678 -0.2575
 6081SOL    HW129702   0.840   4.218   6.998  0.2023  1.0513  0.2959
 6081SOL    HW229703   0.842   4.191   7.144 -0.2036 -0.8291 -1.1555
 6082SOL     OW29704   1.060   0.232   1.931  0.0828  0.0806 -0.0288
 6082SOL    HW129705   1.072   0.322   1.900 -2.4258 -0.5848 -2.8822
 6082SOL    HW229706   1.149   0.208   1.956 -0.1449 -0.3396  0.3607
 6083SOL     OW29707   2.140   3.101   5.474  0.4546  0.0513 -0.0496
 6083SOL    HW129708   2.152   3.006   5.481 -3.3219 -0.5953 -2.1434
 6083SOL    HW229709   2.191   3.137   5.402  0.4628 -0.5395 -0.3427
 6084SOL     OW29710   2.646   1.843   8.882  0.0583  0.2651  0.5578
 6084SOL    HW129711   2.657   1.864   8.789 -0.1636 -0.8491  0.2731
 6084SOL    HW229712   2.647   1.934   8.911 -1.0711  0.0780  1.1854
 6085SOL     OW29713   1.497   4.726   7.815  0.7161  0.0058 -0.3244
 6085SOL    HW129714   1.519   4.654   7.873  0.3013  0.5822  0.5456
 6085SOL    HW229715   1.540   4.696   7.734 -1.6302 -1.2911 -1.0963
 6086SOL     OW29716   1.316   2.175   9.100  0.1331 -0.1862 -0.0109
 6086SOL    HW129717   1.320   2.129   9.016 -2.1721 -0.7541  0.1866
 6086SOL    HW229718   1.409   2.197   9.106  0.1390 -0.1040 -0.3844
 6087SOL     OW29719   4.351   1.509  14.920  0.0297  0.7857  0.4193
 6087SOL    HW129720   4.338   1.472  15.007 -1.3889 -0.2329 -0.2275
 6087SOL    HW229721   4.263   1.542  14.907  0.5825  1.6439 -1.1158
 6088SOL     OW29722   3.994   1.280  14.203 -0.2271 -0.6968 -0.7011
 6088SOL    HW129723   4.053   1.275  14.278 -1.5052 -3.2948  0.1107
 6088SOL    HW229724   4.047   1.324  14.135 -1.0440  1.5049  0.0819
 6089SOL     OW29725   2.901   3.893   6.948  0.4615  0.2579  0.3162
 6089SOL    HW129726   2.837   3.929   7.008  0.0416 -0.7570  0.4745
 6089SOL    HW229727   2.859   3.895   6.862  0.8709 -1.1297  0.0715
 6090SOL     OW29728   3.970   4.421   2.351 -0.3757 -0.1450 -0.0568
 6090SOL    HW129729   3.939   4.491   2.293 -1.1367  0.2963  0.8624
 6090SOL    HW229730   4.051   4.469   2.367  0.2607 -1.6280  1.1634
 6091SOL     OW29731   1.813   0.157   0.892 -0.3446 -0.5341 -0.0669
 6091SOL    HW129732   1.806   0.115   0.978  0.9309 -1.2308 -0.2995
 6091SOL    HW229733   1.729   0.125   0.860 -0.8138  0.4129  0.2353
 6092SOL     OW29734   3.117   1.522   2.425  0.4713 -0.2198  0.9342
 6092SOL    HW129735   3.132   1.615   2.406  3.3437 -0.3750  2.3920
 6092SOL    HW229736   3.139   1.491   2.337 -2.1726 -1.8473  0.8683
 6093SOL     OW29737   3.400   4.053  15.185  0.2064  0.1965  0.1144
 6093SOL    HW129738   3.401   4.137  15.231  0.0414  1.4415 -2.1629
 6093SOL    HW229739   3.465   4.004  15.235  1.2069  0.4705 -0.9079
 6094SOL     OW29740   0.981   0.313   3.891  0.0704 -0.3150 -0.0178
 6094SOL    HW129741   0.927   0.294   3.968  2.2312 -0.7810  1.3875
 6094SOL    HW229742   0.976   0.226   3.852 -0.2003 -0.2981 -0.0205
 6095SOL     OW29743   2.335   4.700   3.129  0.0135  0.1619 -0.7548
 6095SOL    HW129744   2.317   4.615   3.090  2.6425 -1.5201  1.7697
 6095SOL    HW229745   2.379   0.017   3.056  0.8058 -1.0332 -0.9781
 6096SOL     OW29746   1.671   1.698   3.521 -0.6042 -0.1583 -0.3404
 6096SOL    HW129747   1.721   1.690   3.603  2.5235 -1.2233 -2.3620
 6096SOL    HW229748   1.694   1.619   3.472 -0.2957 -0.1496 -0.2128
 6097SOL     OW29749   3.173   0.980   1.976 -0.1740  0.0700  0.2326
 6097SOL    HW129750   3.221   1.009   1.898  0.1927  0.6936  0.6930
 6097SOL    HW229751   3.178   0.884   1.978 -1.5830 -0.0015  0.5552
 6098SOL     OW29752   3.693   1.545   0.001 -0.3234 -0.3446 -0.0168
 6098SOL    HW129753   3.753   1.536  17.633  0.6631 -0.3919  0.7994
 6098SOL    HW229754   3.760   1.510   0.060  1.0496 -1.6770 -2.3500
 6099SOL     OW29755   0.946   1.352   8.415 -0.0848 -0.4666  0.3241
 6099SOL    HW129756   0.874   1.297   8.449  0.0496 -1.2240 -0.6099
 6099SOL    HW229757   1.014   1.349   8.482  0.6317  0.3192 -0.3880
 6100SOL     OW29758   4.183   0.650   3.278 -0.0100 -0.1714  0.2219
 6100SOL    HW129759   4.131   0.657   3.357 -2.2875 -0.6813 -1.2386
 6100SOL    HW229760   4.264   0.696   3.300 -0.1564 -0.2024  0.8237
 6101SOL     OW29761   2.387   2.637   2.038  0.7453  0.1404 -0.0202
 6101SOL    HW129762   2.352   2.565   1.985  0.9894 -0.5265  0.7280
 6101SOL    HW229763   2.478   2.608   2.043  0.8934  0.3315 -1.6202
 6102SOL     OW29764   3.778   0.529   6.147  0.3610 -0.0318  0.0608
 6102SOL    HW129765   3.690   0.499   6.124 -0.6583  1.1772  2.4186
 6102SOL    HW229766   3.776   0.486   6.232  1.8706  0.0313  0.1192
 6103SOL     OW29767   4.646   3.615   6.054 -0.4935 -0.0859  0.3703
 6103SOL    HW129768   4.627   3.536   6.002  1.3380 -1.1428  1.3305
 6103SOL    HW229769   4.697   3.667   5.992 -2.9918  2.2054  0.2290
 6104SOL     OW29770   0.482   3.922  14.362  0.0951  1.0387 -0.0106
 6104SOL    HW129771   0.469   3.942  14.269  2.2523  1.0005 -0.3279
 6104SOL    HW229772   0.390   3.920  14.388  0.4301  0.6790  1.1486
 6105SOL     OW29773   4.381   1.817   6.814 -0.2851 -0.4423 -0.4368
 6105SOL    HW129774   4.474   1.825   6.834 -0.4806 -0.5830  0.5188
 6105SOL    HW229775   4.374   1.853   6.726 -0.1099  0.0093 -0.2672
 6106SOL     OW29776   0.753   0.202  15.844 -0.5157  0.3600 -0.2716
 6106SOL    HW129777   0.660   0.192  15.867 -0.8069  0.0583 -1.5712
 6106SOL    HW229778   0.748   0.183  15.750  0.1132  0.4632 -0.3224
 6107SOL     OW29779   1.801   4.079   4.237 -0.1183  0.1220  0.3803
 6107SOL    HW129780   1.740   4.016   4.198  1.0825 -1.6578  1.3959
 6107SOL    HW229781   1.747   4.092   4.315  1.4826  0.8168  1.3747
 6108SOL     OW29782   4.105   0.343   4.825 -0.3381 -0.3600 -0.2978
 6108SOL    HW129783   4.117   0.390   4.907 -0.1855 -1.8040  0.5007
 6108SOL    HW229784   4.013   0.362   4.808 -0.8811 -3.0177 -0.2970
 6109SOL     OW29785   3.140   0.775   2.373  0.1346  0.1841 -0.2129
 6109SOL    HW129786   3.151   0.822   2.456  1.7343 -2.8236  1.2862
 6109SOL    HW229787   3.153   0.686   2.406  0.1698  0.0179 -0.6789
 6110SOL     OW29788   0.134   0.158   8.523  0.3077  0.1207  0.3105
 6110SOL    HW129789   0.066   0.127   8.582  0.3826  0.3939  0.5431
 6110SOL    HW229790   0.138   0.238   8.575  0.1576 -1.2305  2.3849
 6111SOL     OW29791   1.379   3.205  14.429  0.0620  0.5939  0.1335
 6111SOL    HW129792   1.381   3.116  14.463  0.5290  0.6726  0.3151
 6111SOL    HW229793   1.289   3.219  14.398 -0.5676 -0.2981  1.5762
 6112SOL     OW29794   2.191   1.160   4.136 -0.1620 -0.1933 -0.1823
 6112SOL    HW129795   2.115   1.203   4.096  1.1532  1.1329 -1.2297
 6112SOL    HW229796   2.152   1.095   4.195  0.6715  1.4729  2.2051
 6113SOL     OW29797   2.025   1.087  14.027  0.4092  0.1310  0.6137
 6113SOL    HW129798   1.931   1.092  14.043  1.0020 -2.4115  4.9682
 6113SOL    HW229799   2.030   1.138  13.946 -0.8691  1.9982  1.6782
 6114SOL     OW29800   2.843   2.511   3.709 -0.3828  0.3351  0.8377
 6114SOL    HW129801   2.749   2.494   3.716  0.0613 -1.6562  2.0529
 6114SOL    HW229802   2.828   2.570   3.636 -0.7529  0.2022  0.8079
 6115SOL     OW29803   3.263   0.885   7.033  0.6554 -0.2755 -0.0527
 6115SOL    HW129804   3.242   0.962   6.980  0.8380 -0.7738 -0.8438
 6115SOL    HW229805   3.176   0.852   7.052  0.8464  0.2869  1.7621
 6116SOL     OW29806   1.845   2.551   5.657  0.0656  0.1817  0.1798
 6116SOL    HW129807   1.820   2.600   5.735 -1.5440  0.9299 -0.7966
 6116SOL    HW229808   1.940   2.552   5.670  0.6027 -0.3521 -3.5454
 6117SOL     OW29809   4.631   3.253  14.839  0.0003  0.3806  0.1891
 6117SOL    HW129810   4.676   3.224  14.918 -1.7028 -1.1349  0.6071
 6117SOL    HW229811   4.705   3.297  14.799 -0.1699  0.4692 -0.0277
 6118SOL     OW29812   2.051   2.725   6.651 -0.2605  0.5853 -0.1229
 6118SOL    HW129813   1.968   2.711   6.605  0.1079 -2.4236  0.0730
 6118SOL    HW229814   2.025   2.705   6.741  0.1600 -0.6910 -0.2814
 6119SOL     OW29815   1.951   0.242   2.435 -0.7331 -0.4057 -0.0308
 6119SOL    HW129816   1.925   0.196   2.515 -1.0813  0.9612  0.6411
 6119SOL    HW229817   1.884   0.211   2.374 -0.3765  0.3486 -0.8022
 6120SOL     OW29818   2.067   4.169  12.624  0.3857  0.2610  0.6229
 6120SOL    HW129819   2.031   4.183  12.536 -0.3553  0.4932  0.9580
 6120SOL    HW229820   2.093   4.077  12.632  2.5089  0.8436  0.2039
 6121SOL     OW29821   4.151   0.983  11.336  0.0345  0.4118 -0.4255
 6121SOL    HW129822   4.097   0.935  11.399  1.9079  0.0770  0.9458
 6121SOL    HW229823   4.213   1.023  11.398  2.3742 -3.0832 -0.5279
 6122SOL     OW29824   3.936   2.918  16.790  0.0898  0.1432 -0.1638
 6122SOL    HW129825   3.954   2.911  16.696  0.1015 -0.4270 -0.1204
 6122SOL    HW229826   4.022   2.957  16.806  0.2900 -1.0279  1.6629
 6123SOL     OW29827   1.990   4.083   7.922  0.4337 -0.5669  0.1237
 6123SOL    HW129828   1.976   4.005   7.975  1.8852 -1.3387 -0.6215
 6123SOL    HW229829   1.919   4.069   7.859  0.2571  0.4103  0.1055
 6124SOL     OW29830   3.827   0.353   0.191 -0.2236 -0.0225  0.0266
 6124SOL    HW129831   3.872   0.364   0.275 -2.5453  0.1773  1.2389
 6124SOL    HW229832   3.737   0.384   0.201 -0.2659 -0.1859  0.1538
 6125SOL     OW29833   2.322   4.431   2.923  0.1092  0.1433 -0.4019
 6125SOL    HW129834   2.341   4.419   2.830 -1.4945  1.1967 -0.8814
 6125SOL    HW229835   2.408   4.405   2.955 -0.1237  0.6028  0.5859
 6126SOL     OW29836   0.813   3.915   8.300  0.0159  0.0507  0.2392
 6126SOL    HW129837   0.778   4.004   8.304 -1.8848 -0.7555  1.7235
 6126SOL    HW229838   0.889   3.917   8.358 -0.8426  3.0093  1.2685
 6127SOL     OW29839   0.961   3.512   5.403 -0.6594 -0.2201  0.3756
 6127SOL    HW129840   0.969   3.419   5.421 -1.8937 -0.4928 -0.5643
 6127SOL    HW229841   1.054   3.530   5.387 -0.5683 -0.4384  0.6615
 6128SOL     OW29842   0.250   0.400   5.197  0.3820 -0.4033 -0.2902
 6128SOL    HW129843   0.210   0.455   5.265  0.5596 -0.3524 -0.2271
 6128SOL    HW229844   0.195   0.322   5.203 -2.0948  1.5535  2.3267
 6129SOL     OW29845   0.199   0.932  15.486 -0.1271  0.5920  0.1820
 6129SOL    HW129846   0.239   1.017  15.506  4.8390 -1.4723 -1.0939
 6129SOL    HW229847   0.129   0.927  15.551  0.0365  0.8303  0.3780
 6130SOL     OW29848   1.582   4.239  11.699  0.2244  0.1793 -0.3408
 6130SOL    HW129849   1.520   4.183  11.746  0.0914 -0.6974 -1.5518
 6130SOL    HW229850   1.526   4.314  11.678  1.6799  1.2281 -0.4740
 6131SOL     OW29851   4.234   2.353   8.119 -0.4378  0.4268 -0.3563
 6131SOL    HW129852   4.257   2.429   8.066  1.3721  0.7941  0.9545
 6131SOL    HW229853   4.239   2.397   8.204  0.5272  0.0740 -0.2378
 6132SOL     OW29854   1.915   2.181   2.095 -0.4100  0.4812  0.4495
 6132SOL    HW129855   1.820   2.174   2.085 -0.2901  0.3165 -0.6131
 6132SOL    HW229856   1.923   2.164   2.189 -0.6486  1.2709  0.6153
 6133SOL     OW29857   0.499   2.442   2.326  0.0629  0.0095  0.1969
 6133SOL    HW129858   0.561   2.443   2.400 -0.8035 -2.2413  0.9535
 6133SOL    HW229859   0.511   2.528   2.286  0.4612  0.6238  1.6068
 6134SOL     OW29860   1.545   0.547   6.722 -0.3519  0.3827  0.1041
 6134SOL    HW129861   1.489   0.597   6.663  1.4963  2.5233  0.1567
 6134SOL    HW229862   1.499   0.463   6.721  0.2504  0.0531 -0.5753
 6135SOL     OW29863   1.537   4.130   0.878 -0.0100  0.1752 -0.2835
 6135SOL    HW129864   1.460   4.103   0.929 -1.7292  2.5490 -1.6251
 6135SOL    HW229865   1.483   4.159   0.805 -1.9334 -1.4380  0.4985
 6136SOL     OW29866   0.133   3.358   2.119  0.5585 -0.1768  0.9096
 6136SOL    HW129867   0.133   3.287   2.054  1.7964 -0.8662  1.6645
 6136SOL    HW229868   0.173   3.303   2.186  1.5509  1.2239  1.4759
 6137SOL     OW29869   1.914   2.459   3.875  0.4569 -0.6796 -0.2811
 6137SOL    HW129870   1.971   2.412   3.935  2.1664 -0.2725 -1.5772
 6137SOL    HW229871   1.971   2.498   3.809 -0.3871 -0.3190 -0.8051
 6138SOL     OW29872   1.056   0.665  17.143 -0.0751 -0.3738 -0.3424
 6138SOL    HW129873   1.135   0.642  17.095  0.7280 -2.2519  1.9074
 6138SOL    HW229874   1.014   0.693  17.061  1.1064  1.3849 -0.3397
 6139SOL     OW29875   2.618   1.028   8.434 -0.2666 -0.0362  0.2369
 6139SOL    HW129876   2.537   0.988   8.402  0.4754 -0.0732 -1.6003
 6139SOL    HW229877   2.580   1.091   8.495  2.7613 -0.4189  2.4591
 6140SOL     OW29878   4.542   3.103   2.996  0.0254  0.3457 -0.2535
 6140SOL    HW129879   4.479   3.145   3.054  0.6566  1.2122 -0.1839
 6140SOL    HW229880   4.588   3.057   3.067 -1.2640 -1.9693 -0.9446
 6141SOL     OW29881   3.782   1.821  11.275  0.0297 -0.3741  0.2600
 6141SOL    HW129882   3.747   1.909  11.290 -0.0986 -0.7315  2.0220
 6141SOL    HW229883   3.877   1.831  11.277 -0.3478  3.4505 -0.2734
 6142SOL     OW29884   3.621   3.934   8.528 -0.2676  0.1776  0.1739
 6142SOL    HW129885   3.587   3.878   8.597 -0.9403  0.1849 -0.1545
 6142SOL    HW229886   3.549   3.984   8.490  0.5690 -0.9594 -2.9699
 6143SOL     OW29887   2.455   2.208   0.342  0.2196  0.1436 -0.5030
 6143SOL    HW129888   2.540   2.165   0.337 -0.9117 -2.2136  0.6859
 6143SOL    HW229889   2.397   2.178   0.273 -1.2365 -0.1551  0.8427
 6144SOL     OW29890   0.385   2.369   7.766  0.0086 -0.4986  0.3215
 6144SOL    HW129891   0.446   2.402   7.832 -2.7978  1.4665  1.8968
 6144SOL    HW229892   0.420   2.392   7.680 -2.0649  1.3136 -0.0125
 6145SOL     OW29893   3.234   1.421  13.320  0.4427  0.3190 -0.1122
 6145SOL    HW129894   3.139   1.428  13.318  0.4405  0.7685  1.9188
 6145SOL    HW229895   3.264   1.377  13.239 -1.1566  1.7180 -1.4535
 6146SOL     OW29896   3.374   2.619   8.430  0.2312  0.3254 -0.5698
 6146SOL    HW129897   3.386   2.679   8.503  1.1915 -0.2356 -0.2558
 6146SOL    HW229898   3.448   2.558   8.434  0.8667  1.1358 -0.0019
 6147SOL     OW29899   3.526   1.726   2.823 -0.1694 -0.3926 -0.1692
 6147SOL    HW129900   3.497   1.644   2.863  1.5798 -0.8324  0.2265
 6147SOL    HW229901   3.442   1.751   2.785 -0.1203  0.2741  0.1667
 6148SOL     OW29902   2.796   2.685   9.387 -0.0439  0.0888  0.1779
 6148SOL    HW129903   2.866   2.686   9.321 -1.3046 -1.1345 -1.1780
 6148SOL    HW229904   2.712   2.700   9.343  0.4695  2.6871  0.0854
 6149SOL     OW29905   2.004   1.123   7.642 -0.3618 -0.1933 -0.2885
 6149SOL    HW129906   1.978   1.211   7.613 -1.4606 -0.6820 -0.7990
 6149SOL    HW229907   2.066   1.142   7.712  1.1223 -1.0047 -1.4036
 6150SOL     OW29908   0.928   4.576   5.235  0.0628 -0.3286 -0.0465
 6150SOL    HW129909   0.850   4.598   5.285 -1.5300  1.2161 -3.2192
 6150SOL    HW229910   0.956   4.662   5.203  1.6364 -1.2029 -1.0513
 6151SOL     OW29911   2.530   1.038  12.707  1.1273  0.2739 -0.3216
 6151SOL    HW129912   2.454   1.090  12.730 -0.9445 -2.6683 -0.5309
 6151SOL    HW229913   2.588   1.106  12.672 -0.2359  1.2208 -0.7085
 6152SOL     OW29914   4.709   3.889   4.348  1.0149  0.4127 -0.1957
 6152SOL    HW129915   0.004   3.805   4.389 -1.8481 -1.0485 -1.7101
 6152SOL    HW229916   0.064   3.940   4.357  1.2314  0.0776 -0.2434
 6153SOL     OW29917   1.096   0.838  16.948  0.1049  0.2526  0.1522
 6153SOL    HW129918   1.061   0.925  16.926  0.6287  0.2361 -0.7835
 6153SOL    HW229919   1.156   0.819  16.875  0.5198  3.5615 -0.3879
 6154SOL     OW29920   0.348   4.608  16.587 -0.3415  0.4648  0.0018
 6154SOL    HW129921   0.315   4.618  16.676  1.1252  2.9640  0.2891
 6154SOL    HW229922   0.414   4.677  16.597 -3.1568  3.0617  0.9050
 6155SOL     OW29923   0.371   3.491   1.182  0.6554 -0.1756 -0.2731
 6155SOL    HW129924   0.457   3.451   1.195  0.4465 -0.2383  0.9434
 6155SOL    HW229925   0.342   3.448   1.102 -0.0095  1.8534 -1.1150
 6156SOL     OW29926   3.349   2.541   3.558 -0.2345  0.2380  0.1461
 6156SOL    HW129927   3.319   2.489   3.484  1.9745  0.6596 -1.0439
 6156SOL    HW229928   3.347   2.628   3.518  1.9585  0.3914  0.3815
 6157SOL     OW29929   4.341   0.820   8.934  0.0273  0.3421  0.2469
 6157SOL    HW129930   4.333   0.854   9.023  4.2712 -0.3770  0.9211
 6157SOL    HW229931   4.398   0.746   8.954 -0.3793  0.1780  0.8079
 6158SOL     OW29932   0.943   1.020   3.855 -0.6376 -0.5334  0.3415
 6158SOL    HW129933   0.919   1.106   3.821  1.3401 -0.9916 -2.1516
 6158SOL    HW229934   1.027   1.048   3.893 -0.5349  0.2631 -0.4673
 6159SOL     OW29935   1.280   0.292   2.461 -0.1296  0.0371  0.2374
 6159SOL    HW129936   1.363   0.339   2.458  0.3271 -0.9411 -2.1602
 6159SOL    HW229937   1.288   0.242   2.542  0.6750 -1.8444 -1.0042
 6160SOL     OW29938   1.665   1.297   3.846  0.4918  0.1595  0.2057
 6160SOL    HW129939   1.592   1.251   3.886  0.6192 -0.6125 -0.4425
 6160SOL    HW229940   1.643   1.297   3.753 -1.6388 -2.0254  0.7127
 6161SOL     OW29941   3.118   2.757   5.775  0.0761  0.3276 -0.5022
 6161SOL    HW129942   3.046   2.813   5.747 -0.6980 -0.9080 -0.9788
 6161SOL    HW229943   3.094   2.731   5.864 -1.7511  0.1005 -1.0772
 6162SOL     OW29944   3.236   1.096   9.161  0.2343 -0.5992  0.0964
 6162SOL    HW129945   3.144   1.114   9.145  0.8866  0.4410 -2.5291
 6162SOL    HW229946   3.265   1.185   9.177 -1.6228 -0.1988  1.2453
 6163SOL     OW29947   3.089   3.971   0.886  0.0896 -0.3309 -0.1154
 6163SOL    HW129948   3.016   4.027   0.911 -0.5870 -0.3346 -2.0843
 6163SOL    HW229949   3.085   3.984   0.791 -1.9398 -1.5714 -0.1884
 6164SOL     OW29950   2.098   0.313   5.503 -0.5585  0.1087 -0.2169
 6164SOL    HW129951   2.009   0.290   5.473 -0.4744  0.8012 -0.9936
 6164SOL    HW229952   2.074   0.325   5.595  1.4229 -1.2646  0.4827
 6165SOL     OW29953   0.545   4.322  12.484 -0.3584 -0.1357 -0.0978
 6165SOL    HW129954   0.591   4.299  12.403  1.3411 -1.9972  1.4119
 6165SOL    HW229955   0.465   4.277  12.456 -0.6662  0.8855 -0.8985
 6166SOL     OW29956   3.287   4.020   5.664  0.0151  0.3843 -0.6544
 6166SOL    HW129957   3.280   4.031   5.569  2.2931  0.3262 -0.8193
 6166SOL    HW229958   3.377   3.991   5.681 -0.1827  1.2672  1.9002
 6167SOL     OW29959   2.327   0.451   4.432  0.4343 -0.2286 -0.4300
 6167SOL    HW129960   2.356   0.541   4.445 -0.1536 -0.5105  2.8102
 6167SOL    HW229961   2.279   0.460   4.349  0.5717 -0.9743 -0.5899
 6168SOL     OW29962   2.986   2.307  15.388 -0.3968 -0.0221 -0.0764
 6168SOL    HW129963   2.973   2.258  15.469 -1.1462 -1.6344 -1.1982
 6168SOL    HW229964   3.064   2.262  15.357 -0.8627  0.3345 -1.7576
 6169SOL     OW29965   4.181   3.363   2.822 -0.3443  0.5973  0.4004
 6169SOL    HW129966   4.146   3.450   2.840  0.6879  1.1967 -0.4992
 6169SOL    HW229967   4.269   3.387   2.794  0.0873 -2.0382 -0.5262
 6170SOL     OW29968   3.009   3.916   7.844  0.0586 -0.2455  0.1270
 6170SOL    HW129969   3.050   3.842   7.889 -2.2412  0.4697  3.4519
 6170SOL    HW229970   3.059   3.913   7.763  0.8662  3.1720  0.4836
 6171SOL     OW29971   1.590   4.641   7.185  0.1638  0.0119  0.2602
 6171SOL    HW129972   1.525   4.710   7.174 -2.2117 -2.4471 -1.2525
 6171SOL    HW229973   1.535   4.572   7.224  0.2325  0.6690  1.5351
 6172SOL     OW29974   2.859   0.253  13.774  0.2667  0.7253 -0.4190
 6172SOL    HW129975   2.859   0.348  13.788 -3.6509  0.9024 -1.6518
 6172SOL    HW229976   2.801   0.230  13.846 -0.4745  1.8171 -0.6567
 6173SOL     OW29977   4.464   0.722   6.024  0.1621  0.3302  0.0428
 6173SOL    HW129978   4.486   0.809   6.057  1.3529  0.3395 -0.7765
 6173SOL    HW229979   4.533   0.663   6.056  0.1157 -0.2331 -0.9009
 6174SOL     OW29980   1.565   0.170   4.933  0.3582 -0.5317 -0.0097
 6174SOL    HW129981   1.622   0.233   4.890 -0.2251 -1.7117 -2.5577
 6174SOL    HW229982   1.547   0.113   4.858  0.2864  0.8148 -1.0007
 6175SOL     OW29983   2.657   4.700   8.233  0.7147 -0.3836  0.3339
 6175SOL    HW129984   2.737   4.667   8.274  1.5818  1.4946  0.1552
 6175SOL    HW229985   2.593   4.651   8.284 -0.7719 -0.2503 -1.4186
 6176SOL     OW29986   1.879   3.922   8.863  0.5762 -0.2564 -0.0791
 6176SOL    HW129987   1.888   3.933   8.769  0.7478  2.2495  0.2405
 6176SOL    HW229988   1.845   4.006   8.894  1.0459 -0.0122 -0.2274
 6177SOL     OW29989   0.692   3.254   8.113  0.5352 -0.2569 -0.0065
 6177SOL    HW129990   0.742   3.185   8.157 -0.4403 -1.5470 -0.8968
 6177SOL    HW229991   0.762   3.294   8.062  0.0970 -0.7983 -1.0388
 6178SOL     OW29992   2.905   1.197   1.166  0.7153  0.6069 -0.5525
 6178SOL    HW129993   2.916   1.118   1.219 -1.8005  1.6881  1.6023
 6178SOL    HW229994   2.844   1.177   1.095 -0.5847 -0.7663  0.9395
 6179SOL     OW29995   3.906   2.831  14.824 -0.7421  0.0363 -0.2445
 6179SOL    HW129996   3.983   2.841  14.879  1.0564  1.6826 -3.0667
 6179SOL    HW229997   3.872   2.920  14.831 -0.4964  0.0621  0.5497
 6180SOL     OW29998   3.739   2.901   7.438 -0.2306 -0.1421  0.0669
 6180SOL    HW129999   3.719   2.956   7.513 -0.0079 -2.4226  1.8215
 6180SOL    HW230000   3.773   2.824   7.485  0.8946  1.3035  1.6159
 6181SOL     OW30001   4.325   0.577   4.590  0.3490  0.9846  0.1451
 6181SOL    HW130002   4.245   0.534   4.560 -0.4531  2.0364  0.7852
 6181SOL    HW230003   4.279   0.632   4.653 -2.0461 -0.3717 -0.4401
 6182SOL     OW30004   2.791   1.180  12.643 -0.0469  0.5639 -0.2537
 6182SOL    HW130005   2.827   1.236  12.711  0.3645  0.5206 -0.4373
 6182SOL    HW230006   2.794   1.230  12.561  1.3694  0.5820 -0.1963
 6183SOL     OW30007   2.181   4.618  10.112  0.2961  0.3400  0.4768
 6183SOL    HW130008   2.256   4.577  10.156  0.5768 -0.5928 -0.8693
 6183SOL    HW230009   2.207   4.589  10.024  1.1286  2.5754 -0.0161
 6184SOL     OW30010   2.774   2.170   4.994 -0.1194 -0.2475 -0.2490
 6184SOL    HW130011   2.820   2.229   5.054  0.3562 -0.0910 -0.7641
 6184SOL    HW230012   2.838   2.157   4.923  1.4842  0.7371  1.0306
 6185SOL     OW30013   0.223   0.286   5.578  0.1605 -0.3024  0.1928
 6185SOL    HW130014   0.274   0.206   5.588 -1.7514 -1.4398  0.8249
 6185SOL    HW230015   0.274   0.363   5.603  2.4272 -1.8891  0.3623
 6186SOL     OW30016   2.184   0.845  13.031 -0.5409  0.2113 -0.0416
 6186SOL    HW130017   2.163   0.880  13.118  1.6113  1.0634  0.1535
 6186SOL    HW230018   2.277   0.864  13.020 -0.7547  1.3000  0.0036
 6187SOL     OW30019   3.086   1.867   5.459  0.7213  0.1719  0.2883
 6187SOL    HW130020   3.027   1.795   5.438  0.5518 -0.1610  1.8503
 6187SOL    HW230021   3.174   1.833   5.474 -0.4101 -2.2709  1.4693
 6188SOL     OW30022   1.954   3.227   4.121 -0.3809  0.1759 -0.1261
 6188SOL    HW130023   1.868   3.197   4.151  0.3189 -2.5853 -0.9487
 6188SOL    HW230024   2.014   3.167   4.165 -0.4527  0.9793  1.1008
 6189SOL     OW30025   2.968   0.509  11.920  0.1578 -0.0498 -0.0544
 6189SOL    HW130026   3.035   0.460  11.968  1.3616  1.4519 -0.2337
 6189SOL    HW230027   3.022   0.552  11.854 -1.5595 -0.4793 -1.7372
 6190SOL     OW30028   0.859   2.954   1.105 -0.1239  0.0719 -0.0224
 6190SOL    HW130029   0.951   2.932   1.089  0.2069  2.8107 -1.8926
 6190SOL    HW230030   0.831   2.971   1.015 -1.3061  1.0221  0.5235
 6191SOL     OW30031   1.201   2.836   9.616  0.2049  0.6098  0.3752
 6191SOL    HW130032   1.178   2.749   9.649  0.3501 -0.3453 -2.0176
 6191SOL    HW230033   1.171   2.898   9.683  2.5203  0.4491  1.5745
 6192SOL     OW30034   0.456   0.424  11.411  0.8579 -0.0758  0.4643
 6192SOL    HW130035   0.408   0.341  11.413  0.5976  0.0972  1.3520
 6192SOL    HW230036   0.380   0.480  11.428  0.1749 -0.6985 -0.5167
 6193SOL     OW30037   3.244   3.449  13.707 -0.0254  0.1485  0.7670
 6193SOL    HW130038   3.243   3.465  13.613 -0.8607  0.4431  0.8296
 6193SOL    HW230039   3.183   3.511  13.746 -1.1705 -0.0062 -0.7943
 6194SOL     OW30040   1.814   2.650   4.814  0.4409  0.0102 -0.3935
 6194SOL    HW130041   1.877   2.691   4.873 -1.0705 -0.0756  1.2573
 6194SOL    HW230042   1.872   2.587   4.771 -0.5340  0.5257 -2.4956
 6195SOL     OW30043   2.635   0.892   7.931  0.0585  0.0369 -0.2286
 6195SOL    HW130044   2.695   0.818   7.930  1.0285  0.8271  0.0485
 6195SOL    HW230045   2.615   0.911   7.839  0.2481  2.6368  0.2675
 6196SOL     OW30046   1.147   0.713   1.670 -1.0380 -0.3216 -0.0565
 6196SOL    HW130047   1.195   0.792   1.696 -1.7584  0.4682 -1.1272
 6196SOL    HW230048   1.204   0.692   1.597 -1.2017 -2.5396  0.4647
 6197SOL     OW30049   3.585   3.516  11.101  0.0639  1.0560 -0.1685
 6197SOL    HW130050   3.530   3.518  11.179  1.2338 -1.0637  0.6878
 6197SOL    HW230051   3.523   3.534  11.030 -1.0518 -1.1881  0.2535
 6198SOL     OW30052   3.174   1.367   8.759  0.1706  0.3020  0.1957
 6198SOL    HW130053   3.125   1.286   8.771 -0.3216  0.4554 -0.7946
 6198SOL    HW230054   3.109   1.437   8.770 -0.0531  0.3761 -1.6318
 6199SOL     OW30055   1.810   0.968  11.125  0.2101 -0.0061  0.4903
 6199SOL    HW130056   1.888   0.920  11.155  1.3239 -0.2946 -2.8825
 6199SOL    HW230057   1.751   0.969  11.201  0.5914  0.9111  0.7748
 6200SOL     OW30058   2.379   3.985  14.954  0.0315  0.2851  0.2502
 6200SOL    HW130059   2.443   3.943  15.011  0.9282  0.5259 -0.5815
 6200SOL    HW230060   2.431   4.044  14.899  0.3657 -0.8109 -0.5978
 6201SOL     OW30061   0.317   3.697   2.415  0.5243  0.4598 -0.3849
 6201SOL    HW130062   0.402   3.658   2.397  0.2549 -0.7368  0.8976
 6201SOL    HW230063   0.331   3.788   2.390  1.9391  0.8542  1.8556
 6202SOL     OW30064   2.947   0.016   5.591  0.1944 -0.3213  0.6862
 6202SOL    HW130065   2.954   0.111   5.586 -1.2036 -0.2866 -0.4004
 6202SOL    HW230066   2.999   4.715   5.515 -1.2477 -1.9297  0.2848
 6203SOL     OW30067   0.139   3.921  12.170  0.2352  0.6779 -0.0983
 6203SOL    HW130068   0.167   4.010  12.148 -0.5024  0.5203 -1.7068
 6203SOL    HW230069   0.056   3.934  12.216  0.6194 -0.7219  0.9847
 6204SOL     OW30070   3.413   4.041   8.384 -0.1486  0.6290 -0.1380
 6204SOL    HW130071   3.369   4.067   8.303  0.2811  0.8171 -0.3096
 6204SOL    HW230072   3.356   3.968   8.408 -2.2371  2.1149 -0.5961
 6205SOL     OW30073   1.336   3.287   4.600 -0.8016  0.1722  0.7001
 6205SOL    HW130074   1.410   3.346   4.614  0.8794 -1.4500 -1.3171
 6205SOL    HW230075   1.363   3.209   4.650 -0.6747 -1.5070 -2.0098
 6206SOL     OW30076   4.185   0.368  15.804  0.1808 -0.1345  0.1935
 6206SOL    HW130077   4.143   0.302  15.860 -0.3834  0.8485  0.9286
 6206SOL    HW230078   4.279   0.352  15.819  0.3780  2.3124  1.5308
 6207SOL     OW30079   2.786   2.610   4.876  0.3003 -0.0385  0.3623
 6207SOL    HW130080   2.828   2.693   4.851  1.8581 -1.3260 -1.2378
 6207SOL    HW230081   2.850   2.544   4.850  0.0113  0.3900 -1.4373
 6208SOL     OW30082   2.042   4.292   6.583 -0.5893  0.5700  0.1766
 6208SOL    HW130083   2.007   4.215   6.539 -0.1052 -0.1417  1.0339
 6208SOL    HW230084   2.003   4.358   6.526 -1.9900 -2.6483 -2.6091
 6209SOL     OW30085   4.323   3.695  11.683  0.0733 -0.4396  0.6714
 6209SOL    HW130086   4.263   3.760  11.645  0.2110 -1.3792 -1.1748
 6209SOL    HW230087   4.342   3.726  11.771 -0.2224 -0.1311  0.6278
 6210SOL     OW30088   2.085   4.056   4.373 -0.5595 -0.1430  0.3475
 6210SOL    HW130089   2.128   4.053   4.458  1.5732 -0.1584 -0.7550
 6210SOL    HW230090   2.008   4.107   4.399 -1.3124 -0.1132 -1.8844
 6211SOL     OW30091   0.970   0.724   8.436  0.0721 -0.0357 -0.8276
 6211SOL    HW130092   0.922   0.768   8.507  0.2151  0.7345 -1.2047
 6211SOL    HW230093   1.061   0.741   8.461  0.4230  2.2950 -3.7797
 6212SOL     OW30094   2.748   3.469  13.207  0.1700 -0.3458  0.3437
 6212SOL    HW130095   2.706   3.492  13.124  3.1998  0.2890 -0.9993
 6212SOL    HW230096   2.735   3.557  13.243  0.8702 -0.0986 -0.0102
 6213SOL     OW30097   2.542   3.113   9.966 -0.1871  0.5822 -0.0953
 6213SOL    HW130098   2.477   3.182   9.958  1.8877  2.5783  0.2121
 6213SOL    HW230099   2.528   3.075   9.879  0.6283 -1.2609  0.5923
 6214SOL     OW30100   1.215   0.761   2.406 -0.4849 -0.2733 -0.8198
 6214SOL    HW130101   1.207   0.783   2.313 -2.2930 -2.5050 -1.1906
 6214SOL    HW230102   1.294   0.707   2.412 -0.1508  0.2560 -0.3940
 6215SOL     OW30103   0.324   2.007   8.497  0.1878 -0.0005  0.2493
 6215SOL    HW130104   0.245   1.964   8.465 -0.3304  1.4077 -0.3650
 6215SOL    HW230105   0.294   2.088   8.538 -3.0045 -0.3701 -1.3645
 6216SOL     OW30106   4.648   4.545   5.901 -0.9910 -0.2271 -0.1175
 6216SOL    HW130107   0.016   4.563   5.900 -1.2223  0.9731 -0.5270
 6216SOL    HW230108   4.618   4.635   5.886  0.1098 -0.0495 -1.2400
 6217SOL     OW30109   3.279   4.441  13.405 -0.1506 -0.0362 -0.0192
 6217SOL    HW130110   3.196   4.399  13.383 -1.1456  2.5572 -1.2343
 6217SOL    HW230111   3.259   4.483  13.489 -0.1831  0.1352 -0.1134
 6218SOL     OW30112   1.596   0.150  15.060 -0.6035 -0.2216 -0.1496
 6218SOL    HW130113   1.639   0.128  14.978  2.3269  1.4425  0.9228
 6218SOL    HW230114   1.508   0.153  15.024 -1.0033  0.9199  0.9277
 6219SOL     OW30115   4.280   2.478   3.892 -0.2910  0.2770  0.1486
 6219SOL    HW130116   4.209   2.426   3.854 -1.2395  0.1507  2.1025
 6219SOL    HW230117   4.231   2.518   3.964 -2.3991  0.0005 -1.1444
 6220SOL     OW30118   1.742   4.463  11.164  0.5169 -0.4377  0.0363
 6220SOL    HW130119   1.731   4.555  11.140  4.2115  0.3985  1.6575
 6220SOL    HW230120   1.834   4.450  11.188  0.5616 -1.1951 -0.5360
 6221SOL     OW30121   4.640   1.812   6.941  0.0140 -0.0951 -0.0824
 6221SOL    HW130122   4.669   1.827   7.031 -1.3844 -1.4905  0.5889
 6221SOL    HW230123   4.695   1.734   6.932 -0.0838 -0.1327 -0.3371
 6222SOL     OW30124   3.728   3.446   8.977  0.0903 -0.2014  0.1302
 6222SOL    HW130125   3.670   3.382   9.018 -2.9280  0.9551 -2.3490
 6222SOL    HW230126   3.807   3.412   9.020 -0.8390 -0.9759  1.2233
 6223SOL     OW30127   1.243   4.557  12.789 -0.3064  0.0542  0.4550
 6223SOL    HW130128   1.191   4.624  12.745 -0.1063  0.9221  1.5355
 6223SOL    HW230129   1.176   4.507  12.837 -0.1335 -0.1992  0.4301
 6224SOL     OW30130   4.571   2.499   7.649  0.7119  0.0870  0.2408
 6224SOL    HW130131   4.575   2.591   7.677  2.2243  0.5345 -1.4785
 6224SOL    HW230132   4.478   2.500   7.625  0.7314  0.6006  0.1819
 6225SOL     OW30133   3.392   4.287   9.807  0.4651 -0.3262 -0.1526
 6225SOL    HW130134   3.468   4.244   9.769 -1.3504 -2.0912 -1.7585
 6225SOL    HW230135   3.328   4.216   9.807  0.1994 -0.0777 -1.4395
 6226SOL     OW30136   1.810   3.452  12.450 -0.4950 -0.0617 -0.2879
 6226SOL    HW130137   1.772   3.451  12.538 -0.1002 -1.2141 -0.1270
 6226SOL    HW230138   1.819   3.360  12.428  3.8482  0.7980 -2.0962
 6227SOL     OW30139   0.302   1.002   9.111  0.1816 -0.1262 -0.6604
 6227SOL    HW130140   0.245   0.957   9.049  1.6501  0.2888 -2.3163
 6227SOL    HW230141   0.378   0.964   9.067 -0.2386 -0.9110 -0.7007
 6228SOL     OW30142   4.550   1.888   4.114 -0.3618 -1.0162  0.0663
 6228SOL    HW130143   4.643   1.910   4.109 -0.8296  0.7270 -1.0779
 6228SOL    HW230144   4.517   1.879   4.025  0.0276  1.9948 -0.3830
 6229SOL     OW30145   2.653   1.588  17.532 -0.5520  0.1771  0.0963
 6229SOL    HW130146   2.730   1.578  17.587 -0.6904  0.6015  0.3664
 6229SOL    HW230147   2.589   1.603  17.601  0.7964 -2.0275  1.8127
 6230SOL     OW30148   3.352   0.081   4.954 -0.5239  0.8892  0.2253
 6230SOL    HW130149   3.387   0.006   5.003  1.0163 -0.6811 -3.2786
 6230SOL    HW230150   3.287   0.037   4.899  0.8785  0.3000 -0.9553
 6231SOL     OW30151   0.629   0.294   8.076  0.2436  0.5916 -0.4517
 6231SOL    HW130152   0.591   0.377   8.105 -0.9715  0.0421 -0.4635
 6231SOL    HW230153   0.708   0.321   8.030  0.1181  2.2074  0.2975
 6232SOL     OW30154   4.181   0.888   7.500 -0.3679 -0.0521 -0.4554
 6232SOL    HW130155   4.234   0.813   7.523  1.6531  1.2645 -0.8098
 6232SOL    HW230156   4.229   0.969   7.518  0.2269 -0.7348  1.0245
 6233SOL     OW30157   3.296   1.502   8.238  0.1116  0.1999  0.1347
 6233SOL    HW130158   3.350   1.569   8.196 -3.6729  2.5046 -1.1709
 6233SOL    HW230159   3.283   1.435   8.171  0.7830  1.0356 -0.8401
 6234SOL     OW30160   2.124   0.562   9.442 -0.1192  0.7866 -0.2164
 6234SOL    HW130161   2.040   0.607   9.451 -0.6815 -0.1029 -1.0097
 6234SOL    HW230162   2.090   0.494   9.384 -0.0373  2.5560 -2.3560
 6235SOL     OW30163   3.240   3.642   7.765  0.2948  0.6806  0.0803
 6235SOL    HW130164   3.288   3.569   7.725 -1.5560 -0.2884 -0.3738
 6235SOL    HW230165   3.292   3.720   7.747  0.1623  0.5459 -0.8722
 6236SOL     OW30166   0.457   4.707   9.182 -0.3552  0.3537 -0.8557
 6236SOL    HW130167   0.467   0.074   9.200  0.9441 -0.4518  2.5724
 6236SOL    HW230168   0.443   4.708   9.087  2.5617 -2.8218 -1.3094
 6237SOL     OW30169   3.032   2.518  16.483  0.0095 -0.5812  0.2355
 6237SOL    HW130170   3.073   2.445  16.438  1.0702 -0.3491  0.8250
 6237SOL    HW230171   2.943   2.506  16.449  0.3689 -0.0509 -0.8817
 6238SOL     OW30172   3.773   1.429  17.384  0.0140 -0.5067  0.6547
 6238SOL    HW130173   3.795   1.349  17.336 -2.0558  0.8726 -2.5651
 6238SOL    HW230174   3.850   1.485  17.374 -0.5822  0.4094  1.1603
 6239SOL     OW30175   2.831   0.194  11.179  0.5529 -0.3050  0.0069
 6239SOL    HW130176   2.749   0.214  11.224 -0.2205 -1.7008 -0.8201
 6239SOL    HW230177   2.887   0.257  11.225  0.5309 -1.2110  1.2893
 6240SOL     OW30178   1.701   3.066   3.482  0.9396 -0.1547 -0.2251
 6240SOL    HW130179   1.731   2.976   3.480  1.8077  0.1000  0.8143
 6240SOL    HW230180   1.763   3.099   3.548  0.6361  0.6407 -0.3404
 6241SOL     OW30181   0.757   3.022   9.160 -0.1427 -0.2988  0.4691
 6241SOL    HW130182   0.684   2.961   9.174 -0.3863  0.6823  3.4343
 6241SOL    HW230183   0.831   2.961   9.160 -0.7209 -0.9984 -1.2612
 6242SOL     OW30184   1.759   2.510  15.236  0.5857  0.4441  0.2967
 6242SOL    HW130185   1.669   2.524  15.205  0.2049 -2.1629  0.2372
 6242SOL    HW230186   1.817   2.578  15.201  1.3042 -0.9734 -1.2600
 6243SOL     OW30187   0.297   4.431   4.777 -0.0652 -0.3470 -0.0706
 6243SOL    HW130188   0.317   4.338   4.789 -2.0600 -0.5687  1.4730
 6243SOL    HW230189   0.219   4.427   4.832  0.3535 -0.4463  0.5122
 6244SOL     OW30190   0.917   0.012   2.532 -0.6848 -0.1390  0.2813
 6244SOL    HW130191   1.003   4.720   2.495 -0.0360 -1.4791  2.4164
 6244SOL    HW230192   0.893   0.079   2.468  2.6965  1.7173  0.9412
 6245SOL     OW30193   0.431   2.818   1.429  0.3226  0.1341 -0.5326
 6245SOL    HW130194   0.373   2.880   1.384 -0.0688  3.3767  4.3460
 6245SOL    HW230195   0.389   2.810   1.515  1.2975  3.5760  0.2477
 6246SOL     OW30196   2.126   1.858   2.213 -0.0775  0.3410  0.6233
 6246SOL    HW130197   2.101   1.776   2.172  0.1157  1.5267 -1.9000
 6246SOL    HW230198   2.186   1.830   2.282  0.3038 -2.9139 -1.0657
 6247SOL     OW30199   3.556   0.089   2.378  0.6541 -0.0375  0.1620
 6247SOL    HW130200   3.576   0.031   2.305 -2.0284  2.3430 -2.4228
 6247SOL    HW230201   3.571   0.175   2.339 -2.3202 -0.0608 -1.0248
 6248SOL     OW30202   1.237   3.897   2.285  0.1220  0.7780 -0.3913
 6248SOL    HW130203   1.251   3.956   2.211 -0.7575  0.1868 -1.0204
 6248SOL    HW230204   1.170   3.836   2.257  1.2698 -0.0582 -1.3323
 6249SOL     OW30205   1.145   1.934   6.830  0.2233 -0.0411 -0.4202
 6249SOL    HW130206   1.133   1.988   6.752  0.4420  1.5185  0.6346
 6249SOL    HW230207   1.063   1.939   6.879  0.0183  1.3896 -0.9004
 6250SOL     OW30208   3.288   3.778   0.668 -0.2361 -0.0495  0.0319
 6250SOL    HW130209   3.313   3.758   0.578 -1.5577 -2.9490  0.3115
 6250SOL    HW230210   3.207   3.825   0.652  0.7035  1.6510  0.2350
 6251SOL     OW30211   4.351   2.323  17.399  0.4804 -0.0186 -0.1342
 6251SOL    HW130212   4.369   2.267  17.475  0.4291 -1.3176 -1.0820
 6251SOL    HW230213   4.424   2.382  17.416 -0.8457  0.9913  2.0298
 6252SOL     OW30214   2.494   0.448   9.258 -0.4511  0.1686 -0.0305
 6252SOL    HW130215   2.517   0.393   9.182  1.6064 -2.5468  2.5514
 6252SOL    HW230216   2.542   0.524   9.223 -1.8313  0.8250 -0.4890
 6253SOL     OW30217   1.508   2.071   9.874  0.0900 -0.3472  0.2018
 6253SOL    HW130218   1.512   1.985   9.833  2.8398  1.7878 -4.0183
 6253SOL    HW230219   1.416   2.099   9.870  0.0454 -0.6726 -0.8102
 6254SOL     OW30220   2.412   2.825   5.189  0.5046 -0.8374  0.6075
 6254SOL    HW130221   2.381   2.887   5.123 -0.1192 -1.6434  0.1338
 6254SOL    HW230222   2.461   2.876   5.254 -0.0818  0.9268 -0.3472
 6255SOL     OW30223   0.730   0.177   2.897  0.2040 -0.2288 -0.2008
 6255SOL    HW130224   0.783   0.246   2.858 -0.3204  0.2801 -0.0133
 6255SOL    HW230225   0.781   0.105   2.860 -0.4960  0.4177 -2.3789
 6256SOL     OW30226   0.295   2.611   9.028 -0.1078  0.0678  0.7352
 6256SOL    HW130227   0.231   2.612   8.957  0.7952  1.6602 -0.0504
 6256SOL    HW230228   0.243   2.642   9.102  0.9701  0.3152  1.3989
 6257SOL     OW30229   2.963   3.261   2.113 -0.2399 -0.1799  0.5761
 6257SOL    HW130230   2.960   3.276   2.207 -0.5732  0.1220  0.5177
 6257SOL    HW230231   3.004   3.176   2.095 -0.1666 -0.3243  1.4593
 6258SOL     OW30232   2.512   1.036   5.316  0.0724  0.4511 -0.1727
 6258SOL    HW130233   2.496   1.065   5.405  0.0544 -1.7685  0.5439
 6258SOL    HW230234   2.607   1.047   5.306 -0.4179  3.6141 -1.3823
 6259SOL     OW30235   0.723   0.869   3.920  0.2483 -0.1759  0.1746
 6259SOL    HW130236   0.788   0.930   3.886 -0.2240  0.7672  0.9485
 6259SOL    HW230237   0.756   0.785   3.890 -4.3043 -1.7152 -0.5280
 6260SOL     OW30238   2.884   2.856   4.880 -0.1911 -0.5186  0.3140
 6260SOL    HW130239   2.831   2.915   4.826  1.9791 -0.4191 -1.7438
 6260SOL    HW230240   2.870   2.897   4.965  0.6439 -1.4581  0.9056
 6261SOL     OW30241   4.355   3.719   0.782 -0.0514  0.4267 -0.2311
 6261SOL    HW130242   4.353   3.691   0.691 -0.4232  2.6427 -0.9138
 6261SOL    HW230243   4.295   3.793   0.773 -0.5568  0.1241  0.6650
 6262SOL     OW30244   2.650   0.861  12.909 -0.3562 -0.0059  0.1353
 6262SOL    HW130245   2.706   0.935  12.931  0.1119 -0.8262  1.7030
 6262SOL    HW230246   2.601   0.895  12.835 -1.3809  0.7221  1.1642
 6263SOL     OW30247   0.675   4.121   3.437  0.7250  0.0939  0.1260
 6263SOL    HW130248   0.588   4.098   3.471  0.7517  1.3036  1.0114
 6263SOL    HW230249   0.665   4.079   3.352 -0.5863 -0.2852  0.4647
 6264SOL     OW30250   2.408   1.033   3.638 -0.2441 -0.1069 -0.3591
 6264SOL    HW130251   2.417   0.970   3.710 -0.2553 -0.2486 -0.4822
 6264SOL    HW230252   2.498   1.060   3.622  0.6942 -1.2961  2.8605
 6265SOL     OW30253   4.369   0.352  10.167  0.2316  0.2450 -0.2135
 6265SOL    HW130254   4.343   0.262  10.183  1.2898 -0.2603 -1.3660
 6265SOL    HW230255   4.295   0.408  10.191 -0.1935  0.1803 -1.4054
 6266SOL     OW30256   2.549   1.274   0.763 -0.3186  0.7755 -0.8171
 6266SOL    HW130257   2.490   1.239   0.830  1.8403 -1.8057 -0.2183
 6266SOL    HW230258   2.485   1.326   0.715 -0.3643  1.4456 -0.0282
 6267SOL     OW30259   3.008   1.919   2.079  0.3269 -0.1983  0.2583
 6267SOL    HW130260   2.997   2.009   2.108  0.7309 -0.1422  0.2430
 6267SOL    HW230261   2.955   1.920   2.000  0.6463 -0.4758  0.0401
 6268SOL     OW30262   0.075   4.120   1.769 -0.2018  0.2245  0.4547
 6268SOL    HW130263   0.040   4.034   1.791  0.0406  0.7049  2.6817
 6268SOL    HW230264   0.010   4.153   1.708  0.6659  0.5854 -0.2829
 6269SOL     OW30265   3.379   2.363  15.569  0.0765 -0.7681 -0.4562
 6269SOL    HW130266   3.400   2.373  15.662 -0.5392  1.6769 -0.5908
 6269SOL    HW230267   3.300   2.416  15.558 -0.0732 -0.6441  1.1891
 6270SOL     OW30268   4.017   2.431   0.821  0.1951 -0.2470  0.3892
 6270SOL    HW130269   4.020   2.352   0.875 -1.2018 -1.6143 -1.5645
 6270SOL    HW230270   4.018   2.506   0.881 -1.6938 -1.5159  1.9997
 6271SOL     OW30271   0.708   0.724  17.306 -0.1925 -0.3145 -0.5070
 6271SOL    HW130272   0.653   0.800  17.326  0.1966 -0.1511 -0.0413
 6271SOL    HW230273   0.720   0.726  17.211 -0.1500 -3.6405 -0.5707
 6272SOL     OW30274   0.832   3.662   2.436  0.7962 -0.2057  0.3825
 6272SOL    HW130275   0.852   3.706   2.354 -1.7821  1.0367  0.4290
 6272SOL    HW230276   0.897   3.705   2.492  0.4680  0.1393  0.4997
 6273SOL     OW30277   3.168   2.991   9.307  0.6100  0.0000 -0.0135
 6273SOL    HW130278   3.201   2.906   9.336  0.2185 -0.1236  0.0659
 6273SOL    HW230279   3.075   2.988   9.331  1.5665 -2.4213  3.3428
 6274SOL     OW30280   1.775   1.202   2.301  0.4848  0.1606  0.2359
 6274SOL    HW130281   1.840   1.268   2.275 -0.0498  0.4069 -0.4631
 6274SOL    HW230282   1.795   1.140   2.230 -1.3585 -0.6689  0.4451
 6275SOL     OW30283   1.252   4.528   7.662 -0.1306 -0.2411 -0.2923
 6275SOL    HW130284   1.207   4.607   7.691 -0.1375 -1.6864  3.5931
 6275SOL    HW230285   1.176   4.485   7.624 -0.7301  0.7622 -0.2342
 6276SOL     OW30286   2.404   3.587   9.773 -0.0911 -0.7047  0.2956
 6276SOL    HW130287   2.390   3.548   9.687  0.9022  1.1735 -0.6998
 6276SOL    HW230288   2.318   3.628   9.777 -0.6087 -1.8121  0.4914
 6277SOL     OW30289   2.692   1.765  14.460 -1.2348 -0.1884 -0.3462
 6277SOL    HW130290   2.750   1.792  14.389  0.1153 -1.3512  0.3032
 6277SOL    HW230291   2.725   1.675  14.467  2.0847  0.8170 -2.6465
 6278SOL     OW30292   3.567   4.574   0.835  0.1404 -0.1875 -0.8045
 6278SOL    HW130293   3.637   4.511   0.848 -0.9478 -0.8530  1.8284
 6278SOL    HW230294   3.498   4.517   0.801  1.5534 -2.8345  0.7925
 6279SOL     OW30295   0.153   2.373   8.146 -0.2044  0.0822 -0.3842
 6279SOL    HW130296   0.080   2.427   8.177 -0.1065  0.2600 -0.4665
 6279SOL    HW230297   0.144   2.381   8.051 -0.2272 -2.2108 -0.5763
 6280SOL     OW30298   4.534   1.624   9.764 -0.0275 -0.3427 -0.2765
 6280SOL    HW130299   4.457   1.653   9.716  1.7290  0.1880 -2.7566
 6280SOL    HW230300   4.539   1.688   9.836  0.2839 -0.1285 -0.4874
 6281SOL     OW30301   2.197   0.562   3.872 -0.5042 -0.4169 -0.1079
 6281SOL    HW130302   2.133   0.615   3.919  0.8159  0.4533  0.7299
 6281SOL    HW230303   2.164   0.551   3.783  1.2372 -0.3088 -0.7739
 6282SOL     OW30304   0.828   0.353   9.490 -0.0446  0.1231 -0.6395
 6282SOL    HW130305   0.743   0.309   9.490  0.2840 -0.5071 -0.0647
 6282SOL    HW230306   0.834   0.391   9.403  2.7553  0.7157 -0.1774
 6283SOL     OW30307   0.942   2.685   3.941  0.0140 -0.4200 -0.3557
 6283SOL    HW130308   1.037   2.672   3.944  0.1092  0.7722  1.7796
 6283SOL    HW230309   0.921   2.597   3.972 -1.8283  0.3923  0.6908
 6284SOL     OW30310   3.919   3.387  12.029 -0.1861 -0.3842  0.4824
 6284SOL    HW130311   3.935   3.305  11.982 -2.1792 -0.0222 -0.8186
 6284SOL    HW230312   4.005   3.428  12.023 -1.5591  2.2767 -0.8750
 6285SOL     OW30313   0.615   3.452   1.730  0.0891 -0.6072  0.1631
 6285SOL    HW130314   0.676   3.478   1.799 -1.8424  1.4129  1.0948
 6285SOL    HW230315   0.540   3.505   1.756  0.0813 -1.8194  2.5910
 6286SOL     OW30316   2.086   1.313   4.547  0.2298 -0.2922 -0.4501
 6286SOL    HW130317   2.076   1.243   4.612  1.2160  1.2813  1.3663
 6286SOL    HW230318   2.011   1.290   4.492  0.8345 -0.2384 -1.3043
 6287SOL     OW30319   1.989   3.244   7.905 -0.0548 -0.3217  0.3061
 6287SOL    HW130320   1.995   3.259   7.810  0.4199 -2.1786  0.0567
 6287SOL    HW230321   1.956   3.155   7.904  0.7483 -0.5949 -1.8283
 6288SOL     OW30322   3.880   4.561   8.422 -0.4011  0.3632 -0.0057
 6288SOL    HW130323   3.850   4.501   8.354  1.1372  0.0554 -0.4076
 6288SOL    HW230324   3.936   4.517   8.486 -0.9492 -2.6567 -1.5584
 6289SOL     OW30325   3.707   1.558   3.230 -0.2215 -0.0681  0.6084
 6289SOL    HW130326   3.716   1.542   3.324  0.0360 -0.4559  0.5189
 6289SOL    HW230327   3.649   1.633   3.224  1.6078  1.3304  0.1605
 6290SOL     OW30328   2.658   0.236  16.672  0.3143 -0.1608  0.2782
 6290SOL    HW130329   2.679   0.216  16.581  1.2530 -1.8098  0.8483
 6290SOL    HW230330   2.600   0.163  16.696  0.0772 -0.0051  0.1786
 6291SOL     OW30331   1.421   1.074  15.792 -0.1581  0.0464  0.1780
 6291SOL    HW130332   1.464   1.022  15.860 -1.2293  0.6722  1.3249
 6291SOL    HW230333   1.469   1.033  15.720 -0.5672 -0.4910  0.2096
 6292SOL     OW30334   0.731   3.155   5.302  0.5402  0.7053  0.3573
 6292SOL    HW130335   0.661   3.118   5.248  0.5518  3.0480 -1.3156
 6292SOL    HW230336   0.812   3.119   5.267 -1.3275 -1.3284 -1.9006
 6293SOL     OW30337   2.857   1.375   3.247 -0.8796 -0.2902 -0.4872
 6293SOL    HW130338   2.821   1.461   3.264  0.5835 -0.4981  3.5608
 6293SOL    HW230339   2.851   1.342   3.336 -1.3450 -0.1738 -0.4762
 6294SOL     OW30340   2.348   0.739   3.689 -0.8862  0.3177  0.0085
 6294SOL    HW130341   2.267   0.781   3.660 -1.3664 -0.8197 -0.2767
 6294SOL    HW230342   2.318   0.661   3.735  0.5973  1.2417  2.5760
 6295SOL     OW30343   0.497   0.449   7.784 -0.3562 -0.5556  0.0306
 6295SOL    HW130344   0.474   0.384   7.718 -1.3821  0.9812 -1.1248
 6295SOL    HW230345   0.418   0.462   7.836 -0.9562  0.3730 -1.1280
 6296SOL     OW30346   3.284   3.699  13.987  0.7126  0.0789  0.2913
 6296SOL    HW130347   3.349   3.678  14.055 -0.5350  0.3470  1.5809
 6296SOL    HW230348   3.328   3.763  13.931  1.3334  0.3500  1.0844
 6297SOL     OW30349   2.987   1.471   1.154 -0.5764  0.1029 -0.0593
 6297SOL    HW130350   2.908   1.513   1.120 -0.5874  1.0802  1.1558
 6297SOL    HW230351   2.971   1.377   1.162  0.3825 -0.0907 -0.5257
 6298SOL     OW30352   4.468   4.247  11.608 -0.0853 -0.8988  0.6519
 6298SOL    HW130353   4.542   4.233  11.549  0.8577  1.1666  1.3479
 6298SOL    HW230354   4.514   4.270  11.689  0.5299 -0.3082  0.1286
 6299SOL     OW30355   3.334   3.491   7.061 -0.4953 -0.0953 -0.1712
 6299SOL    HW130356   3.256   3.472   7.114  1.0011 -0.8361  1.7795
 6299SOL    HW230357   3.411   3.454   7.102 -1.3146 -3.3222 -1.5769
 6300SOL     OW30358   3.756   1.391   8.167  0.4279  0.2056  0.1733
 6300SOL    HW130359   3.726   1.406   8.257  1.0905 -1.7650  0.7277
 6300SOL    HW230360   3.776   1.298   8.175 -0.4873  0.1359  1.6488
 6301SOL     OW30361   4.192   1.598  11.687  0.3797  0.7012  0.4629
 6301SOL    HW130362   4.276   1.643  11.702  0.8533  0.4517 -1.4775
 6301SOL    HW230363   4.146   1.663  11.634  1.4108  0.9314 -0.1581
 6302SOL     OW30364   0.438   3.205   5.509  0.3367 -0.2989 -0.0942
 6302SOL    HW130365   0.481   3.131   5.465  0.5051 -0.4403  0.3103
 6302SOL    HW230366   0.430   3.263   5.433  0.8442 -0.0920  0.0127
 6303SOL     OW30367   0.170   3.560   4.913  0.9512 -0.2097 -0.3706
 6303SOL    HW130368   0.146   3.470   4.937  0.8440 -0.0129  0.2389
 6303SOL    HW230369   0.211   3.535   4.830 -0.3808 -1.4599 -0.6524
 6304SOL     OW30370   2.959   1.022  14.701 -0.3311  0.3517  0.5300
 6304SOL    HW130371   3.048   0.998  14.674 -0.0118  4.0899 -1.8004
 6304SOL    HW230372   2.943   1.099  14.646  0.3100  0.2785  0.2450
 6305SOL     OW30373   1.520   1.129   8.603  0.3184  0.2268  0.4643
 6305SOL    HW130374   1.549   1.069   8.672 -2.9412  0.1733  1.7793
 6305SOL    HW230375   1.598   1.154   8.555  0.5536  0.9370  1.2021
 6306SOL     OW30376   1.771   3.826   3.904  0.3936  0.2651 -0.1679
 6306SOL    HW130377   1.766   3.731   3.897 -0.3188  0.2723  0.2423
 6306SOL    HW230378   1.732   3.839   3.991  0.4111 -3.0635  0.3641
 6307SOL     OW30379   1.854   1.917   2.715  0.8709 -0.5119 -0.5513
 6307SOL    HW130380   1.871   1.823   2.716  0.9790 -0.4537  2.6370
 6307SOL    HW230381   1.789   1.931   2.646 -1.5567  0.0930  1.8365
 6308SOL     OW30382   4.175   2.913  14.956 -0.2800  0.3407  0.1934
 6308SOL    HW130383   4.220   2.842  15.002 -1.6413  0.8651  2.2897
 6308SOL    HW230384   4.151   2.972  15.027 -2.3877 -0.1791 -0.0970
 6309SOL     OW30385   2.174   2.856   7.068 -0.5969 -0.1617  0.2035
 6309SOL    HW130386   2.199   2.805   7.145 -2.0506  0.3011  0.9733
 6309SOL    HW230387   2.244   2.922   7.067  0.9120 -1.7776 -0.4951
 6310SOL     OW30388   4.431   0.428   2.615  0.0537 -0.6241  0.4560
 6310SOL    HW130389   4.354   0.372   2.612 -0.2187 -0.4260  3.2120
 6310SOL    HW230390   4.433   0.485   2.538 -1.3771  0.3823  1.1580
 6311SOL     OW30391   2.496   3.696  17.166 -0.1966  0.1337 -0.1438
 6311SOL    HW130392   2.466   3.784  17.188  1.5284  0.0413  2.5390
 6311SOL    HW230393   2.511   3.684  17.072 -0.7166 -0.8400 -0.0947
 6312SOL     OW30394   1.145   0.777   2.859  0.9110 -0.7135 -0.0132
 6312SOL    HW130395   1.162   0.847   2.923 -0.4827  2.0834 -2.7429
 6312SOL    HW230396   1.055   0.750   2.879  0.2221  1.2372 -0.5598
 6313SOL     OW30397   1.880   1.172   7.104 -0.4754 -0.5310 -0.3635
 6313SOL    HW130398   1.819   1.129   7.164 -0.6938  0.7763  0.3412
 6313SOL    HW230399   1.957   1.195   7.156 -1.0743 -2.2330  1.2692
 6314SOL     OW30400   1.866   1.468   2.935  0.1744  0.0196  0.1257
 6314SOL    HW130401   1.836   1.404   2.999  0.6574 -1.0431 -0.7099
 6314SOL    HW230402   1.833   1.549   2.972  0.2522 -0.2752  0.8355
 6315SOL     OW30403   2.833   0.145   9.234  0.8823  0.2074 -0.2909
 6315SOL    HW130404   2.909   0.177   9.283  0.3897 -0.0751  0.6471
 6315SOL    HW230405   2.765   0.168   9.297 -0.7391  1.4111 -2.4482
 6316SOL     OW30406   1.712   3.157   9.563  0.0992 -0.2559 -0.2436
 6316SOL    HW130407   1.700   3.084   9.625 -0.1833  0.0878  0.1101
 6316SOL    HW230408   1.758   3.227   9.609 -1.1960 -0.2141  1.0126
 6317SOL     OW30409   2.604   2.110  17.291  0.0406  0.1495 -0.1537
 6317SOL    HW130410   2.682   2.140  17.337 -0.3797  1.3132 -0.1705
 6317SOL    HW230411   2.621   2.155  17.208  1.2797 -1.1683 -0.6104
 6318SOL     OW30412   4.707   1.544   4.987 -0.1357  0.5550 -0.9265
 6318SOL    HW130413   4.649   1.526   4.913 -0.6276  1.0628 -0.6632
 6318SOL    HW230414   0.007   1.633   4.963 -1.8613  1.0046 -1.1668
 6319SOL     OW30415   3.159   0.066   4.617  0.2950 -0.2523 -0.2736
 6319SOL    HW130416   3.213   0.017   4.680  1.5078 -1.6844 -2.3820
 6319SOL    HW230417   3.184   0.158   4.626  2.7039 -1.1451  2.3134
 6320SOL     OW30418   1.786   1.431   8.167 -0.0866  0.1832 -0.6971
 6320SOL    HW130419   1.762   1.341   8.187  2.0059 -0.3026 -0.3884
 6320SOL    HW230420   1.800   1.422   8.073  1.1847  0.7933 -0.5708
 6321SOL     OW30421   3.706   2.424   6.317 -0.1299  0.3247  0.7945
 6321SOL    HW130422   3.745   2.344   6.351  0.5193  0.7807  1.1249
 6321SOL    HW230423   3.760   2.500   6.338 -2.7721  2.6332 -0.6600
 6322SOL     OW30424   1.651   3.690   5.274 -0.1036  0.3738  0.0685
 6322SOL    HW130425   1.570   3.685   5.325  0.2961  2.0572  0.8480
 6322SOL    HW230426   1.643   3.633   5.197  0.0501 -0.5451  0.7388
 6323SOL     OW30427   3.941   3.417   2.598 -0.0871 -0.4689  0.6268
 6323SOL    HW130428   4.024   3.370   2.592 -0.6842 -1.7010  1.9971
 6323SOL    HW230429   3.956   3.493   2.541  2.5485 -2.9411 -1.9752
 6324SOL     OW30430   4.348   1.501   7.496  0.3379  0.5278  0.1520
 6324SOL    HW130431   4.325   1.441   7.567  1.7637  1.8938  1.7451
 6324SOL    HW230432   4.323   1.583   7.538  0.0362  0.2541  0.5055
 6325SOL     OW30433   3.140   2.924   7.500  0.0661  0.3920 -0.6020
 6325SOL    HW130434   3.146   2.930   7.596 -2.6577  1.1854 -0.4792
 6325SOL    HW230435   3.224   2.967   7.483  1.2294 -0.0471  3.8528
 6326SOL     OW30436   3.900   4.646  17.107  0.0737 -0.0777  0.5796
 6326SOL    HW130437   3.953   4.620  17.182  0.1350  0.6309  0.7812
 6326SOL    HW230438   3.820   4.596  17.125 -0.4661  0.5515 -0.0774
 6327SOL     OW30439   3.302   0.942   8.940 -0.3050 -0.1744  0.1517
 6327SOL    HW130440   3.384   0.908   8.975 -0.5020  2.1722  2.8931
 6327SOL    HW230441   3.284   1.008   9.007 -0.0734 -0.0396  0.0810
 6328SOL     OW30442   2.302   4.620   5.449 -0.1129  0.5318  0.1056
 6328SOL    HW130443   2.270   4.567   5.523 -3.2595 -0.6118 -2.0789
 6328SOL    HW230444   2.374   4.570   5.412 -1.2409 -0.3518 -0.9113
 6329SOL     OW30445   4.061   0.117   5.340 -0.0838  0.4595  0.2131
 6329SOL    HW130446   4.145   0.098   5.299  0.2155 -1.0510  1.5519
 6329SOL    HW230447   4.070   0.212   5.341 -0.9527  0.5454  0.2210
 6330SOL     OW30448   3.663   0.476   6.816  0.6581  0.1081  0.3760
 6330SOL    HW130449   3.578   0.482   6.772  0.7700 -0.3983  0.0865
 6330SOL    HW230450   3.628   0.450   6.901 -0.3141 -0.5883 -0.2441
 6331SOL     OW30451   2.541   1.745   3.404 -0.2331 -0.1045  0.6153
 6331SOL    HW130452   2.470   1.730   3.342 -1.6307  2.6801  1.5449
 6331SOL    HW230453   2.581   1.658   3.408  0.2448  0.1464  1.2841
 6332SOL     OW30454   4.334   3.890  10.459  0.1476 -0.0335 -0.6260
 6332SOL    HW130455   4.375   3.976  10.448 -1.1982  0.6122 -0.5766
 6332SOL    HW230456   4.310   3.903  10.551  1.7898  0.4274 -0.2536
 6333SOL     OW30457   3.557   1.572  13.277 -0.3003  0.3314  0.2614
 6333SOL    HW130458   3.636   1.623  13.297 -0.7997  0.5284  1.7043
 6333SOL    HW230459   3.565   1.583  13.183 -0.5471  2.0821  0.4490
 6334SOL     OW30460   1.879   4.172   9.952  0.1703 -0.2326  0.1336
 6334SOL    HW130461   1.831   4.145   9.874  0.9040 -0.4230 -0.2594
 6334SOL    HW230462   1.962   4.132   9.926  1.2383 -0.2546  3.6043
 6335SOL     OW30463   1.577   1.300   7.521  0.3968  0.6800 -0.0901
 6335SOL    HW130464   1.505   1.270   7.466  0.5092  1.1173 -0.4696
 6335SOL    HW230465   1.534   1.381   7.549 -2.0469  0.3087 -2.8282
 6336SOL     OW30466   4.138   1.766   8.321  0.5564 -0.3146  0.5290
 6336SOL    HW130467   4.201   1.838   8.313 -1.3451  1.4439  1.6890
 6336SOL    HW230468   4.194   1.697   8.285 -0.6244 -1.5309  1.0308
 6337SOL     OW30469   2.244   1.216   5.767  0.4645  0.3686 -0.3251
 6337SOL    HW130470   2.234   1.130   5.808 -0.3953 -0.5075 -2.4017
 6337SOL    HW230471   2.161   1.253   5.798 -0.0101  0.9797 -2.3282
 6338SOL     OW30472   0.259   4.029   6.894  0.0090  0.2299 -0.5287
 6338SOL    HW130473   0.268   3.935   6.879  0.2702  0.0212  0.9745
 6338SOL    HW230474   0.249   4.039   6.988 -0.6136  0.7412 -0.6427
 6339SOL     OW30475   4.600   4.703  16.711  0.0285  0.5756 -0.2488
 6339SOL    HW130476   4.675   4.723  16.655  1.5300  1.7684  2.1824
 6339SOL    HW230477   4.552   0.056  16.735  1.9647  1.1675  1.6856
 6340SOL     OW30478   2.254   0.394  17.228 -0.7505 -0.3166 -0.8197
 6340SOL    HW130479   2.318   0.413  17.159 -0.3824  0.4909 -0.2469
 6340SOL    HW230480   2.198   0.471  17.217 -0.4315  0.2018  1.1245
 6341SOL     OW30481   4.246   2.927   6.307 -0.4693 -0.3318  0.2508
 6341SOL    HW130482   4.314   2.995   6.301 -1.6566  0.8110 -0.0903
 6341SOL    HW230483   4.244   2.891   6.219  0.2682 -0.8958  0.4649
 6342SOL     OW30484   2.209   2.375   8.011 -0.2356  0.9487  0.7784
 6342SOL    HW130485   2.250   2.364   8.097  0.3584  0.7749  0.4741
 6342SOL    HW230486   2.157   2.453   8.031 -1.9032  0.5223 -1.9218
 6343SOL     OW30487   0.641   3.272   6.306 -0.6408  0.1946  0.5030
 6343SOL    HW130488   0.614   3.194   6.355 -0.0122 -0.5340 -0.3119
 6343SOL    HW230489   0.701   3.305   6.374  1.8745  1.7845 -2.4898
 6344SOL     OW30490   3.427   3.602   5.105  0.6533  0.5598 -0.4126
 6344SOL    HW130491   3.378   3.642   5.033  1.7689  2.5728 -0.0506
 6344SOL    HW230492   3.517   3.599   5.072 -0.2861  0.7157 -3.0612
 6345SOL     OW30493   0.764   1.861  16.900 -0.6735 -0.5436  0.6092
 6345SOL    HW130494   0.797   1.918  16.970 -0.2037  1.5059 -1.2841
 6345SOL    HW230495   0.758   1.780  16.951 -0.6245  0.7860  2.7267
 6346SOL     OW30496   0.758   2.281   2.954  1.0523  0.3262 -0.2532
 6346SOL    HW130497   0.757   2.374   2.933  1.2754 -0.2776 -2.9495
 6346SOL    HW230498   0.848   2.260   2.976  0.0103 -2.0938  1.7605
 6347SOL     OW30499   0.885   4.135  13.550  0.1676 -0.4124  0.3880
 6347SOL    HW130500   0.937   4.104  13.476  0.5686 -0.9682  0.8961
 6347SOL    HW230501   0.870   4.227  13.529 -2.2587 -1.3205 -1.6698
 6348SOL     OW30502   1.024   0.633   8.916  0.1699 -0.1068  0.2739
 6348SOL    HW130503   1.092   0.576   8.880 -2.8967 -0.5663 -4.7597
 6348SOL    HW230504   0.950   0.573   8.917  0.2422 -0.2337 -1.7306
 6349SOL     OW30505   2.257   2.831   4.297 -0.3842 -0.2756  0.3625
 6349SOL    HW130506   2.195   2.762   4.318 -0.5937 -0.4704 -0.8903
 6349SOL    HW230507   2.323   2.772   4.260  0.3773  0.4492  0.5432
 6350SOL     OW30508   0.585   1.460   5.829 -0.5127  0.0446  0.2034
 6350SOL    HW130509   0.578   1.510   5.748 -1.8223  0.8371  0.8083
 6350SOL    HW230510   0.591   1.530   5.894 -2.4198  1.7082 -1.4049
 6351SOL     OW30511   3.360   3.246   7.963  0.2768  0.1185  0.5115
 6351SOL    HW130512   3.347   3.232   7.870 -0.8092  3.2872  0.2166
 6351SOL    HW230513   3.426   3.186   7.998  0.3285  0.6172  1.2800
 6352SOL     OW30514   3.948   2.238  12.146 -0.4928  0.6572  0.1943
 6352SOL    HW130515   4.009   2.164  12.142 -0.3542  0.7419  0.6984
 6352SOL    HW230516   4.012   2.296  12.105 -0.4749  0.2399 -0.3611
 6353SOL     OW30517   0.871   0.170   6.509  0.0336  0.1610 -0.1386
 6353SOL    HW130518   0.784   0.131   6.500 -0.2995  1.2634 -1.6346
 6353SOL    HW230519   0.845   0.260   6.488 -0.4155 -0.1428 -0.8733
 6354SOL     OW30520   0.736   0.121  16.264 -0.4368  0.0191  0.5595
 6354SOL    HW130521   0.811   0.152  16.316 -0.3585  1.7493 -0.5935
 6354SOL    HW230522   0.732   0.030  16.293  3.0010 -1.4135 -3.4267
 6355SOL     OW30523   1.019   2.334  11.454  0.2610  0.1413 -0.2274
 6355SOL    HW130524   1.019   2.313  11.548  1.6459  2.4888  0.2874
 6355SOL    HW230525   0.926   2.344  11.439 -0.0900  0.5084  2.0742
 6356SOL     OW30526   0.049   0.744   3.736  0.0058  0.8669  0.5808
 6356SOL    HW130527   0.018   0.819   3.786 -0.1346  1.2611 -0.0984
 6356SOL    HW230528   0.027   0.675   3.799  1.3890  1.0966  1.3294
 6357SOL     OW30529   1.946   1.370   7.612 -0.0931 -0.0639  0.0529
 6357SOL    HW130530   1.883   1.382   7.541  1.3728  3.0971 -0.6973
 6357SOL    HW230531   2.022   1.416   7.577  2.1572 -1.6469  2.7664
 6358SOL     OW30532   2.294   0.276   1.924  0.1587 -0.1099 -0.3086
 6358SOL    HW130533   2.267   0.292   2.014  1.4567 -1.6671  0.3610
 6358SOL    HW230534   2.254   0.189   1.912  0.8880 -0.5175  0.2034
 6359SOL     OW30535   0.713   0.528   6.910  0.0439  0.2975  0.5802
 6359SOL    HW130536   0.668   0.549   6.828 -0.2406  1.5051  1.0422
 6359SOL    HW230537   0.790   0.580   6.886 -1.1495  2.7949  2.0923
 6360SOL     OW30538   1.674   3.943   3.268  0.0896 -0.0856  0.1851
 6360SOL    HW130539   1.660   3.900   3.352  0.4312 -0.3536  0.1016
 6360SOL    HW230540   1.714   3.876   3.212 -0.9804 -1.1974  0.7730
 6361SOL     OW30541   2.287   1.675   5.864 -0.7259  0.0134 -0.6520
 6361SOL    HW130542   2.325   1.640   5.784  2.2348  0.9586  0.3382
 6361SOL    HW230543   2.354   1.651   5.928 -0.5826  0.9963 -0.4296
 6362SOL     OW30544   1.822   0.439  14.867 -0.4494  0.7311  0.2472
 6362SOL    HW130545   1.763   0.369  14.837  0.6333  0.8041 -2.0352
 6362SOL    HW230546   1.754   0.506  14.874 -0.1809  0.9883  0.3574
 6363SOL     OW30547   1.878   1.697   0.316 -0.1006 -0.1667 -0.5982
 6363SOL    HW130548   1.866   1.775   0.370  0.7759  1.3535 -2.6020
 6363SOL    HW230549   1.828   1.626   0.356  1.7357 -0.6335  0.8499
 6364SOL     OW30550   1.739   0.305   7.352 -0.1077  0.1647  0.1686
 6364SOL    HW130551   1.743   0.398   7.377 -0.7038 -0.5858  3.0338
 6364SOL    HW230552   1.644   0.299   7.338 -0.3400  3.0754  0.3799
 6365SOL     OW30553   1.685   2.872   5.950  0.4179  0.0698  0.4970
 6365SOL    HW130554   1.778   2.860   5.928  0.7119 -0.7105  2.1659
 6365SOL    HW230555   1.652   2.785   5.927  0.1392 -0.1630  1.7986
 6366SOL     OW30556   4.148   3.387   8.080  0.4729  0.0120  0.3742
 6366SOL    HW130557   4.200   3.339   8.145 -0.1687 -0.2587  0.6925
 6366SOL    HW230558   4.066   3.404   8.126  1.9812 -1.1285  3.5436
 6367SOL     OW30559   1.111   0.359   6.549  0.2026  0.1532 -0.0804
 6367SOL    HW130560   1.051   0.306   6.495  0.7076  0.6777 -1.1465
 6367SOL    HW230561   1.076   0.338   6.635 -0.9521 -0.1656 -0.6182
 6368SOL     OW30562   3.362   1.597   2.196  0.1542 -0.3885 -0.1874
 6368SOL    HW130563   3.277   1.609   2.154 -0.0513  2.5328  1.0717
 6368SOL    HW230564   3.412   1.673   2.168  0.9057 -0.9483 -0.3668
 6369SOL     OW30565   0.205   4.545   3.188 -0.5689  0.2996  0.1654
 6369SOL    HW130566   0.281   4.589   3.150 -0.1723  1.5072  2.3203
 6369SOL    HW230567   0.149   4.622   3.202  0.4605  1.3858 -1.7552
 6370SOL     OW30568   4.007   4.049   1.492  0.1305  0.3738 -0.0786
 6370SOL    HW130569   3.948   4.056   1.567 -0.1716  0.0560 -0.2835
 6370SOL    HW230570   3.963   4.100   1.424 -0.6298 -1.4003 -0.9240
 6371SOL     OW30571   3.625   2.030   2.770 -0.3578  0.0196 -0.1413
 6371SOL    HW130572   3.721   2.023   2.775 -0.4133 -1.2581 -1.2137
 6371SOL    HW230573   3.599   1.939   2.762  1.5512 -0.4768 -0.7524
 6372SOL     OW30574   2.375   1.413   2.552 -0.3002 -0.6278 -0.3459
 6372SOL    HW130575   2.303   1.376   2.501 -0.8135  2.0558 -1.5523
 6372SOL    HW230576   2.445   1.355   2.522  0.5209 -0.5344  1.3874
 6373SOL     OW30577   1.007   1.479   7.946  0.1364  0.0085  0.3732
 6373SOL    HW130578   1.098   1.509   7.950 -0.1129  0.9162 -1.0606
 6373SOL    HW230579   0.976   1.493   8.036 -0.0367  1.4166  0.0899
 6374SOL     OW30580   4.597   4.288   2.517 -0.0783  0.2958  0.2296
 6374SOL    HW130581   4.645   4.368   2.537  0.2451  0.7339 -2.3524
 6374SOL    HW230582   4.542   4.283   2.595 -1.7239  0.8063 -0.8886
 6375SOL     OW30583   1.880   3.712   6.771  0.1426  0.3303 -0.5456
 6375SOL    HW130584   1.867   3.654   6.846 -1.1109  1.4933  0.1395
 6375SOL    HW230585   1.863   3.799   6.807 -0.6929 -0.7070  1.5565
 6376SOL     OW30586   4.616   3.674   8.695 -0.2013 -0.5510 -0.1560
 6376SOL    HW130587   4.525   3.659   8.668  0.1892 -0.0118 -1.7680
 6376SOL    HW230588   4.666   3.653   8.617  2.3598  1.2515  1.0002
 6377SOL     OW30589   4.258   0.104  16.936 -0.2093  0.4012  0.0252
 6377SOL    HW130590   4.254   0.143  16.849 -0.7521 -1.0910 -0.6025
 6377SOL    HW230591   4.186   0.042  16.930 -0.3477  0.6668 -1.1028
 6378SOL     OW30592   0.261   1.545   9.724 -0.1465 -0.2326 -0.4115
 6378SOL    HW130593   0.197   1.482   9.755  1.1114 -1.7786 -0.9281
 6378SOL    HW230594   0.199   1.616   9.715  1.0168  0.7301 -0.8640
 6379SOL     OW30595   4.131   4.361   8.201 -0.4005  0.0049 -0.4032
 6379SOL    HW130596   4.158   4.372   8.110  0.2048 -0.7982 -0.3197
 6379SOL    HW230597   4.165   4.443   8.237 -2.4384 -0.6371  3.0537
 6380SOL     OW30598   1.407   0.254   9.495 -0.1943  0.1994 -0.5841
 6380SOL    HW130599   1.462   0.205   9.434 -0.8883 -0.9067 -0.3146
 6380SOL    HW230600   1.349   0.187   9.531  1.8196 -1.0180  0.3643
 6381SOL     OW30601   2.673   4.618  10.878  0.1083  0.6533  0.1895
 6381SOL    HW130602   2.605   4.654  10.821 -1.3197 -2.4493 -0.0936
 6381SOL    HW230603   2.713   4.546  10.830 -0.9832  0.1586  0.0204
 6382SOL     OW30604   2.907   0.126   7.365 -0.6926  0.5058 -0.0276
 6382SOL    HW130605   2.857   0.065   7.419 -0.3630 -0.6203 -0.9887
 6382SOL    HW230606   2.867   0.106   7.280  2.7121  0.9514 -1.7339
 6383SOL     OW30607   2.625   0.302  10.535 -0.0644 -1.0761 -0.6429
 6383SOL    HW130608   2.568   0.376  10.555  0.8052 -0.4495 -0.4734
 6383SOL    HW230609   2.695   0.336  10.479  0.6619  1.6690  1.9360
 6384SOL     OW30610   1.932   2.733   7.195 -0.2122  0.4605 -0.2802
 6384SOL    HW130611   2.021   2.732   7.158 -0.3793  1.3667 -0.7154
 6384SOL    HW230612   1.875   2.671   7.150 -0.3276 -0.9228  1.8149
 6385SOL     OW30613   0.215   1.257   7.587 -0.7193 -0.1950  0.0159
 6385SOL    HW130614   0.167   1.215   7.658 -0.2168 -2.9664 -1.2899
 6385SOL    HW230615   0.306   1.262   7.617 -0.0674 -1.3269 -1.7751
 6386SOL     OW30616   0.580   2.516  13.702  0.7186 -0.3919  0.3321
 6386SOL    HW130617   0.514   2.574  13.665 -0.0020 -1.3759  0.0520
 6386SOL    HW230618   0.650   2.544  13.644 -0.9308  1.4335 -0.7892
 6387SOL     OW30619   1.354   4.359  10.987 -0.0204  0.1347  0.6320
 6387SOL    HW130620   1.303   4.436  11.012  0.4866  0.7167 -0.0932
 6387SOL    HW230621   1.285   4.293  10.989  1.3142 -1.2805 -0.4740
 6388SOL     OW30622   0.917   1.848   9.283  0.0934  0.6061  0.6971
 6388SOL    HW130623   0.911   1.809   9.370  0.6837  1.7101  1.2324
 6388SOL    HW230624   0.885   1.933   9.312  2.1908  1.7317 -0.2228
 6389SOL     OW30625   2.527   1.997   9.599  0.1075  0.2560  0.4469
 6389SOL    HW130626   2.513   2.034   9.686  0.6469  0.6616  0.3570
 6389SOL    HW230627   2.540   2.079   9.552 -0.6223 -0.6661 -1.3741
 6390SOL     OW30628   2.088   4.168   6.872  0.0240  0.4610 -0.3480
 6390SOL    HW130629   2.052   4.177   6.784  0.8403 -0.4743 -0.7848
 6390SOL    HW230630   2.171   4.124   6.849 -0.9866 -1.9572  0.6342
 6391SOL     OW30631   1.485   2.392   1.893  0.8040 -0.2864 -0.4329
 6391SOL    HW130632   1.473   2.385   1.987  0.9746 -0.0358 -0.3939
 6391SOL    HW230633   1.544   2.325   1.858  0.2104 -1.2574  0.4372
 6392SOL     OW30634   0.187   3.868   4.097  0.2395 -0.2052 -0.2012
 6392SOL    HW130635   0.175   3.773   4.100  1.2645 -0.2714  1.7364
 6392SOL    HW230636   0.205   3.871   4.191 -1.6627  0.9631  0.1356
 6393SOL     OW30637   0.633   1.625   4.370 -0.0114 -0.2405  0.2184
 6393SOL    HW130638   0.593   1.545   4.403  1.9837 -1.5403 -0.5133
 6393SOL    HW230639   0.567   1.642   4.303  0.8499  1.5233 -0.1817
 6394SOL     OW30640   2.912   1.201   4.809  0.0036 -0.0354 -0.3995
 6394SOL    HW130641   2.880   1.159   4.889  1.9322  2.8855  1.9322
 6394SOL    HW230642   2.830   1.217   4.762 -0.6849 -1.9219  0.1417
 6395SOL     OW30643   2.465   3.386  12.163  0.0992 -0.1739 -0.0905
 6395SOL    HW130644   2.553   3.347  12.160  0.4618  0.6078  0.4122
 6395SOL    HW230645   2.413   3.322  12.212 -0.7806 -0.1582 -1.0005
 6396SOL     OW30646   1.877   0.635   2.264  0.6302  0.4982 -0.0010
 6396SOL    HW130647   1.787   0.657   2.288  0.0511 -1.4168 -0.3615
 6396SOL    HW230648   1.888   0.685   2.184 -2.0019  0.3278 -0.4735
 6397SOL     OW30649   3.184   0.964  12.660 -0.0501  0.2994  0.0013
 6397SOL    HW130650   3.166   0.884  12.612 -0.7587  1.1481 -1.1377
 6397SOL    HW230651   3.096   0.991  12.688  0.5459  2.7279 -0.4639
 6398SOL     OW30652   0.914   0.549   2.373 -0.9421 -0.5861  0.1840
 6398SOL    HW130653   0.881   0.579   2.289 -0.4015  0.3375  0.3007
 6398SOL    HW230654   0.834   0.567   2.423 -1.2906  1.0226 -0.9645
 6399SOL     OW30655   3.489   2.305  12.923  0.3554 -0.1508 -0.5665
 6399SOL    HW130656   3.584   2.310  12.937  0.5242 -0.0480 -1.7354
 6399SOL    HW230657   3.484   2.255  12.841 -1.6182  1.2256 -1.2850
 6400SOL     OW30658   2.455   1.618  10.228 -0.0497 -0.2564  0.2747
 6400SOL    HW130659   2.507   1.697  10.244 -1.2964  0.6843 -0.3548
 6400SOL    HW230660   2.367   1.641  10.258  0.2709  2.9327 -1.2161
 6401SOL     OW30661   3.291   3.559   6.145 -0.7963 -0.7830 -0.0759
 6401SOL    HW130662   3.315   3.615   6.071 -1.0829  0.2280  0.5876
 6401SOL    HW230663   3.200   3.549   6.118 -1.4632  0.8092  1.5592
 6402SOL     OW30664   1.027   3.740   8.165  0.4707 -0.4040  0.0770
 6402SOL    HW130665   0.959   3.789   8.211 -0.9113 -2.6420  0.4476
 6402SOL    HW230666   0.986   3.751   8.079 -1.0008 -1.4233  0.6545
 6403SOL     OW30667   1.408   3.023   8.843 -0.2237 -0.1741  0.1678
 6403SOL    HW130668   1.457   2.953   8.799  1.5671  1.2239 -0.0446
 6403SOL    HW230669   1.461   3.032   8.922  1.6088 -0.8136 -0.9919
 6404SOL     OW30670   4.706   3.697   5.051  0.4239  0.0188 -0.3469
 6404SOL    HW130671   4.650   3.622   5.070  0.6041  0.3955  1.5831
 6404SOL    HW230672   0.058   3.651   5.019 -0.5291 -1.3530 -0.6860
 6405SOL     OW30673   1.065   2.402   0.744  0.1355  0.6445 -0.3272
 6405SOL    HW130674   1.072   2.366   0.833  2.8351  0.4580 -0.6085
 6405SOL    HW230675   1.158   2.417   0.729  0.1792  0.7929  0.0972
 6406SOL     OW30676   3.098   1.745   7.169 -0.1073 -0.4423 -0.2750
 6406SOL    HW130677   3.081   1.697   7.088 -1.0071  0.1830 -0.4600
 6406SOL    HW230678   3.193   1.748   7.162 -0.2666 -0.1038 -2.3381
 6407SOL     OW30679   4.327   3.427  15.433 -0.1762 -0.2894  0.9759
 6407SOL    HW130680   4.351   3.408  15.524  1.7821  0.4569  0.6297
 6407SOL    HW230681   4.410   3.406  15.390 -1.2812  2.5313 -2.5608
 6408SOL     OW30682   2.815   4.668   7.808 -0.0817  0.1777  0.1976
 6408SOL    HW130683   2.764   0.022   7.814  0.4939  0.4863  0.9411
 6408SOL    HW230684   2.749   4.600   7.821  0.1121  0.2221  1.3559
 6409SOL     OW30685   3.411   0.242   8.463  0.0276 -0.3355 -0.5500
 6409SOL    HW130686   3.455   0.234   8.548  0.9112  0.6809 -0.9117
 6409SOL    HW230687   3.331   0.286   8.493  0.5763  1.4115 -1.6481
 6410SOL     OW30688   1.535   2.954   2.763  0.1661  0.0082 -0.0332
 6410SOL    HW130689   1.532   3.024   2.698  0.0544  0.1320  0.1059
 6410SOL    HW230690   1.570   2.888   2.704  0.8700 -0.2940  0.7251
 6411SOL     OW30691   4.296   2.124   8.911 -0.0544  0.5218  0.0315
 6411SOL    HW130692   4.245   2.179   8.852  1.6443  1.3182 -0.6785
 6411SOL    HW230693   4.240   2.050   8.934 -0.4630  0.4080 -1.3773
 6412SOL     OW30694   2.347   1.703   8.818  0.7608  0.2812 -0.4175
 6412SOL    HW130695   2.426   1.663   8.855  1.3042 -1.4230 -3.3935
 6412SOL    HW230696   2.355   1.796   8.841  1.0199  0.8179 -2.6759
 6413SOL     OW30697   0.192   3.835   6.400  0.0906 -0.1669 -0.4578
 6413SOL    HW130698   0.145   3.760   6.437 -0.3279 -0.1025 -0.8677
 6413SOL    HW230699   0.132   3.873   6.337  0.3429 -1.0604 -1.2387
 6414SOL     OW30700   2.453   2.427   6.462 -0.1885  0.3311 -0.4518
 6414SOL    HW130701   2.497   2.401   6.543  0.5673  1.9537 -0.3233
 6414SOL    HW230702   2.372   2.471   6.488 -1.5847 -3.0366  0.7885
 6415SOL     OW30703   1.246   3.145   1.724 -0.4722  0.5223 -0.1898
 6415SOL    HW130704   1.151   3.142   1.735 -0.5581  0.1183 -0.9895
 6415SOL    HW230705   1.270   3.198   1.800 -0.8317 -0.0054  0.2921
 6416SOL     OW30706   2.370   1.499  16.776  0.0706 -0.2281 -0.4680
 6416SOL    HW130707   2.396   1.485  16.685  4.3529 -3.6348  1.2670
 6416SOL    HW230708   2.379   1.594  16.786  0.2604 -0.3468  0.4745
 6417SOL     OW30709   4.441   4.421   8.317 -0.2013  0.0889 -0.7447
 6417SOL    HW130710   4.444   4.500   8.263  0.6791  0.5782  0.0417
 6417SOL    HW230711   4.487   4.452   8.394  0.4946 -1.3252 -0.5998
 6418SOL     OW30712   3.509   3.649   2.517 -0.1056  0.3578  0.7564
 6418SOL    HW130713   3.533   3.709   2.588 -1.2401  0.5312  0.9896
 6418SOL    HW230714   3.581   3.586   2.523 -0.1078  0.1103 -1.8586
 6419SOL     OW30715   2.752   2.869   2.483 -0.1466  0.1827 -0.1050
 6419SOL    HW130716   2.659   2.874   2.502 -0.2052  0.3222 -0.4208
 6419SOL    HW230717   2.760   2.780   2.449  1.4584 -0.0383  0.8704
 6420SOL     OW30718   4.089   0.538   8.582 -0.0819 -0.8123 -0.3287
 6420SOL    HW130719   4.104   0.623   8.541  0.2279 -0.2719  0.9015
 6420SOL    HW230720   4.022   0.505   8.523  0.6235 -2.2371 -0.3317
 6421SOL     OW30721   0.616   0.391  16.951 -0.2913 -0.2171  0.5944
 6421SOL    HW130722   0.520   0.399  16.952 -0.3023 -0.2749 -0.0403
 6421SOL    HW230723   0.644   0.470  16.997  1.0001 -0.9716  1.0923
 6422SOL     OW30724   2.382   2.197  13.312  0.0777 -0.6621 -0.2005
 6422SOL    HW130725   2.383   2.260  13.384  0.3279 -0.3644 -0.4669
 6422SOL    HW230726   2.367   2.113  13.356 -1.2407 -0.7808 -0.8899
 6423SOL     OW30727   2.992   1.238   9.136 -0.0021 -0.5668 -0.0605
 6423SOL    HW130728   3.004   1.311   9.198  0.0157 -0.9831  0.4274
 6423SOL    HW230729   2.918   1.189   9.172 -0.8623  0.5728 -0.2691
 6424SOL     OW30730   3.462   0.667   4.982  0.1036 -0.0034  0.4278
 6424SOL    HW130731   3.435   0.722   5.055 -0.5689  1.9377 -1.3048
 6424SOL    HW230732   3.549   0.638   5.010  1.7186  2.7133 -1.7595
 6425SOL     OW30733   2.813   0.808   9.680 -0.2773 -0.1387  0.7593
 6425SOL    HW130734   2.861   0.738   9.724 -0.7593 -0.5621  0.6099
 6425SOL    HW230735   2.728   0.764   9.685 -1.8862  2.8467 -0.2387
 6426SOL     OW30736   3.174   2.542   8.243  0.2686  0.3378  0.0460
 6426SOL    HW130737   3.173   2.446   8.252  0.4694  0.3659  0.3865
 6426SOL    HW230738   3.224   2.548   8.325  0.4120  2.6644 -0.2317
 6427SOL     OW30739   0.074   2.265   4.904 -0.1907  0.0612 -0.2863
 6427SOL    HW130740   0.123   2.325   4.959 -0.2062  1.1142 -1.4248
 6427SOL    HW230741   0.018   2.225   4.970 -0.7945  0.0270 -0.8139
 6428SOL     OW30742   4.615   0.643   9.973 -0.2009  0.4042  0.1330
 6428SOL    HW130743   4.687   0.643   9.910 -0.7625  0.4329 -0.5051
 6428SOL    HW230744   4.540   0.665   9.918 -0.2291  0.2150  0.0950
 6429SOL     OW30745   3.679   1.804   4.295  0.2298  0.0573 -0.1860
 6429SOL    HW130746   3.757   1.835   4.341  0.4590 -0.3525 -0.2937
 6429SOL    HW230747   3.696   1.853   4.214  0.5311 -0.7292 -0.5980
 6430SOL     OW30748   4.640   2.886  10.600  0.2814 -0.2012  0.3035
 6430SOL    HW130749   4.648   2.811  10.541 -2.8456  1.1576 -1.8575
 6430SOL    HW230750   4.629   2.846  10.686 -2.2339  0.1937  0.1612
 6431SOL     OW30751   1.302   1.207   7.917  0.1516 -0.0155  0.1352
 6431SOL    HW130752   1.327   1.158   7.839 -1.8401  0.6970 -0.9673
 6431SOL    HW230753   1.320   1.298   7.892  0.3198 -0.1845 -0.3590
 6432SOL     OW30754   1.865   4.336   7.567 -0.1272 -0.3081  0.4147
 6432SOL    HW130755   1.805   4.406   7.593 -1.3981 -1.5810  0.9195
 6432SOL    HW230756   1.947   4.366   7.606  0.9609 -1.1113 -1.2480
 6433SOL     OW30757   3.559   3.635  11.819  0.1036 -0.2118 -0.4122
 6433SOL    HW130758   3.605   3.579  11.882 -0.1548  0.8413  0.7175
 6433SOL    HW230759   3.618   3.711  11.822  0.9718 -0.9112 -0.0828
 6434SOL     OW30760   2.566   3.834   1.288 -0.5043 -0.2101  0.0351
 6434SOL    HW130761   2.554   3.929   1.290 -2.1392 -0.4414  1.1769
 6434SOL    HW230762   2.536   3.800   1.203 -0.5640 -0.5963  0.2088
 6435SOL     OW30763   0.677   1.198   3.343 -0.3396 -0.6629 -0.2588
 6435SOL    HW130764   0.743   1.143   3.384 -2.1162 -2.0153  0.7650
 6435SOL    HW230765   0.723   1.272   3.302  1.6768 -1.7254  0.1218
 6436SOL     OW30766   3.715   2.086  15.262 -0.2154  0.3477  0.0841
 6436SOL    HW130767   3.797   2.044  15.288  1.0782  2.8452  0.1072
 6436SOL    HW230768   3.715   2.154  15.329 -2.8495  1.9316 -1.5398
 6437SOL     OW30769   3.293   1.443   4.618  0.2444  0.2117 -0.1662
 6437SOL    HW130770   3.217   1.390   4.593 -0.0996  0.2459  0.7952
 6437SOL    HW230771   3.349   1.426   4.543 -1.2316  0.5532 -1.3543
 6438SOL     OW30772   0.560   3.982   5.491 -0.5635  0.0915 -0.2785
 6438SOL    HW130773   0.584   3.889   5.495 -0.0265  0.1594 -1.7897
 6438SOL    HW230774   0.648   4.016   5.475  1.0708 -2.9270  2.0743
 6439SOL     OW30775   3.578   2.465   2.954 -0.8867 -0.1513 -0.2395
 6439SOL    HW130776   3.649   2.523   2.981  0.0462 -2.1826  1.7479
 6439SOL    HW230777   3.524   2.527   2.906 -1.2855  0.6287  1.2041
 6440SOL     OW30778   2.728   4.524   9.719 -0.0606 -0.4900 -0.2678
 6440SOL    HW130779   2.744   4.461   9.789 -0.8662 -0.1346  0.2415
 6440SOL    HW230780   2.772   4.474   9.650 -1.1277  0.7615 -1.8636
 6441SOL     OW30781   2.836   2.609   5.588  0.1227 -0.1112 -0.7643
 6441SOL    HW130782   2.897   2.542   5.620  0.2001  0.7435  0.8933
 6441SOL    HW230783   2.823   2.591   5.495 -2.7718 -2.2282  0.0596
 6442SOL     OW30784   3.331   4.572   4.752 -0.1617 -0.3367  0.2267
 6442SOL    HW130785   3.274   4.524   4.812 -1.5551  0.9920 -0.0424
 6442SOL    HW230786   3.309   4.538   4.665  1.2639  1.2655 -0.7719
 6443SOL     OW30787   2.111   4.265  17.655  0.2677  0.0596 -0.1831
 6443SOL    HW130788   2.068   4.208   0.013  0.9792  1.1087  1.2378
 6443SOL    HW230789   2.114   4.212  17.576  1.5793  1.8995 -1.3693
 6444SOL     OW30790   0.370   3.769   5.766 -0.2391 -0.8047 -0.1459
 6444SOL    HW130791   0.377   3.864   5.754 -1.6537 -0.6223  0.4858
 6444SOL    HW230792   0.456   3.740   5.795 -1.0914 -0.9265  2.2056
 6445SOL     OW30793   1.269   0.487   1.838 -0.0006  0.1696 -0.4182
 6445SOL    HW130794   1.241   0.546   1.768 -2.1170 -0.2457  0.0671
 6445SOL    HW230795   1.330   0.428   1.796  0.6831  0.0538  0.7415
 6446SOL     OW30796   1.704   1.962   6.607 -0.0984  0.1743  0.1435
 6446SOL    HW130797   1.702   2.017   6.685  0.8717 -0.0011  0.2973
 6446SOL    HW230798   1.644   2.007   6.548  1.0159  0.3947 -0.8257
 6447SOL     OW30799   4.700   1.539   5.424  0.0947 -0.3077 -0.2083
 6447SOL    HW130800   0.039   1.576   5.365  1.4215 -1.1284  0.7345
 6447SOL    HW230801   0.010   1.557   5.511  1.2049 -0.1457 -0.7063
 6448SOL     OW30802   3.808   4.165   7.435 -0.0527  0.1956 -0.0602
 6448SOL    HW130803   3.792   4.258   7.419 -2.9101 -0.4216 -0.8671
 6448SOL    HW230804   3.889   4.158   7.385 -0.9258  0.7471 -1.5526
 6449SOL     OW30805   2.391   3.004   7.004 -0.1842  0.1276  0.0687
 6449SOL    HW130806   2.438   3.070   7.055  0.5382  0.4457 -1.0202
 6449SOL    HW230807   2.455   2.953   6.955 -1.0987 -0.0835 -0.9012
 6450SOL     OW30808   0.728   1.539   7.269  0.3567  0.2366  0.3930
 6450SOL    HW130809   0.775   1.455   7.275  0.0646  0.1421  1.4043
 6450SOL    HW230810   0.724   1.563   7.362  0.0904 -1.4788  0.8282
 6451SOL     OW30811   2.992   2.424   8.065 -0.3296 -0.1762  0.6777
 6451SOL    HW130812   3.029   2.470   8.140 -0.5845 -1.7304  1.7380
 6451SOL    HW230813   3.005   2.487   7.993 -2.0610  1.2208  1.5983
 6452SOL     OW30814   3.212   2.246   4.809 -0.4840  0.3914  0.4185
 6452SOL    HW130815   3.246   2.263   4.897 -2.6469 -0.0060  1.3301
 6452SOL    HW230816   3.189   2.332   4.774  1.7714  0.5487 -0.6936
 6453SOL     OW30817   1.253   3.951  12.391  0.3865 -0.3295  0.3157
 6453SOL    HW130818   1.253   3.862  12.357  0.7482  0.4105 -1.6612
 6453SOL    HW230819   1.328   3.939  12.449 -0.0836  0.2829  1.0436
 6454SOL     OW30820   0.108   1.036   2.807 -0.4155  0.8516  0.3900
 6454SOL    HW130821   0.175   1.088   2.853 -0.7500 -0.2042  2.0704
 6454SOL    HW230822   0.048   1.106   2.779 -1.2106 -0.6126 -1.5576
 6455SOL     OW30823   3.162   1.926  11.010  0.5075 -0.2050  0.2084
 6455SOL    HW130824   3.220   1.850  11.009  3.0563  1.7591 -0.1296
 6455SOL    HW230825   3.186   1.950  10.920  1.5373 -0.2188  0.4896
 6456SOL     OW30826   3.471   0.572   5.632  0.5551 -0.3779  0.0309
 6456SOL    HW130827   3.516   0.657   5.634  0.1835 -0.1552 -0.7250
 6456SOL    HW230828   3.529   0.516   5.581 -1.1539 -1.7238 -0.4445
 6457SOL     OW30829   2.347   2.896   5.709  0.7138 -0.4583 -0.8155
 6457SOL    HW130830   2.287   2.964   5.737  2.5718  0.2115  1.5015
 6457SOL    HW230831   2.418   2.946   5.668 -1.7650  0.7006 -3.6536
 6458SOL     OW30832   4.329   4.326  15.121  1.1951 -0.3688  0.4030
 6458SOL    HW130833   4.291   4.414  15.124 -0.2420 -0.9380 -1.3131
 6458SOL    HW230834   4.356   4.318  15.030 -2.7577  0.5964 -0.8667
 6459SOL     OW30835   2.084   1.448   4.164  0.0276  0.3085 -0.1440
 6459SOL    HW130836   2.015   1.389   4.195  1.8223 -0.9613  1.4349
 6459SOL    HW230837   2.037   1.531   4.164  0.2757  0.4473  1.9636
 6460SOL     OW30838   1.315   2.787   8.037 -0.0888  0.2656 -0.4463
 6460SOL    HW130839   1.280   2.868   8.073  0.1781  1.4603 -2.8663
 6460SOL    HW230840   1.272   2.722   8.093 -2.3542  1.0998 -1.2520
 6461SOL     OW30841   4.066   2.614   7.802  0.3681  0.4827  0.2822
 6461SOL    HW130842   4.042   2.606   7.895 -0.2225  1.3234  0.1982
 6461SOL    HW230843   4.060   2.706   7.779 -0.8146 -0.2858 -2.4310
 6462SOL     OW30844   0.217   1.405   8.049  0.0461 -0.4532  0.1184
 6462SOL    HW130845   0.249   1.494   8.062 -1.4378  0.0036  0.6892
 6462SOL    HW230846   0.169   1.415   7.967 -1.6691  1.1210  1.2927
 6463SOL     OW30847   1.178   3.072   5.939 -0.4483 -0.0955  0.0949
 6463SOL    HW130848   1.260   3.024   5.950 -1.4727 -1.9234 -0.2085
 6463SOL    HW230849   1.206   3.163   5.937 -2.3798  0.5518  1.8233
 6464SOL     OW30850   2.555   3.109   5.695 -0.2429 -0.1344  0.1143
 6464SOL    HW130851   2.575   3.202   5.706  1.6413 -0.8332  2.6633
 6464SOL    HW230852   2.610   3.078   5.767 -0.2492  0.2370  0.2788
 6465SOL     OW30853   1.926   0.313   5.728 -0.3916  0.0856 -0.5115
 6465SOL    HW130854   2.000   0.306   5.787 -0.1677  0.7494 -0.7199
 6465SOL    HW230855   1.909   0.224   5.695  0.8878 -0.6038  0.6965
 6466SOL     OW30856   3.946   2.211   2.352 -0.1123  0.1452 -0.3135
 6466SOL    HW130857   3.866   2.175   2.314  1.0162  0.1357 -2.6994
 6466SOL    HW230858   3.941   2.302   2.321 -0.0037  0.0214 -0.7043
 6467SOL     OW30859   1.428   0.598  15.681 -0.3802  0.3130 -0.7411
 6467SOL    HW130860   1.432   0.685  15.641  0.2649  0.3300 -0.6480
 6467SOL    HW230861   1.512   0.559  15.654  0.5712 -0.0239  2.7250
 6468SOL     OW30862   1.803   0.375  16.426  0.4060 -0.2030 -0.1887
 6468SOL    HW130863   1.878   0.376  16.368  2.2177 -1.6383  2.1161
 6468SOL    HW230864   1.817   0.293  16.473 -2.7904 -0.1019  0.9408
 6469SOL     OW30865   0.678   3.131   2.351 -0.0496  0.2792  0.1992
 6469SOL    HW130866   0.729   3.170   2.280  0.8591  2.1210  1.8628
 6469SOL    HW230867   0.599   3.184   2.355 -0.2593  0.0243 -0.6187
 6470SOL     OW30868   3.130   3.283  11.268  0.1986  0.1670  0.0462
 6470SOL    HW130869   3.047   3.254  11.228 -2.5663  2.8963  3.8148
 6470SOL    HW230870   3.102   3.296  11.358 -1.2124  1.6831 -0.6076
 6471SOL     OW30871   0.401   1.802   3.899  0.3198  0.3119  0.2360
 6471SOL    HW130872   0.431   1.881   3.943  1.8927  0.6691 -1.5001
 6471SOL    HW230873   0.438   1.799   3.811 -0.1489  2.2521 -0.0247
 6472SOL     OW30874   3.603   0.131   3.565  0.3089 -0.0250  0.2259
 6472SOL    HW130875   3.617   0.225   3.578  0.3690  0.1501 -1.1580
 6472SOL    HW230876   3.512   0.120   3.593 -0.1775  1.8589 -0.5796
 6473SOL     OW30877   0.261   2.464   1.637 -0.2252  0.2120 -0.0801
 6473SOL    HW130878   0.303   2.402   1.578 -1.0904 -1.1444  0.7220
 6473SOL    HW230879   0.335   2.497   1.688 -0.4941  0.0506  0.4251
 6474SOL     OW30880   3.978   1.099   8.443 -0.1986 -0.3768  0.3196
 6474SOL    HW130881   4.027   1.019   8.462 -0.5320  0.0908  3.2005
 6474SOL    HW230882   3.934   1.111   8.527  0.7537 -1.8605  1.0272
 6475SOL     OW30883   0.504   0.880  11.114 -0.0044  0.9386 -0.9029
 6475SOL    HW130884   0.554   0.799  11.105  0.1636  0.7969  1.1913
 6475SOL    HW230885   0.416   0.848  11.093 -0.2416  0.4637  0.7966
 6476SOL     OW30886   0.391   0.008   5.138  0.1053 -0.3736  0.0519
 6476SOL    HW130887   0.408   4.706   5.048 -1.5421  2.6206 -1.1822
 6476SOL    HW230888   0.409   4.654   5.187  1.7368  0.1185  0.2642
 6477SOL     OW30889   1.991   0.598   5.529  0.2409 -0.0427 -0.5035
 6477SOL    HW130890   2.080   0.633   5.524  0.2476 -0.2429 -1.8972
 6477SOL    HW230891   1.986   0.524   5.590  1.9486  1.1394  1.0498
 6478SOL     OW30892   0.845   4.199   8.982 -0.0185  0.1414 -0.0975
 6478SOL    HW130893   0.870   4.291   8.991  1.0162 -0.3544  2.1528
 6478SOL    HW230894   0.821   4.184   8.890  0.2021 -0.5639 -0.0340
 6479SOL     OW30895   1.964   2.355   9.872 -0.0510  0.0678 -0.2509
 6479SOL    HW130896   1.878   2.356   9.914  2.1097  2.0877  4.1793
 6479SOL    HW230897   1.942   2.379   9.783  0.6110 -0.1878 -0.4823
 6480SOL     OW30898   4.246   0.709   2.172  0.2396 -0.2666  0.4645
 6480SOL    HW130899   4.166   0.659   2.154 -1.9908  2.9062  1.6907
 6480SOL    HW230900   4.209   0.779   2.225 -0.4140  0.0573 -0.4217
 6481SOL     OW30901   3.715   0.401   5.874 -0.0150  0.0094 -0.4560
 6481SOL    HW130902   3.656   0.434   5.941 -1.2185 -0.0359 -1.4942
 6481SOL    HW230903   3.679   0.314   5.859  1.3306 -0.4782 -0.8354
 6482SOL     OW30904   2.345   1.314   6.136  0.2095  0.3590 -0.2059
 6482SOL    HW130905   2.380   1.227   6.115  0.0887 -0.0100  1.1034
 6482SOL    HW230906   2.415   1.379   6.140  1.8320 -1.4416  0.6219
 6483SOL     OW30907   4.146   4.026  12.761 -0.0734 -0.2814 -0.2726
 6483SOL    HW130908   4.074   3.966  12.780 -0.6318  0.7281  0.8533
 6483SOL    HW230909   4.174   3.992  12.677 -0.1938 -1.1101  0.0257
 6484SOL     OW30910   4.528   3.548   0.444 -0.4571 -0.2233 -0.6213
 6484SOL    HW130911   4.595   3.600   0.488 -2.0597  2.3747 -1.2578
 6484SOL    HW230912   4.461   3.528   0.509 -0.7049  1.5923 -0.3159
 6485SOL     OW30913   3.919   3.852   5.829 -0.5082 -0.1241  0.0508
 6485SOL    HW130914   3.827   3.867   5.809 -0.2287  1.5411 -0.0036
 6485SOL    HW230915   3.951   3.933   5.789  0.3389 -0.9014 -0.8711
 6486SOL     OW30916   4.044   3.750   6.918 -0.0537 -0.1810  0.0868
 6486SOL    HW130917   4.043   3.665   6.875 -1.0232  0.8345 -1.8847
 6486SOL    HW230918   4.137   3.768   6.907 -0.0388 -1.7939 -2.3266
 6487SOL     OW30919   0.638   1.838   9.151 -0.2237 -0.0110 -0.5624
 6487SOL    HW130920   0.722   1.858   9.191 -0.6615 -0.2292  0.4679
 6487SOL    HW230921   0.587   1.918   9.169 -1.2967 -1.1636  1.6287
 6488SOL     OW30922   3.364   1.727   7.151  0.0503 -0.0033 -0.4604
 6488SOL    HW130923   3.413   1.644   7.153 -0.8111 -0.5763 -2.8362
 6488SOL    HW230924   3.428   1.797   7.163 -0.2480 -0.1287  1.8707
 6489SOL     OW30925   2.223   4.433   0.745  0.4187  0.6224 -0.2456
 6489SOL    HW130926   2.144   4.387   0.717  0.2121  0.1163  1.1384
 6489SOL    HW230927   2.196   4.488   0.819 -0.4819  1.0036 -0.8688
 6490SOL     OW30928   3.698   1.843   6.366  0.1485 -0.3645  0.8314
 6490SOL    HW130929   3.664   1.781   6.431  2.5393 -1.6556  0.8675
 6490SOL    HW230930   3.615   1.847   6.319 -1.1479  0.8991  3.2476
 6491SOL     OW30931   2.091   2.393   6.722 -0.2164 -0.2216  0.2687
 6491SOL    HW130932   2.059   2.352   6.802  2.1911 -1.6602  0.4993
 6491SOL    HW230933   2.122   2.479   6.751 -0.0052  0.4358 -1.8984
 6492SOL     OW30934   1.323   3.504   6.158  0.0486  0.2721 -0.3497
 6492SOL    HW130935   1.260   3.507   6.230 -0.9040 -2.0698 -1.0880
 6492SOL    HW230936   1.329   3.595   6.128  1.0079  0.8784  1.6494
 6493SOL     OW30937   0.410   3.365   5.242 -0.1790  0.1230  0.9203
 6493SOL    HW130938   0.399   3.364   5.147  0.5403 -0.1699  0.8467
 6493SOL    HW230939   0.318   3.350   5.264  0.1044 -2.2055  0.4425
 6494SOL     OW30940   4.541   1.047   2.639  0.7331 -1.0698 -0.5515
 6494SOL    HW130941   4.451   1.058   2.610  1.2075  0.0370 -1.5986
 6494SOL    HW230942   4.549   0.954   2.662 -1.3548 -1.8450 -3.0308
 6495SOL     OW30943   0.597   2.508   6.729 -0.9607 -0.0579  0.3845
 6495SOL    HW130944   0.568   2.536   6.643  1.9202  2.4760  0.2131
 6495SOL    HW230945   0.538   2.433   6.737  2.3216 -2.8678 -1.7701
 6496SOL     OW30946   1.901   3.957   6.924 -0.0835  0.1715 -0.3315
 6496SOL    HW130947   1.870   4.043   6.953  0.6833  0.7746 -1.3016
 6496SOL    HW230948   1.991   3.988   6.932  0.6481 -1.6048 -1.9461
 6497SOL     OW30949   2.530   1.922  14.631 -0.1485 -0.3397  0.2405
 6497SOL    HW130950   2.583   1.895  14.556 -0.5998 -0.3704 -0.0622
 6497SOL    HW230951   2.454   1.948  14.579 -0.6453 -0.5281  0.8672
 6498SOL     OW30952   2.004   1.511  17.558  0.4723  0.5599 -0.3198
 6498SOL    HW130953   1.938   1.552  17.614 -2.4102 -0.1991 -3.1284
 6498SOL    HW230954   1.959   1.511  17.473  1.7292  1.0125 -0.9811
 6499SOL     OW30955   4.017   3.888   5.401  0.1019 -0.0247  0.2410
 6499SOL    HW130956   3.971   3.823   5.454  1.7300 -1.1738  0.2371
 6499SOL    HW230957   3.990   3.974   5.432 -2.3729  0.4420 -3.2472
 6500SOL     OW30958   0.057   1.234  15.968  0.5565  0.3074 -0.3299
 6500SOL    HW130959   4.697   1.276  15.974  0.6192  0.5071 -0.8090
 6500SOL    HW230960   0.113   1.303  15.932 -0.2094  1.3209  0.4322
 6501SOL     OW30961   1.280   1.602  16.631  0.3000  0.1959 -0.8225
 6501SOL    HW130962   1.253   1.691  16.611  1.2901  0.4881 -0.8923
 6501SOL    HW230963   1.348   1.586  16.565  0.1986  0.0918 -0.9011
 6502SOL     OW30964   2.205   4.247   1.057  0.1503  0.1928 -0.2774
 6502SOL    HW130965   2.186   4.177   1.120 -0.0212  0.7975  0.3345
 6502SOL    HW230966   2.179   4.219   0.969  0.7475  2.3828 -1.1382
 6503SOL     OW30967   0.377   0.722  16.267  0.3170 -0.4040  0.2404
 6503SOL    HW130968   0.376   0.743  16.361 -2.4603  0.1544  0.0956
 6503SOL    HW230969   0.460   0.761  16.241 -0.9615  1.4477 -1.1135
 6504SOL     OW30970   1.104   4.029   5.287 -0.3409 -0.5071  0.0434
 6504SOL    HW130971   1.118   4.103   5.229  1.6865 -2.8079 -2.3940
 6504SOL    HW230972   1.155   4.053   5.364 -1.5918  1.8524  0.1408
 6505SOL     OW30973   4.460   4.197   2.301  0.0929 -0.0106 -0.2936
 6505SOL    HW130974   4.384   4.189   2.358  0.2737  0.0989 -0.0379
 6505SOL    HW230975   4.524   4.244   2.355 -0.1470  0.1220 -0.1251
 6506SOL     OW30976   1.711   0.015   1.085 -0.1688  0.0301 -0.0374
 6506SOL    HW130977   1.624   0.046   1.063 -0.2393 -1.0622 -1.3559
 6506SOL    HW230978   1.692   4.688   1.162  2.4088  0.0786  0.6638
 6507SOL     OW30979   3.302   4.589   6.492 -0.7110  0.1292 -0.2912
 6507SOL    HW130980   3.369   4.541   6.540 -0.8716 -0.2198 -0.4079
 6507SOL    HW230981   3.345   4.672   6.477  0.8277 -0.2283  2.3254
 6508SOL     OW30982   4.135   0.331  10.532 -0.4572 -0.6261 -0.0925
 6508SOL    HW130983   4.165   0.241  10.545  0.8551 -0.2168 -0.2240
 6508SOL    HW230984   4.142   0.354  10.625  0.6898  0.5971 -0.4799
 6509SOL     OW30985   2.714   3.260  12.251 -0.2862  0.6885 -0.8260
 6509SOL    HW130986   2.796   3.305  12.272  1.6900 -3.0730 -0.4926
 6509SOL    HW230987   2.693   3.215  12.333 -0.3440 -0.1330 -1.2965
 6510SOL     OW30988   4.163   3.660  12.349 -0.6644 -0.3571  0.3106
 6510SOL    HW130989   4.068   3.671  12.339 -0.5707 -0.7058 -0.9477
 6510SOL    HW230990   4.178   3.632  12.439  0.5431 -1.8248 -0.3434
 6511SOL     OW30991   3.637   3.273  13.403 -0.0659 -0.0838  0.0389
 6511SOL    HW130992   3.608   3.193  13.358  0.0385 -0.3022  0.3624
 6511SOL    HW230993   3.731   3.261  13.386 -0.1769  0.4965 -0.9719
 6512SOL     OW30994   4.086   3.921   8.188  0.6626 -0.6468 -0.0160
 6512SOL    HW130995   4.135   4.002   8.174 -0.4457 -0.4906 -3.0604
 6512SOL    HW230996   4.096   3.880   8.102 -2.1042  1.4721 -1.3600
 6513SOL     OW30997   2.103   0.582   2.434 -0.7435 -0.5167 -0.1175
 6513SOL    HW130998   2.154   0.662   2.419 -0.2230 -0.6419  0.9647
 6513SOL    HW230999   2.051   0.578   2.354 -0.1314  0.4036 -0.5596
 6514SOL     OW31000   4.128   1.215   4.606  0.3989  0.2718 -0.2281
 6514SOL    HW131001   4.059   1.278   4.625  1.6804  1.4975  0.3519
 6514SOL    HW231002   4.093   1.177   4.525  1.8461 -0.5960 -0.4382
 6515SOL     OW31003   3.147   1.634  11.646 -0.3575  0.5685  0.2469
 6515SOL    HW131004   3.183   1.594  11.725 -1.6845  2.9320  2.0526
 6515SOL    HW231005   3.229   1.672  11.613 -0.1750 -0.2170 -0.2211
 6516SOL     OW31006   4.552   2.097  17.378  0.4867 -0.0091  0.8552
 6516SOL    HW131007   4.645   2.120  17.382  0.4828 -0.1977  2.2990
 6516SOL    HW231008   4.544   2.006  17.404  0.3676 -0.0716  0.5890
 6517SOL     OW31009   0.680   3.785  16.831  0.5620  0.3726  0.0625
 6517SOL    HW131010   0.746   3.716  16.836  0.9196  0.7910  1.1487
 6517SOL    HW231011   0.602   3.729  16.834 -0.4913  1.8325 -0.1482
 6518SOL     OW31012   0.858   2.369  16.614 -0.2958 -0.3604 -0.3128
 6518SOL    HW131013   0.793   2.309  16.578 -0.6456 -0.4604  0.4826
 6518SOL    HW231014   0.839   2.458  16.584 -2.1787 -0.6830 -0.0959
 6519SOL     OW31015   1.289   4.573   8.818 -0.1334 -0.0952 -0.1069
 6519SOL    HW131016   1.322   4.638   8.755 -2.2820 -0.5820 -1.7371
 6519SOL    HW231017   1.278   4.513   8.744 -1.1174  0.0113 -0.0461
 6520SOL     OW31018   4.402   2.251   5.785  0.6034 -0.3577 -0.3183
 6520SOL    HW131019   4.430   2.299   5.707 -1.3252 -0.5634 -1.1406
 6520SOL    HW231020   4.328   2.306   5.809  2.0147  1.2114  0.4399
 6521SOL     OW31021   1.174   2.072   0.222  0.1181 -0.6384  0.5795
 6521SOL    HW131022   1.172   1.978   0.206  0.4953 -1.1429  3.3923
 6521SOL    HW231023   1.185   2.098   0.131 -0.4627 -1.2678  0.3262
 6522SOL     OW31024   3.009   3.990   1.874  0.0533 -0.2665  0.2356
 6522SOL    HW131025   3.042   4.067   1.828  1.1795  0.4229  2.2070
 6522SOL    HW231026   3.009   3.920   1.809 -2.6415  1.7692 -1.9453
 6523SOL     OW31027   4.101   4.203  11.242 -0.2758  0.6334  0.0068
 6523SOL    HW131028   4.042   4.169  11.174  0.6280  1.1050 -1.0141
 6523SOL    HW231029   4.180   4.151  11.229 -0.9928 -0.0866 -1.4794
 6524SOL     OW31030   4.702   1.881   3.464 -0.5998 -0.0028 -0.1556
 6524SOL    HW131031   4.703   1.837   3.379  1.3149 -0.9043  0.3106
 6524SOL    HW231032   4.613   1.857   3.490  0.0115 -1.1937  0.8598
 6525SOL     OW31033   1.598   0.230   6.428 -0.2443  0.2888  0.2271
 6525SOL    HW131034   1.632   0.318   6.412  1.1265 -0.2238  0.3248
 6525SOL    HW231035   1.510   0.246   6.394 -0.3685  0.3171  0.5702
 6526SOL     OW31036   1.427   0.084   5.793  0.2485  0.0640 -0.2295
 6526SOL    HW131037   1.344   0.045   5.821 -0.3533  0.6025 -1.2471
 6526SOL    HW231038   1.389   0.130   5.718 -0.6239  0.1326  0.2587
 6527SOL     OW31039   3.495   0.322  11.596  0.5339  0.3065  0.7143
 6527SOL    HW131040   3.570   0.376  11.571  0.5007  0.3820  0.7775
 6527SOL    HW231041   3.424   0.364  11.548  0.5695 -0.7141 -0.2261
 6528SOL     OW31042   3.777   3.705   9.155 -0.2459 -0.0102  0.0469
 6528SOL    HW131043   3.737   3.754   9.084 -0.6630 -1.7059 -0.8871
 6528SOL    HW231044   3.863   3.747   9.161  0.3965 -1.0205 -1.8748
 6529SOL     OW31045   2.539   4.436  16.483 -0.2266 -0.1988  0.4269
 6529SOL    HW131046   2.549   4.486  16.402 -2.6166  0.6300  0.6441
 6529SOL    HW231047   2.593   4.490  16.541 -1.0530  2.9466 -1.6985
 6530SOL     OW31048   4.368   2.358   9.957 -0.1392  0.3040  0.0419
 6530SOL    HW131049   4.425   2.314  10.019 -1.6253  1.5045  2.2363
 6530SOL    HW231050   4.384   2.318   9.871 -1.5842 -2.1491  0.8994
 6531SOL     OW31051   4.486   2.711   3.915  0.9788 -0.0597  0.2100
 6531SOL    HW131052   4.499   2.796   3.958 -1.4276  0.5901 -0.3513
 6531SOL    HW231053   4.426   2.730   3.842  1.0345 -1.3688 -0.1759
 6532SOL     OW31054   4.437   0.201   7.388 -0.0966  0.1071  0.0750
 6532SOL    HW131055   4.342   0.200   7.396 -0.0387  0.8754  0.8507
 6532SOL    HW231056   4.453   0.110   7.416  0.3904 -0.4137 -1.9254
 6533SOL     OW31057   3.309   4.102   2.360  0.0761  0.7961 -0.3848
 6533SOL    HW131058   3.346   4.015   2.344 -2.8635 -0.5825  0.3448
 6533SOL    HW231059   3.266   4.114   2.275  1.5071 -1.7484 -1.4726
 6534SOL     OW31060   0.642   3.595   8.934 -0.3695  0.2178  0.0659
 6534SOL    HW131061   0.661   3.540   9.010  1.1739 -2.3984 -2.2059
 6534SOL    HW231062   0.634   3.680   8.976 -2.1663 -0.0873  0.3342
 6535SOL     OW31063   1.141   4.375   4.877  0.7231  0.1521  0.5451
 6535SOL    HW131064   1.078   4.432   4.920  0.4047 -1.4071  2.1245
 6535SOL    HW231065   1.087   4.363   4.799 -1.6782 -1.4876  2.5038
 6536SOL     OW31066   3.344   4.361  15.810  0.1666 -0.2820 -0.1847
 6536SOL    HW131067   3.259   4.404  15.821  0.7197  1.0062 -0.9183
 6536SOL    HW231068   3.387   4.376  15.894 -1.8761  2.6146  0.3538
 6537SOL     OW31069   3.428   1.285  14.979 -0.2399 -0.0044 -0.4943
 6537SOL    HW131070   3.429   1.350  15.049 -0.9849 -1.0872  0.5198
 6537SOL    HW231071   3.380   1.211  15.016  0.5319 -1.0263 -1.5164
 6538SOL     OW31072   4.003   2.846  14.570  0.1793 -0.8340 -0.3071
 6538SOL    HW131073   3.960   2.835  14.654 -0.3382  4.6638  0.1191
 6538SOL    HW231074   4.078   2.901  14.591 -0.1545 -0.2775 -0.5846
 6539SOL     OW31075   2.260   1.028   6.959  0.5192  0.4316  0.2400
 6539SOL    HW131076   2.225   0.948   6.997 -0.2640  1.5197  1.8282
 6539SOL    HW231077   2.354   1.021   6.976  0.2117  0.1358  1.8356
 6540SOL     OW31078   2.611   4.012   7.846 -0.2243 -0.0714 -0.5346
 6540SOL    HW131079   2.546   3.996   7.915  2.5552  3.2953  2.8653
 6540SOL    HW231080   2.688   4.005   7.902 -0.9575  1.4335  0.6793
 6541SOL     OW31081   2.368   1.067   3.944 -0.1159 -0.2316  0.4648
 6541SOL    HW131082   2.300   1.082   4.010  2.7056 -1.7747  3.6905
 6541SOL    HW231083   2.353   1.145   3.891  1.2414 -1.3327 -1.5389
 6542SOL     OW31084   4.083   1.831   8.652  0.5187 -0.2233  0.2468
 6542SOL    HW131085   4.168   1.790   8.632  0.9713  1.6704 -1.6286
 6542SOL    HW231086   4.110   1.884   8.727  1.8905 -0.3728 -0.1363
 6543SOL     OW31087   4.360   0.907   9.223  0.0740  0.5171  0.1653
 6543SOL    HW131088   4.456   0.907   9.225  0.0725  1.3938  0.5623
 6543SOL    HW231089   4.342   0.857   9.302  2.8265 -3.1011 -1.5333
 6544SOL     OW31090   1.814   0.084  11.736  0.8604 -0.0329  0.1976
 6544SOL    HW131091   1.759   0.095  11.814  0.7152 -1.0997  0.2394
 6544SOL    HW231092   1.755   0.128  11.673 -0.2203  0.7892  1.7842
 6545SOL     OW31093   2.924   3.299   6.111 -0.5673  0.3190 -0.3391
 6545SOL    HW131094   2.887   3.313   6.198 -0.1252  1.9403 -0.4107
 6545SOL    HW231095   2.965   3.385   6.097  1.7337 -0.2925  2.6155
 6546SOL     OW31096   2.704   3.511   6.528 -0.0037  0.0755 -0.3976
 6546SOL    HW131097   2.620   3.493   6.571  0.4323 -0.1891  0.3495
 6546SOL    HW231098   2.670   3.568   6.459 -1.4523  0.5816  0.7240
 6547SOL     OW31099   0.866   4.550   3.972 -0.0350  0.7600 -0.3369
 6547SOL    HW131100   0.823   4.468   3.948  2.4269 -1.1281  1.7745
 6547SOL    HW231101   0.806   4.612   3.928 -0.2455 -0.5803 -1.9472
 6548SOL     OW31102   0.557   2.185   3.420 -0.2201 -0.3778  1.1027
 6548SOL    HW131103   0.516   2.265   3.452  2.0229  1.9112 -1.6855
 6548SOL    HW231104   0.577   2.209   3.329 -1.9259 -0.5457  0.6793
 6549SOL     OW31105   4.284   4.674   7.495  0.1403  0.1611  0.4555
 6549SOL    HW131106   4.228   4.688   7.419  0.5058 -1.5378 -0.1075
 6549SOL    HW231107   4.363   4.657   7.445  0.5580 -0.5589  1.3518
 6550SOL     OW31108   2.411   3.706   2.669  0.8013  0.4684 -0.3594
 6550SOL    HW131109   2.388   3.799   2.661  2.0333  0.8205  0.1955
 6550SOL    HW231110   2.387   3.674   2.582  0.2745 -1.3895  0.4729
 6551SOL     OW31111   1.909   2.948   8.448  0.2704  0.3170 -0.4643
 6551SOL    HW131112   1.837   2.892   8.478  1.1816 -0.8877 -0.5164
 6551SOL    HW231113   1.941   2.962   8.537  0.1391 -2.0084 -0.0450
 6552SOL     OW31114   2.332   3.411   6.300 -0.2213  0.1090  0.0812
 6552SOL    HW131115   2.320   3.358   6.378 -1.3533 -1.4021 -1.1264
 6552SOL    HW231116   2.250   3.424   6.253  0.0660  2.2326  0.1698
 6553SOL     OW31117   2.866   4.480  17.654  0.0085  0.8055  0.2280
 6553SOL    HW131118   2.784   4.483  17.604 -0.9315  0.5571  1.7252
 6553SOL    HW231119   2.897   4.390  17.646  2.1798  1.4851  1.1170
 6554SOL     OW31120   0.238   4.705   2.757 -0.2883  0.8415  0.3001
 6554SOL    HW131121   0.203   0.039   2.824 -1.4219 -0.2100  0.6505
 6554SOL    HW231122   0.327   0.013   2.747  0.2118 -0.4644  0.2882
 6555SOL     OW31123   3.541   3.952   4.466 -0.0102  0.0906  0.4649
 6555SOL    HW131124   3.548   3.937   4.371 -1.3589  1.1515  0.2024
 6555SOL    HW231125   3.499   3.871   4.497 -0.0331 -0.3036 -0.5653
 6556SOL     OW31126   0.702   0.740   8.998 -0.1997 -0.1107  0.5973
 6556SOL    HW131127   0.631   0.803   8.988  0.5787  0.9799  1.8534
 6556SOL    HW231128   0.757   0.780   8.931 -3.0489  1.3835 -0.8394
 6557SOL     OW31129   3.633   2.620   6.063  0.0189  0.0834 -0.1981
 6557SOL    HW131130   3.725   2.645   6.067  0.2340 -0.5880 -0.9289
 6557SOL    HW231131   3.638   2.580   5.977  0.0520  0.5282 -0.4032
 6558SOL     OW31132   0.804   4.277   7.604  0.1994  0.0138  0.2685
 6558SOL    HW131133   0.813   4.186   7.631  0.8457 -0.3376 -1.1701
 6558SOL    HW231134   0.713   4.285   7.573 -0.4554 -2.2487  1.6260
 6559SOL     OW31135   3.088   0.225   6.415  0.7658  0.1966  0.0384
 6559SOL    HW131136   3.115   0.194   6.328 -0.4390 -1.5183  0.2927
 6559SOL    HW231137   2.996   0.237   6.391  1.4120  0.7772 -2.1886
 6560SOL     OW31138   1.786   1.132   2.710 -0.1327 -0.2581  0.1178
 6560SOL    HW131139   1.825   1.046   2.722  1.4021  0.8183  2.7493
 6560SOL    HW231140   1.761   1.144   2.801  1.2469 -0.5460  0.5199
 6561SOL     OW31141   0.806   4.062   0.474 -0.4539  0.1367 -0.1960
 6561SOL    HW131142   0.814   4.137   0.532 -0.3328 -0.5989  0.7425
 6561SOL    HW231143   0.874   3.998   0.496  0.1720  0.9790  0.2800
 6562SOL     OW31144   0.219   0.548   8.391 -0.1401 -0.5941  0.0057
 6562SOL    HW131145   0.164   0.500   8.453 -1.2903  1.1478  0.3483
 6562SOL    HW231146   0.263   0.474   8.348  0.7454  0.7165 -1.3406
 6563SOL     OW31147   0.613   0.387  13.730  0.3086 -0.2183  0.0883
 6563SOL    HW131148   0.671   0.392  13.806 -1.8770 -0.4366  1.7728
 6563SOL    HW231149   0.667   0.339  13.667  0.0387  0.1780 -0.4559
 6564SOL     OW31150   0.116   2.467   7.883  0.3782  0.7005 -0.2039
 6564SOL    HW131151   0.088   2.559   7.888 -0.0793  0.4566  1.5002
 6564SOL    HW231152   0.208   2.476   7.858  0.3602  0.3031 -0.4167
 6565SOL     OW31153   2.475   4.544   9.967 -0.5455 -0.0383 -0.2528
 6565SOL    HW131154   2.397   4.533   9.911 -2.0215 -0.0485  1.8001
 6565SOL    HW231155   2.507   4.630   9.939 -0.3428 -0.5028 -1.4464
 6566SOL     OW31156   1.988   2.958   8.717  0.3565 -0.6415  0.2362
 6566SOL    HW131157   2.076   2.995   8.728  0.0544  0.9303 -2.6787
 6566SOL    HW231158   1.932   3.007   8.777  0.3931 -0.3753  0.0520
 6567SOL     OW31159   1.428   1.888  11.791 -0.3637 -0.1049 -0.2387
 6567SOL    HW131160   1.397   1.921  11.707 -0.0661  0.1377 -0.2539
 6567SOL    HW231161   1.484   1.961  11.818 -0.0758  0.0046 -1.1420
 6568SOL     OW31162   4.195   4.576   8.729  0.1184 -0.0463  0.0336
 6568SOL    HW131163   4.279   4.617   8.709  0.2579  0.3135  1.3684
 6568SOL    HW231164   4.213   4.507   8.792  0.0627 -1.4328 -1.4702
 6569SOL     OW31165   4.437   0.507   4.884 -0.5384 -0.7073  0.2719
 6569SOL    HW131166   4.431   0.469   4.797 -1.4721 -0.0081  0.0317
 6569SOL    HW231167   4.465   0.595   4.860  3.0078 -2.0130 -0.3607
 6570SOL     OW31168   2.253   1.658   3.624 -0.0511  0.3832 -0.1029
 6570SOL    HW131169   2.203   1.624   3.550 -1.9953 -1.0070  1.8272
 6570SOL    HW231170   2.225   1.598   3.694 -0.7495 -0.2026 -0.8874
 6571SOL     OW31171   0.485   1.286   6.951  0.3162 -0.1356  0.5205
 6571SOL    HW131172   0.490   1.270   6.857 -1.8255  0.4548  0.3107
 6571SOL    HW231173   0.439   1.370   6.952 -2.3250 -1.5711 -0.1145
 6572SOL     OW31174   1.027   1.492  12.670  0.2353  0.7145 -0.5252
 6572SOL    HW131175   1.017   1.450  12.584  0.6867  2.6718 -1.5316
 6572SOL    HW231176   0.968   1.566  12.661 -1.4205 -0.6185 -0.6530
 6573SOL     OW31177   1.574   2.092   6.391  0.6896  0.4532 -0.2054
 6573SOL    HW131178   1.554   2.034   6.318 -0.2663  0.7444 -0.1763
 6573SOL    HW231179   1.511   2.162   6.373 -1.8210 -1.3892  1.5271
 6574SOL     OW31180   1.270   2.301   5.925 -0.2320  0.0732 -0.1846
 6574SOL    HW131181   1.204   2.352   5.878 -2.1044 -0.6362  1.6566
 6574SOL    HW231182   1.348   2.324   5.875 -0.4854  3.3062  0.9228
 6575SOL     OW31183   0.048   3.042  11.397 -0.3211  0.1685 -0.4212
 6575SOL    HW131184   0.121   3.008  11.450  0.1504  1.2186 -0.3840
 6575SOL    HW231185   4.693   3.023  11.444  1.4616 -2.5216  1.5847
 6576SOL     OW31186   3.973   1.974   3.757  0.1040  0.1301  0.2709
 6576SOL    HW131187   3.921   1.894   3.754  0.2143  0.0656  0.1167
 6576SOL    HW231188   4.061   1.943   3.737 -0.4028 -0.1130 -1.6065
 6577SOL     OW31189   0.279   0.837   7.128  0.1829 -0.1279 -0.1757
 6577SOL    HW131190   0.347   0.811   7.190  0.8234  1.1856 -0.3292
 6577SOL    HW231191   0.248   0.751   7.099  1.0981  0.2225 -2.1835
 6578SOL     OW31192   0.795   0.821   3.548 -0.3778 -0.1043  0.1633
 6578SOL    HW131193   0.799   0.850   3.457  0.9146  0.2369  0.3186
 6578SOL    HW231194   0.822   0.908   3.581  0.1686 -0.7630  1.4774
 6579SOL     OW31195   1.419   4.558   7.453 -0.2671  0.2026 -0.3365
 6579SOL    HW131196   1.378   4.546   7.539  3.5508  0.7497  1.5403
 6579SOL    HW231197   1.379   4.490   7.399  0.4950 -1.6957  1.4873
 6580SOL     OW31198   4.514   0.012  15.303 -0.0472 -0.4851  0.0530
 6580SOL    HW131199   4.607   0.009  15.323  0.4522 -2.0108 -2.5201
 6580SOL    HW231200   4.506   0.075  15.232 -1.1410 -1.7285 -0.9290
 6581SOL     OW31201   4.037   2.902   8.821 -0.2291 -0.1314  0.2669
 6581SOL    HW131202   4.063   2.936   8.735 -0.2123  1.0118  0.7293
 6581SOL    HW231203   3.953   2.860   8.803 -0.5843  0.9456 -0.6254
 6582SOL     OW31204   4.666   1.312   3.140 -0.1184 -0.2482 -0.1800
 6582SOL    HW131205   4.726   1.318   3.215  0.1318 -0.0075 -0.3998
 6582SOL    HW231206   0.009   1.302   3.074 -1.2727  0.3149 -1.4749
 6583SOL     OW31207   3.306   1.372   4.019 -0.1055  0.3681 -0.2571
 6583SOL    HW131208   3.214   1.399   4.026  0.5008  2.3224  0.2706
 6583SOL    HW231209   3.355   1.454   4.033  0.0936  0.3303 -0.7092
 6584SOL     OW31210   0.649   0.631   6.693  0.4444  0.5746 -0.1946
 6584SOL    HW131211   0.724   0.655   6.639  0.8862  2.3519  1.2177
 6584SOL    HW231212   0.576   0.660   6.639 -1.1075 -0.4416  1.3637
 6585SOL     OW31213   1.134   0.719   7.424  0.1811  0.2389  0.2603
 6585SOL    HW131214   1.068   0.652   7.404  1.0655 -0.4831 -0.2578
 6585SOL    HW231215   1.128   0.720   7.520 -0.9894 -0.1903  0.1929
 6586SOL     OW31216   4.380   4.601   8.005  0.0211  0.3203 -0.7949
 6586SOL    HW131217   4.333   4.519   8.022 -1.1824  0.7626 -2.0324
 6586SOL    HW231218   4.305   4.658   7.992  0.7239  1.1189 -1.3490
 6587SOL     OW31219   4.689   1.680  17.221  0.0056 -0.0827 -0.4332
 6587SOL    HW131220   4.724   1.618  17.158  2.0843 -0.7613  1.3936
 6587SOL    HW231221   4.636   1.732  17.160 -2.0458 -0.2755  1.1664
 6588SOL     OW31222   0.499   1.884   8.120  0.0872  0.4179  0.0595
 6588SOL    HW131223   0.504   1.952   8.188  1.5649 -0.5965  0.9615
 6588SOL    HW231224   0.591   1.861   8.106 -0.2377 -1.3800  0.8350
 6589SOL     OW31225   4.328   1.941   8.313  0.4063 -1.1643  0.6291
 6589SOL    HW131226   4.376   1.906   8.238  1.5199 -0.2416  0.9102
 6589SOL    HW231227   4.402   1.969   8.367 -0.4820 -0.0015  1.2487
 6590SOL     OW31228   3.515   3.681   5.841  0.4527  0.7016  0.0459
 6590SOL    HW131229   3.559   3.766   5.836 -0.5348  1.0411 -3.1804
 6590SOL    HW231230   3.434   3.708   5.798  0.1365 -2.1892 -1.1560
 6591SOL     OW31231   3.679   0.140   5.204 -0.0234 -0.0968  0.1312
 6591SOL    HW131232   3.744   0.209   5.213 -0.1537  0.1007 -0.4526
 6591SOL    HW231233   3.695   0.126   5.111 -1.0256 -1.4809  0.1627
 6592SOL     OW31234   0.213   2.472   2.353 -0.5686 -0.2459  0.6077
 6592SOL    HW131235   0.303   2.456   2.326 -0.0627  1.4331  1.2897
 6592SOL    HW231236   0.198   2.543   2.291 -0.8577 -1.4359 -0.6913
 6593SOL     OW31237   4.587   3.090   1.628 -0.0552 -0.1423 -0.0815
 6593SOL    HW131238   4.670   3.061   1.590 -0.0609 -0.1178 -0.1130
 6593SOL    HW231239   4.590   3.181   1.596  0.4700 -0.0845  0.1394
 6594SOL     OW31240   0.890   0.112  13.433  0.3371  0.4746  0.6510
 6594SOL    HW131241   0.861   0.082  13.346 -1.6369  1.7918  0.8568
 6594SOL    HW231242   0.978   0.149  13.421 -0.4735  2.4954  1.0770
 6595SOL     OW31243   0.502   4.576   8.245 -0.3253  0.1745  0.0804
 6595SOL    HW131244   0.506   4.555   8.338  4.0181 -0.2360 -0.1897
 6595SOL    HW231245   0.413   4.611   8.239 -0.0320  0.6874 -1.2039
 6596SOL     OW31246   3.586   0.447   4.439  0.5996  0.0646 -0.4074
 6596SOL    HW131247   3.491   0.458   4.442  0.4734 -0.5460 -1.9366
 6596SOL    HW231248   3.607   0.490   4.356 -0.9004  2.8188  0.6596
 6597SOL     OW31249   4.287   3.500   0.554  0.1609  0.1906 -0.1583
 6597SOL    HW131250   4.208   3.548   0.529  0.1403 -0.4381 -1.3031
 6597SOL    HW231251   4.287   3.420   0.501 -0.4052  1.4155 -2.0031
 6598SOL     OW31252   2.950   0.828  16.488 -0.7664 -0.3729  0.1401
 6598SOL    HW131253   2.969   0.918  16.462  0.1273 -0.6489 -0.1678
 6598SOL    HW231254   2.971   0.848  16.579 -0.6728  0.2409 -0.0159
 6599SOL     OW31255   0.507   1.610   9.549  0.3039  0.4996  0.7341
 6599SOL    HW131256   0.579   1.562   9.591  0.4113  0.5487  0.6041
 6599SOL    HW231257   0.423   1.598   9.593 -1.1790  1.8605 -1.7394
 6600SOL     OW31258   1.493   0.009   4.711 -0.1988 -0.0297 -0.5571
 6600SOL    HW131259   1.547   4.657   4.712  0.7770  0.6610  2.1787
 6600SOL    HW231260   1.462   0.010   4.621  0.5228 -1.9792 -0.8209
 6601SOL     OW31261   0.753   0.192  13.630  0.6091  0.8110 -0.4343
 6601SOL    HW131262   0.815   0.238  13.687  2.0299 -0.2497 -1.1186
 6601SOL    HW231263   0.802   0.176  13.550  2.3319 -1.5494  1.0788
 6602SOL     OW31264   3.853   2.094  14.891 -0.3766 -0.4476  0.6121
 6602SOL    HW131265   3.859   2.131  14.803  0.6482  0.7494  1.1752
 6602SOL    HW231266   3.942   2.061  14.906 -0.1091 -0.5969 -1.3198
 6603SOL     OW31267   3.016   1.966  11.651 -0.3805  0.3169  0.3455
 6603SOL    HW131268   2.983   1.936  11.567  1.3276 -0.0628 -0.1956
 6603SOL    HW231269   2.963   1.917  11.714  0.1788  1.2144  1.5178
 6604SOL     OW31270   3.312   1.433   2.850 -0.4638 -0.1005 -0.2997
 6604SOL    HW131271   3.351   1.468   2.930 -0.0367 -0.9657 -0.1285
 6604SOL    HW231272   3.249   1.498   2.817 -0.4362  0.0999  0.0406
 6605SOL     OW31273   1.431   0.216   7.225  0.4438  0.0803  0.2157
 6605SOL    HW131274   1.442   0.240   7.133  3.2641 -0.4779  0.3961
 6605SOL    HW231275   1.371   0.283   7.255  0.1359  0.4936 -1.3326
 6606SOL     OW31276   0.014   3.643   8.459  0.3304  0.0558  0.0371
 6606SOL    HW131277   0.109   3.637   8.458  0.4800  2.3338  1.3695
 6606SOL    HW231278   4.710   3.713   8.400  2.5314  0.9304 -0.0288
 6607SOL     OW31279   1.687   0.223  15.513  0.1670  0.6298 -0.0123
 6607SOL    HW131280   1.605   0.196  15.556 -0.1589  0.5901 -0.6704
 6607SOL    HW231281   1.666   0.255  15.426  0.8800  0.9034 -0.0823
 6608SOL     OW31282   3.100   2.381   6.406  0.0991 -0.2489 -0.0967
 6608SOL    HW131283   3.063   2.321   6.471  0.2865 -0.2996 -0.0367
 6608SOL    HW231284   3.087   2.470   6.438  2.0783  1.3659 -3.7654
 6609SOL     OW31285   3.065   2.178   8.846 -0.1276  0.6075 -0.1302
 6609SOL    HW131286   3.050   2.105   8.785  1.0127 -0.4148  0.8100
 6609SOL    HW231287   3.137   2.143   8.899  0.1740  1.8212  0.2448
 6610SOL     OW31288   1.201   0.839   4.082  0.2573  0.0668 -0.2908
 6610SOL    HW131289   1.154   0.786   4.017  3.0673 -0.8903 -1.5652
 6610SOL    HW231290   1.239   0.767   4.131 -1.3232  1.1790  2.5836
 6611SOL     OW31291   1.039   1.454   5.068  0.6459 -0.2804 -0.1104
 6611SOL    HW131292   1.072   1.407   4.991  1.3696  1.3241 -0.7794
 6611SOL    HW231293   1.118   1.472   5.119  0.3184  0.0597  0.2653
 6612SOL     OW31294   4.396   2.213   6.425  0.1280 -0.0240  0.7360
 6612SOL    HW131295   4.370   2.306   6.430  4.2985  1.0493  1.7806
 6612SOL    HW231296   4.472   2.225   6.368 -1.0635  2.0975 -0.4410
 6613SOL     OW31297   3.555   1.644  11.545 -0.3304 -0.1879  0.0576
 6613SOL    HW131298   3.586   1.717  11.598 -0.4479 -0.8406  1.0289
 6613SOL    HW231299   3.633   1.609  11.503 -0.5365  1.7094 -1.8737
 6614SOL     OW31300   1.472   0.055  14.759 -0.5354 -0.6363  0.0869
 6614SOL    HW131301   1.528   0.006  14.699 -2.9623 -2.2093 -0.8766
 6614SOL    HW231302   1.399   4.720  14.770  0.3027 -1.7654 -0.5796
 6615SOL     OW31303   0.349   1.811   4.718  0.3475 -0.7377 -0.1841
 6615SOL    HW131304   0.433   1.852   4.737  0.9377 -1.8581 -0.3954
 6615SOL    HW231305   0.288   1.844   4.785  1.0025  2.4004 -1.1396
 6616SOL     OW31306   4.113   1.467  14.032  0.1572  0.9067  0.5238
 6616SOL    HW131307   4.142   1.532  13.968 -1.7192  2.0885  0.8677
 6616SOL    HW231308   4.132   1.518  14.111 -0.0069  1.0257  0.4877
 6617SOL     OW31309   1.680   1.452   2.720  0.0090  0.2246  0.1828
 6617SOL    HW131310   1.765   1.445   2.762  0.1149  0.3797 -0.0092
 6617SOL    HW231311   1.699   1.438   2.627  2.3625 -0.8473  0.8407
 6618SOL     OW31312   4.134   1.347   3.577  0.2274 -0.5089  0.9362
 6618SOL    HW131313   4.065   1.299   3.531  0.5570 -1.2640  1.2350
 6618SOL    HW231314   4.186   1.381   3.504  0.4171 -0.3441  1.1483
 6619SOL     OW31315   0.333   0.326   2.267  0.2278 -0.1851 -0.2518
 6619SOL    HW131316   0.369   0.282   2.190 -0.0890  1.3987 -1.3064
 6619SOL    HW231317   0.249   0.349   2.227 -0.8184  0.5118  2.3389
 6620SOL     OW31318   1.878   2.050   7.637  0.0155 -0.3501  0.2547
 6620SOL    HW131319   1.871   2.142   7.659  0.6216 -0.2842  0.1595
 6620SOL    HW231320   1.971   2.038   7.620 -0.0711 -2.1298  1.0393
 6621SOL     OW31321   1.613   4.292   9.675  0.3031  0.1637 -0.1571
 6621SOL    HW131322   1.535   4.280   9.730 -0.3420 -1.0919 -1.3677
 6621SOL    HW231323   1.661   4.360   9.723  1.4099  0.1827 -1.3112
 6622SOL     OW31324   4.176   0.603  11.372 -0.0395  0.0746 -0.3972
 6622SOL    HW131325   4.230   0.526  11.390 -0.1087  1.0451  3.7514
 6622SOL    HW231326   4.240   0.666  11.338  1.9893  0.1164  3.5214
 6623SOL     OW31327   1.753   2.142   4.820  0.2064 -0.6021  0.4027
 6623SOL    HW131328   1.754   2.217   4.878  0.7631 -0.8998  0.7761
 6623SOL    HW231329   1.664   2.151   4.786  0.9560 -0.5248 -1.5328
 6624SOL     OW31330   0.007   2.815  17.027  0.2866 -0.3377 -0.1947
 6624SOL    HW131331   4.686   2.744  16.983 -0.6995 -0.1232  0.5259
 6624SOL    HW231332   0.082   2.833  16.970  0.2842  0.4111  0.0370
 6625SOL     OW31333   0.476   2.655   7.040 -1.0984  0.2958  0.1119
 6625SOL    HW131334   0.489   2.749   7.029 -1.1143 -0.0692 -3.1615
 6625SOL    HW231335   0.382   2.644   7.027 -0.6657 -1.2325 -1.8747
 6626SOL     OW31336   0.998   4.441   7.725  0.1157 -0.1594  0.0326
 6626SOL    HW131337   0.915   4.422   7.682  0.2358  0.5639 -0.5410
 6626SOL    HW231338   0.969   4.504   7.791 -2.2100  1.6390 -2.7180
 6627SOL     OW31339   3.202   0.721   8.297 -0.0070  0.0315  0.3551
 6627SOL    HW131340   3.284   0.692   8.338  0.4166 -0.3933 -0.7970
 6627SOL    HW231341   3.221   0.719   8.203 -0.9190 -1.1103  0.1846
 6628SOL     OW31342   1.737   1.087   7.346 -0.0768  0.4843  0.5972
 6628SOL    HW131343   1.680   1.025   7.392  1.2076 -1.1154  0.0371
 6628SOL    HW231344   1.715   1.174   7.380  0.2176  1.1592 -0.9360
 6629SOL     OW31345   3.064   3.663   1.307  0.1278  0.6043  0.2886
 6629SOL    HW131346   3.064   3.698   1.218  0.1564  0.3842  0.2038
 6629SOL    HW231347   3.131   3.595   1.308  0.9544  1.4201  0.2042
 6630SOL     OW31348   3.265   3.091   2.461 -0.8323 -0.0095  0.5731
 6630SOL    HW131349   3.245   3.007   2.421  0.4002  0.6548 -1.4250
 6630SOL    HW231350   3.219   3.141   2.394  1.0648  0.5252 -0.3302
 6631SOL     OW31351   2.845   4.064   2.572  0.2429  0.4569 -0.2272
 6631SOL    HW131352   2.827   4.035   2.483 -0.3692 -0.9912  0.3661
 6631SOL    HW231353   2.939   4.082   2.562  0.0659  1.0610 -0.8481
 6632SOL     OW31354   3.048   1.587   6.939 -0.2090 -0.6233  0.7688
 6632SOL    HW131355   3.050   1.491   6.941  2.4026 -0.5636  1.8859
 6632SOL    HW231356   2.967   1.605   6.892 -0.0466 -0.9656  0.3532
 6633SOL     OW31357   0.625   0.898   8.146  0.1549 -0.2755 -1.0285
 6633SOL    HW131358   0.707   0.849   8.150  0.5857  0.4438 -1.1210
 6633SOL    HW231359   0.615   0.895   8.050  0.2193  1.4049 -1.0773
 6634SOL     OW31360   3.391   1.594   3.038  0.2649 -0.0029 -0.2660
 6634SOL    HW131361   3.309   1.602   3.088  2.0724 -1.8027  3.0379
 6634SOL    HW231362   3.437   1.658   3.093  0.4246  1.0938 -1.6966
 6635SOL     OW31363   1.597   3.169   6.822 -0.5733  1.0246 -0.7152
 6635SOL    HW131364   1.562   3.245   6.868 -0.6368  0.1662  0.6734
 6635SOL    HW231365   1.550   3.096   6.864 -1.6452  1.3628 -1.3285
 6636SOL     OW31366   0.482   4.089   6.752  0.0867  0.5254  0.6328
 6636SOL    HW131367   0.400   4.069   6.797 -0.3184  0.5171 -0.1000
 6636SOL    HW231368   0.529   4.006   6.751  0.5892  0.7771  3.1468
 6637SOL     OW31369   3.605   1.100   7.315 -0.2151  0.6925  0.3181
 6637SOL    HW131370   3.652   1.145   7.386 -0.7689  0.3244  0.9132
 6637SOL    HW231371   3.675   1.044   7.280 -0.1007  1.4277 -0.6020
 6638SOL     OW31372   1.288   3.375   7.510 -0.4047 -0.1302 -0.3319
 6638SOL    HW131373   1.265   3.284   7.526 -0.7183 -0.1415 -0.8575
 6638SOL    HW231374   1.371   3.369   7.558 -2.2749 -2.8650  2.5481
 6639SOL     OW31375   4.500   0.331   3.072  0.0534  0.2373 -0.0461
 6639SOL    HW131376   4.545   0.358   3.153  0.4052  1.3962 -0.6339
 6639SOL    HW231377   4.525   0.399   3.010 -1.6267  0.6741 -0.2452
 6640SOL     OW31378   1.352   2.307  11.580 -0.3904  0.4915 -0.4302
 6640SOL    HW131379   1.408   2.372  11.622  0.1771 -1.0641  1.1937
 6640SOL    HW231380   1.291   2.363  11.530 -1.8674 -0.0253  0.7841
 6641SOL     OW31381   3.591   1.366   0.796 -0.1897  0.1510  0.6940
 6641SOL    HW131382   3.680   1.400   0.794 -0.2397  0.2045 -0.9163
 6641SOL    HW231383   3.619   1.275   0.786  0.9541  0.4180  1.5626
 6642SOL     OW31384   0.547   0.948   9.030  0.0890 -0.2132 -0.0601
 6642SOL    HW131385   0.592   0.963   9.114 -0.4191  0.1096  0.1535
 6642SOL    HW231386   0.568   1.035   8.998 -3.2377 -0.2686 -2.3594
 6643SOL     OW31387   2.955   0.580   3.371  0.5720  0.0118  0.0882
 6643SOL    HW131388   2.943   0.524   3.294 -0.0796 -0.9816  0.9022
 6643SOL    HW231389   2.870   0.623   3.363  0.5045 -0.2850 -0.8738
 6644SOL     OW31390   1.810   1.069   8.693 -0.6881  0.6788  0.5415
 6644SOL    HW131391   1.887   1.012   8.708  0.1366  1.3519 -1.1879
 6644SOL    HW231392   1.743   1.045   8.756 -1.6663 -2.3021 -1.6251
 6645SOL     OW31393   0.161   4.268   4.152 -0.3518 -0.2338 -0.2981
 6645SOL    HW131394   0.132   4.219   4.229  0.2848 -0.2168 -0.0491
 6645SOL    HW231395   0.079   4.278   4.103  0.6822 -1.8303 -2.3403
 6646SOL     OW31396   3.990   0.175  14.409  0.4645 -0.0560 -0.0843
 6646SOL    HW131397   3.920   0.121  14.373  1.0016 -1.3567  0.8412
 6646SOL    HW231398   3.955   0.187  14.497 -2.2436  0.0031 -1.1664
 6647SOL     OW31399   1.241   2.304   7.525  0.6120 -0.0218 -0.4233
 6647SOL    HW131400   1.314   2.363   7.546  0.6767 -1.4127  3.3283
 6647SOL    HW231401   1.172   2.370   7.520 -0.0678 -0.7488 -0.5383
 6648SOL     OW31402   3.239   3.759  14.468 -0.6894  0.0894  0.0024
 6648SOL    HW131403   3.221   3.829  14.530 -1.7572 -0.4089  0.2485
 6648SOL    HW231404   3.329   3.786  14.447  0.0709 -2.1145  0.4567
 6649SOL     OW31405   1.923   0.086   6.188 -0.0739  0.1840 -0.2768
 6649SOL    HW131406   1.893   0.142   6.260 -1.0959  0.1058 -0.6545
 6649SOL    HW231407   1.952   0.007   6.235  0.9963  1.6119  1.4665
 6650SOL     OW31408   1.970   2.870   3.059  0.7427  0.7210  0.1913
 6650SOL    HW131409   1.950   2.789   3.106 -0.6230  0.4243 -0.9052
 6650SOL    HW231410   1.948   2.830   2.975  0.9585 -0.4358  0.6814
 6651SOL     OW31411   3.680   3.179  10.413  1.4295  0.1385  0.3281
 6651SOL    HW131412   3.682   3.275  10.412  1.4361  0.1462  0.9747
 6651SOL    HW231413   3.767   3.156  10.381 -0.0156 -1.4501 -2.4460
 6652SOL     OW31414   4.333   3.632   8.666  0.0433 -0.2885  0.2064
 6652SOL    HW131415   4.306   3.713   8.710  0.8584 -0.5506  1.1850
 6652SOL    HW231416   4.278   3.652   8.590  0.0516 -0.5197  0.1396
 6653SOL     OW31417   0.463   3.744   3.106 -0.2206  0.0227  0.0914
 6653SOL    HW131418   0.421   3.667   3.070 -0.3256  0.1470 -0.0526
 6653SOL    HW231419   0.545   3.705   3.137  0.0195  1.0595  0.7934
 6654SOL     OW31420   3.739   2.020   8.520 -0.3553 -0.2458 -0.1423
 6654SOL    HW131421   3.732   2.003   8.614  0.4074 -1.2120 -0.2518
 6654SOL    HW231422   3.787   1.941   8.493  1.2108  0.5882  0.2188
 6655SOL     OW31423   1.199   0.894   7.128 -0.3858 -0.3668  0.2853
 6655SOL    HW131424   1.248   0.841   7.065 -0.8275  1.6919 -1.8082
 6655SOL    HW231425   1.114   0.850   7.123 -0.1227 -0.6615 -1.6461
 6656SOL     OW31426   0.941   4.693  14.339 -0.0254 -0.4305  0.0731
 6656SOL    HW131427   0.878   4.623  14.322  0.0786 -1.3024  3.3181
 6656SOL    HW231428   0.959   4.675  14.431  0.9871  2.0424  0.3547
 6657SOL     OW31429   2.558   1.493  14.262  0.0776 -0.2974 -0.1296
 6657SOL    HW131430   2.601   1.408  14.253  2.0901  0.7158  0.0166
 6657SOL    HW231431   2.610   1.531  14.333 -0.8790 -2.5732  1.7927
 6658SOL     OW31432   1.859   4.321   8.170  0.0356  0.6791  0.1804
 6658SOL    HW131433   1.929   4.293   8.111 -2.7618 -1.2825 -2.2180
 6658SOL    HW231434   1.895   4.402   8.206  2.9226 -0.2568 -0.5766
 6659SOL     OW31435   1.046   3.453   7.777  0.1409  0.3924 -0.4040
 6659SOL    HW131436   1.140   3.463   7.795  0.3015 -4.0829  1.3453
 6659SOL    HW231437   1.020   3.536   7.736 -1.0478  0.5257  0.6225
 6660SOL     OW31438   4.420   3.426   2.674 -0.3669 -0.0226  0.2683
 6660SOL    HW131439   4.408   3.500   2.615  0.0778 -0.8287 -0.8327
 6660SOL    HW231440   4.458   3.358   2.618 -0.8556  0.4716 -0.6481
 6661SOL     OW31441   1.506   2.615  15.557  0.3239  0.1192  0.0375
 6661SOL    HW131442   1.548   2.676  15.617 -0.2174  1.4755 -0.9670
 6661SOL    HW231443   1.592   2.577  15.539  1.1760  2.4982 -0.9255
 6662SOL     OW31444   1.293   2.683   2.763  0.5919  0.0580 -0.2860
 6662SOL    HW131445   1.304   2.696   2.857  2.5914  3.7158 -1.0341
 6662SOL    HW231446   1.379   2.650   2.740  0.5786 -0.0595 -0.1662
 6663SOL     OW31447   0.756   4.438  17.312 -0.4275 -0.0737 -0.6856
 6663SOL    HW131448   0.839   4.415  17.270  0.7455 -1.5871  2.4518
 6663SOL    HW231449   0.753   4.365  17.374  1.2559  0.6863  0.2840
 6664SOL     OW31450   0.434   3.521   4.418  0.9485 -0.3813 -0.1256
 6664SOL    HW131451   0.395   3.601   4.382 -2.7813 -1.6894  1.0827
 6664SOL    HW231452   0.406   3.453   4.357  0.7740 -1.8390  1.6122
 6665SOL     OW31453   1.475   1.337  11.921  0.4970 -0.4751 -0.3014
 6665SOL    HW131454   1.498   1.360  11.831  1.3145  1.3039  0.3838
 6665SOL    HW231455   1.430   1.253  11.908 -0.3446  0.0602 -0.8846
 6666SOL     OW31456   3.406   0.269  12.856  0.0653 -0.4516 -0.1819
 6666SOL    HW131457   3.311   0.285  12.850 -0.1131 -0.8523  1.5516
 6666SOL    HW231458   3.433   0.353  12.819 -2.2404  0.0652 -0.7463
 6667SOL     OW31459   4.387   3.303   5.635 -0.2266  0.2156  0.8986
 6667SOL    HW131460   4.336   3.282   5.557  0.4119  1.3769  0.1808
 6667SOL    HW231461   4.328   3.264   5.700 -1.9762  0.0846 -0.7911
 6668SOL     OW31462   0.604   1.002  13.690  0.0531 -0.2532 -0.0751
 6668SOL    HW131463   0.627   1.069  13.626 -1.3074 -0.9178 -1.2485
 6668SOL    HW231464   0.612   0.924  13.636 -1.9167 -0.7943  0.4094
 6669SOL     OW31465   2.339   0.863   9.946 -0.0896 -0.1361  0.1820
 6669SOL    HW131466   2.416   0.871   9.891 -0.4275  0.1623 -0.2518
 6669SOL    HW231467   2.308   0.774   9.929  1.5381 -0.6872  0.1177
 6670SOL     OW31468   4.121   2.531  17.527 -0.4659  0.3636 -0.4341
 6670SOL    HW131469   4.105   2.437  17.534 -0.7020  0.3611 -0.9996
 6670SOL    HW231470   4.053   2.556  17.464  0.5723  0.0703 -1.6940
 6671SOL     OW31471   0.009   0.204   9.723  0.2301  0.3064 -0.1488
 6671SOL    HW131472   0.030   0.189   9.815 -1.1182 -1.5099 -0.1404
 6671SOL    HW231473   4.640   0.214   9.724  0.0632 -1.1793 -2.1675
 6672SOL     OW31474   2.339   0.001   7.279  0.2621  0.3362  0.7532
 6672SOL    HW131475   2.294   4.662   7.332  1.6217  0.5390  2.1533
 6672SOL    HW231476   2.300   0.079   7.318 -1.7467 -0.6021  0.6438
 6673SOL     OW31477   4.363   3.888   6.612 -0.1135  0.1415 -0.3866
 6673SOL    HW131478   4.419   3.819   6.577  0.9075  1.4120 -1.2666
 6673SOL    HW231479   4.416   3.962   6.582  1.9743 -1.0289  0.4658
 6674SOL     OW31480   2.017   3.731   7.519 -0.3744 -0.1747  0.6504
 6674SOL    HW131481   1.998   3.824   7.506  2.3512  0.3561  0.3595
 6674SOL    HW231482   1.934   3.692   7.547  0.6769 -1.7896  1.5598
 6675SOL     OW31483   0.822   2.700   4.763 -0.2173  0.2223 -0.3957
 6675SOL    HW131484   0.808   2.690   4.668  2.6301 -3.4708 -0.4183
 6675SOL    HW231485   0.769   2.776   4.785  0.4602  1.1538 -1.9170
 6676SOL     OW31486   1.326   0.189  16.267  0.0154 -0.2461 -0.0472
 6676SOL    HW131487   1.294   0.242  16.193  0.7871  2.1204  1.3294
 6676SOL    HW231488   1.252   0.210  16.323 -0.1720  2.1816 -1.2090
 6677SOL     OW31489   2.416   1.610   9.489  0.1859 -0.0603 -0.0463
 6677SOL    HW131490   2.450   1.667   9.558 -3.3066  0.6645  1.0523
 6677SOL    HW231491   2.490   1.614   9.428 -0.6826  1.9840 -0.9419
 6678SOL     OW31492   1.459   2.982  12.205  0.0784 -0.0952 -0.6654
 6678SOL    HW131493   1.417   2.900  12.180  0.7750 -0.8247  0.5324
 6678SOL    HW231494   1.456   3.036  12.126  0.9730  0.6467 -0.1880
 6679SOL     OW31495   4.528   2.799   6.105  0.0543  0.8016  0.3381
 6679SOL    HW131496   4.440   2.826   6.077  0.8242  0.2194 -2.6052
 6679SOL    HW231497   4.529   2.718   6.055  0.2091  0.3075  1.1421
 6680SOL     OW31498   0.862   1.949   6.986  0.3233 -0.1426 -0.2319
 6680SOL    HW131499   0.799   2.002   6.937  0.1538  1.3995  1.6552
 6680SOL    HW231500   0.885   2.014   7.053 -1.2470  0.6410 -0.4654
 6681SOL     OW31501   0.256   1.717   5.793  0.3370 -0.4040  0.3194
 6681SOL    HW131502   0.317   1.787   5.769 -1.4742  1.0325 -0.1028
 6681SOL    HW231503   0.275   1.702   5.885  2.4640  2.7394  0.4086
 6682SOL     OW31504   2.681   2.145   7.639  0.0649  0.3888 -0.1359
 6682SOL    HW131505   2.692   2.238   7.659 -2.1613  0.3545  1.2597
 6682SOL    HW231506   2.771   2.114   7.632 -0.0924  0.0242 -0.5241
 6683SOL     OW31507   2.494   1.277   7.377 -0.5366  0.6699 -0.3826
 6683SOL    HW131508   2.571   1.333   7.384  0.8921 -1.1094 -1.5888
 6683SOL    HW231509   2.451   1.309   7.456  0.5020  0.2611  0.3595
 6684SOL     OW31510   2.355   2.494   2.912 -0.2958 -0.1039 -0.0952
 6684SOL    HW131511   2.321   2.534   2.832  2.5627  1.8549 -0.3171
 6684SOL    HW231512   2.399   2.417   2.875  0.8920  0.1952  0.7029
 6685SOL     OW31513   2.891   2.214   8.476  0.5133  0.5469 -0.7273
 6685SOL    HW131514   2.817   2.197   8.418 -0.4255  0.6496  0.4373
 6685SOL    HW231515   2.871   2.164   8.556  1.0284  1.4957  0.0022
 6686SOL     OW31516   2.434   4.004   6.909  0.1470 -0.0968 -0.4900
 6686SOL    HW131517   2.350   3.994   6.954  0.6208  2.0458  0.8993
 6686SOL    HW231518   2.442   3.927   6.852  3.0544 -0.8734  0.9339
 6687SOL     OW31519   4.333   4.326  11.030 -0.1878 -0.3139  0.0941
 6687SOL    HW131520   4.277   4.306  11.105  0.0889  1.6762  0.8436
 6687SOL    HW231521   4.404   4.368  11.078  0.9665 -1.6803 -0.4204
 6688SOL     OW31522   0.552   0.272   9.144 -0.2477  0.3928 -0.1785
 6688SOL    HW131523   0.624   0.306   9.091 -0.6204 -0.5718 -1.2989
 6688SOL    HW231524   0.574   0.307   9.230  2.6239  0.4973 -0.9526
 6689SOL     OW31525   2.043   0.354   6.088 -0.2339  0.0518  0.0888
 6689SOL    HW131526   2.088   0.390   6.165  1.0537  0.0651 -0.6687
 6689SOL    HW231527   2.104   0.281   6.079  1.3121  1.0976  2.1822
 6690SOL     OW31528   4.248   0.696   8.256  0.4779  0.0896 -0.3766
 6690SOL    HW131529   4.245   0.686   8.161  1.8914 -1.4431 -0.2550
 6690SOL    HW231530   4.243   0.610   8.297  1.0119  0.1991 -0.0892
 6691SOL     OW31531   4.557   0.860   0.100 -0.5107  0.1113  0.0274
 6691SOL    HW131532   4.543   0.851   0.194 -1.7371 -1.1543 -0.2827
 6691SOL    HW231533   4.549   0.770   0.067 -0.5298 -0.1616  0.7900
 6692SOL     OW31534   1.912   0.059   5.581 -0.0063  0.3916 -0.0573
 6692SOL    HW131535   1.987   0.024   5.628  1.0924  0.6280 -1.6348
 6692SOL    HW231536   1.885   4.706   5.534 -0.9005  0.0948  0.9780
 6693SOL     OW31537   3.756   3.104   3.269 -0.3384  0.5237  0.2872
 6693SOL    HW131538   3.817   3.170   3.236  1.6630 -1.5730 -0.1919
 6693SOL    HW231539   3.732   3.070   3.183  1.0760  1.6242 -0.5311
 6694SOL     OW31540   0.899   4.454   9.031 -0.1464  0.1230 -0.3182
 6694SOL    HW131541   0.980   4.505   9.029 -0.4079  0.5296 -0.4844
 6694SOL    HW231542   0.850   4.497   9.101 -1.3462  0.0735 -1.1329
 6695SOL     OW31543   3.681   3.089  13.677  0.5241 -0.2813  0.0241
 6695SOL    HW131544   3.673   3.148  13.752 -0.1347  0.8575 -0.9482
 6695SOL    HW231545   3.589   3.063  13.669  0.4227  0.0279  0.1944
 6696SOL     OW31546   0.327   3.277  15.565  0.0026  0.0190 -0.0524
 6696SOL    HW131547   0.413   3.237  15.549 -1.1871 -1.3222 -2.9019
 6696SOL    HW231548   0.266   3.208  15.541 -0.4131  0.0894  0.7899
 6697SOL     OW31549   1.294   1.427   3.014 -0.3407  0.2554  0.0011
 6697SOL    HW131550   1.272   1.519   3.030  1.8188  0.7341  0.1646
 6697SOL    HW231551   1.388   1.421   2.996 -0.3572  0.6752 -0.2193
 6698SOL     OW31552   2.736   2.202  15.326 -0.3991  0.0364 -0.4135
 6698SOL    HW131553   2.687   2.156  15.258  0.3117 -0.1578 -0.8000
 6698SOL    HW231554   2.817   2.152  15.336 -0.4758 -0.5358 -2.5848
 6699SOL     OW31555   0.086   2.589   4.850  0.4171  0.1271 -0.0093
 6699SOL    HW131556   0.045   2.587   4.764  1.2369 -0.3935 -0.3888
 6699SOL    HW231557   0.149   2.519   4.836 -0.5246 -0.2663 -2.1934
 6700SOL     OW31558   0.966   2.516   4.990  0.3058  0.0381  0.5286
 6700SOL    HW131559   1.018   2.593   4.966  0.2893 -0.5987 -1.5987
 6700SOL    HW231560   0.910   2.548   5.060  0.8617  0.4984  0.7550
 6701SOL     OW31561   0.012   3.806  14.001 -0.2754  0.1889  0.3625
 6701SOL    HW131562   4.717   3.718  14.034  2.2211 -0.2595  0.8049
 6701SOL    HW231563   0.072   3.792  13.928 -0.4174  0.1065  0.2620
 6702SOL     OW31564   3.052   3.760   1.061 -0.1943  0.0031 -0.2453
 6702SOL    HW131565   3.059   3.835   1.002 -0.4145  1.5132  1.6491
 6702SOL    HW231566   3.100   3.693   1.012 -0.6313 -0.8204  0.4425
 6703SOL     OW31567   3.751   0.513   8.072  0.1879  0.5907 -0.2973
 6703SOL    HW131568   3.668   0.488   8.113 -1.2551  1.4540 -2.6930
 6703SOL    HW231569   3.774   0.592   8.120  0.7189  1.3591 -1.8172
 6704SOL     OW31570   4.148   2.599   3.371  0.1838  0.8646 -0.8411
 6704SOL    HW131571   4.114   2.604   3.282 -2.7532 -0.0020  0.2348
 6704SOL    HW231572   4.190   2.513   3.370 -0.9738  0.2889 -0.5844
 6705SOL     OW31573   3.635   1.626   6.180  0.1064  0.1470  0.0029
 6705SOL    HW131574   3.690   1.597   6.252  1.5556 -0.7984 -1.4736
 6705SOL    HW231575   3.545   1.606   6.207  0.0664  0.2818 -0.0306
 6706SOL     OW31576   2.879   0.938   8.275  0.1031 -0.1554  0.5904
 6706SOL    HW131577   2.930   0.962   8.352  0.0048  4.6340 -0.8468
 6706SOL    HW231578   2.791   0.927   8.311  0.4670 -1.6733  0.9877
 6707SOL     OW31579   3.849   0.570   8.440  0.2870 -0.3897 -0.7331
 6707SOL    HW131580   3.836   0.636   8.509  1.2806  0.2107 -1.1204
 6707SOL    HW231581   3.815   0.626   8.371 -2.3279 -1.1854 -0.0896
 6708SOL     OW31582   0.212   3.903   2.742  0.1102  0.0308 -0.0280
 6708SOL    HW131583   0.229   3.996   2.730  0.5011  0.0228  0.4862
 6708SOL    HW231584   0.284   3.870   2.796  0.4782  0.2182 -0.4079
 6709SOL     OW31585   2.865   0.043   8.997 -0.1269  0.3730  0.3472
 6709SOL    HW131586   2.837   0.066   9.086 -0.2679  1.3875  0.0370
 6709SOL    HW231587   2.945   0.095   8.994  1.1244 -1.4638  2.1736
 6710SOL     OW31588   0.577   0.922   8.413 -0.8222  0.5006 -0.1609
 6710SOL    HW131589   0.611   0.926   8.323 -0.5392 -0.0361 -0.0749
 6710SOL    HW231590   0.488   0.889   8.401 -0.5019 -0.8369  1.2813
 6711SOL     OW31591   1.426   0.739   6.521 -0.0364  1.1025 -0.1014
 6711SOL    HW131592   1.351   0.680   6.522 -0.3473  1.4801 -0.9544
 6711SOL    HW231593   1.461   0.706   6.438 -1.7304 -1.6127  0.2714
 6712SOL     OW31594   3.720   3.087   1.776  0.1072 -0.5831 -0.8263
 6712SOL    HW131595   3.677   3.001   1.772 -2.6029  0.8196 -1.9998
 6712SOL    HW231596   3.811   3.058   1.783  0.4972  0.6648 -0.8580
 6713SOL     OW31597   2.072   3.446   2.414  0.2461  0.0448  0.3788
 6713SOL    HW131598   1.997   3.493   2.451  0.2354  1.7610 -1.7896
 6713SOL    HW231599   2.052   3.353   2.414 -0.7875  0.2755 -1.0643
 6714SOL     OW31600   3.103   3.002  13.691 -0.1147 -0.0171  0.0334
 6714SOL    HW131601   3.114   2.955  13.773 -3.8982 -0.5790  0.2031
 6714SOL    HW231602   3.164   2.955  13.635 -1.3817 -2.3093  0.6143
 6715SOL     OW31603   4.266   3.114   3.493 -0.0643 -0.1753 -0.1876
 6715SOL    HW131604   4.267   3.041   3.431  0.9660 -1.8901  1.8519
 6715SOL    HW231605   4.337   3.093   3.553  0.0430  0.4125 -0.1119
 6716SOL     OW31606   1.765   0.247   8.736 -0.0907 -0.2665 -0.0740
 6716SOL    HW131607   1.751   0.197   8.656 -1.1012  0.8330 -0.5777
 6716SOL    HW231608   1.742   0.336   8.710  0.6123  0.1731  0.7954
 6717SOL     OW31609   1.866   0.323   3.020  0.5077  0.3855 -0.2077
 6717SOL    HW131610   1.892   0.302   2.930  1.3646 -0.7056  0.2989
 6717SOL    HW231611   1.791   0.376   2.992  0.5959  0.9554  0.6374
 6718SOL     OW31612   3.588   4.597   8.072  0.0155  0.6130  0.3247
 6718SOL    HW131613   3.526   4.557   8.133 -0.6515 -2.1207 -2.1733
 6718SOL    HW231614   3.662   4.544   8.101 -2.5186 -1.2218  3.4827
 6719SOL     OW31615   3.750   0.273  16.541  0.2486  0.6011  0.2883
 6719SOL    HW131616   3.690   0.289  16.614  1.1555  2.2730  0.6545
 6719SOL    HW231617   3.689   0.268  16.467 -0.0070 -1.4036  0.6172
 6720SOL     OW31618   4.129   0.376  10.790  0.0193  0.2882 -0.7380
 6720SOL    HW131619   4.170   0.314  10.850 -1.3403 -1.2404 -1.4043
 6720SOL    HW231620   4.054   0.416  10.834 -0.3110  0.7711 -1.7151
 6721SOL     OW31621   2.786   0.649   7.115 -0.4787  0.1109  0.2317
 6721SOL    HW131622   2.806   0.569   7.165  1.3010  1.2503  1.3455
 6721SOL    HW231623   2.713   0.680   7.168 -0.7740 -0.4627  0.1562
 6722SOL     OW31624   1.599   3.830   8.266  0.1522 -0.1732 -0.3842
 6722SOL    HW131625   1.685   3.871   8.253 -1.4869  3.5155  0.2997
 6722SOL    HW231626   1.624   3.755   8.320 -2.2941  0.1132  1.1485
 6723SOL     OW31627   1.967   0.021   4.538  0.4028 -0.5780  0.0231
 6723SOL    HW131628   1.938   4.689   4.469  2.1662 -0.0579 -1.1818
 6723SOL    HW231629   2.019   0.087   4.491  1.7227 -0.6681  1.3394
 6724SOL     OW31630   0.523   1.849   5.009  0.4232  0.1230  0.1035
 6724SOL    HW131631   0.515   1.912   5.081 -2.6280 -0.0798 -0.0394
 6724SOL    HW231632   0.438   1.805   5.016  0.2952  0.4309  0.5035
 6725SOL     OW31633   0.213   3.734  11.192 -0.6279 -0.3090  0.1567
 6725SOL    HW131634   0.260   3.752  11.111  0.0734 -1.6080  0.2696
 6725SOL    HW231635   0.125   3.766  11.172 -0.2093  0.1386 -0.9857
 6726SOL     OW31636   0.031   1.762  14.808 -0.0610 -0.1190 -0.0739
 6726SOL    HW131637   0.018   1.856  14.794 -0.8614 -0.3388 -0.8609
 6726SOL    HW231638   0.047   1.722  14.722  1.7682  2.4049 -0.9131
 6727SOL     OW31639   4.282   0.350  11.428 -0.3425  0.4077 -0.1609
 6727SOL    HW131640   4.341   0.305  11.488 -0.3487 -0.0419 -0.4896
 6727SOL    HW231641   4.278   0.279  11.364 -2.5464 -0.0540  0.4823
 6728SOL     OW31642   1.037   2.823   3.458  0.3978  0.4937  0.2980
 6728SOL    HW131643   1.049   2.731   3.482  2.1715  0.3989 -0.9501
 6728SOL    HW231644   0.950   2.851   3.485  0.5364  2.0753 -0.8804
 6729SOL     OW31645   3.301   0.472   0.319 -0.2240  0.7983 -0.0647
 6729SOL    HW131646   3.288   0.532   0.393 -0.4255  0.1879  0.3929
 6729SOL    HW231647   3.211   0.461   0.287 -0.4668 -2.0314  1.6594
 6730SOL     OW31648   3.495   0.060   3.841 -0.5059  0.9971 -0.1890
 6730SOL    HW131649   3.463   4.723   3.776  1.5532  0.0417 -0.2520
 6730SOL    HW231650   3.590   0.060   3.837 -0.5524  0.4540 -1.2742
 6731SOL     OW31651   0.160   3.581   3.224  0.1116 -0.1395  0.2409
 6731SOL    HW131652   0.133   3.601   3.314  1.9858  0.2027  0.7341
 6731SOL    HW231653   0.230   3.642   3.200 -0.4111 -0.1639 -1.3251
 6732SOL     OW31654   0.058   3.167  10.083  0.5264 -0.2177 -0.4148
 6732SOL    HW131655   0.030   3.200  10.168  1.6444  1.2270 -0.6070
 6732SOL    HW231656   0.078   3.250  10.040  1.5244 -1.3322 -2.0946
 6733SOL     OW31657   2.858   0.489   3.911  0.0734  0.0507  0.6162
 6733SOL    HW131658   2.910   0.411   3.893  2.8870  1.9953  0.3790
 6733SOL    HW231659   2.841   0.479   4.005 -2.3273 -0.7980  0.0944
 6734SOL     OW31660   3.857   3.324   5.888  0.0002 -0.1493 -0.3849
 6734SOL    HW131661   3.921   3.298   5.955  0.3436  0.0790 -0.6218
 6734SOL    HW231662   3.775   3.349   5.931 -0.4422  0.5162 -1.6413
 6735SOL     OW31663   3.269   0.190   0.389  0.1867  0.1409 -0.1684
 6735SOL    HW131664   3.250   0.141   0.309 -0.4040  0.1530 -0.0357
 6735SOL    HW231665   3.326   0.258   0.355  0.8009 -0.1523  0.2770
 6736SOL     OW31666   4.537   3.062  13.862 -0.0223  0.6354  0.1167
 6736SOL    HW131667   4.478   3.027  13.795 -2.1236  1.2002  1.6491
 6736SOL    HW231668   4.471   3.118  13.903 -1.8052 -1.7023  0.3989
 6737SOL     OW31669   3.351   2.194   6.453 -0.7404  0.0500  0.2976
 6737SOL    HW131670   3.331   2.287   6.440  0.8105  0.4898  1.0742
 6737SOL    HW231671   3.346   2.176   6.359  2.5350  3.2061 -0.4865
 6738SOL     OW31672   1.355   3.455   5.425 -0.1643 -0.7245 -0.8495
 6738SOL    HW131673   1.381   3.547   5.419 -0.5703 -0.5315  0.3911
 6738SOL    HW231674   1.429   3.419   5.474  0.3810  0.0183 -1.1334
 6739SOL     OW31675   2.313   0.044  17.250  0.2100  0.3676  0.4380
 6739SOL    HW131676   2.387   0.100  17.230  0.2508  0.2169  0.1542
 6739SOL    HW231677   2.234   0.096  17.232 -0.2134 -0.9159 -1.4885
 6740SOL     OW31678   3.365   2.545   6.484  0.6842 -0.6550 -0.0451
 6740SOL    HW131679   3.409   2.579   6.406  2.7717 -1.4928  0.7512
 6740SOL    HW231680   3.330   2.629   6.513  0.7589 -0.7125  0.2164
 6741SOL     OW31681   2.040   0.525  15.026 -0.0568 -0.9547 -0.1965
 6741SOL    HW131682   1.969   0.508  14.965 -0.3879  2.5209 -0.7582
 6741SOL    HW231683   2.093   0.588  14.978  2.3108 -2.2758  0.6338
 6742SOL     OW31684   1.510   3.511   8.558 -0.2116  0.3175 -0.1343
 6742SOL    HW131685   1.577   3.568   8.523 -1.2991  0.7335 -1.5417
 6742SOL    HW231686   1.563   3.457   8.616 -0.4415  0.8517  0.5736
 6743SOL     OW31687   0.146   1.869   4.078 -0.1539  0.2165  0.1625
 6743SOL    HW131688   0.148   1.910   3.992 -0.9239  0.2069  0.1391
 6743SOL    HW231689   0.222   1.906   4.124 -0.5870  0.5347  0.6202
 6744SOL     OW31690   0.070   1.359   5.793  0.1098  0.1364  0.0144
 6744SOL    HW131691   0.143   1.299   5.808  0.1550 -0.2232 -1.6548
 6744SOL    HW231692   0.003   1.293   5.775  1.0641 -1.1257  1.1233
 6745SOL     OW31693   4.301   3.958   1.381 -0.6519  0.3332 -0.7880
 6745SOL    HW131694   4.226   3.901   1.364 -1.5564  1.1919  0.4105
 6745SOL    HW231695   4.259   4.032   1.425 -0.4690 -0.1949  0.2747
 6746SOL     OW31696   4.429   1.155   3.106 -0.2039 -0.0055  0.0698
 6746SOL    HW131697   4.507   1.207   3.126  0.1399 -0.1618 -0.8861
 6746SOL    HW231698   4.462   1.083   3.052 -0.1608  0.5016 -0.5800
 6747SOL     OW31699   1.916   0.194   7.994 -1.0188  0.0665 -0.4162
 6747SOL    HW131700   1.940   0.152   7.911  0.5277 -0.4132  0.2801
 6747SOL    HW231701   1.908   0.284   7.961  1.2836  0.6567  0.6228
 6748SOL     OW31702   4.442   0.339   2.075  0.0874  0.6324 -0.0752
 6748SOL    HW131703   4.387   0.362   2.000  1.5942  2.3521 -0.6560
 6748SOL    HW231704   4.387   0.362   2.149 -2.4893  0.2811 -1.9045
 6749SOL     OW31705   1.961   0.886   8.004 -0.1720  0.2597  1.0890
 6749SOL    HW131706   1.939   0.820   8.069 -1.7026  0.5331  0.8470
 6749SOL    HW231707   2.050   0.858   7.982 -0.2141  1.3982 -0.5371
 6750SOL     OW31708   1.267   0.599   5.804 -0.5347  0.1272 -0.1351
 6750SOL    HW131709   1.193   0.657   5.784  0.0662  0.7691 -0.4833
 6750SOL    HW231710   1.324   0.646   5.864  0.4373  0.1270 -1.0582
 6751SOL     OW31711   1.504   0.918   3.918  0.5178 -0.1785 -0.2728
 6751SOL    HW131712   1.413   0.894   3.932 -0.0276  1.5149 -0.8876
 6751SOL    HW231713   1.496   1.009   3.890  1.5296  0.0868  0.2796
 6752SOL     OW31714   0.423   2.477   3.071 -0.1841  0.4107 -0.2576
 6752SOL    HW131715   0.430   2.551   3.132 -2.2355 -1.2173  1.9721
 6752SOL    HW231716   0.415   2.528   2.990 -0.2984 -1.6437 -1.5152
 6753SOL     OW31717   3.824   2.532  17.500  0.0661  0.5539  0.7176
 6753SOL    HW131718   3.862   2.587  17.432  1.8998 -0.2687  1.0736
 6753SOL    HW231719   3.869   2.449  17.489  0.6054  1.2474 -2.2725
 6754SOL     OW31720   3.696   2.196   7.139 -0.3519  0.0775  0.1999
 6754SOL    HW131721   3.649   2.130   7.089 -2.7733  0.9748  1.2539
 6754SOL    HW231722   3.728   2.151   7.217 -0.2925  0.5515  0.4540
 6755SOL     OW31723   4.169   1.791   6.523 -0.2966 -0.2028  0.4810
 6755SOL    HW131724   4.178   1.801   6.428 -0.4855 -0.7976  0.4013
 6755SOL    HW231725   4.195   1.876   6.560 -1.1939 -0.4906  1.7499
 6756SOL     OW31726   2.149   3.846  14.281  0.0558  0.3116  0.4623
 6756SOL    HW131727   2.241   3.824  14.289 -0.1798 -0.3465  1.3711
 6756SOL    HW231728   2.145   3.941  14.270 -1.4489  0.0585 -1.1325
 6757SOL     OW31729   0.157   2.850   4.897 -0.0598  0.6977 -0.2958
 6757SOL    HW131730   0.133   2.757   4.893 -1.7514  1.1740 -1.1608
 6757SOL    HW231731   0.251   2.841   4.910 -0.7981 -4.7351  1.5872
 6758SOL     OW31732   3.597   1.800   8.384  0.4246 -0.0382 -0.0225
 6758SOL    HW131733   3.566   1.842   8.465 -0.3561  1.4302 -1.0886
 6758SOL    HW231734   3.684   1.778   8.417  1.0745  2.8336  0.2075
 6759SOL     OW31735   0.530   1.709   4.119 -0.1252  0.3531  0.3335
 6759SOL    HW131736   0.483   1.770   4.176 -0.2587  0.2688  0.3140
 6759SOL    HW231737   0.486   1.734   4.038  0.3621 -0.1585 -0.0909
 6760SOL     OW31738   3.238   1.982   9.397  0.4404 -0.6868  0.5078
 6760SOL    HW131739   3.211   1.899   9.435 -1.5977 -0.3006 -0.0983
 6760SOL    HW231740   3.325   1.993   9.436  1.3874  1.0071 -2.0773
 6761SOL     OW31741   1.987   2.258   2.358 -0.3173 -0.7180 -0.2306
 6761SOL    HW131742   2.081   2.240   2.354 -0.8700 -3.3020 -2.0686
 6761SOL    HW231743   1.979   2.338   2.409 -0.4299 -0.3538 -0.8174
 6762SOL     OW31744   4.047   2.900   3.502 -0.3353  0.0556  0.2569
 6762SOL    HW131745   4.011   2.815   3.475 -1.7883  0.8769 -0.3837
 6762SOL    HW231746   4.107   2.919   3.429  0.4902  0.0065  0.9295
 6763SOL     OW31747   4.049   3.034   9.420  0.5129 -0.1985 -0.0955
 6763SOL    HW131748   4.034   3.113   9.368  1.3711  0.8496  1.2418
 6763SOL    HW231749   3.962   3.004   9.447 -0.3298  1.7596 -0.6346
 6764SOL     OW31750   0.563   2.684   9.020 -0.4749  0.5919 -0.3987
 6764SOL    HW131751   0.470   2.660   9.029 -0.0695 -0.8625 -0.1145
 6764SOL    HW231752   0.556   2.746   9.092 -1.5389  0.1039 -0.0776
 6765SOL     OW31753   1.179   0.011  15.400  0.4537 -0.4547 -0.0326
 6765SOL    HW131754   1.129   0.053  15.329  2.3178  3.1199  0.7432
 6765SOL    HW231755   1.112   0.007  15.469 -0.9925 -0.3275 -1.4177
 6766SOL     OW31756   1.652   2.250   5.438  0.6424  0.1657 -0.2955
 6766SOL    HW131757   1.692   2.326   5.396 -1.4805  0.2289 -2.2295
 6766SOL    HW231758   1.559   2.255   5.413  0.3633 -2.7810  0.1779
 6767SOL     OW31759   1.046   3.395   2.247 -0.1674  0.2061 -0.3339
 6767SOL    HW131760   1.090   3.347   2.317  1.0046  0.7849 -0.6725
 6767SOL    HW231761   1.107   3.469   2.243  1.0120 -0.6725  1.6518
 6768SOL     OW31762   0.505   0.191   6.271 -0.3516  0.1321  0.1569
 6768SOL    HW131763   0.562   0.237   6.210 -1.1247  1.3550  0.3741
 6768SOL    HW231764   0.464   0.268   6.309  0.8006  1.5408 -1.4384
 6769SOL     OW31765   1.558   1.529  15.554 -0.1153 -0.3598  0.1872
 6769SOL    HW131766   1.513   1.447  15.575 -0.7026  0.2110  1.1564
 6769SOL    HW231767   1.576   1.524  15.460 -0.6532 -3.2276  0.2364
 6770SOL     OW31768   3.644   0.195  16.111  0.1810  0.4520  0.1505
 6770SOL    HW131769   3.575   0.143  16.152  0.4423  1.9204  2.4180
 6770SOL    HW231770   3.614   0.284  16.130 -0.2965 -0.0614  1.8295
 6771SOL     OW31771   0.227   0.065   3.425  0.0970  0.3001  0.1452
 6771SOL    HW131772   0.184   0.053   3.341  3.2255  1.5650 -1.6310
 6771SOL    HW231773   0.157   0.040   3.486 -0.0075  1.7231  0.6181
 6772SOL     OW31774   3.104   2.033   1.540  0.0097 -0.8626 -0.2640
 6772SOL    HW131775   3.089   1.939   1.535 -1.7954 -0.8178  4.5289
 6772SOL    HW231776   3.077   2.049   1.449 -0.2500 -1.8380 -0.3618
 6773SOL     OW31777   4.173   2.405  13.615 -0.2967 -0.4923  0.0219
 6773SOL    HW131778   4.244   2.419  13.678  2.8068  0.0667 -3.6541
 6773SOL    HW231779   4.171   2.486  13.565  2.2395 -0.3593  0.1578
 6774SOL     OW31780   3.334   4.586   9.082  0.3633 -0.0722 -0.1201
 6774SOL    HW131781   3.334   4.590   9.178 -0.9787 -0.9935 -0.0888
 6774SOL    HW231782   3.333   4.681   9.069 -3.1240 -0.1958 -0.6938
 6775SOL     OW31783   2.994   2.027   2.451 -0.2258 -0.3435 -0.0310
 6775SOL    HW131784   2.955   2.114   2.457 -1.9213 -1.1108  0.2555
 6775SOL    HW231785   3.068   2.042   2.392  0.2154 -0.6310  0.4520
 6776SOL     OW31786   2.734   3.504   4.207 -0.2866  0.3236  0.5589
 6776SOL    HW131787   2.732   3.409   4.217  1.6470  0.1964 -0.1075
 6776SOL    HW231788   2.728   3.518   4.112  0.7760  0.4561  0.5134
 6777SOL     OW31789   2.574   1.929  14.211 -0.2201 -0.2790  0.9235
 6777SOL    HW131790   2.550   1.848  14.255 -1.0452 -0.0768  0.8472
 6777SOL    HW231791   2.499   1.987  14.225  1.1016  1.8666 -0.7726
 6778SOL     OW31792   3.116   0.562   7.497 -0.2582 -0.0520  0.3248
 6778SOL    HW131793   3.199   0.593   7.532 -0.5731  1.4667 -0.2783
 6778SOL    HW231794   3.130   0.469   7.512  0.4804  0.3613  2.2804
 6779SOL     OW31795   4.039   0.486   6.108 -0.6613 -0.0290  0.4189
 6779SOL    HW131796   4.008   0.435   6.033 -1.2940  0.7544  0.1390
 6779SOL    HW231797   3.966   0.548   6.111  0.3727  1.1409  1.5163
 6780SOL     OW31798   0.567   1.454   4.793  0.1374  0.2270 -0.0483
 6780SOL    HW131799   0.600   1.428   4.878 -0.5955  0.2175  0.2312
 6780SOL    HW231800   0.607   1.391   4.733 -0.6725  1.0353 -1.4390
 6781SOL     OW31801   2.456   1.451  13.355  0.2283 -0.2395 -0.0067
 6781SOL    HW131802   2.365   1.447  13.327 -0.0255 -0.5167  0.8795
 6781SOL    HW231803   2.451   1.485  13.444 -1.1808  2.1244 -0.9680
 6782SOL     OW31804   4.600   3.087  10.428 -0.3216  0.2275 -0.0008
 6782SOL    HW131805   4.621   3.040  10.509 -2.3272 -1.8083 -0.6579
 6782SOL    HW231806   4.623   3.176  10.454  0.1340  0.2905 -0.6116
 6783SOL     OW31807   1.235   1.227   0.622 -0.1684  0.3715 -0.1033
 6783SOL    HW131808   1.279   1.179   0.693 -0.6737  0.6212  0.3766
 6783SOL    HW231809   1.247   1.320   0.643  0.7388  0.3533 -0.5303
 6784SOL     OW31810   0.436   2.564   1.816  0.0940 -0.2767 -0.0024
 6784SOL    HW131811   0.524   2.526   1.822  0.9066  1.4782 -0.7614
 6784SOL    HW231812   0.462   2.655   1.830 -2.1182  0.7202 -2.3935
 6785SOL     OW31813   4.590   0.524   5.552 -0.1835  0.3623  0.1578
 6785SOL    HW131814   4.627   0.449   5.507 -0.3939  0.8515 -0.8420
 6785SOL    HW231815   4.672   0.561   5.585  0.5582 -0.0605 -1.2122
 6786SOL     OW31816   1.398   1.585   8.687 -0.0770 -0.4613 -0.5042
 6786SOL    HW131817   1.406   1.495   8.716  1.4165  0.0022  0.5596
 6786SOL    HW231818   1.483   1.606   8.646  0.2687 -2.4130 -0.8014
 6787SOL     OW31819   3.798   1.072  11.603  0.3411 -0.3217  0.4447
 6787SOL    HW131820   3.738   1.117  11.544  1.5236  0.2806 -0.3154
 6787SOL    HW231821   3.749   1.076  11.685 -0.2562  0.6661  0.0414
 6788SOL     OW31822   2.769   4.072   2.003 -0.3641 -0.5058 -0.2738
 6788SOL    HW131823   2.851   4.057   1.958 -0.4598 -3.3650  0.4384
 6788SOL    HW231824   2.757   4.166   2.018  0.8120  0.0782 -3.2153
 6789SOL     OW31825   4.369   0.066  13.516  0.8162  0.3132  0.2278
 6789SOL    HW131826   4.311   0.069  13.440  0.3982  0.5138  0.5510
 6789SOL    HW231827   4.425   0.139  13.492 -0.2592  0.7173 -1.0459
 6790SOL     OW31828   2.463   4.125   5.787 -0.1271 -0.4234 -0.1486
 6790SOL    HW131829   2.529   4.137   5.856 -0.7263 -0.7438  0.4760
 6790SOL    HW231830   2.510   4.156   5.709 -0.3995 -1.2481 -0.6340
 6791SOL     OW31831   2.254   2.598  11.974 -0.1872 -0.7336 -0.2006
 6791SOL    HW131832   2.197   2.529  11.941 -0.6482 -1.2066  1.5631
 6791SOL    HW231833   2.248   2.587  12.069 -1.4696 -0.7891 -0.2884
 6792SOL     OW31834   2.462   1.133   5.586 -0.6063 -0.3581 -0.0453
 6792SOL    HW131835   2.526   1.134   5.658 -2.0138  1.6946  1.1616
 6792SOL    HW231836   2.383   1.139   5.639  0.5148  0.3500  1.5634
 6793SOL     OW31837   1.699   1.362   7.258  0.2534  0.5885 -0.5980
 6793SOL    HW131838   1.713   1.309   7.180 -1.6842 -1.6689  0.5828
 6793SOL    HW231839   1.632   1.420   7.222 -0.2445  1.4724  1.7334
 6794SOL     OW31840   1.994   0.940   5.100  0.0590  0.5688  0.5429
 6794SOL    HW131841   2.041   0.877   5.154 -1.1384 -0.4728  0.3752
 6794SOL    HW231842   1.932   0.979   5.162  1.6309 -0.6124  2.8427
 6795SOL     OW31843   0.010   0.607   3.492  0.4102  0.1634 -0.3825
 6795SOL    HW131844   4.702   0.667   3.426  1.8394  0.1476 -1.1407
 6795SOL    HW231845   0.032   0.667   3.563 -0.6906  0.5923 -0.4155
 6796SOL     OW31846   1.649   1.221   3.582  0.5804  0.1832  0.2566
 6796SOL    HW131847   1.692   1.303   3.558  0.5328  0.3013  0.5742
 6796SOL    HW231848   1.679   1.165   3.511  0.0781  0.7001 -0.3615
 6797SOL     OW31849   2.049   0.142   8.579  0.3875  0.1922  0.2615
 6797SOL    HW131850   1.990   0.197   8.527 -2.1724 -0.1688  2.8109
 6797SOL    HW231851   2.107   0.117   8.506 -1.0781 -2.7744  0.1042
 6798SOL     OW31852   1.458   0.831  17.008  0.4822  0.3685  0.0383
 6798SOL    HW131853   1.396   0.800  16.942  1.2537  1.3692 -1.1536
 6798SOL    HW231854   1.493   0.911  16.969  0.8267  0.6475  0.9134
 6799SOL     OW31855   3.337   1.705  11.379  0.2578  0.1137  0.5070
 6799SOL    HW131856   3.407   1.693  11.444 -1.7608 -0.2095  2.6164
 6799SOL    HW231857   3.363   1.660  11.299 -0.1769 -0.9098  0.9445
 6800SOL     OW31858   2.636   4.180   2.315 -0.5920  0.4229  0.6084
 6800SOL    HW131859   2.698   4.114   2.284  0.3148  1.7577 -0.4141
 6800SOL    HW231860   2.618   4.227   2.234  1.4741 -0.0776 -0.1401
 6801SOL     OW31861   2.807   4.391   5.700  0.1605 -0.0506 -0.0322
 6801SOL    HW131862   2.789   4.484   5.715  2.4789  0.6401 -1.5453
 6801SOL    HW231863   2.715   4.364   5.702  0.2406 -0.3977 -1.1034
 6802SOL     OW31864   1.153   1.992  11.674  0.4263  0.1121 -0.0825
 6802SOL    HW131865   1.177   2.066  11.729  0.1741  1.6847 -2.0797
 6802SOL    HW231866   1.223   1.999  11.609 -0.6345  1.3139 -1.0985
 6803SOL     OW31867   1.596   1.842   5.886 -0.4702  0.2447 -0.6533
 6803SOL    HW131868   1.507   1.813   5.907 -0.2350 -0.6612 -0.9482
 6803SOL    HW231869   1.642   1.850   5.970 -3.0787  0.7609  0.7394
 6804SOL     OW31870   2.129   1.300   1.948 -0.3277 -0.4457  0.0760
 6804SOL    HW131871   2.180   1.381   1.940  2.1752 -1.9450  0.9700
 6804SOL    HW231872   2.171   1.231   1.998  0.8376  1.5991  1.9545
 6805SOL     OW31873   3.025   0.856   4.738  0.1517  0.1974  0.3356
 6805SOL    HW131874   2.976   0.914   4.796  1.0128  0.5192  0.7400
 6805SOL    HW231875   2.996   0.768   4.760  0.3884  0.1041  0.2778
 6806SOL     OW31876   0.107   3.084  16.905 -0.7162  0.1867 -0.5236
 6806SOL    HW131877   0.188   3.050  16.868  0.3268  0.9982  1.0284
 6806SOL    HW231878   0.143   3.099  16.992 -1.3754 -0.2971 -0.1724
 6807SOL     OW31879   2.018   0.048   7.766 -0.1504 -0.8507  0.1062
 6807SOL    HW131880   1.960   0.054   7.689  0.8638 -0.1057 -0.6048
 6807SOL    HW231881   2.100   0.076   7.725  0.3076 -1.2413  0.7636
 6808SOL     OW31882   4.511   4.450  12.323  0.0742 -0.3951  0.1580
 6808SOL    HW131883   4.504   4.373  12.378 -2.4560  0.3369  0.8566
 6808SOL    HW231884   4.488   4.409  12.240  0.0937 -1.4272  0.6674
 6809SOL     OW31885   0.845   3.834  11.171 -0.2390 -0.2863  0.0908
 6809SOL    HW131886   0.889   3.833  11.087 -0.8424 -0.6722 -0.2179
 6809SOL    HW231887   0.829   3.743  11.195 -0.6032 -0.0753  0.6647
 6810SOL     OW31888   0.553   2.185   8.033  0.1237 -0.5148 -0.1299
 6810SOL    HW131889   0.571   2.155   8.122 -3.4420  1.1958  1.1766
 6810SOL    HW231890   0.624   2.248   8.019 -0.0481  0.2585  2.4263
 6811SOL     OW31891   3.944   4.185   3.636 -0.0289  0.3588 -0.3269
 6811SOL    HW131892   4.007   4.254   3.655 -0.8214  0.8555  0.5477
 6811SOL    HW231893   3.996   4.106   3.646 -0.4106  0.1826  0.2695
 6812SOL     OW31894   3.070   1.346   7.981  0.2713  0.1555  0.5466
 6812SOL    HW131895   3.019   1.273   8.017 -0.4425 -0.4526 -1.7046
 6812SOL    HW231896   3.050   1.413   8.046 -1.3895  1.6994 -1.5570
 6813SOL     OW31897   0.518   1.986   7.518 -0.3218  0.3493 -0.1910
 6813SOL    HW131898   0.469   2.059   7.482 -2.4835 -2.8507 -3.7028
 6813SOL    HW231899   0.508   1.995   7.613  1.3329  1.5141 -0.1331
 6814SOL     OW31900   3.125   0.346   4.191 -0.1691  0.1221 -0.1597
 6814SOL    HW131901   3.114   0.440   4.179  1.6977  0.3172 -0.3737
 6814SOL    HW231902   3.060   0.330   4.259 -1.2618  0.9735 -1.0048
 6815SOL     OW31903   1.713   2.755   3.402  0.0124  0.3131  0.4870
 6815SOL    HW131904   1.656   2.714   3.337 -1.3172  2.5227  0.2644
 6815SOL    HW231905   1.793   2.702   3.403  1.1532  2.0630  1.3055
 6816SOL     OW31906   0.524   1.136   8.595  0.2830 -0.0974 -0.0910
 6816SOL    HW131907   0.544   1.068   8.531  1.0939  0.7228 -0.7168
 6816SOL    HW231908   0.512   1.080   8.672  0.5433 -1.7311 -1.2374
 6817SOL     OW31909   2.512   0.683  10.161 -0.0313 -0.0262 -0.0822
 6817SOL    HW131910   2.451   0.736  10.213  1.3929  0.5655  1.0027
 6817SOL    HW231911   2.499   0.725  10.076  1.3891 -0.3023 -0.4362
 6818SOL     OW31912   2.750   4.378  13.072  0.0853  0.3519 -0.4858
 6818SOL    HW131913   2.729   4.434  13.146 -1.2628 -0.6196 -0.1229
 6818SOL    HW231914   2.660   4.355  13.049 -0.0790 -0.0586  0.5833
 6819SOL     OW31915   0.751   1.716   6.754 -0.3061 -0.0817  0.2527
 6819SOL    HW131916   0.701   1.784   6.798 -0.9781 -0.7240  0.4801
 6819SOL    HW231917   0.792   1.667   6.825  1.0317  1.3397  0.4794
 6820SOL     OW31918   3.133   2.412   4.537 -0.2389 -0.6517 -0.4036
 6820SOL    HW131919   3.102   2.451   4.455  0.9002 -1.9570 -1.4622
 6820SOL    HW231920   3.229   2.411   4.531 -0.2483 -1.4823 -0.4189
 6821SOL     OW31921   0.764   2.324  11.542  0.2986 -0.2534  0.2926
 6821SOL    HW131922   0.750   2.296  11.633  1.4887 -1.6949  0.0269
 6821SOL    HW231923   0.700   2.394  11.527 -0.8173 -1.5810 -1.1477
 6822SOL     OW31924   2.910   2.321  10.470 -0.2722  0.1070 -0.5945
 6822SOL    HW131925   2.929   2.399  10.418 -1.5427 -0.2647 -1.6386
 6822SOL    HW231926   2.988   2.266  10.466  0.6615  1.3406  1.1772
 6823SOL     OW31927   3.017   0.334  17.101 -0.1001 -0.3472  0.2890
 6823SOL    HW131928   3.046   0.242  17.100  2.3913  0.4612 -0.6660
 6823SOL    HW231929   2.947   0.328  17.036 -1.1983  1.7473  1.2903
 6824SOL     OW31930   4.543   3.733  11.285 -0.4862  1.1115 -0.1231
 6824SOL    HW131931   4.489   3.808  11.310 -1.7679  0.3106 -0.4810
 6824SOL    HW231932   4.553   3.684  11.367  2.0033 -0.2702 -1.2702
 6825SOL     OW31933   0.468   1.562   1.720 -0.0313  0.4288  0.3176
 6825SOL    HW131934   0.391   1.617   1.704  1.2657  1.6287 -1.8258
 6825SOL    HW231935   0.521   1.621   1.773 -0.8279  1.2068  0.2424
 6826SOL     OW31936   3.418   0.298   8.951 -0.4902 -0.1674 -0.0248
 6826SOL    HW131937   3.378   0.383   8.930  1.1256  0.4355 -0.6816
 6826SOL    HW231938   3.422   0.267   8.861  1.6528  0.6163 -0.2087
 6827SOL     OW31939   4.505   4.009   1.729 -0.3421  0.4013 -0.0274
 6827SOL    HW131940   4.437   4.030   1.793  0.4874  0.5464  0.8013
 6827SOL    HW231941   4.549   4.094   1.719 -0.3057 -0.0743 -3.9598
 6828SOL     OW31942   4.006   2.161   9.121  0.0358  0.1174 -0.3545
 6828SOL    HW131943   4.015   2.140   9.028  0.9730  1.2241 -0.5053
 6828SOL    HW231944   3.927   2.214   9.112 -1.5208 -1.9297  1.0016
 6829SOL     OW31945   2.509   2.980   0.576  0.4387 -0.0276 -0.7729
 6829SOL    HW131946   2.505   2.884   0.577  2.1113 -0.0851 -0.0989
 6829SOL    HW231947   2.514   3.001   0.482  0.8525 -0.4474 -0.8459
 6830SOL     OW31948   4.444   0.607  17.689  1.0654 -0.3972  0.3311
 6830SOL    HW131949   4.453   0.520  17.650 -0.8273  0.1638 -1.3096
 6830SOL    HW231950   4.349   0.611  17.689  1.0840  0.0541  0.5612
 6831SOL     OW31951   1.765   2.276   8.949  0.2430  0.0354  0.5793
 6831SOL    HW131952   1.730   2.187   8.949  3.1668 -1.1000  0.1646
 6831SOL    HW231953   1.770   2.288   9.044  2.5306  0.2691  0.4364
 6832SOL     OW31954   1.360   2.145   7.728 -0.0001  0.2246 -0.0445
 6832SOL    HW131955   1.323   2.176   7.645  3.5438  1.8884 -0.9980
 6832SOL    HW231956   1.328   2.055   7.725  0.7083  0.0674 -2.4886
 6833SOL     OW31957   4.168   2.604   5.943 -0.5999  0.2439 -0.0469
 6833SOL    HW131958   4.150   2.524   5.893 -1.0609  0.5929 -0.4379
 6833SOL    HW231959   4.176   2.566   6.030  2.6172 -0.0818 -0.4971
 6834SOL     OW31960   1.912   0.548   2.801  0.1676  0.0609  0.2253
 6834SOL    HW131961   1.828   0.530   2.842 -1.3876  2.1021 -2.1350
 6834SOL    HW231962   1.868   0.573   2.720  2.2152  0.3767 -0.7982
 6835SOL     OW31963   0.976   3.675  12.341 -0.0365 -0.5306 -0.0177
 6835SOL    HW131964   0.914   3.603  12.347 -2.5618  1.5546 -0.8192
 6835SOL    HW231965   1.051   3.632  12.381  1.7549 -0.0982 -2.9662
 6836SOL     OW31966   1.594   0.733   7.015  0.0691 -0.5659 -0.4326
 6836SOL    HW131967   1.518   0.730   6.957 -0.3906  3.7011 -0.0430
 6836SOL    HW231968   1.587   0.820   7.055 -0.8495 -1.2232  0.8276
 6837SOL     OW31969   2.828   1.715   7.328  0.1609  0.2910  0.5161
 6837SOL    HW131970   2.901   1.716   7.266  0.5074  0.8993  0.9439
 6837SOL    HW231971   2.874   1.720   7.412  0.9540 -0.7132  0.1475
 6838SOL     OW31972   2.959   0.001  10.577  0.0785  0.5171 -0.2931
 6838SOL    HW131973   2.996   0.008  10.489 -0.3839 -1.1382 -0.6036
 6838SOL    HW231974   2.890   4.664  10.560  1.1353 -0.6424 -0.2724
 6839SOL     OW31975   2.775   4.107   6.712 -0.0096 -0.0530 -0.5495
 6839SOL    HW131976   2.864   4.118   6.678  0.5728  1.0967  1.3681
 6839SOL    HW231977   2.737   4.186   6.674  0.0847 -0.2106 -0.9747
 6840SOL     OW31978   3.941   3.685   5.556 -0.1564 -0.9579  0.4094
 6840SOL    HW131979   3.948   3.693   5.651 -0.0399  1.9396  0.1487
 6840SOL    HW231980   3.995   3.606   5.548  2.7573  1.0851 -0.1747
 6841SOL     OW31981   0.649   2.646   2.940  0.7784 -0.1232  0.4857
 6841SOL    HW131982   0.573   2.633   2.883  1.2824  2.6830 -0.8116
 6841SOL    HW231983   0.632   2.733   2.978  0.1777  0.6231 -1.5049
 6842SOL     OW31984   1.784   0.828   8.401  0.2791  0.2875 -0.4881
 6842SOL    HW131985   1.873   0.845   8.369  0.5537  0.7212  0.5022
 6842SOL    HW231986   1.799   0.773   8.478 -0.2875  0.5977 -0.1597
 6843SOL     OW31987   2.768   2.811   3.279  0.1109  0.4028 -0.1350
 6843SOL    HW131988   2.728   2.768   3.203  0.4325 -0.1838  0.0226
 6843SOL    HW231989   2.859   2.805   3.251  0.2301  0.6070  0.2064
 6844SOL     OW31990   3.967   4.394   7.050  0.4848 -0.0254 -0.0742
 6844SOL    HW131991   3.990   4.315   7.002 -1.9849 -0.4693 -0.5359
 6844SOL    HW231992   3.872   4.395   7.037  0.8750  0.2094 -2.7620
 6845SOL     OW31993   3.756   0.611   2.463  0.2530 -0.5423 -0.5752
 6845SOL    HW131994   3.768   0.579   2.374  3.5026  0.0695 -0.3478
 6845SOL    HW231995   3.736   0.704   2.451 -0.9799 -0.5686  1.3511
 6846SOL     OW31996   4.047   4.433   5.224  0.3227 -0.1384  0.5969
 6846SOL    HW131997   3.983   4.504   5.229  1.0928  0.6124 -0.1387
 6846SOL    HW231998   4.008   4.379   5.156  2.2278 -0.3677 -0.3097
 6847SOL     OW31999   0.423   2.110   6.964 -0.4018  0.1627  0.3283
 6847SOL    HW132000   0.412   2.186   6.907 -0.8973 -0.0372  0.1583
 6847SOL    HW232001   0.338   2.108   7.007 -1.2195  0.9448 -1.2196
 6848SOL     OW32002   4.392   0.435   7.002  0.2719 -0.2672 -0.1488
 6848SOL    HW132003   4.449   0.452   7.077 -0.9015  1.4345  0.3656
 6848SOL    HW232004   4.332   0.381   7.052 -1.6935  0.7514 -1.4237
 6849SOL     OW32005   0.500   0.746   6.432  0.1659  0.5983  0.3071
 6849SOL    HW132006   0.508   0.720   6.340 -1.0989  1.3100 -0.0163
 6849SOL    HW232007   0.561   0.820   6.435 -1.3651  1.8692  0.2874
 6850SOL     OW32008   3.658   4.233   8.854  0.2578 -0.1348 -0.1934
 6850SOL    HW132009   3.679   4.208   8.764  0.1214  1.7407 -0.7428
 6850SOL    HW232010   3.748   4.230   8.887 -0.4390 -1.0838  1.6665
 6851SOL     OW32011   3.696   2.078  11.307 -0.0380  0.1426  0.2406
 6851SOL    HW132012   3.666   2.139  11.374  0.3765  0.4870  0.1124
 6851SOL    HW232013   3.630   2.097  11.240  0.3247 -3.1831 -1.0194
 6852SOL     OW32014   2.441   2.973   4.913  0.4744  0.5832 -0.2344
 6852SOL    HW132015   2.497   2.900   4.887  2.6914  1.3226  2.4264
 6852SOL    HW232016   2.507   3.041   4.898  0.0895  1.1299  0.5200
 6853SOL     OW32017   4.051   3.441   5.521 -0.8350  0.3365  0.6461
 6853SOL    HW132018   4.084   3.437   5.431 -1.5001  0.4388  0.3957
 6853SOL    HW232019   3.960   3.413   5.508 -0.2704 -1.6860  0.9567
 6854SOL     OW32020   2.778   0.945   3.434 -0.0193  0.4549  0.0699
 6854SOL    HW132021   2.809   0.904   3.353  1.3487 -1.6548  1.6752
 6854SOL    HW232022   2.691   0.974   3.407  0.8010  3.7336  0.9269
 6855SOL     OW32023   0.250   0.974   6.217 -0.3218 -0.0059  0.7497
 6855SOL    HW132024   0.166   0.969   6.171 -0.3022  1.6077  0.5609
 6855SOL    HW232025   0.303   1.007   6.144  0.3257  1.1657  1.7507
 6856SOL     OW32026   2.743   2.421  10.663 -0.1360  0.0066 -0.1350
 6856SOL    HW132027   2.794   2.363  10.607  1.2132 -1.3625  2.4591
 6856SOL    HW232028   2.734   2.488  10.595 -2.4252  0.4693  0.6247
 6857SOL     OW32029   0.277   2.617   4.512 -0.2035 -0.3641 -0.0821
 6857SOL    HW132030   0.296   2.526   4.532 -1.9200 -0.3584  1.6055
 6857SOL    HW232031   0.335   2.636   4.438 -1.5177  2.0046 -0.5153
 6858SOL     OW32032   4.324   1.016   4.768  0.7425  0.8225  0.0025
 6858SOL    HW132033   4.308   1.004   4.674  1.4837 -0.9560  0.1055
 6858SOL    HW232034   4.356   1.106   4.763  0.3671  0.9174 -0.7840
 6859SOL     OW32035   3.468   0.742  12.966  0.2939 -0.8337  0.2962
 6859SOL    HW132036   3.560   0.767  12.979 -0.2409  1.2702  0.1379
 6859SOL    HW232037   3.436   0.820  12.921  1.2000 -1.2630 -1.0661
 6860SOL     OW32038   1.973   4.388  10.112  0.2346  0.2794 -0.0937
 6860SOL    HW132039   1.886   4.416  10.143 -0.3812  0.1909 -1.7494
 6860SOL    HW232040   1.942   4.326  10.046 -0.1771  0.4971 -0.1075
 6861SOL     OW32041   3.599   3.262   9.132 -0.3516 -0.0860  0.0915
 6861SOL    HW132042   3.682   3.219   9.153 -0.6656 -0.8124 -0.1433
 6861SOL    HW232043   3.576   3.294   9.219 -0.6969  1.6961 -0.6554
 6862SOL     OW32044   4.331   4.654  10.438  0.6261  0.0787  0.0917
 6862SOL    HW132045   4.269   4.698  10.496  0.4613 -1.6666  1.2471
 6862SOL    HW232046   4.377   4.594  10.497 -2.0903 -0.5697  1.5840
 6863SOL     OW32047   0.451   1.608   8.557 -0.3632 -0.2073 -0.0350
 6863SOL    HW132048   0.374   1.595   8.501 -0.3366  0.2479 -0.1786
 6863SOL    HW232049   0.503   1.656   8.492 -0.9816  0.0453 -0.3445
 6864SOL     OW32050   0.230   2.893  15.214 -0.0758  0.2343 -0.2133
 6864SOL    HW132051   0.232   2.848  15.298 -1.1175  0.2288 -0.1937
 6864SOL    HW232052   0.314   2.938  15.222 -0.3395  0.6704  0.1063
 6865SOL     OW32053   1.699   0.488   5.741 -0.7166  0.1845  0.1350
 6865SOL    HW132054   1.776   0.433   5.731  0.5067  2.3250 -2.1293
 6865SOL    HW232055   1.723   0.529   5.824 -1.4974  1.3726 -0.2324
 6866SOL     OW32056   3.980   2.762   0.790 -0.2935  0.1051 -0.1723
 6866SOL    HW132057   4.060   2.720   0.821 -1.0168  0.1929  1.7981
 6866SOL    HW232058   3.994   2.844   0.838 -0.6621  1.0888 -1.7413
 6867SOL     OW32059   3.922   3.316   4.060  0.4656 -0.1299 -0.5709
 6867SOL    HW132060   4.005   3.289   4.100  0.0978  0.7852  0.8145
 6867SOL    HW232061   3.949   3.399   4.023 -1.5802  0.5476 -0.5032
 6868SOL     OW32062   2.491   0.890  14.458 -0.3901 -0.6065  0.5718
 6868SOL    HW132063   2.572   0.918  14.500  0.6909 -2.1408 -0.4671
 6868SOL    HW232064   2.427   0.917  14.523 -0.7083 -0.6948  0.2964
 6869SOL     OW32065   1.461   0.030   9.016 -0.3770  0.2586  0.0869
 6869SOL    HW132066   1.383   0.037   9.072 -0.0311  0.3227  0.5646
 6869SOL    HW232067   1.416   4.709   8.947  0.6571 -0.4039 -0.1285
 6870SOL     OW32068   1.048   4.523   0.699 -0.4864  0.6007  0.8540
 6870SOL    HW132069   0.993   4.578   0.754 -1.5276 -1.1614  1.5887
 6870SOL    HW232070   1.129   4.573   0.694 -0.6569  0.4195 -3.8499
 6871SOL     OW32071   1.167   1.139  11.388  0.1513 -0.5278  0.4787
 6871SOL    HW132072   1.178   1.234  11.388  1.2877 -0.6635 -0.2313
 6871SOL    HW232073   1.163   1.122  11.483 -0.0786  0.4031  0.6356
 6872SOL     OW32074   0.562   2.221  11.280 -0.2830  0.0961  0.2318
 6872SOL    HW132075   0.488   2.266  11.321 -0.2420 -1.3117  1.8489
 6872SOL    HW232076   0.546   2.131  11.307 -0.6850 -0.1485 -0.8242
 6873SOL     OW32077   3.583   0.694   9.889 -0.0464  0.4145  0.1885
 6873SOL    HW132078   3.616   0.656   9.808  2.4516 -0.5975  1.6651
 6873SOL    HW232079   3.652   0.758   9.906  1.5279 -0.6941 -2.0581
 6874SOL     OW32080   3.317   3.784   8.117 -0.0232  0.2623 -0.0873
 6874SOL    HW132081   3.308   3.788   8.212  4.0723 -1.0138  0.3365
 6874SOL    HW232082   3.399   3.832   8.105  0.4558 -0.0991  1.7608
 6875SOL     OW32083   0.011   1.750   3.231  0.1254  0.3230 -0.3437
 6875SOL    HW132084   4.709   1.797   3.152 -1.2710 -0.5235 -0.3481
 6875SOL    HW232085   4.714   1.659   3.209 -0.3593  0.5116 -0.5904
 6876SOL     OW32086   1.598   1.027   8.867  0.0824  0.2732  0.7715
 6876SOL    HW132087   1.568   1.081   8.940  0.3261  2.3770 -0.6820
 6876SOL    HW232088   1.620   0.943   8.907  3.6281  0.8212 -0.0260
 6877SOL     OW32089   3.107   3.508   2.212  0.3128  0.7436 -0.3054
 6877SOL    HW132090   3.136   3.436   2.157 -2.6487 -1.3430  0.8820
 6877SOL    HW232091   3.179   3.528   2.271 -0.9586  2.6487  0.6030
 6878SOL     OW32092   2.268   1.170  17.228 -0.4117 -0.0901 -0.5991
 6878SOL    HW132093   2.301   1.247  17.181  1.1909 -0.2200  0.3420
 6878SOL    HW232094   2.243   1.113  17.155  2.8815 -1.7168 -0.4485
 6879SOL     OW32095   0.826   1.990   8.197 -0.4100 -0.1449  0.0195
 6879SOL    HW132096   0.907   1.948   8.223 -0.9232 -0.6706  0.7642
 6879SOL    HW232097   0.852   2.027   8.113  3.2725 -1.6168  0.5123
 6880SOL     OW32098   1.799   1.831   8.117 -0.1163  1.0072 -0.2593
 6880SOL    HW132099   1.796   1.779   8.036 -0.0286  1.8932 -0.8366
 6880SOL    HW232100   1.810   1.762   8.181 -1.4207 -0.4510 -1.6040
 6881SOL     OW32101   3.649   0.563   0.511 -0.1688 -0.3369  0.4289
 6881SOL    HW132102   3.691   0.583   0.428 -1.4438 -0.4750 -0.2461
 6881SOL    HW232103   3.649   0.468   0.512 -0.2821 -0.3748 -2.5939
 6882SOL     OW32104   1.011   0.509  13.590 -0.5955 -0.0505  0.5144
 6882SOL    HW132105   0.968   0.429  13.621  0.7561 -0.2963  1.6991
 6882SOL    HW232106   0.951   0.576  13.623 -1.8769 -1.3475  0.8469
 6883SOL     OW32107   1.536   2.611   8.404  0.1202  0.8437 -0.0511
 6883SOL    HW132108   1.449   2.611   8.443 -0.1335 -0.6755 -0.5941
 6883SOL    HW232109   1.558   2.520   8.427 -0.2545  0.7006 -0.2494
 6884SOL     OW32110   1.559   2.576   6.120  0.1107 -0.2418 -0.4359
 6884SOL    HW132111   1.542   2.632   6.196 -0.1277 -0.3394 -0.4167
 6884SOL    HW232112   1.626   2.517   6.156  0.4235 -1.0604 -2.3396
 6885SOL     OW32113   1.277   1.315  14.552  0.5418 -0.1711  0.2938
 6885SOL    HW132114   1.354   1.301  14.496 -0.0238  1.1132 -0.8138
 6885SOL    HW232115   1.297   1.398  14.595  0.1521 -0.8833  1.8426
 6886SOL     OW32116   3.368   0.245   6.875 -0.2897  0.0288  0.2252
 6886SOL    HW132117   3.297   0.217   6.932  0.8315  0.8582  2.0129
 6886SOL    HW232118   3.318   0.291   6.807  0.2373 -0.4789 -0.5063
 6887SOL     OW32119   2.109   1.817   0.198  0.1645  0.2374  0.2707
 6887SOL    HW132120   2.151   1.747   0.149 -0.8224 -0.2776  0.1606
 6887SOL    HW232121   2.037   1.773   0.242 -1.0914  0.2619 -1.7439
 6888SOL     OW32122   0.116   3.974   9.137  0.4251  0.2500 -0.9336
 6888SOL    HW132123   0.060   3.898   9.154  1.0442 -0.0093 -0.0562
 6888SOL    HW232124   0.087   4.040   9.201 -0.5141  1.0064 -2.1151
 6889SOL     OW32125   0.864   2.108   9.354  0.1836  0.1448  0.1091
 6889SOL    HW132126   0.794   2.171   9.340  1.2350  0.7281 -2.5062
 6889SOL    HW232127   0.853   2.090   9.448  1.7013  0.9791  0.4552
 6890SOL     OW32128   0.876   4.357  11.804  0.5548 -0.0871 -0.0163
 6890SOL    HW132129   0.933   4.294  11.760  1.4847  1.1219 -0.5311
 6890SOL    HW232130   0.875   4.328  11.895  0.0333 -0.2186 -0.0676
 6891SOL     OW32131   1.294   3.065   5.053 -0.0069  0.1464 -0.1464
 6891SOL    HW132132   1.313   3.128   5.122  1.3884 -0.1974 -0.1957
 6891SOL    HW232133   1.200   3.070   5.039  0.1355  0.0123 -1.1897
 6892SOL     OW32134   2.385   0.685   4.041 -0.3773  0.3203 -0.3078
 6892SOL    HW132135   2.446   0.612   4.056  0.7567  1.0890 -1.2030
 6892SOL    HW232136   2.319   0.646   3.984 -1.7320  2.5676 -0.2669
 6893SOL     OW32137   2.441   4.297   6.318  0.4840 -0.3379 -0.0443
 6893SOL    HW132138   2.385   4.325   6.390 -0.1936 -1.2979 -0.1969
 6893SOL    HW232139   2.500   4.238   6.366  0.1995 -0.1580  0.5185
 6894SOL     OW32140   1.776   1.045   1.484  0.0267 -0.3714  0.1096
 6894SOL    HW132141   1.736   0.959   1.493  0.2579 -0.5819 -0.8634
 6894SOL    HW232142   1.847   1.048   1.548  1.2097 -3.1195 -1.0737
 6895SOL     OW32143   2.005   0.770  15.517 -0.1471  0.0749  0.0383
 6895SOL    HW132144   1.987   0.712  15.443 -0.5875 -0.8009  0.8366
 6895SOL    HW232145   1.977   0.710  15.586  0.3651 -1.0961 -0.7511
 6896SOL     OW32146   1.022   3.913   8.497 -0.3817 -0.6562 -0.0483
 6896SOL    HW132147   0.979   3.874   8.574 -0.2539 -1.7194 -0.5134
 6896SOL    HW232148   1.109   3.942   8.522  0.0014 -1.9920  0.1808
 6897SOL     OW32149   4.139   0.546  16.596 -0.5098 -0.1683 -0.0068
 6897SOL    HW132150   4.069   0.492  16.631  0.8855 -0.5380  2.2148
 6897SOL    HW232151   4.085   0.591  16.531 -1.7790 -0.2906  0.9667
 6898SOL     OW32152   3.230   0.171   7.084 -0.4187 -0.6420  0.5634
 6898SOL    HW132153   3.246   0.231   7.156  1.7847  0.2747 -0.6696
 6898SOL    HW232154   3.297   0.104   7.100 -0.4778 -1.4511 -2.5817
 6899SOL     OW32155   4.505   1.735   5.684  0.4600  0.2569  0.1324
 6899SOL    HW132156   4.566   1.680   5.732  0.6192 -0.6239 -1.1041
 6899SOL    HW232157   4.501   1.703   5.594 -0.6477 -2.5370  1.1742
 6900SOL     OW32158   1.592   4.572   9.300 -0.4497 -0.1091  0.0567
 6900SOL    HW132159   1.628   4.631   9.366 -0.6103  0.0402  0.0120
 6900SOL    HW232160   1.641   4.597   9.222  0.9938 -2.1356  0.3281
 6901SOL     OW32161   4.176   2.958   1.217 -0.0960 -0.3890 -1.0263
 6901SOL    HW132162   4.251   3.009   1.247 -0.9287  1.5579 -2.2490
 6901SOL    HW232163   4.164   2.890   1.284 -0.6565  1.9395  1.2429
 6902SOL     OW32164   4.069   4.033   7.678 -0.1277  0.6628  0.1122
 6902SOL    HW132165   4.072   3.981   7.598  1.3674  0.0361  0.5650
 6902SOL    HW232166   4.148   4.082   7.656 -0.2525  1.2558  1.0017
 6903SOL     OW32167   2.477   2.065   6.525 -0.3636  0.7654  0.0264
 6903SOL    HW132168   2.419   2.140   6.542  0.1245  1.5424 -1.7469
 6903SOL    HW232169   2.551   2.109   6.483  0.0342  1.1353  1.1330
 6904SOL     OW32170   1.484   3.637   5.046  0.5337 -0.0346  0.6176
 6904SOL    HW132171   1.406   3.598   5.088  1.2702 -1.6097  0.5270
 6904SOL    HW232172   1.479   3.732   5.057  0.9765  0.3868 -2.8228
 6905SOL     OW32173   0.721   2.604  16.490  0.2914  0.0276  0.8645
 6905SOL    HW132174   0.627   2.604  16.470 -0.0731  1.2602  2.6480
 6905SOL    HW232175   0.754   2.630  16.404  0.7963  2.1070  1.7026
 6906SOL     OW32176   1.475   1.316   3.265  0.0400  0.2826  0.2044
 6906SOL    HW132177   1.565   1.284   3.275  0.6399  2.4396  1.8431
 6906SOL    HW232178   1.489   1.376   3.191 -0.5592  1.5495  1.1161
 6907SOL     OW32179   3.234   4.062  12.505 -0.0129 -0.2141 -0.0453
 6907SOL    HW132180   3.203   4.087  12.592  1.9643  0.0991  0.5789
 6907SOL    HW232181   3.235   4.142  12.452 -1.8549 -0.2564 -0.1347
 6908SOL     OW32182   0.609   2.281   5.285  0.2072  0.1258 -0.2269
 6908SOL    HW132183   0.682   2.220   5.274 -0.8539 -1.3915  1.0065
 6908SOL    HW232184   0.554   2.233   5.347  2.1100  2.8281  3.5794
 6909SOL     OW32185   4.463   4.120   0.718 -0.3434  0.1618  0.1162
 6909SOL    HW132186   4.490   4.204   0.755  1.0100 -0.7078  1.1022
 6909SOL    HW232187   4.512   4.053   0.765 -1.3271 -1.1939 -0.7970
 6910SOL     OW32188   3.357   2.774   5.088 -0.4801  0.4758 -0.0820
 6910SOL    HW132189   3.387   2.859   5.121 -0.3719  0.4992 -0.2398
 6910SOL    HW232190   3.278   2.803   5.042  1.2541  2.0617 -2.0789
 6911SOL     OW32191   1.280   3.099   6.594  0.1645 -0.4743 -0.0355
 6911SOL    HW132192   1.263   3.078   6.686  1.3877 -0.0341  0.2897
 6911SOL    HW232193   1.310   3.012   6.567  1.6563  0.3982 -1.1702
 6912SOL     OW32194   1.135   1.063  15.780 -0.2877  0.6450  0.2199
 6912SOL    HW132195   1.229   1.079  15.791  0.1636  0.3133 -2.9709
 6912SOL    HW232196   1.146   0.967  15.777 -5.2025  0.1778 -2.4951
 6913SOL     OW32197   4.167   0.306   9.681  0.3058 -0.7013 -0.5969
 6913SOL    HW132198   4.141   0.286   9.771 -1.9595 -0.1963 -1.1479
 6913SOL    HW232199   4.258   0.330   9.701 -0.6829  1.4775  1.3663
 6914SOL     OW32200   0.395   4.041   7.184 -0.3328  0.0448  0.5136
 6914SOL    HW132201   0.455   3.970   7.159  4.0167  3.4116  1.4835
 6914SOL    HW232202   0.382   4.024   7.277 -2.2305  1.3554  0.4747
 6915SOL     OW32203   0.979   3.248   7.070  0.1375  0.0306  0.6091
 6915SOL    HW132204   1.074   3.241   7.078  0.2007  1.8904  1.6378
 6915SOL    HW232205   0.972   3.309   7.144  1.7106 -0.0720  0.8442
 6916SOL     OW32206   1.075   1.138   8.622  0.2129 -0.0071 -0.2119
 6916SOL    HW132207   0.979   1.143   8.622  0.1197 -1.8073 -2.4185
 6916SOL    HW232208   1.087   1.183   8.706  1.3740  2.0875 -1.5071
 6917SOL     OW32209   4.515   1.208   9.944  0.1114 -0.2468  0.3087
 6917SOL    HW132210   4.527   1.113   9.931  1.4129 -0.0558  0.0800
 6917SOL    HW232211   4.573   1.221  10.019  0.1001  1.8092 -0.0512
 6918SOL     OW32212   2.992   4.373   2.792  0.0205  0.3724  0.1364
 6918SOL    HW132213   2.983   4.419   2.876  0.6104  0.6429  0.0510
 6918SOL    HW232214   3.085   4.352   2.787  0.0626  0.6182 -0.1368
 6919SOL     OW32215   4.383   3.302   8.267  0.3171  0.0838 -0.1642
 6919SOL    HW132216   4.420   3.285   8.181  3.2323  1.8432  0.7245
 6919SOL    HW232217   4.461   3.345   8.301 -0.7429  0.9019  1.2703
 6920SOL     OW32218   3.963   3.778   6.112  0.3707  0.0868 -0.5140
 6920SOL    HW132219   3.961   3.783   6.017  1.3760  2.0588 -0.4363
 6920SOL    HW232220   3.872   3.807   6.120  0.3817 -0.6274  2.0730
 6921SOL     OW32221   1.392   1.607  11.771 -0.2119 -0.1172  0.5723
 6921SOL    HW132222   1.475   1.566  11.795  0.5020 -0.2890 -2.2044
 6921SOL    HW232223   1.414   1.697  11.746 -0.3022 -0.8029 -1.9253
 6922SOL     OW32224   0.822   0.178   5.420  0.2237 -0.3044 -0.4030
 6922SOL    HW132225   0.750   0.194   5.359 -0.0266 -0.0168 -0.0330
 6922SOL    HW232226   0.802   0.087   5.443 -0.9507 -0.1354 -0.7438
 6923SOL     OW32227   4.481   4.397   5.762 -0.5851 -0.3897  0.2054
 6923SOL    HW132228   4.548   4.450   5.804  0.9467 -0.6742 -1.8673
 6923SOL    HW232229   4.443   4.465   5.708 -0.4738 -2.2362 -2.1958
 6924SOL     OW32230   4.197   2.824  12.114 -0.2942 -0.2565  0.5154
 6924SOL    HW132231   4.253   2.856  12.043 -1.5679 -0.3678 -0.5360
 6924SOL    HW232232   4.242   2.741  12.134 -0.8734 -0.6589  0.1525
 6925SOL     OW32233   2.204   0.268   5.797  0.3407 -0.1003  0.1801
 6925SOL    HW132234   2.194   0.229   5.884  1.6791  0.8133  0.7529
 6925SOL    HW232235   2.216   0.191   5.742  0.8704  1.3475 -1.7561
 6926SOL     OW32236   2.356   0.518  16.424 -0.1842 -0.0762 -0.5504
 6926SOL    HW132237   2.343   0.457  16.496  1.3674 -1.2454 -1.2578
 6926SOL    HW232238   2.392   0.595  16.468  1.0107  0.2157 -2.0338
 6927SOL     OW32239   0.218   2.207  10.331 -0.0356  0.0500 -0.3794
 6927SOL    HW132240   0.208   2.183  10.424 -0.4768  0.8987 -0.2036
 6927SOL    HW232241   0.163   2.285  10.320  0.1321  0.2951  0.4873
 6928SOL     OW32242   3.924   3.235   5.041 -0.0571 -0.2740  0.0583
 6928SOL    HW132243   3.840   3.195   5.020  0.3421 -0.0932 -1.9271
 6928SOL    HW232244   3.931   3.323   5.004 -0.7557 -0.4429 -0.4792
 6929SOL     OW32245   2.110   1.370   9.260 -0.1906 -0.5845 -0.8131
 6929SOL    HW132246   2.179   1.373   9.326 -0.6282  0.3565 -0.4008
 6929SOL    HW232247   2.035   1.394   9.315  0.0015  0.7580 -1.1369
 6930SOL     OW32248   2.137   0.889   3.900 -0.6239  0.8729 -0.5463
 6930SOL    HW132249   2.220   0.928   3.930 -0.1455  0.9132 -1.9058
 6930SOL    HW232250   2.140   0.911   3.807  2.0438 -0.4009 -0.7727
 6931SOL     OW32251   2.596   1.356   2.751  0.4896 -0.3019  0.4286
 6931SOL    HW132252   2.622   1.434   2.702  0.2946 -0.6345 -0.2045
 6931SOL    HW232253   2.673   1.358   2.807  2.2259  0.6693 -2.0147
 6932SOL     OW32254   1.085   3.057   3.641 -0.6026  0.5996 -0.0353
 6932SOL    HW132255   0.998   3.026   3.664 -0.2688 -1.3387 -1.3294
 6932SOL    HW232256   1.109   2.991   3.576 -0.2993  0.3798  0.2966
 6933SOL     OW32257   1.090   2.999  15.622 -0.1044 -0.9001 -0.6741
 6933SOL    HW132258   1.075   2.915  15.667  0.4778  0.0931  1.3453
 6933SOL    HW232259   1.169   2.981  15.571  0.8723  2.7556 -0.3900
 6934SOL     OW32260   1.175   0.675  14.776 -0.2241 -0.1300  0.7395
 6934SOL    HW132261   1.124   0.688  14.697 -0.9681 -0.6939  1.1281
 6934SOL    HW232262   1.168   0.581  14.791  0.0656 -0.0843  1.1694
 6935SOL     OW32263   4.365   2.042   7.321 -0.0105 -0.4493  0.3709
 6935SOL    HW132264   4.418   2.115   7.354  0.8496 -0.5210 -0.8835
 6935SOL    HW232265   4.382   1.966   7.376  2.4990  2.3585  3.5032
 6936SOL     OW32266   0.069   4.262   9.019  0.7205 -0.5042 -0.0884
 6936SOL    HW132267   0.087   4.222   9.104 -1.3003 -0.2646  0.4492
 6936SOL    HW232268   0.053   4.181   8.971  2.1136 -0.9688  0.2274
 6937SOL     OW32269   3.787   1.943  16.765 -0.3237 -0.1933  0.3187
 6937SOL    HW132270   3.872   1.987  16.757 -0.4291 -0.6204 -2.9801
 6937SOL    HW232271   3.768   1.912  16.677 -1.5332 -1.1048  0.8964
 6938SOL     OW32272   0.126   3.688   5.883 -0.1143  0.4453 -0.1638
 6938SOL    HW132273   0.198   3.741   5.851  0.8199  0.1498  1.4606
 6938SOL    HW232274   0.174   3.629   5.942 -2.1290 -0.9490  0.1136
 6939SOL     OW32275   3.918   2.288   6.986  0.0716 -0.4058 -0.7806
 6939SOL    HW132276   3.831   2.270   7.021  0.1402  2.2472  0.7426
 6939SOL    HW232277   3.915   2.237   6.905  0.3245  0.1407 -1.1386
 6940SOL     OW32278   2.127   4.245  12.877  0.3226 -0.1754 -1.0030
 6940SOL    HW132279   2.095   4.241  12.787  0.0807  1.7167 -1.0038
 6940SOL    HW232280   2.198   4.181  12.866 -0.3455 -1.0825 -0.0955
 6941SOL     OW32281   2.703   1.784   8.567 -0.4001 -0.7269 -0.2019
 6941SOL    HW132282   2.790   1.760   8.534  0.0000 -0.5569  0.7348
 6941SOL    HW232283   2.687   1.867   8.522  1.8032  0.1382  0.5853
 6942SOL     OW32284   2.993   3.738   1.733  0.3403  0.2337  0.7848
 6942SOL    HW132285   3.018   3.654   1.694 -2.1026 -0.0233 -0.1983
 6942SOL    HW232286   2.950   3.781   1.659 -1.9681 -0.7195  1.5702
 6943SOL     OW32287   0.774   2.102   9.637  0.3049 -0.2158  0.4132
 6943SOL    HW132288   0.829   2.111   9.715  0.9686 -1.0575  0.0545
 6943SOL    HW232289   0.717   2.179   9.632  0.0515 -0.3527  1.2655
 6944SOL     OW32290   1.072   3.754   2.561 -0.0126 -0.4257 -0.4425
 6944SOL    HW132291   1.007   3.823   2.572  0.6905 -0.0428  1.4085
 6944SOL    HW232292   1.140   3.777   2.626 -0.8314  1.5661 -0.2866
 6945SOL     OW32293   4.383   0.407   6.253  0.9477 -0.4221 -0.5776
 6945SOL    HW132294   4.464   0.372   6.216  0.8691 -1.0754 -0.1299
 6945SOL    HW232295   4.322   0.341   6.221  0.8391 -0.2518 -0.7271
 6946SOL     OW32296   2.482   2.140   2.923  0.1226 -0.3163 -0.2688
 6946SOL    HW132297   2.503   2.214   2.980  0.5587  1.9055 -3.3291
 6946SOL    HW232298   2.511   2.061   2.969 -0.6634 -0.1432  0.5320
 6947SOL     OW32299   0.522   1.895   7.255  0.3740  0.0389 -0.3283
 6947SOL    HW132300   0.595   1.923   7.200  1.2907 -3.0599 -0.6922
 6947SOL    HW232301   0.554   1.932   7.337 -0.5597  0.2635 -0.0570
 6948SOL     OW32302   1.020   0.185   2.741  0.0901 -0.3760  0.5577
 6948SOL    HW132303   0.968   0.122   2.691  0.7865  1.2359 -2.1530
 6948SOL    HW232304   1.103   0.142   2.721 -0.0804 -0.5080  0.1262
 6949SOL     OW32305   0.569   1.520   9.128  0.4702 -0.4409  0.0642
 6949SOL    HW132306   0.616   1.458   9.184  1.3004  0.7729  0.7094
 6949SOL    HW232307   0.480   1.489   9.144  0.6139 -0.7032  0.3483
 6950SOL     OW32308   1.360   1.584  16.907 -0.0370  0.0862 -0.3994
 6950SOL    HW132309   1.285   1.629  16.946  0.8762  1.1652  0.1135
 6950SOL    HW232310   1.355   1.601  16.813 -2.6098  0.7434 -0.1320
 6951SOL     OW32311   3.957   2.805   4.212  0.1214 -0.0862 -0.2364
 6951SOL    HW132312   3.884   2.745   4.198  1.3785 -1.1427 -2.3496
 6951SOL    HW232313   3.932   2.889   4.173  2.2295 -0.4638 -2.4265
 6952SOL     OW32314   1.917   2.695  12.781  0.0092 -0.4920  0.0358
 6952SOL    HW132315   1.963   2.755  12.841 -2.0470 -0.4589  1.5933
 6952SOL    HW232316   1.986   2.682  12.717 -0.2506  1.8152 -0.7096
 6953SOL     OW32317   3.938   2.663  14.346  0.2415 -0.0689 -0.1673
 6953SOL    HW132318   3.888   2.600  14.398  0.4119 -0.3490 -0.3415
 6953SOL    HW232319   3.965   2.733  14.406  0.1890 -0.0802 -0.1314
 6954SOL     OW32320   0.010   4.115  16.564  0.2885 -0.7976 -0.0981
 6954SOL    HW132321   4.723   4.073  16.479  1.2137  0.1635 -0.7137
 6954SOL    HW232322   4.649   4.151  16.581  1.6868  0.5311  4.2840
 6955SOL     OW32323   1.647   4.221   5.709 -0.0778 -0.0113 -0.1629
 6955SOL    HW132324   1.639   4.126   5.708  0.9602 -0.1284  2.0319
 6955SOL    HW232325   1.634   4.236   5.616  2.5391  0.4765 -0.4492
 6956SOL     OW32326   1.830   2.600   2.178 -0.0842  0.7366  0.0126
 6956SOL    HW132327   1.786   2.517   2.198  1.6257 -0.7802 -2.4415
 6956SOL    HW232328   1.764   2.668   2.193  0.2156  0.8193  0.9534
 6957SOL     OW32329   2.003   1.007  12.095  0.4107 -0.2688  0.4141
 6957SOL    HW132330   2.027   1.080  12.152 -0.4206 -0.2771  0.7740
 6957SOL    HW232331   1.943   1.066  12.049  1.5825  0.6497  0.0465
 6958SOL     OW32332   0.426   3.295   6.118  0.5955  0.3328  0.3714
 6958SOL    HW132333   0.466   3.241   6.049  0.9220 -1.5105  1.9946
 6958SOL    HW232334   0.485   3.301   6.193 -0.2573  0.0410  1.0610
 6959SOL     OW32335   2.428   0.772   5.881  0.4500  0.1791 -0.5688
 6959SOL    HW132336   2.436   0.694   5.826 -0.2195  0.2816 -0.8048
 6959SOL    HW232337   2.443   0.726   5.964  1.4329 -0.0774 -0.8947
 6960SOL     OW32338   2.371   0.328   5.011 -0.2073 -0.5912 -0.0364
 6960SOL    HW132339   2.351   0.243   4.973  1.4132 -1.0995  0.2290
 6960SOL    HW232340   2.338   0.318   5.100  0.2209 -1.7558 -0.0087
 6961SOL     OW32341   0.354   3.551   7.250  0.0642  0.3895  0.5244
 6961SOL    HW132342   0.291   3.586   7.187 -1.9613 -0.6607  1.9527
 6961SOL    HW232343   0.409   3.502   7.189 -1.8240  1.0675 -1.7023
 6962SOL     OW32344   1.811   4.503   5.578 -0.1068  0.0560  0.2292
 6962SOL    HW132345   1.857   4.480   5.658 -2.4559 -1.2246  1.2245
 6962SOL    HW232346   1.720   4.503   5.609 -0.9803 -0.6347 -2.3153
 6963SOL     OW32347   0.163   4.441  15.922  0.4896  0.0501  0.3165
 6963SOL    HW132348   0.115   4.512  15.965  0.2739  0.7412 -1.0746
 6963SOL    HW232349   0.122   4.360  15.953  1.5121 -0.9420 -0.9379
 6964SOL     OW32350   3.079   3.717   3.872  0.3348 -0.3540 -0.1219
 6964SOL    HW132351   3.085   3.664   3.792 -2.2531  0.0796 -0.6208
 6964SOL    HW232352   2.987   3.708   3.898 -0.0206  1.1750 -0.8354
 6965SOL     OW32353   2.775   2.774   1.126 -0.0973 -0.0426 -0.1659
 6965SOL    HW132354   2.838   2.835   1.164  1.1143 -1.2761 -0.1973
 6965SOL    HW232355   2.819   2.689   1.132 -0.9013 -0.2987  2.3528
 6966SOL     OW32356   4.208   4.198   7.360  0.0355  0.3035  0.4928
 6966SOL    HW132357   4.168   4.284   7.366 -0.0090  0.3983 -1.1539
 6966SOL    HW232358   4.130   4.151   7.330  2.1476 -3.6557  1.1349
 6967SOL     OW32359   0.311   3.149   8.110 -0.1969  0.1635 -0.2000
 6967SOL    HW132360   0.313   3.062   8.149  0.7306 -0.8474 -2.5085
 6967SOL    HW232361   0.250   3.187   8.173  1.0830  1.3244  0.3539
 6968SOL     OW32362   3.619   1.229  11.483 -0.4874  0.5008  0.1657
 6968SOL    HW132363   3.564   1.253  11.558 -2.0919  0.5253 -1.0253
 6968SOL    HW232364   3.662   1.312  11.461 -0.3649  0.2366 -0.6004
 6969SOL     OW32365   4.320   2.798  10.447  0.2060 -0.6940  0.1573
 6969SOL    HW132366   4.306   2.721  10.392  2.7356 -0.3542 -0.9386
 6969SOL    HW232367   4.353   2.860  10.382 -3.6349  1.0139 -0.1844
 6970SOL     OW32368   1.223   3.098   3.268 -0.3767 -0.1989  0.2647
 6970SOL    HW132369   1.130   3.098   3.291  0.4220 -0.4636  3.5660
 6970SOL    HW232370   1.229   3.122   3.176 -0.6708 -0.7339  0.1079
 6971SOL     OW32371   0.522   3.021   1.216  0.0207 -0.1717  0.0146
 6971SOL    HW132372   0.603   3.067   1.240 -0.1155  0.0509  0.0450
 6971SOL    HW232373   0.456   3.089   1.226  0.2508 -0.2175  1.8438
 6972SOL     OW32374   3.231   4.712   2.569  0.0022  0.3102 -0.6413
 6972SOL    HW132375   3.309   4.661   2.549 -0.3932 -0.7054  0.3904
 6972SOL    HW232376   3.207   4.681   2.656  0.4193  0.6540 -0.4062
 6973SOL     OW32377   0.088   2.653   2.578 -0.4021  0.4806  0.4965
 6973SOL    HW132378   0.129   2.586   2.523 -0.7010  3.4339 -3.3889
 6973SOL    HW232379   0.137   2.731   2.550 -3.5747  2.2792 -0.0183
 6974SOL     OW32380   0.921   4.153   5.875  0.2881 -0.9403  0.5465
 6974SOL    HW132381   0.957   4.241   5.883 -1.7939 -0.1144  0.7234
 6974SOL    HW232382   0.834   4.174   5.843  0.0323 -2.2081  0.4304
 6975SOL     OW32383   2.152   2.767   2.065  0.0616  0.0799  0.0545
 6975SOL    HW132384   2.241   2.745   2.037 -0.2393 -0.7058 -0.2834
 6975SOL    HW232385   2.120   2.679   2.083  1.5159 -0.3693  0.3685
 6976SOL     OW32386   0.698   4.180   9.473 -0.4746  0.1935  0.0502
 6976SOL    HW132387   0.780   4.134   9.451  0.6720  2.7036 -0.9603
 6976SOL    HW232388   0.643   4.102   9.476 -0.4268  0.1937  0.8710
 6977SOL     OW32389   1.039   3.600   3.764 -0.5636 -0.2749  0.0982
 6977SOL    HW132390   0.985   3.614   3.841 -2.0326  0.1558 -1.0057
 6977SOL    HW232391   1.060   3.506   3.763 -1.0594 -0.3813 -0.1085
 6978SOL     OW32392   2.390   2.476   1.090  0.0297  0.3423  0.5860
 6978SOL    HW132393   2.431   2.560   1.068 -1.7120  0.6879 -1.3663
 6978SOL    HW232394   2.306   2.490   1.047 -0.0141  1.0051  0.8874
 6979SOL     OW32395   4.242   1.839   4.367  0.0265 -0.1340 -0.1772
 6979SOL    HW132396   4.333   1.843   4.337  0.4770  1.1677  1.3510
 6979SOL    HW232397   4.216   1.931   4.357  0.3340 -0.0407 -0.1105
 6980SOL     OW32398   2.210   1.062   3.417 -0.2057 -0.0955  0.3250
 6980SOL    HW132399   2.284   1.045   3.476 -0.8678 -0.2672  1.1165
 6980SOL    HW232400   2.243   1.017   3.340  0.2569  0.1102  0.4003
 6981SOL     OW32401   3.001   2.369   5.727  0.7037  0.3646  0.6284
 6981SOL    HW132402   3.065   2.303   5.756 -0.1622 -1.0103 -0.6060
 6981SOL    HW232403   2.945   2.359   5.804 -0.0116  1.0947  0.1954
 6982SOL     OW32404   2.410   2.980   8.804 -0.1997  0.5404  0.1796
 6982SOL    HW132405   2.487   2.988   8.861  0.2046 -1.9677 -0.0480
 6982SOL    HW232406   2.425   2.893   8.769  1.1647  0.8966 -0.1247
 6983SOL     OW32407   1.433   0.148  13.850 -0.0854 -0.3043 -0.5053
 6983SOL    HW132408   1.354   0.201  13.837  0.3797  0.1031 -1.5840
 6983SOL    HW232409   1.405   0.089  13.920 -1.4832  0.4475 -0.4216
 6984SOL     OW32410   4.450   3.660  14.586 -0.9557 -0.0835 -0.4352
 6984SOL    HW132411   4.444   3.699  14.673  2.3279 -1.2238  0.2859
 6984SOL    HW232412   4.393   3.586  14.602 -0.2078 -0.8497 -1.2941
 6985SOL     OW32413   4.198   2.087   0.713 -0.0823 -0.3240  0.5035
 6985SOL    HW132414   4.286   2.125   0.722 -0.0544 -0.3134  0.1862
 6985SOL    HW232415   4.200   2.052   0.624 -2.7775 -1.7178  1.0174
 6986SOL     OW32416   4.370   3.055   7.156 -0.4596 -0.4089 -0.2326
 6986SOL    HW132417   4.390   2.981   7.099  2.9466  1.2273 -1.2077
 6986SOL    HW232418   4.277   3.067   7.141 -0.6592 -2.0274 -0.2304
 6987SOL     OW32419   3.417   2.713  14.632 -0.3007  0.1684  0.0334
 6987SOL    HW132420   3.339   2.764  14.654 -1.1979 -0.2973 -2.1197
 6987SOL    HW232421   3.404   2.638  14.691 -0.2470 -1.6564 -2.2796
 6988SOL     OW32422   0.894   4.436  16.252  0.1700 -0.1694  0.5956
 6988SOL    HW132423   0.861   4.398  16.171 -1.7515 -0.3623  1.4675
 6988SOL    HW232424   0.928   4.361  16.301  1.2827 -0.2881 -0.3560
 6989SOL     OW32425   3.974   4.683  10.904 -0.2391  0.2668 -0.1647
 6989SOL    HW132426   4.034   4.615  10.875  0.2496  1.4139 -1.8173
 6989SOL    HW232427   3.916   4.635  10.964  0.4642 -0.4569 -0.0671
 6990SOL     OW32428   0.041   1.590   6.975  0.6599 -0.3594  0.0669
 6990SOL    HW132429   0.084   1.526   7.031  0.0783 -0.2701  0.6053
 6990SOL    HW232430   0.046   1.528   6.903  0.3799 -0.0017 -0.2603
 6991SOL     OW32431   1.430   1.053   7.720 -0.0914  0.1651  0.5543
 6991SOL    HW132432   1.410   0.965   7.753 -1.0132  0.7065  1.4479
 6991SOL    HW232433   1.513   1.043   7.674 -0.3795 -1.5528  0.4016
 6992SOL     OW32434   0.826   1.738   8.056 -0.4773 -0.2901 -0.1274
 6992SOL    HW132435   0.836   1.827   8.090 -0.4176 -0.8870  1.4332
 6992SOL    HW232436   0.903   1.743   7.999 -0.0669  2.1030  0.6495
 6993SOL     OW32437   2.336   1.311   3.844  0.1618 -0.5883  0.4652
 6993SOL    HW132438   2.427   1.340   3.841 -0.2287  0.6005  0.1698
 6993SOL    HW232439   2.289   1.394   3.847  0.0607 -0.6287 -0.0035
 6994SOL     OW32440   4.463   2.028   5.380  0.4617 -0.1129  0.0537
 6994SOL    HW132441   4.453   2.027   5.285  0.4717 -0.7829  0.0556
 6994SOL    HW232442   4.416   2.104   5.413  0.0912 -0.4553  0.3262
 6995SOL     OW32443   2.393   1.192   6.516 -0.0256 -0.7866  0.3084
 6995SOL    HW132444   2.328   1.180   6.446  0.5635 -2.1758 -0.0085
 6995SOL    HW232445   2.345   1.146   6.585 -0.7445 -1.4777 -0.6360
 6996SOL     OW32446   4.472   1.950   0.980 -0.7359  0.5908  0.1328
 6996SOL    HW132447   4.397   2.000   1.012 -2.5184 -0.4151 -2.4932
 6996SOL    HW232448   4.533   2.023   0.969  0.9870 -0.9118 -0.2959
 6997SOL     OW32449   1.718   0.481  10.822 -0.3272  0.1430  0.3193
 6997SOL    HW132450   1.763   0.507  10.742 -0.9824  1.4811  0.3807
 6997SOL    HW232451   1.747   0.549  10.883  1.4371 -0.2563 -0.0968
 6998SOL     OW32452   3.880   2.192   3.900 -0.5864 -0.1708 -0.5854
 6998SOL    HW132453   3.801   2.188   3.847 -1.4579 -1.1352  0.7919
 6998SOL    HW232454   3.926   2.120   3.859  0.1736  0.3933 -0.7284
 6999SOL     OW32455   3.875   2.081   5.649 -0.4346  0.5800  0.4962
 6999SOL    HW132456   3.789   2.053   5.616 -1.3739  0.5706  2.9125
 6999SOL    HW232457   3.918   1.997   5.639 -1.5387  0.0022  0.5228
 7000SOL     OW32458   1.033   1.939   5.818 -0.0025 -0.0446 -0.6684
 7000SOL    HW132459   1.043   1.852   5.780 -0.0071  0.3311 -1.5463
 7000SOL    HW232460   1.070   1.992   5.747  0.2901  0.0168 -0.4686
 7001SOL     OW32461   0.091   0.641   9.751  0.0133 -0.0579 -0.1567
 7001SOL    HW132462   0.166   0.605   9.799  0.2784  0.4581 -0.1806
 7001SOL    HW232463   0.144   0.696   9.693 -0.2207 -0.3234 -0.6216
 7002SOL     OW32464   2.633   1.858   2.684 -0.0124 -0.0421 -0.2067
 7002SOL    HW132465   2.565   1.816   2.738 -0.5947  1.3250  0.1550
 7002SOL    HW232466   2.591   1.902   2.610 -0.8581  0.2634  0.4486
 7003SOL     OW32467   2.386   3.510  13.223 -0.6885  0.0150 -0.1787
 7003SOL    HW132468   2.314   3.451  13.202 -0.3212  0.0129 -1.4245
 7003SOL    HW232469   2.461   3.452  13.232 -0.6310  0.0269 -0.6040
 7004SOL     OW32470   2.917   1.054   6.309 -0.4427 -0.1880  0.0284
 7004SOL    HW132471   2.835   1.098   6.285 -0.9506 -1.2384 -0.1633
 7004SOL    HW232472   2.980   1.110   6.263 -0.6068 -2.9880 -3.6020
 7005SOL     OW32473   0.342   1.539   4.663  0.0264 -0.2459  0.2155
 7005SOL    HW132474   0.422   1.509   4.705 -0.1452  0.3914  0.9971
 7005SOL    HW232475   0.333   1.631   4.689 -1.5385  0.3723 -2.5056
 7006SOL     OW32476   2.481   0.956   1.753  0.2470  0.1882 -0.0982
 7006SOL    HW132477   2.484   0.924   1.662  0.0701 -3.5979  1.2036
 7006SOL    HW232478   2.437   1.039   1.738  0.4854  0.6504  1.7792
 7007SOL     OW32479   1.757   2.932   2.296  0.0493  0.2938 -0.6294
 7007SOL    HW132480   1.701   2.871   2.248  1.0666 -2.0753  1.2072
 7007SOL    HW232481   1.841   2.931   2.250  0.6920 -0.9060  0.6033
 7008SOL     OW32482   4.079   1.178   7.366  0.0728  0.2468  0.6964
 7008SOL    HW132483   4.162   1.175   7.412  1.2427 -0.0342 -1.4228
 7008SOL    HW232484   4.030   1.111   7.414 -0.2083  0.0058  0.0823
 7009SOL     OW32485   1.649   1.825  15.016 -0.3631 -0.4712 -0.2079
 7009SOL    HW132486   1.627   1.820  15.109  1.9169  0.5593  0.3660
 7009SOL    HW232487   1.684   1.914  15.012 -2.3734  0.3937  1.4944
 7010SOL     OW32488   0.951   2.928   6.645 -0.2100  0.1694 -0.5258
 7010SOL    HW132489   0.932   3.017   6.677  0.7820  0.0590  0.3826
 7010SOL    HW232490   0.906   2.874   6.711  0.5118  0.1599 -0.0455
 7011SOL     OW32491   4.212   4.276   9.661 -0.2771 -0.7594 -0.2132
 7011SOL    HW132492   4.204   4.217   9.736  2.6020 -0.6041  0.2080
 7011SOL    HW232493   4.299   4.309   9.683 -0.4908 -0.6443  0.4450
 7012SOL     OW32494   2.686   1.243   4.187  0.6226 -0.6112  0.1449
 7012SOL    HW132495   2.673   1.189   4.109  1.1063 -2.1987  1.1736
 7012SOL    HW232496   2.595   1.269   4.202  0.1470 -0.7822 -2.4419
 7013SOL     OW32497   3.781   1.968   8.208 -0.3348  0.7524  0.0936
 7013SOL    HW132498   3.747   1.953   8.296 -0.6919 -0.1127 -0.1819
 7013SOL    HW232499   3.811   1.881   8.181 -0.3897  0.7234  0.1256
 7014SOL     OW32500   2.590   1.766   6.716  0.3657 -0.1635  0.1902
 7014SOL    HW132501   2.590   1.861   6.731 -0.0119  0.2746 -2.5790
 7014SOL    HW232502   2.571   1.770   6.622  0.0756  0.4250  0.2700
 7015SOL     OW32503   3.502   3.437  14.323  0.2883 -0.0661 -0.0185
 7015SOL    HW132504   3.431   3.492  14.290 -1.7598 -1.6458  1.7444
 7015SOL    HW232505   3.460   3.380  14.388 -1.7509  0.0643 -1.2403
 7016SOL     OW32506   0.132   0.595   7.128 -0.5177  0.1259 -0.5901
 7016SOL    HW132507   0.046   0.624   7.098  0.5357  2.4370 -1.3539
 7016SOL    HW232508   0.151   0.524   7.067  0.6947 -0.6941  0.7487
 7017SOL     OW32509   0.896   0.952   2.989 -0.0534  0.1019  0.3196
 7017SOL    HW132510   0.991   0.959   2.996 -0.1831  0.5450  1.6858
 7017SOL    HW232511   0.882   1.032   2.939  0.1774  1.5261  2.5364
 7018SOL     OW32512   2.434   1.193   3.009  0.3986  0.2451 -0.1277
 7018SOL    HW132513   2.427   1.284   2.978 -0.9612  1.1373  2.7722
 7018SOL    HW232514   2.435   1.142   2.928 -1.8118  0.5058 -0.3231
 7019SOL     OW32515   1.011   0.459   7.421  0.2015 -0.0859  0.0045
 7019SOL    HW132516   0.926   0.488   7.388  0.6219  1.3157  0.1572
 7019SOL    HW232517   0.972   0.420   7.500  0.4224  1.6763  0.9858
 7020SOL     OW32518   1.227   3.599   2.302 -0.3169  0.4826  0.0425
 7020SOL    HW132519   1.237   3.644   2.386  1.0129 -0.3023  0.2936
 7020SOL    HW232520   1.301   3.634   2.253 -0.8081 -0.9074 -1.7199
 7021SOL     OW32521   3.913   4.360  15.870  0.0924 -0.4638  0.0554
 7021SOL    HW132522   3.839   4.421  15.866  0.0736 -0.4023  1.1709
 7021SOL    HW232523   3.969   4.390  15.799 -0.9404  2.5815  0.5209
 7022SOL     OW32524   0.636   0.926  10.739  0.0487 -0.0100 -0.3088
 7022SOL    HW132525   0.643   0.901  10.831 -0.0160  0.3420 -0.2091
 7022SOL    HW232526   0.549   0.965  10.748  0.7114  1.8789 -2.2030
 7023SOL     OW32527   4.448   2.184   6.812  0.1216  0.5730  0.3828
 7023SOL    HW132528   4.528   2.138   6.838  0.0785 -1.0332 -2.3195
 7023SOL    HW232529   4.388   2.151   6.879  0.5258 -1.2053 -0.1314
 7024SOL     OW32530   2.792   0.580  15.953 -0.1539  0.5948  0.2887
 7024SOL    HW132531   2.757   0.623  15.874 -0.6560 -0.3852 -0.0213
 7024SOL    HW232532   2.853   0.647  15.983 -0.1638  0.9504 -0.4706
 7025SOL     OW32533   4.618   3.014   5.564  0.4022  0.2555 -0.5365
 7025SOL    HW132534   4.574   2.938   5.526 -1.7338  1.6604 -0.8907
 7025SOL    HW232535   4.712   3.015   5.544  0.7358 -1.1684  0.9477
 7026SOL     OW32536   3.311   0.465  11.101 -0.2372 -0.3358  0.2616
 7026SOL    HW132537   3.403   0.458  11.076 -1.4662  0.8221 -4.5172
 7026SOL    HW232538   3.299   0.560  11.091 -0.4842 -0.4077 -0.1282
 7027SOL     OW32539   4.631   2.829   8.065 -0.7630 -0.2573  0.6344
 7027SOL    HW132540   4.682   2.867   7.993 -1.6263  1.5743  0.9772
 7027SOL    HW232541   4.541   2.846   8.036 -0.2439 -1.5256 -1.7080
 7028SOL     OW32542   2.144   0.758  10.502 -0.2020 -0.4636 -0.1418
 7028SOL    HW132543   2.054   0.764  10.471  0.3701  1.7619 -1.3780
 7028SOL    HW232544   2.130   0.720  10.589  0.8997 -0.8350 -0.1269
 7029SOL     OW32545   4.477   3.153   9.287 -0.0004 -0.2392  0.0668
 7029SOL    HW132546   4.436   3.195   9.211 -1.2498  1.5225  1.7085
 7029SOL    HW232547   4.470   3.058   9.282  0.8960 -0.4466  2.8112
 7030SOL     OW32548   0.163   3.735   2.164  0.3406 -0.2493 -0.3233
 7030SOL    HW132549   0.239   3.780   2.128 -0.1349  0.0593 -0.9393
 7030SOL    HW232550   0.180   3.755   2.256  2.3101  0.7876 -0.9143
 7031SOL     OW32551   2.563   3.175   7.131 -0.0580  0.3189  0.5150
 7031SOL    HW132552   2.654   3.196   7.111  0.1264  1.0212  2.0658
 7031SOL    HW232553   2.552   3.256   7.181 -1.3375  2.1663 -2.7011
 7032SOL     OW32554   4.026   2.534   8.195  0.3537 -0.2704  0.1771
 7032SOL    HW132555   4.006   2.586   8.117  0.2419 -1.4104 -0.5480
 7032SOL    HW232556   3.937   2.534   8.229  0.2624 -1.3208 -0.0636
 7033SOL     OW32557   3.674   4.708   8.508  0.4999  0.0533  0.0417
 7033SOL    HW132558   3.746   4.655   8.474 -0.6056 -0.7758 -1.0047
 7033SOL    HW232559   3.724   0.055   8.546 -1.4863  0.3980  1.9828
 7034SOL     OW32560   0.323   2.771   5.314 -0.2293  0.1209 -0.1053
 7034SOL    HW132561   0.341   2.715   5.239  0.1489 -0.6067  0.5328
 7034SOL    HW232562   0.232   2.795   5.297 -0.3779 -0.9085 -0.7889
 7035SOL     OW32563   3.792   2.326   7.381 -0.2570  0.4786  0.3204
 7035SOL    HW132564   3.815   2.236   7.407  2.9108  0.6819 -1.8163
 7035SOL    HW232565   3.720   2.337   7.443 -0.9297  1.4757 -0.6370
 7036SOL     OW32566   1.210   1.015   4.963  0.3844  0.0756  0.1122
 7036SOL    HW132567   1.263   1.044   5.037 -1.8165  1.1192  1.2752
 7036SOL    HW232568   1.133   0.976   5.003  0.3151  1.7206  1.6186
 7037SOL     OW32569   4.064   1.840  11.263  0.2250 -0.3075 -0.3232
 7037SOL    HW132570   4.081   1.799  11.347 -0.6730 -0.8029 -0.3819
 7037SOL    HW232571   4.140   1.895  11.240 -0.2695  0.0676 -1.0887
 7038SOL     OW32572   0.016   0.933   1.747 -0.5781 -0.1482  0.0886
 7038SOL    HW132573   0.099   0.971   1.777 -1.5218  0.0128  2.5569
 7038SOL    HW232574   0.003   0.872   1.820 -1.6514  2.7338  2.3309
 7039SOL     OW32575   1.886   0.889   6.944  0.1704  0.3367  0.0613
 7039SOL    HW132576   1.885   0.972   6.993 -0.5311 -1.3354  2.8548
 7039SOL    HW232577   1.894   0.826   7.015  2.8611  1.7370  1.0055
 7040SOL     OW32578   2.738   1.429   5.543 -0.6370 -0.0100  0.1357
 7040SOL    HW132579   2.692   1.365   5.597 -1.4546  1.7206  1.4979
 7040SOL    HW232580   2.814   1.443   5.601 -0.6865 -0.8182  0.3957
 7041SOL     OW32581   1.568   2.663   2.712  0.2997 -0.0726  0.1209
 7041SOL    HW132582   1.572   2.699   2.623  0.2829 -0.3186  0.0190
 7041SOL    HW232583   1.625   2.586   2.709 -3.0182 -2.5563 -0.3911
 7042SOL     OW32584   3.148   1.908   7.666  0.0038 -0.0566 -0.3532
 7042SOL    HW132585   3.054   1.901   7.653 -0.0570  0.2728 -0.0955
 7042SOL    HW232586   3.184   1.856   7.595  0.9357  0.0743  0.0157
 7043SOL     OW32587   3.006   1.520  11.436  0.1152  0.7766 -0.0947
 7043SOL    HW132588   3.025   1.556  11.522 -1.1065  1.7590 -0.2386
 7043SOL    HW232589   3.093   1.514  11.397  1.0647  0.7948  2.0751
 7044SOL     OW32590   4.083   0.515   7.818 -0.6303  0.0336  0.3928
 7044SOL    HW132591   4.026   0.459   7.870  0.9844 -0.8198  1.2357
 7044SOL    HW232592   4.161   0.529   7.872 -0.6621 -0.6702  0.6169
 7045SOL     OW32593   2.191   0.018   4.707 -0.1069  0.4650 -0.0360
 7045SOL    HW132594   2.197   0.113   4.713  1.0528  0.2175  2.6409
 7045SOL    HW232595   2.105   0.010   4.667 -1.3830 -2.5994  3.2815
 7046SOL     OW32596   0.189   0.610   7.904 -0.2577 -0.4422 -0.7198
 7046SOL    HW132597   0.126   0.682   7.913 -0.6248 -0.7753 -0.6635
 7046SOL    HW232598   0.184   0.582   7.813  0.3485 -0.2353 -0.8211
 7047SOL     OW32599   1.570   3.858   7.171 -0.2899 -0.0665 -0.2386
 7047SOL    HW132600   1.637   3.800   7.134  0.0140 -0.0801  0.3448
 7047SOL    HW232601   1.612   3.864   7.256 -1.8943 -0.3739  0.5744
 7048SOL     OW32602   3.109   3.269  13.521  0.1219 -0.0029 -0.0754
 7048SOL    HW132603   3.097   3.174  13.517  1.6836 -0.2125 -0.0487
 7048SOL    HW232604   3.200   3.285  13.494  1.0941  0.6228  3.5867
 7049SOL     OW32605   1.208   4.324   0.549  0.0055  0.5510  0.1774
 7049SOL    HW132606   1.132   4.380   0.567 -0.5873 -0.1326 -0.2262
 7049SOL    HW232607   1.162   4.240   0.552 -0.0607  0.6194  1.0755
 7050SOL     OW32608   3.461   4.461  15.089 -0.6782 -0.2802 -0.1731
 7050SOL    HW132609   3.549   4.438  15.119 -0.2548 -0.7482 -1.7892
 7050SOL    HW232610   3.401   4.418  15.150  1.0266 -2.2076  0.1412
 7051SOL     OW32611   0.081   4.657  16.577 -0.0171  0.6380  0.0338
 7051SOL    HW132612   0.169   4.622  16.588 -0.3140 -0.5751 -1.4104
 7051SOL    HW232613   0.063   4.651  16.483  0.8902 -1.1700 -0.0231
 7052SOL     OW32614   3.466   2.692   1.290 -0.1644 -0.1668 -0.2195
 7052SOL    HW132615   3.467   2.657   1.201  0.4955 -0.4683 -0.0874
 7052SOL    HW232616   3.494   2.782   1.275 -0.3624  0.5716  3.9359
 7053SOL     OW32617   1.843   0.802  12.722  0.4016 -0.3392  0.3970
 7053SOL    HW132618   1.843   0.819  12.628  0.3034  0.5784  0.5533
 7053SOL    HW232619   1.751   0.808  12.750  0.8556 -1.9923  2.2002
 7054SOL     OW32620   1.739   0.444   9.314 -0.2251 -0.7789 -0.3754
 7054SOL    HW132621   1.661   0.389   9.309 -0.4258 -0.2189 -2.9374
 7054SOL    HW232622   1.784   0.389   9.379  1.2976 -0.3124 -1.0429
 7055SOL     OW32623   0.067   2.675   1.553  0.5315  0.0160 -0.2961
 7055SOL    HW132624   0.113   2.758   1.560  1.0690 -0.5213  2.3500
 7055SOL    HW232625   0.143   2.620   1.571  0.4875 -0.1087 -0.4907
 7056SOL     OW32626   4.073   1.956   8.895  0.2009  0.6707 -0.2767
 7056SOL    HW132627   4.062   1.874   8.943 -0.1401  0.5986 -0.4790
 7056SOL    HW232628   3.988   1.999   8.897 -0.0226  0.2067 -0.0568
 7057SOL     OW32629   2.603   0.910   7.634 -0.3193 -0.3896  0.1626
 7057SOL    HW132630   2.696   0.888   7.634 -0.1396  0.3589  1.4776
 7057SOL    HW232631   2.570   0.825   7.603 -0.3105  0.0411 -1.0384
 7058SOL     OW32632   1.129   4.061   7.189  0.3454  0.2808 -0.1739
 7058SOL    HW132633   1.066   4.125   7.155 -0.4081  0.1018  0.9150
 7058SOL    HW232634   1.188   4.074   7.114  0.0885  2.1401 -0.0667
 7059SOL     OW32635   1.742   3.652   7.610  0.4516 -0.0601 -0.1931
 7059SOL    HW132636   1.656   3.689   7.632  0.9153  0.2868  1.0686
 7059SOL    HW232637   1.756   3.587   7.679  2.6179 -1.1998 -1.7464
 7060SOL     OW32638   3.604   0.752   1.819 -0.2253  0.2239 -0.0360
 7060SOL    HW132639   3.625   0.711   1.903  0.8987  0.2037 -0.3289
 7060SOL    HW232640   3.524   0.801   1.835 -0.8725 -1.2251  1.1830
 7061SOL     OW32641   3.413   2.843   2.118  0.1781 -0.0943 -0.4160
 7061SOL    HW132642   3.425   2.766   2.174 -1.4774  0.8917  1.2789
 7061SOL    HW232643   3.431   2.807   2.031 -0.0964  1.9956 -1.3371
 7062SOL     OW32644   2.823   0.412   3.118 -0.4669 -0.1438 -0.1796
 7062SOL    HW132645   2.818   0.382   3.027 -0.3389 -1.5196  0.2578
 7062SOL    HW232646   2.844   0.505   3.110  0.9673 -0.6804 -2.8118
 7063SOL     OW32647   1.511   3.328   8.203 -0.2647 -0.1453 -0.2068
 7063SOL    HW132648   1.464   3.316   8.121  1.2693 -0.8934 -0.9684
 7063SOL    HW232649   1.440   3.376   8.246  0.8573  0.7067  0.7074
 7064SOL     OW32650   4.273   0.598   6.391 -0.1195 -0.4103 -0.0166
 7064SOL    HW132651   4.251   0.520   6.441 -1.4541 -0.1803 -0.2581
 7064SOL    HW232652   4.312   0.556   6.314  2.1001  0.7668  0.4395
 7065SOL     OW32653   1.889   1.370   9.408 -0.0564 -0.1054  0.6955
 7065SOL    HW132654   1.815   1.392   9.352  0.7444  0.7863 -0.0136
 7065SOL    HW232655   1.898   1.448   9.463 -1.7259  0.3234  0.3419
 7066SOL     OW32656   1.897   4.080   9.424  0.5491 -0.0393  0.1591
 7066SOL    HW132657   1.811   4.045   9.448  0.1436  0.2967 -0.7943
 7066SOL    HW232658   1.902   4.027   9.344  2.9431  1.5162 -0.7091
 7067SOL     OW32659   3.540   0.869  11.198 -0.6024  0.5925  0.3888
 7067SOL    HW132660   3.611   0.889  11.138 -2.1803 -0.1531 -1.7333
 7067SOL    HW232661   3.509   0.958  11.213 -0.2136  0.5698  1.3080
 7068SOL     OW32662   2.887   1.098  15.238  0.5222  0.4387  0.2130
 7068SOL    HW132663   2.825   1.152  15.287  0.4450  0.5654 -0.0254
 7068SOL    HW232664   2.851   1.111  15.150  0.6766  0.0828  0.0953
 7069SOL     OW32665   3.508   1.570   4.063 -0.4226 -0.1053 -0.2698
 7069SOL    HW132666   3.520   1.627   3.987 -1.5785  0.0901 -0.3159
 7069SOL    HW232667   3.564   1.617   4.124  0.8994 -0.7888 -0.9694
 7070SOL     OW32668   3.786   4.334   7.922 -0.0215 -0.0773  0.2349
 7070SOL    HW132669   3.811   4.337   8.015  0.0130 -2.0741  0.2946
 7070SOL    HW232670   3.844   4.403   7.890 -1.1781 -0.7845 -3.3242
 7071SOL     OW32671   2.373   3.564   4.401  0.1325  0.1997 -0.0986
 7071SOL    HW132672   2.404   3.595   4.316  1.3692 -0.8158 -0.0071
 7071SOL    HW232673   2.285   3.537   4.374 -0.2609  0.6074  0.7631
 7072SOL     OW32674   3.231   1.014   2.271  0.1178  0.1502 -0.0754
 7072SOL    HW132675   3.189   0.930   2.291  0.2154  0.3881  1.1142
 7072SOL    HW232676   3.164   1.065   2.225  1.8067  1.0639 -1.5269
 7073SOL     OW32677   2.300   4.577   4.523 -0.6210  0.1737  0.3723
 7073SOL    HW132678   2.218   4.528   4.523  0.0933 -1.0306 -1.9038
 7073SOL    HW232679   2.288   4.610   4.612  0.8619 -0.0596  0.6479
 7074SOL     OW32680   2.323   1.698  14.310  0.0355 -0.4396 -0.3864
 7074SOL    HW132681   2.266   1.733  14.379  1.7664 -0.2793  0.9885
 7074SOL    HW232682   2.358   1.613  14.337  1.1411  0.1331  0.0232
 7075SOL     OW32683   2.383   4.454   2.398  0.0201 -0.3487 -0.4336
 7075SOL    HW132684   2.335   4.437   2.318  2.9101 -0.8277 -2.0407
 7075SOL    HW232685   2.463   4.487   2.359 -0.0237 -0.7431 -0.8508
 7076SOL     OW32686   4.180   0.137  10.937  0.4545  0.2623  0.1446
 7076SOL    HW132687   4.093   0.097  10.928  0.0662  1.1886 -0.1942
 7076SOL    HW232688   4.230   0.061  10.966  0.0602 -0.8685 -2.1238
 7077SOL     OW32689   1.268   4.342  16.479  0.0121  0.2239  0.1370
 7077SOL    HW132690   1.302   4.253  16.486 -1.1065 -0.3100 -1.2099
 7077SOL    HW232691   1.337   4.383  16.428 -0.4247 -1.8475 -2.1296
 7078SOL     OW32692   1.603   2.877  14.201  0.5883  0.5000  0.3403
 7078SOL    HW132693   1.605   2.855  14.108 -0.1796 -0.5158  0.5702
 7078SOL    HW232694   1.616   2.972  14.192  1.8293  0.3723  0.8623
 7079SOL     OW32695   4.163   3.693  12.082  0.2321  0.4320  0.0439
 7079SOL    HW132696   4.160   3.603  12.050  3.6689  0.1835  0.4198
 7079SOL    HW232697   4.163   3.683  12.178  1.1800 -3.1927 -0.3484
 7080SOL     OW32698   2.319   0.376   2.970 -0.0144 -0.1862  0.1293
 7080SOL    HW132699   2.235   0.417   2.950  0.0895  0.4397  0.9741
 7080SOL    HW232700   2.342   0.427   3.048 -0.5028  0.9465 -0.4710
 7081SOL     OW32701   3.274   0.633  17.274  0.3821 -1.0535 -0.6437
 7081SOL    HW132702   3.260   0.541  17.250  0.6922 -1.0060 -1.0010
 7081SOL    HW232703   3.181   0.649  17.288  0.5663 -1.4978  1.1851
 7082SOL     OW32704   4.398   1.496   1.013  0.2521  0.1898 -0.6196
 7082SOL    HW132705   4.462   1.458   1.073  1.6479  0.7087 -1.7753
 7082SOL    HW232706   4.376   1.572   1.067 -0.1731  2.0988 -3.4515
 7083SOL     OW32707   0.138   3.545   9.661 -0.3520  0.4090  0.0836
 7083SOL    HW132708   0.197   3.493   9.607 -1.0054  0.4020 -0.6272
 7083SOL    HW232709   0.142   3.488   9.739  1.9362  2.2545  1.3196
 7084SOL     OW32710   2.805   3.337  17.548 -0.0323 -0.1419 -0.0296
 7084SOL    HW132711   2.877   3.326  17.610 -0.9352  0.2542  1.0886
 7084SOL    HW232712   2.728   3.354  17.603  0.5785 -0.1162  0.8163
 7085SOL     OW32713   1.495   0.526   7.200  0.5972  0.6474  0.0055
 7085SOL    HW132714   1.536   0.460   7.143  1.5719 -0.7226  2.3088
 7085SOL    HW232715   1.503   0.603   7.144 -1.4489  0.2238 -0.8751
 7086SOL     OW32716   0.873   3.013   9.439  0.3759  0.3159 -0.2597
 7086SOL    HW132717   0.812   2.953   9.396  1.2276 -0.5562 -0.2413
 7086SOL    HW232718   0.810   3.065   9.489  1.0223 -0.5706  1.4769
 7087SOL     OW32719   3.006   0.564  17.272 -0.2998 -0.6620  0.4950
 7087SOL    HW132720   3.000   0.481  17.225 -2.2971 -1.2729  1.8179
 7087SOL    HW232721   2.962   0.543  17.354 -0.6592  0.8117  0.6900
 7088SOL     OW32722   0.076   1.839   8.267 -0.8302 -0.3394 -0.2105
 7088SOL    HW132723   0.119   1.869   8.187  0.2999 -2.5476 -0.4478
 7088SOL    HW232724   0.036   1.917   8.306  2.8460  0.6979  1.5180
 7089SOL     OW32725   2.133   2.468   9.108 -0.0589  0.5203 -0.1209
 7089SOL    HW132726   2.223   2.452   9.081  0.0218 -0.7664  0.8922
 7089SOL    HW232727   2.090   2.435   9.029  0.1703  1.2939 -0.5655
 7090SOL     OW32728   1.599   3.158   5.184 -0.7458 -0.1313  0.6787
 7090SOL    HW132729   1.541   3.221   5.226  0.3805  1.7838 -0.6109
 7090SOL    HW232730   1.542   3.130   5.112  0.9518 -1.0750 -0.3042
 7091SOL     OW32731   0.916   2.878   5.141  0.0650 -0.1366  0.1565
 7091SOL    HW132732   0.950   2.965   5.121  0.0384  0.0242  0.8177
 7091SOL    HW232733   0.997   2.834   5.166  0.5079 -0.2133 -1.3756
 7092SOL     OW32734   4.004   1.229   6.924  0.0364 -0.1115  0.4071
 7092SOL    HW132735   4.066   1.157   6.917 -1.2930 -1.1382 -0.6943
 7092SOL    HW232736   4.013   1.263   7.013 -0.6889  0.9371  0.0888
 7093SOL     OW32737   2.577   0.778   2.688 -0.6988  0.2909 -0.2507
 7093SOL    HW132738   2.621   0.856   2.722 -0.7843  0.0286  0.4570
 7093SOL    HW232739   2.627   0.719   2.744  1.5789  1.7043 -0.8097
 7094SOL     OW32740   0.357   0.325  13.756 -0.0208 -0.1987 -0.0690
 7094SOL    HW132741   0.443   0.351  13.724 -0.6546  0.5375 -1.2000
 7094SOL    HW232742   0.321   0.414  13.764  0.8323  0.2078 -0.7387
 7095SOL     OW32743   2.381   0.352   7.826  0.0151  0.4008 -0.2150
 7095SOL    HW132744   2.401   0.445   7.820  0.4225  0.4093  1.2766
 7095SOL    HW232745   2.370   0.348   7.921 -1.9631  1.9926 -0.3835
 7096SOL     OW32746   0.470   2.006   6.647 -0.3362  0.3687 -0.4726
 7096SOL    HW132747   0.404   2.071   6.668  1.5487  2.0388  0.2917
 7096SOL    HW232748   0.468   1.951   6.725 -0.3718 -0.3474 -0.9703
 7097SOL     OW32749   0.515   4.529   1.485 -0.0260  0.3194  0.0280
 7097SOL    HW132750   0.498   4.521   1.391 -0.6396 -1.7513  0.3015
 7097SOL    HW232751   0.494   4.439   1.511  3.1946 -1.2354 -2.6907
 7098SOL     OW32752   3.445   2.086  15.246 -0.0720  0.2317  0.7166
 7098SOL    HW132753   3.539   2.088  15.265  0.1835 -0.7818 -0.3868
 7098SOL    HW232754   3.413   1.997  15.266  1.4747 -0.6627 -0.7760
 7099SOL     OW32755   4.464   4.161  16.553  0.1432  0.0385  0.1500
 7099SOL    HW132756   4.478   4.240  16.499 -0.3949 -1.3954 -2.0757
 7099SOL    HW232757   4.425   4.103  16.488  1.7947 -0.5892 -0.2915
 7100SOL     OW32758   1.023   2.950   8.660 -0.1611  0.3326  0.3350
 7100SOL    HW132759   1.032   2.894   8.737 -0.7304  0.1131  0.2448
 7100SOL    HW232760   1.085   2.911   8.599  0.7723 -1.4092  2.3971
 7101SOL     OW32761   3.119   3.339   7.408 -0.3793  0.5098 -0.4473
 7101SOL    HW132762   3.084   3.361   7.321  0.2771 -0.2677 -0.9088
 7101SOL    HW232763   3.184   3.271   7.391  1.4108  1.5490  2.1825
 7102SOL     OW32764   0.662   0.587  10.405  0.2161  0.0677  0.3929
 7102SOL    HW132765   0.605   0.568  10.330  0.5397 -0.0520  0.1786
 7102SOL    HW232766   0.743   0.550  10.372 -0.7353 -0.5549 -1.2310
 7103SOL     OW32767   1.585   2.046   4.066 -0.3224  0.5416 -0.1433
 7103SOL    HW132768   1.651   2.106   4.032  0.5868  1.2105  2.8081
 7103SOL    HW232769   1.552   2.015   3.982 -0.1227  1.2632 -0.4814
 7104SOL     OW32770   2.157   4.110   1.690  0.0035  0.0367 -0.8417
 7104SOL    HW132771   2.158   4.020   1.722 -0.3401 -0.5498 -2.4634
 7104SOL    HW232772   2.242   4.132   1.728 -0.0942 -0.9015 -0.0813
 7105SOL     OW32773   0.080   1.546  11.535  0.1627  0.3311 -0.3191
 7105SOL    HW132774   0.126   1.465  11.514 -0.4940 -0.2682  0.5256
 7105SOL    HW232775   0.010   1.506  11.587  1.8420  0.7328  2.2417
 7106SOL     OW32776   4.142   1.638   8.933 -0.5974 -0.1863  0.0098
 7106SOL    HW132777   4.236   1.620   8.933 -0.3926  0.8089 -1.2868
 7106SOL    HW232778   4.103   1.558   8.965  1.2379  0.5523  4.1128
 7107SOL     OW32779   0.147   3.132   1.962 -0.0214  0.6359  0.1695
 7107SOL    HW132780   0.161   3.063   2.027 -0.7779  1.0021  0.7170
 7107SOL    HW232781   0.227   3.133   1.909 -1.2845  0.7360 -1.7303
 7108SOL     OW32782   3.238   2.054   2.958 -0.8623  0.1127  0.3199
 7108SOL    HW132783   3.309   2.035   3.019 -0.6976 -1.8695 -0.4972
 7108SOL    HW232784   3.235   2.149   2.948 -0.6870  0.0338 -0.5557
 7109SOL     OW32785   2.839   0.232  12.298  0.0764  0.7921  0.0094
 7109SOL    HW132786   2.898   0.182  12.354  0.2232  2.0582  0.9895
 7109SOL    HW232787   2.767   0.257  12.356 -0.0524 -0.1323  0.2402
 7110SOL     OW32788   2.081   1.693  11.838  0.0322 -0.1480 -0.5028
 7110SOL    HW132789   2.164   1.739  11.822  0.6598 -0.9772  0.3532
 7110SOL    HW232790   2.069   1.714  11.931  0.8677 -2.7113  0.1911
 7111SOL     OW32791   2.301   0.703  13.312 -0.5676  0.1316  0.0462
 7111SOL    HW132792   2.371   0.678  13.252  0.9173 -0.3879  1.9680
 7111SOL    HW232793   2.328   0.667  13.397  4.0691 -0.1478 -1.5632
 7112SOL     OW32794   0.540   0.039  13.572 -0.2069 -0.0601 -0.1568
 7112SOL    HW132795   0.615   0.094  13.592  0.5297  0.0016 -3.1092
 7112SOL    HW232796   0.586   4.682  13.565 -1.6441 -0.7966 -0.9128
 7113SOL     OW32797   3.907   2.638   2.055  0.0018  0.2271  0.3962
 7113SOL    HW132798   3.871   2.725   2.042  1.7305  1.1921  2.0860
 7113SOL    HW232799   3.875   2.593   1.977  1.4664  1.1401 -0.7445
 7114SOL     OW32800   2.938   3.463  16.575  0.1926 -0.1999 -0.1282
 7114SOL    HW132801   2.994   3.446  16.651 -1.5460 -0.8075  1.0252
 7114SOL    HW232802   2.998   3.457  16.501 -0.4006 -0.5201 -0.5872
 7115SOL     OW32803   3.951   0.896  11.483 -0.2360  0.6317 -0.6732
 7115SOL    HW132804   3.884   0.960  11.510  1.3797  1.3092  1.6997
 7115SOL    HW232805   3.967   0.865  11.572  2.3099  0.4799 -1.1844
 7116SOL     OW32806   4.254   1.452   8.493 -0.1303 -0.2352  0.1659
 7116SOL    HW132807   4.316   1.409   8.434 -0.3026  0.4300 -0.4891
 7116SOL    HW232808   4.175   1.459   8.440 -1.7988 -0.0233  2.6527
 7117SOL     OW32809   0.803   4.324   7.989  0.3232 -0.0833 -0.5802
 7117SOL    HW132810   0.864   4.256   7.961 -0.3167 -0.3502 -1.3177
 7117SOL    HW232811   0.719   4.280   7.982  0.1154  0.2790 -0.3798
 7118SOL     OW32812   2.830   1.634   2.174  0.0765 -0.1089  0.0885
 7118SOL    HW132813   2.856   1.619   2.083 -0.6571  2.3453 -0.5323
 7118SOL    HW232814   2.852   1.726   2.185  0.3793  0.2140 -3.2505
 7119SOL     OW32815   1.358   1.033   4.206 -0.5412  0.1043  0.0172
 7119SOL    HW132816   1.306   0.975   4.150  0.4124 -1.6886  1.0202
 7119SOL    HW232817   1.438   0.981   4.212 -0.5601  0.0783  0.0411
 7120SOL     OW32818   2.257   1.052   6.299 -0.3785 -0.2718 -0.8314
 7120SOL    HW132819   2.206   1.085   6.225  0.6043  2.6257 -0.2075
 7120SOL    HW232820   2.190   0.990   6.328 -2.6704  2.2320 -0.7655
 7121SOL     OW32821   1.315   3.838   8.753 -0.4154  0.0308  0.5673
 7121SOL    HW132822   1.403   3.842   8.791 -0.5657  0.6096  0.8513
 7121SOL    HW232823   1.282   3.748   8.759 -0.8734  0.1772  0.2069
 7122SOL     OW32824   2.031   3.885   9.089 -0.2123 -0.3088 -0.3857
 7122SOL    HW132825   1.957   3.923   9.137  0.5043 -1.1095  1.3749
 7122SOL    HW232826   1.999   3.906   9.002 -2.4844 -1.2507  0.2184
 7123SOL     OW32827   4.488   4.341  14.896 -0.4605 -0.0650  0.2215
 7123SOL    HW132828   4.574   4.300  14.883  0.3652  2.0712 -1.1802
 7123SOL    HW232829   4.516   4.415  14.950 -0.1806 -0.7831  1.0506
 7124SOL     OW32830   4.425   3.978   9.807  0.0712 -0.1776  0.1721
 7124SOL    HW132831   4.437   4.066   9.843  1.0075  0.2228 -1.1136
 7124SOL    HW232832   4.515   3.946   9.814  0.4770  0.9243  0.0471
 7125SOL     OW32833   0.381   4.341   5.667 -0.0502 -0.1999  0.3454
 7125SOL    HW132834   0.290   4.358   5.695 -0.0386  1.1527 -0.4521
 7125SOL    HW232835   0.421   4.418   5.707 -1.2062  0.7832 -0.3623
 7126SOL     OW32836   1.168   1.724  17.020 -0.3178  0.0328 -0.1450
 7126SOL    HW132837   1.139   1.813  17.042  2.2066  0.8524 -0.2158
 7126SOL    HW232838   1.162   1.681  17.105  1.7544  0.5001  0.2398
 7127SOL     OW32839   4.137   2.767  13.661  0.3191  0.2497  0.1261
 7127SOL    HW132840   4.126   2.747  13.754 -1.4735 -0.3520 -0.2176
 7127SOL    HW232841   4.221   2.723  13.648  0.3541  0.1516  0.6806
 7128SOL     OW32842   1.056   4.499   2.758  0.5727  0.0814  0.4045
 7128SOL    HW132843   1.123   4.488   2.825 -0.1460  0.5318  1.1887
 7128SOL    HW232844   1.103   4.490   2.675 -1.5597 -0.6810 -0.7336
 7129SOL     OW32845   1.059   0.255   4.324 -0.0687  0.2967  0.6737
 7129SOL    HW132846   1.036   0.172   4.366 -0.7466  0.3678  0.4507
 7129SOL    HW232847   1.105   0.300   4.395 -0.3129  0.1324  0.9369
 7130SOL     OW32848   3.856   4.185   1.922  0.1963  0.6289  0.0040
 7130SOL    HW132849   3.903   4.261   1.890 -2.9690  2.7318  0.3656
 7130SOL    HW232850   3.838   4.206   2.014  1.1066  0.7445  0.1496
 7131SOL     OW32851   1.142   2.849   8.904  0.4215  0.2671 -0.4965
 7131SOL    HW132852   1.218   2.902   8.883 -0.9397  0.5038 -4.8011
 7131SOL    HW232853   1.148   2.771   8.848 -0.1473 -0.2980  0.2212
 7132SOL     OW32854   0.196   0.306  11.035 -0.3985  0.7675  0.3753
 7132SOL    HW132855   0.182   0.304  11.130 -2.0426  0.5465  0.1197
 7132SOL    HW232856   0.182   0.214  11.013  0.3823  0.6536  0.3501
 7133SOL     OW32857   3.163   2.762   4.273 -0.4636  0.0715 -0.4058
 7133SOL    HW132858   3.122   2.675   4.271  0.0053 -0.1851  1.6651
 7133SOL    HW232859   3.249   2.735   4.303  0.4327  1.4250 -1.7970
 7134SOL     OW32860   4.700   1.827   7.202 -0.0142 -0.4288  0.0020
 7134SOL    HW132861   4.668   1.866   7.284 -1.8773  0.7435 -1.2562
 7134SOL    HW232862   0.068   1.829   7.217 -0.1991 -0.2304  1.1551
 7135SOL     OW32863   1.686   3.202   5.948 -0.5873 -0.2807  0.2473
 7135SOL    HW132864   1.686   3.106   5.944  1.2278 -0.3483  2.1633
 7135SOL    HW232865   1.722   3.224   6.034 -0.6581 -0.3027  0.2822
 7136SOL     OW32866   0.039   2.015  10.151  0.2485  0.3618 -0.1804
 7136SOL    HW132867   0.032   1.935  10.204  1.2672  0.0648 -0.4964
 7136SOL    HW232868   0.110   2.053  10.202  0.2652  0.4376 -0.2612
 7137SOL     OW32869   3.795   1.085   9.604 -0.0306 -0.2341 -0.7294
 7137SOL    HW132870   3.715   1.042   9.635  0.8460 -0.6878  0.8999
 7137SOL    HW232871   3.756   1.158   9.555  0.5846  2.1689  2.4064
 7138SOL     OW32872   3.839   2.053   7.355  0.1538 -0.2398  0.1552
 7138SOL    HW132873   3.784   1.975   7.349 -2.3466  1.6953 -2.1454
 7138SOL    HW232874   3.923   2.011   7.338 -0.3772 -0.0586 -3.0594
 7139SOL     OW32875   1.396   4.079   4.430 -0.3377 -0.1079 -0.4188
 7139SOL    HW132876   1.395   3.984   4.445  0.4673 -0.0551 -0.0270
 7139SOL    HW232877   1.304   4.101   4.417  0.3544  2.1934 -1.4361
 7140SOL     OW32878   1.102   0.217   0.396  0.1308  0.1935  0.2266
 7140SOL    HW132879   1.053   0.163   0.335 -1.0364  1.0130  0.4401
 7140SOL    HW232880   1.037   0.231   0.465 -0.7095 -0.2016 -0.4837
 7141SOL     OW32881   1.059   2.495   7.526  0.4196  0.0830 -0.0887
 7141SOL    HW132882   1.018   2.562   7.471  1.2766  0.6782  0.0029
 7141SOL    HW232883   1.051   2.537   7.612  2.0540 -1.9116  1.0363
 7142SOL     OW32884   0.217   2.448   1.959 -0.0562 -0.1661 -0.0148
 7142SOL    HW132885   0.278   2.479   1.891 -2.2860 -1.4931 -2.6140
 7142SOL    HW232886   0.260   2.384   2.015 -0.9683 -0.1989  0.6475
 7143SOL     OW32887   2.132   1.298   1.646  0.4287 -0.3363  0.2660
 7143SOL    HW132888   2.101   1.307   1.736 -2.0300 -0.4432 -0.5917
 7143SOL    HW232889   2.207   1.238   1.650  0.6637 -0.1557 -1.1651
 7144SOL     OW32890   1.010   0.168   7.949 -0.6511  1.0579 -1.1959
 7144SOL    HW132891   0.956   0.208   7.881 -2.6628 -1.3778 -1.0198
 7144SOL    HW232892   1.052   0.099   7.898  1.4830  1.0115  0.6579
 7145SOL     OW32893   2.698   4.364   9.945  0.0570 -0.0683  0.7770
 7145SOL    HW132894   2.611   4.402   9.938  0.7049  1.2251 -0.2789
 7145SOL    HW232895   2.677   4.287   9.998  0.4949  0.0408  1.1109
 7146SOL     OW32896   3.833   4.558   1.077  0.7649  0.0055  0.8804
 7146SOL    HW132897   3.819   4.538   0.985 -0.6445 -1.4613  1.4157
 7146SOL    HW232898   3.928   4.571   1.082  0.7242  0.8202 -0.6178
 7147SOL     OW32899   1.800   3.678   2.130 -0.1650 -0.4273  0.0510
 7147SOL    HW132900   1.780   3.593   2.091 -0.9122 -0.3627  0.3095
 7147SOL    HW232901   1.862   3.708   2.062 -0.2155  0.2722  0.3163
 7148SOL     OW32902   1.188   2.852   5.214 -0.0433  0.6052  0.6268
 7148SOL    HW132903   1.233   2.890   5.139 -2.2977  0.1375 -0.9621
 7148SOL    HW232904   1.229   2.889   5.292  2.3316 -0.6545 -0.0242
 7149SOL     OW32905   3.892   4.119   5.521  0.0219 -0.5387  0.2687
 7149SOL    HW132906   3.903   4.127   5.616  1.7062  0.0413  0.0200
 7149SOL    HW232907   3.938   4.194   5.483 -1.7961  0.5303  0.1876
 7150SOL     OW32908   3.215   0.205   5.377  0.0757 -0.9046  0.2439
 7150SOL    HW132909   3.291   0.163   5.335 -1.0671 -2.8354  0.1157
 7150SOL    HW232910   3.246   0.277   5.432 -1.6344  0.1241 -0.1456
 7151SOL     OW32911   0.602   2.542   7.818 -0.1131  0.0650  0.0505
 7151SOL    HW132912   0.691   2.519   7.845 -0.5534 -0.9462  0.6113
 7151SOL    HW232913   0.616   2.635   7.798 -0.8145  0.2979  0.6550
 7152SOL     OW32914   2.254   3.089   4.553  0.1947 -0.0460 -0.0588
 7152SOL    HW132915   2.281   3.151   4.486 -2.7941  0.6947 -0.5738
 7152SOL    HW232916   2.173   3.051   4.519 -0.6203  0.4766  1.2679
 7153SOL     OW32917   1.928   3.323   5.491 -0.0764  0.2143  0.0322
 7153SOL    HW132918   1.954   3.309   5.582  0.0233  0.1825 -0.0010
 7153SOL    HW232919   1.984   3.259   5.447  0.4082  0.8387 -0.2576
 7154SOL     OW32920   2.281   0.612  10.789  0.0277  0.5662  0.0583
 7154SOL    HW132921   2.314   0.681  10.847 -2.6161  2.2870 -0.4923
 7154SOL    HW232922   2.193   0.644  10.768  0.4652  2.2197  0.7156
 7155SOL     OW32923   4.191   4.004   4.912 -0.0396 -0.1336 -0.2578
 7155SOL    HW132924   4.154   3.976   4.996  2.1290  3.0139  1.7314
 7155SOL    HW232925   4.174   3.930   4.852 -2.5237 -1.1415  1.6809
 7156SOL     OW32926   3.805   1.120   3.768  0.0674  0.4509  0.3186
 7156SOL    HW132927   3.793   1.204   3.812  1.2913  0.4184  0.7240
 7156SOL    HW232928   3.899   1.115   3.749  0.2946  0.1349  1.4634
 7157SOL     OW32929   3.138   2.711  13.852  0.2766  0.4737 -0.3812
 7157SOL    HW132930   3.097   2.674  13.774  2.0950  1.4744 -1.7977
 7157SOL    HW232931   3.227   2.728  13.821  0.2878  0.9587 -0.0804
 7158SOL     OW32932   1.981   3.664  13.428  0.0066 -0.3651 -0.4303
 7158SOL    HW132933   1.956   3.583  13.382 -2.2815 -0.0464  0.2659
 7158SOL    HW232934   2.064   3.681  13.383  0.3990  0.0618  0.4685
 7159SOL     OW32935   3.301   3.139   7.215 -0.6974 -0.3475  0.0555
 7159SOL    HW132936   3.255   3.077   7.159 -0.8933  0.2987 -0.5000
 7159SOL    HW232937   3.245   3.215   7.200 -0.5430 -0.3226 -0.3913
 7160SOL     OW32938   3.157   2.279   8.340  0.2582 -0.5985 -0.4475
 7160SOL    HW132939   3.181   2.286   8.432 -1.6651 -1.5005  0.1165
 7160SOL    HW232940   3.068   2.246   8.347 -0.0644  0.0960 -1.3138
 7161SOL     OW32941   0.747   0.807   1.855 -0.4088 -0.0568  0.2011
 7161SOL    HW132942   0.779   0.849   1.775 -0.3459  0.0064  0.2577
 7161SOL    HW232943   0.804   0.732   1.869  0.3045  0.4044 -0.1818
 7162SOL     OW32944   0.401   2.462   3.757 -0.2174 -0.1146  0.2808
 7162SOL    HW132945   0.492   2.441   3.773 -0.2778 -0.7393 -0.1808
 7162SOL    HW232946   0.361   2.378   3.781 -0.1194  0.0230  0.9152
 7163SOL     OW32947   0.878   3.970   6.884  0.0261  0.0545  1.2359
 7163SOL    HW132948   0.906   4.021   6.960 -2.0453  2.5756  0.3094
 7163SOL    HW232949   0.784   3.976   6.870  0.2662  0.4750 -0.1664
 7164SOL     OW32950   4.345   2.616   8.713 -0.0662 -0.3947 -0.4032
 7164SOL    HW132951   4.305   2.629   8.799  0.4650  1.0486 -0.3794
 7164SOL    HW232952   4.334   2.524   8.687 -1.3961 -0.7603  1.4463
 7165SOL     OW32953   0.828   1.914  10.659  0.0876 -0.2423  0.6428
 7165SOL    HW132954   0.794   1.866  10.734  0.9978  1.3898  2.0855
 7165SOL    HW232955   0.820   1.848  10.590  0.6825  0.2011  0.1434
 7166SOL     OW32956   0.043   3.327   9.836  0.0741 -0.1741  0.2249
 7166SOL    HW132957   4.689   3.380   9.842  0.6635  0.8048 -0.6499
 7166SOL    HW232958   0.013   3.264   9.771 -0.3572  0.0869  0.1700
 7167SOL     OW32959   0.521   2.030   2.279 -0.3324  0.4120 -0.2086
 7167SOL    HW132960   0.578   2.089   2.328  0.1379  1.9260 -2.5683
 7167SOL    HW232961   0.565   2.001   2.199  1.2262  0.9527  0.4467
 7168SOL     OW32962   3.452   3.954   2.146 -0.0073 -0.4069 -0.0301
 7168SOL    HW132963   3.462   3.861   2.165  2.2822 -0.1775 -0.1391
 7168SOL    HW232964   3.382   3.950   2.081  0.8128  0.9474 -1.0274
 7169SOL     OW32965   1.090   1.685   5.682 -0.0456  0.2627  0.4016
 7169SOL    HW132966   1.122   1.603   5.721  0.5862 -0.4992 -1.7139
 7169SOL    HW232967   1.005   1.663   5.644 -0.0132  0.3728  0.2655
 7170SOL     OW32968   4.574   1.835   2.057 -0.5130  0.4412 -0.6636
 7170SOL    HW132969   4.582   1.915   2.005  1.0183  1.2493  0.7866
 7170SOL    HW232970   4.567   1.772   1.985 -2.8531 -0.5793  0.4803
 7171SOL     OW32971   0.286   0.794   2.087 -0.2730 -0.3458 -0.1056
 7171SOL    HW132972   0.241   0.858   2.032 -0.6776 -0.0084  0.6190
 7171SOL    HW232973   0.291   0.711   2.039  1.7882 -0.7918  0.8887
 7172SOL     OW32974   2.965   3.007  13.460  0.3067 -0.0664 -0.4458
 7172SOL    HW132975   3.015   3.000  13.541 -0.4791  0.2850  0.0736
 7172SOL    HW232976   3.038   3.000  13.399 -0.0566  1.0999 -1.0189
 7173SOL     OW32977   0.951   3.460   1.620  0.7398 -0.2930  0.1363
 7173SOL    HW132978   1.009   3.466   1.544 -1.5052  0.5842 -1.4870
 7173SOL    HW232979   0.941   3.553   1.640  1.3105  0.5841 -3.7462
 7174SOL     OW32980   2.102   0.464   1.374 -0.3286 -0.0049  0.4989
 7174SOL    HW132981   2.044   0.398   1.412 -0.9816  1.1342  1.4612
 7174SOL    HW232982   2.187   0.421   1.383 -0.7924 -1.3214 -1.3117
 7175SOL     OW32983   2.598   3.701   5.297 -0.0893 -0.6947 -0.2876
 7175SOL    HW132984   2.503   3.697   5.284 -0.0588  0.3472 -0.8187
 7175SOL    HW232985   2.621   3.772   5.237  1.2385 -1.5401 -0.7583
 7176SOL     OW32986   3.851   4.716   2.057  0.4555  0.6103  0.2457
 7176SOL    HW132987   3.846   4.691   1.965 -0.1205 -0.4959  0.5764
 7176SOL    HW232988   3.764   0.026   2.073 -0.7252 -2.4059  0.6837
 7177SOL     OW32989   0.928   2.547   6.621  0.0585 -0.6139 -0.6864
 7177SOL    HW132990   0.906   2.592   6.702  0.2396 -1.3366 -0.2396
 7177SOL    HW232991   0.944   2.625   6.567  1.1313 -0.0613  0.4579
 7178SOL     OW32992   2.319   1.892   4.608 -0.1119 -0.1658 -0.1140
 7178SOL    HW132993   2.308   1.843   4.527 -0.5688 -1.0545  0.4868
 7178SOL    HW232994   2.318   1.985   4.584 -0.9955 -0.3078 -0.6276
 7179SOL     OW32995   0.201   0.872   5.687  0.0242  0.5058 -0.3728
 7179SOL    HW132996   0.198   0.843   5.596 -0.9656 -1.7952  0.4056
 7179SOL    HW232997   0.281   0.924   5.692 -0.8969  1.9498 -0.4718
 7180SOL     OW32998   4.456   1.810   3.531  0.2639 -0.0560  0.0477
 7180SOL    HW132999   4.449   1.746   3.603  1.0007 -1.0362 -0.7513
 7180SOL    HW233000   4.419   1.758   3.460 -1.1390  0.3335  0.4826
 7181SOL     OW33001   2.868   2.835   3.654  0.4510 -0.0407 -0.2371
 7181SOL    HW133002   2.842   2.890   3.580 -0.6828  0.7136  0.7395
 7181SOL    HW233003   2.787   2.806   3.696  0.2474 -0.5964 -1.0139
 7182SOL     OW33004   2.032   0.375   8.845 -0.3267 -0.1816 -0.0130
 7182SOL    HW133005   1.969   0.326   8.793 -2.5317  0.8349  1.6852
 7182SOL    HW233006   1.976   0.398   8.920  0.0499  1.7274 -0.3032
 7183SOL     OW33007   3.701   3.714   1.712  0.6424  0.1569  0.1776
 7183SOL    HW133008   3.756   3.782   1.750  0.7839  0.8025 -1.1643
 7183SOL    HW233009   3.708   3.748   1.623  2.0703  0.2806  0.3383
 7184SOL     OW33010   3.952   3.415  17.528  0.2834 -0.1745 -0.0646
 7184SOL    HW133011   3.899   3.361  17.470 -0.6125  0.9729 -0.3243
 7184SOL    HW233012   3.901   3.494  17.543 -1.3413 -0.9517 -1.6010
 7185SOL     OW33013   3.221   2.613  15.805  0.1373 -0.1384  0.1029
 7185SOL    HW133014   3.248   2.700  15.775 -1.3505  0.7830  1.4597
 7185SOL    HW233015   3.138   2.623  15.851  0.6231  0.3453  0.8658
 7186SOL     OW33016   2.507   4.669  15.047 -0.9304  0.1486 -0.0905
 7186SOL    HW133017   2.450   4.648  15.121  1.8474 -1.2484  1.6731
 7186SOL    HW233018   2.498   0.037  15.054  1.8681  0.5305 -1.5003
 7187SOL     OW33019   4.439   1.155   6.854  0.5385 -0.2608  0.2225
 7187SOL    HW133020   4.481   1.072   6.836 -0.9519 -1.0267  0.2397
 7187SOL    HW233021   4.350   1.129   6.879  0.2816 -1.6871 -2.1814
 7188SOL     OW33022   0.987   1.853  16.236 -0.5112 -0.4309  0.0411
 7188SOL    HW133023   0.918   1.884  16.177 -0.4909  1.8217  1.2134
 7188SOL    HW233024   0.997   1.932  16.289  0.2664 -0.8974  0.5896
 7189SOL     OW33025   4.710   1.905   9.188 -0.1233  0.0856 -0.2648
 7189SOL    HW133026   4.723   1.844   9.261 -0.7254  0.0016 -0.2288
 7189SOL    HW233027   4.651   1.968   9.228  2.0144  1.3950  0.8447
 7190SOL     OW33028   1.637   1.600   5.484  0.5839 -0.3025 -0.4086
 7190SOL    HW133029   1.687   1.680   5.495  1.8278 -1.1017 -0.2895
 7190SOL    HW233030   1.692   1.539   5.436  1.4319  0.3822 -0.2943
 7191SOL     OW33031   0.253   1.107   4.958  0.2004 -0.3086 -0.0365
 7191SOL    HW133032   0.296   1.039   5.010  2.4039  0.4015 -0.9084
 7191SOL    HW233033   0.180   1.051   4.931 -0.0243 -0.4332  0.8493
 7192SOL     OW33034   2.375   4.243   8.742 -0.8066  0.6229 -0.5665
 7192SOL    HW133035   2.393   4.317   8.684 -0.1112  1.0634  0.2009
 7192SOL    HW233036   2.320   4.284   8.808 -0.5517 -1.5726  1.0279
 7193SOL     OW33037   1.330   0.210   5.545  0.2499 -0.3763  0.4558
 7193SOL    HW133038   1.278   0.137   5.510  1.1218 -0.3098 -0.9897
 7193SOL    HW233039   1.412   0.194   5.498 -0.2630  1.0660 -0.9148
 7194SOL     OW33040   3.363   1.077  12.476  0.0039  0.6527  0.0753
 7194SOL    HW133041   3.452   1.067  12.512  0.8413 -1.9656 -2.7390
 7194SOL    HW233042   3.313   1.014  12.528 -0.1989  2.6107  2.2449
 7195SOL     OW33043   2.237   0.745   1.652  0.6283  0.1732  0.0016
 7195SOL    HW133044   2.283   0.668   1.685 -2.1513 -2.3562 -2.0475
 7195SOL    HW233045   2.305   0.802   1.616  2.8102 -3.4295 -1.5998
 7196SOL     OW33046   0.059   3.612   4.068 -0.3334  0.4709  0.6913
 7196SOL    HW133047   0.017   3.590   3.985  1.3286 -2.2923  0.5573
 7196SOL    HW233048   0.058   3.528   4.115  0.3897 -0.2260 -0.5265
 7197SOL     OW33049   1.526   2.797   8.751  0.2853 -0.7369  0.1355
 7197SOL    HW133050   1.562   2.779   8.664 -1.6009 -0.2417 -0.7423
 7197SOL    HW233051   1.593   2.761   8.809 -0.1373  0.5115  1.3968
 7198SOL     OW33052   3.893   1.453   5.856 -0.6181 -0.5167 -0.2785
 7198SOL    HW133053   3.940   1.386   5.904 -1.2196 -1.0995 -0.4959
 7198SOL    HW233054   3.822   1.404   5.813 -0.8033 -1.2783  0.9108
 7199SOL     OW33055   4.525   3.365   4.942 -0.0611  0.3106  0.2916
 7199SOL    HW133056   4.582   3.299   4.903 -1.3204 -1.8339  2.0799
 7199SOL    HW233057   4.545   3.376   5.035  0.1436  2.5691 -0.0214
 7200SOL     OW33058   1.568   4.664  10.471  0.4237  0.0096 -0.3978
 7200SOL    HW133059   1.525   4.645  10.554  0.9872 -0.0340 -0.1203
 7200SOL    HW233060   1.523   0.021  10.451  2.0769  1.4773  2.0187
 7201SOL     OW33061   3.350   3.360  15.306 -0.0313  0.5639  0.6395
 7201SOL    HW133062   3.404   3.372  15.228 -1.7539 -0.0925 -0.6502
 7201SOL    HW233063   3.302   3.443  15.298 -1.1427 -0.0229  1.1923
 7202SOL     OW33064   2.670   4.127   3.677 -0.0484 -0.1105  0.2809
 7202SOL    HW133065   2.730   4.181   3.728  1.0193 -1.8926  0.9292
 7202SOL    HW233066   2.582   4.165   3.682 -0.1625 -0.0919 -1.8801
 7203SOL     OW33067   2.509   4.066   5.254 -0.3782  0.0575  0.3901
 7203SOL    HW133068   2.517   3.995   5.190 -1.4506 -0.1658  0.4879
 7203SOL    HW233069   2.596   4.065   5.292 -0.2988 -0.2767  0.1995
 7204SOL     OW33070   3.843   1.910   4.484  0.2293 -0.0613  0.2069
 7204SOL    HW133071   3.894   1.868   4.553  0.2190 -0.9594 -0.3217
 7204SOL    HW233072   3.776   1.933   4.548 -1.9266 -0.0191 -2.0909
 7205SOL     OW33073   1.024   4.379   8.195  0.1653 -0.3746 -0.4556
 7205SOL    HW133074   0.931   4.387   8.176  0.2080 -1.5622 -1.1186
 7205SOL    HW233075   1.014   4.323   8.272 -0.3899  0.2425 -0.0784
 7206SOL     OW33076   3.841   2.645   9.508  0.3031 -0.0167  0.4224
 7206SOL    HW133077   3.932   2.615   9.508  0.1200 -0.5291 -1.2338
 7206SOL    HW233078   3.844   2.692   9.592 -0.4818 -1.4070  1.2334
 7207SOL     OW33079   1.464   4.076   7.922  0.3011  0.0071  0.3678
 7207SOL    HW133080   1.380   4.053   7.883 -0.4322  0.1879  1.8318
 7207SOL    HW233081   1.486   4.144   7.858  1.1059 -0.7374 -0.1468
 7208SOL     OW33082   1.817   4.533   4.406 -0.4605  0.0105 -0.1423
 7208SOL    HW133083   1.783   4.458   4.356 -0.1026  0.0481 -0.4384
 7208SOL    HW233084   1.763   4.510   4.482  0.2575  1.6722  0.8661
 7209SOL     OW33085   1.081   1.924   8.325  0.2730 -0.4204 -0.3621
 7209SOL    HW133086   1.163   1.936   8.278 -0.2115  0.4263 -1.0032
 7209SOL    HW233087   1.091   1.989   8.395  2.0632 -0.5926 -0.4572
 7210SOL     OW33088   4.489   4.575   2.239 -0.5090  0.3422 -0.9254
 7210SOL    HW133089   4.434   4.546   2.166  1.4519 -0.4473 -2.0814
 7210SOL    HW233090   4.420   4.619   2.288  0.0508  1.9099 -1.5570
 7211SOL     OW33091   1.965   3.606   5.455  0.8444  0.1616 -0.4832
 7211SOL    HW133092   1.939   3.514   5.453  2.7728 -0.4210  0.8909
 7211SOL    HW233093   1.931   3.630   5.369  2.0963  0.2866 -0.9382
 7212SOL     OW33094   3.446   3.951   7.341  0.0067 -0.1759 -0.0352
 7212SOL    HW133095   3.365   3.993   7.313 -0.0006 -1.3220 -1.7418
 7212SOL    HW233096   3.505   4.021   7.310 -1.1985  0.3763 -1.0631
 7213SOL     OW33097   0.525   3.068   5.079 -0.8689  0.5343  0.8495
 7213SOL    HW133098   0.495   3.155   5.052  1.7681  1.3986  0.7625
 7213SOL    HW233099   0.562   3.048   4.993 -0.6805  0.0005  1.0536
 7214SOL     OW33100   1.794   0.807   7.214  0.5011 -0.3192  0.4698
 7214SOL    HW133101   1.750   0.889   7.194  1.6295  0.4237  1.0261
 7214SOL    HW233102   1.858   0.824   7.283  0.4389 -0.0446  0.4587
 7215SOL     OW33103   4.649   0.039  10.828  0.6330 -0.0543  0.5789
 7215SOL    HW133104   4.605   0.004  10.905 -3.0687 -0.1963 -1.6270
 7215SOL    HW233105   4.610   0.126  10.825 -1.4928 -1.0564 -0.7959
 7216SOL     OW33106   3.419   4.349   5.396  0.1961  0.0653 -0.1772
 7216SOL    HW133107   3.514   4.338   5.398  0.0201 -1.5999 -1.2910
 7216SOL    HW233108   3.385   4.264   5.368  3.3035 -1.9462  2.1558
 7217SOL     OW33109   2.443   0.084  16.730  0.1883  0.5636  0.3591
 7217SOL    HW133110   2.466   0.053  16.642 -2.2461  0.5019 -0.2626
 7217SOL    HW233111   2.441   0.002  16.779  0.2755 -0.5195 -1.4587
 7218SOL     OW33112   4.403   0.537   7.782 -0.6749 -0.3700 -0.3095
 7218SOL    HW133113   4.404   0.465   7.719 -0.3285  2.0336 -3.0276
 7218SOL    HW233114   4.390   0.484   7.861 -0.5091 -0.5883 -0.4286
 7219SOL     OW33115   3.242   2.389   5.315 -0.3412 -0.0667 -0.5040
 7219SOL    HW133116   3.289   2.451   5.370 -2.8582  2.3150 -1.0196
 7219SOL    HW233117   3.201   2.340   5.386 -0.1300 -0.8914 -0.9427
 7220SOL     OW33118   2.465   3.956  13.556  0.8184  0.3718 -0.5244
 7220SOL    HW133119   2.395   3.896  13.582  0.2785  1.9001  1.5353
 7220SOL    HW233120   2.542   3.908  13.585  0.9667  2.5504  2.6856
 7221SOL     OW33121   3.935   0.575   9.177  0.0378 -0.5060 -0.0692
 7221SOL    HW133122   3.881   0.527   9.113  0.9544 -2.5176  0.6976
 7221SOL    HW233123   3.976   0.640   9.120 -1.5287  0.4499 -0.1155
 7222SOL     OW33124   4.425   1.325   8.344 -0.3920  0.9580 -0.1866
 7222SOL    HW133125   4.470   1.250   8.383  0.2290  0.8887 -1.0522
 7222SOL    HW233126   4.496   1.389   8.346 -0.2350  0.7862 -0.2171
 7223SOL     OW33127   3.727   3.720   4.167 -0.5908 -0.2593 -0.1075
 7223SOL    HW133128   3.641   3.762   4.163 -0.3342  0.2546 -0.1737
 7223SOL    HW233129   3.764   3.736   4.081 -1.4047  0.4021 -0.3328
 7224SOL     OW33130   1.202   2.544   9.624 -0.0360  0.0888 -0.2075
 7224SOL    HW133131   1.202   2.590   9.541 -1.1045  1.7179  0.6899
 7224SOL    HW233132   1.189   2.458   9.585  0.4282 -0.5777  1.1111
 7225SOL     OW33133   4.395   2.178  12.183 -0.1913 -0.3366 -0.1631
 7225SOL    HW133134   4.485   2.200  12.161  0.2559 -1.7205  0.2838
 7225SOL    HW233135   4.344   2.259  12.194  1.5370  0.6237  0.7904
 7226SOL     OW33136   2.596   4.609   6.107 -0.3499 -0.1672 -0.2606
 7226SOL    HW133137   2.607   4.675   6.039 -0.0910  0.4728  0.4037
 7226SOL    HW233138   2.656   4.644   6.173 -3.0043 -1.5858  2.9451
 7227SOL     OW33139   3.588   1.918  15.878  0.0697 -0.4171  0.2553
 7227SOL    HW133140   3.543   1.937  15.796  2.4673  0.0336 -0.9661
 7227SOL    HW233141   3.651   1.849  15.856  0.5836 -0.4605  1.8596
 7228SOL     OW33142   4.680   4.672   4.639 -0.0524 -0.2994 -0.5827
 7228SOL    HW133143   4.658   4.702   4.727 -0.2386  0.6459 -0.9510
 7228SOL    HW233144   4.597   4.663   4.593  0.6251 -0.4866 -1.7727
 7229SOL     OW33145   2.015   3.304   7.104 -0.0910 -0.2858  0.4395
 7229SOL    HW133146   1.954   3.374   7.129 -1.0889 -1.0497  0.1516
 7229SOL    HW233147   2.030   3.324   7.012  1.0804  2.3877  1.2256
 7230SOL     OW33148   1.680   4.399   1.896  0.0893  0.4792 -0.4475
 7230SOL    HW133149   1.710   4.396   1.806  2.5384 -1.3843  0.4260
 7230SOL    HW233150   1.653   4.491   1.897 -0.9135  0.1788  0.3431
 7231SOL     OW33151   0.041   4.212  11.664  0.1052  0.0300  0.3281
 7231SOL    HW133152   0.080   4.246  11.744  0.1321  0.0861  0.2911
 7231SOL    HW233153   0.061   4.282  11.602  1.3870 -1.0495 -0.4831
 7232SOL     OW33154   0.388   0.755   6.679  0.7783 -0.7537 -0.0647
 7232SOL    HW133155   0.372   0.741   6.586 -1.4491 -0.8166  0.3255
 7232SOL    HW233156   0.371   0.849   6.677  0.3787 -0.8147  0.2967
 7233SOL     OW33157   0.622   3.679  13.168 -0.0817 -0.1564  0.1753
 7233SOL    HW133158   0.713   3.699  13.145 -0.4682  1.3769  0.0024
 7233SOL    HW233159   0.634   3.615  13.238  1.4359 -0.9260 -0.7752
 7234SOL     OW33160   2.860   4.424   4.520  0.0228  0.3466 -0.3077
 7234SOL    HW133161   2.856   4.436   4.614 -0.0191  1.6761 -0.4799
 7234SOL    HW233162   2.842   4.509   4.481 -1.2527  1.1544  2.0604
 7235SOL     OW33163   2.177   1.858   3.230 -0.0314 -0.4773  0.4171
 7235SOL    HW133164   2.127   1.784   3.196 -0.2150 -0.1436 -0.0499
 7235SOL    HW233165   2.110   1.918   3.262  0.4871  0.1149  0.3989
 7236SOL     OW33166   3.860   4.385   4.084  0.3200 -0.0744 -0.2947
 7236SOL    HW133167   3.815   4.302   4.071  3.0236 -1.3199 -1.5488
 7236SOL    HW233168   3.796   4.451   4.059 -1.7307 -2.2747 -0.8451
 7237SOL     OW33169   3.299   2.900   7.811  0.1173 -0.4413 -0.0641
 7237SOL    HW133170   3.372   2.853   7.771  0.8293 -0.4808  1.3107
 7237SOL    HW233171   3.293   2.865   7.899 -0.0703  2.3059  1.0180
 7238SOL     OW33172   0.177   0.604   6.474 -0.5893  0.5290 -0.5691
 7238SOL    HW133173   0.106   0.548   6.504 -1.3333  1.9070  0.2476
 7238SOL    HW233174   0.145   0.692   6.493 -0.5065  0.3783  0.2520
 7239SOL     OW33175   0.719   0.111  10.729 -0.3300 -0.3311  0.4209
 7239SOL    HW133176   0.692   0.162  10.805 -0.0036  1.9337 -0.9806
 7239SOL    HW233177   0.803   0.151  10.708  0.7917 -1.5697  2.5178
 7240SOL     OW33178   0.952   2.918   4.566  0.6823  0.3721  0.1344
 7240SOL    HW133179   1.005   2.968   4.504  1.5875 -1.6665 -0.7436
 7240SOL    HW233180   0.888   2.892   4.499  1.0147 -1.1081  0.3754
 7241SOL     OW33181   0.312   4.365   3.505 -0.1100 -0.4549 -0.2736
 7241SOL    HW133182   0.330   4.336   3.594 -1.6433  0.2486  0.2705
 7241SOL    HW233183   0.296   4.459   3.515  1.5634  0.0778 -2.6434
 7242SOL     OW33184   3.013   0.779   8.523  0.1189  0.7276  0.1509
 7242SOL    HW133185   3.033   0.799   8.615 -1.3330 -2.3025  1.0986
 7242SOL    HW233186   3.095   0.787   8.474 -1.4599 -0.1772 -2.6218
 7243SOL     OW33187   0.617   4.572  10.753 -0.0626  0.2478  0.1269
 7243SOL    HW133188   0.640   4.665  10.755 -0.7278  0.3507  5.6049
 7243SOL    HW233189   0.522   4.585  10.747  0.1327 -0.4055 -4.0646
 7244SOL     OW33190   0.995   0.041  15.597 -0.3745 -0.6258 -0.2448
 7244SOL    HW133191   0.987   0.005  15.686 -0.2215 -1.0722 -0.4115
 7244SOL    HW233192   0.906   0.073  15.588 -1.0336 -1.8289  1.9328
 7245SOL     OW33193   2.062   2.717   6.192 -0.0234  0.4457  0.0597
 7245SOL    HW133194   2.079   2.623   6.202 -1.0709  0.1517 -0.8852
 7245SOL    HW233195   1.999   2.716   6.120  1.5650 -0.3764 -1.3474
 7246SOL     OW33196   4.035   2.691   9.207 -0.2440  0.7731 -0.0033
 7246SOL    HW133197   4.055   2.637   9.130  1.5245  1.4675 -0.0483
 7246SOL    HW233198   4.079   2.636   9.272  2.9673  2.2055 -0.9484
 7247SOL     OW33199   1.710   4.155   6.706 -0.4882 -0.3243  0.6540
 7247SOL    HW133200   1.653   4.215   6.658  1.8839  1.0467 -0.4122
 7247SOL    HW233201   1.755   4.220   6.760  0.9089  0.0599 -0.9824
 7248SOL     OW33202   2.565   1.733  13.800  0.7638 -0.3310 -0.8750
 7248SOL    HW133203   2.544   1.692  13.884 -1.0873  1.4508 -0.4635
 7248SOL    HW233204   2.576   1.824  13.828  2.0877 -0.4915 -0.8600
 7249SOL     OW33205   3.850   2.934   3.857  0.1434 -0.3190  0.0461
 7249SOL    HW133206   3.905   2.996   3.810  1.9549 -1.2667  0.9183
 7249SOL    HW233207   3.793   2.912   3.784  0.0307 -2.0103  0.6445
 7250SOL     OW33208   1.962   3.948   8.402 -0.2019 -0.7079  0.3144
 7250SOL    HW133209   1.888   3.980   8.454 -0.5547 -2.3132  0.8018
 7250SOL    HW233210   2.031   4.011   8.426 -1.0630  0.1452  0.5467
 7251SOL     OW33211   2.235   2.564   6.524 -0.2741 -0.4062 -0.1408
 7251SOL    HW133212   2.212   2.489   6.579 -0.3026 -0.6419 -0.4765
 7251SOL    HW233213   2.166   2.629   6.540 -0.5776 -0.5595 -0.8178
 7252SOL     OW33214   0.108   2.391   5.950  0.0576 -0.0178 -0.0428
 7252SOL    HW133215   0.203   2.403   5.944  0.0309  0.0341 -0.3700
 7252SOL    HW233216   0.073   2.453   5.886 -1.7186 -2.6856 -1.6608
 7253SOL     OW33217   3.483   1.292   2.198  0.0166 -0.0265  0.3085
 7253SOL    HW133218   3.440   1.377   2.212 -0.7671 -0.1132 -1.4795
 7253SOL    HW233219   3.503   1.276   2.290 -0.7607 -0.6429  0.3766
 7254SOL     OW33220   4.368   2.895   8.597 -0.2932 -0.2256  0.2506
 7254SOL    HW133221   4.276   2.922   8.587 -0.1253  0.4317  0.4592
 7254SOL    HW233222   4.347   2.829   8.663  1.1469  0.3549  1.2812
 7255SOL     OW33223   2.655   0.729  17.035  0.1424 -0.2173  0.4704
 7255SOL    HW133224   2.667   0.756  16.944  0.4570 -1.8522  0.0280
 7255SOL    HW233225   2.652   0.813  17.081 -1.5861  0.9556 -1.8333
 7256SOL     OW33226   3.490   0.484  16.899 -0.3241 -0.3869  0.0602
 7256SOL    HW133227   3.563   0.436  16.861 -1.0211 -1.3716 -0.0399
 7256SOL    HW233228   3.478   0.433  16.980  0.6366 -0.2037  0.3197
 7257SOL     OW33229   3.407   0.876   6.192  0.8586 -0.3466  0.0790
 7257SOL    HW133230   3.440   0.817   6.260 -2.5343 -0.7975  1.3158
 7257SOL    HW233231   3.423   0.829   6.110  0.5062  1.0071 -0.7695
 7258SOL     OW33232   4.034   2.185   4.560  0.4549  0.1118  0.1841
 7258SOL    HW133233   4.122   2.165   4.590  0.0299  0.4499  1.6463
 7258SOL    HW233234   4.022   2.276   4.588  1.2759  0.3420 -0.2244
 7259SOL     OW33235   1.270   2.168  12.139  0.6804 -0.7523 -0.5465
 7259SOL    HW133236   1.257   2.246  12.085 -0.6718  0.5573  1.6764
 7259SOL    HW233237   1.200   2.116  12.099  0.7607 -0.1489 -1.4854
 7260SOL     OW33238   1.719   0.676   4.986  0.1617  0.1023 -0.2348
 7260SOL    HW133239   1.730   0.766   5.016  1.4275  0.8907 -3.0783
 7260SOL    HW233240   1.662   0.640   5.054  1.5428  0.5241  1.1306
 7261SOL     OW33241   3.829   2.190   6.409  0.4266  0.6248  0.2770
 7261SOL    HW133242   3.753   2.152   6.453  0.6411  0.7263  0.7345
 7261SOL    HW233243   3.883   2.208   6.487  3.0149  1.1867 -1.6457
 7262SOL     OW33244   2.959   3.283   0.054  0.1988 -0.1215 -0.8667
 7262SOL    HW133245   3.040   3.294   0.005  0.4689  1.0669 -0.1583
 7262SOL    HW233246   3.009   3.251   0.129  0.2656  2.6402  0.2652
 7263SOL     OW33247   2.934   4.205   9.505  0.8650 -0.1463  0.8429
 7263SOL    HW133248   2.990   4.128   9.505 -1.2803 -1.6983 -2.0772
 7263SOL    HW233249   2.953   4.243   9.419  0.3876 -1.9469 -0.0397
 7264SOL     OW33250   0.316   4.656   5.576  0.6035  0.0973  0.0200
 7264SOL    HW133251   0.222   4.646   5.557  0.4508  1.6511 -0.0762
 7264SOL    HW233252   0.344   4.601   5.503 -0.1090  0.0770 -0.2380
 7265SOL     OW33253   3.077   3.576   3.304  0.0753 -0.3818  0.0598
 7265SOL    HW133254   3.124   3.558   3.223 -1.0374  2.0970 -1.1305
 7265SOL    HW233255   3.147   3.599   3.365 -0.5321  1.2943  0.1251
 7266SOL     OW33256   3.536   0.018  10.653  0.0885 -0.4616  0.4277
 7266SOL    HW133257   3.545   0.002  10.747 -2.9445  0.2396  0.8446
 7266SOL    HW233258   3.464   0.082  10.658 -0.0742 -0.6882  0.9020
 7267SOL     OW33259   3.235   4.138   7.354 -0.6894  0.0968 -0.2392
 7267SOL    HW133260   3.229   4.222   7.308  0.3907 -0.6719 -1.7881
 7267SOL    HW233261   3.152   4.099   7.326 -0.8387  0.5059 -0.3675
 7268SOL     OW33262   1.101   3.260   2.802 -0.3908 -0.0938  0.1365
 7268SOL    HW133263   1.030   3.256   2.866 -0.5379  1.4026  0.0605
 7268SOL    HW233264   1.097   3.355   2.789  0.4204 -0.1380 -0.5177
 7269SOL     OW33265   4.236   1.225   4.298 -0.2367 -0.7964  0.4608
 7269SOL    HW133266   4.185   1.190   4.225 -2.5774 -0.2341  1.8326
 7269SOL    HW233267   4.269   1.144   4.337  0.8038 -1.4390 -1.8154
 7270SOL     OW33268   3.446   3.699  14.204 -0.1839 -0.4704  0.2502
 7270SOL    HW133269   3.538   3.709  14.182 -0.3302 -0.8092 -0.5246
 7270SOL    HW233270   3.433   3.771  14.266 -3.0498 -1.8053  1.1888
 7271SOL     OW33271   4.336   0.307   7.660  0.5365 -0.3358  0.0525
 7271SOL    HW133272   4.362   0.215   7.669 -2.2737 -0.9553  1.7116
 7271SOL    HW233273   4.264   0.299   7.597 -0.1481  2.5447  0.4862
 7272SOL     OW33274   2.155   2.678   5.206 -0.3600 -0.1295 -0.1100
 7272SOL    HW133275   2.104   2.694   5.286  1.4566  0.9554  0.8252
 7272SOL    HW233276   2.240   2.676   5.250 -0.8091 -0.1177  0.7772
 7273SOL     OW33277   4.716   0.421   2.604 -0.4310 -0.3578 -0.2231
 7273SOL    HW133278   0.007   0.475   2.527 -0.2954  1.1036  0.8220
 7273SOL    HW233279   4.641   0.371   2.574 -0.0130 -1.1255  0.0139
 7274SOL     OW33280   1.151   1.541   8.785 -0.0142  0.3555  0.1173
 7274SOL    HW133281   1.076   1.558   8.729  1.1328 -0.7459 -1.7675
 7274SOL    HW233282   1.224   1.583   8.739  0.1124 -0.0846 -0.0922
 7275SOL     OW33283   0.808   1.035   7.859 -0.7752 -0.5924 -0.0261
 7275SOL    HW133284   0.903   1.042   7.870 -0.7484  1.3606 -1.4061
 7275SOL    HW233285   0.778   1.122   7.887  0.3115  0.1178 -1.0659
 7276SOL     OW33286   3.407   0.650   8.471 -0.5729  0.1797  0.4475
 7276SOL    HW133287   3.471   0.581   8.487  0.7643  0.6626 -2.9097
 7276SOL    HW233288   3.447   0.723   8.519 -1.2428 -0.3951  1.8762
 7277SOL     OW33289   0.204   3.191   2.317  0.0291 -0.4392  0.1052
 7277SOL    HW133290   0.185   3.161   2.406  0.9193  2.7335  1.3838
 7277SOL    HW233291   0.178   3.118   2.261  0.9082  0.8574 -2.0056
 7278SOL     OW33292   0.734   0.248  14.475  0.0387 -0.4398  0.1700
 7278SOL    HW133293   0.689   0.179  14.524  0.8979 -1.4132 -0.4165
 7278SOL    HW233294   0.706   0.227  14.386 -1.1909 -1.1653  0.7325
 7279SOL     OW33295   2.768   2.820   6.592  0.0829 -0.5087  0.2752
 7279SOL    HW133296   2.698   2.801   6.654  0.0176 -0.3468  0.2515
 7279SOL    HW233297   2.714   2.859   6.524  0.5175 -0.2945  0.0480
 7280SOL     OW33298   4.473   1.521  11.295 -0.9492 -0.1265 -0.4793
 7280SOL    HW133299   4.457   1.550  11.385  1.9299 -1.0870  0.3469
 7280SOL    HW233300   4.561   1.557  11.278 -2.5022  2.5591 -2.9620
 7281SOL     OW33301   2.099   0.022   3.480 -0.1239 -0.0787  0.4030
 7281SOL    HW133302   2.164   0.083   3.445  1.1929 -1.9398 -0.3888
 7281SOL    HW233303   2.134   4.660   3.467  0.6829  0.3170 -0.0977
 7282SOL     OW33304   0.379   1.292   5.922 -0.3480  0.0857  0.0517
 7282SOL    HW133305   0.353   1.312   6.012  0.5987  0.2419  0.2902
 7282SOL    HW233306   0.442   1.358   5.893  1.2351 -1.2176  0.5160
 7283SOL     OW33307   1.743   4.085  11.387  0.5904 -0.0909 -0.2019
 7283SOL    HW133308   1.718   4.047  11.471 -1.0058  1.1684 -0.1022
 7283SOL    HW233309   1.722   4.012  11.328  0.9274 -0.0868 -0.3229
 7284SOL     OW33310   4.000   1.706   4.322  0.2042  0.2465 -0.1258
 7284SOL    HW133311   3.951   1.783   4.353 -0.7561 -0.4321  0.0535
 7284SOL    HW233312   4.085   1.736   4.353  1.0774 -0.0696 -2.2388
 7285SOL     OW33313   4.275   2.372   3.463 -0.2523  0.2933 -0.6807
 7285SOL    HW133314   4.284   2.277   3.473  1.7968  0.5628  0.0431
 7285SOL    HW233315   4.297   2.410   3.548 -0.9722 -0.0718 -0.3330
 7286SOL     OW33316   1.696   1.252   6.489  0.4272  0.0795  0.5758
 7286SOL    HW133317   1.739   1.191   6.429  3.1865  2.0589  0.5443
 7286SOL    HW233318   1.749   1.332   6.485 -0.2248  0.3782 -1.9570
 7287SOL     OW33319   1.341   0.705   4.895  0.3850 -0.4163  0.4266
 7287SOL    HW133320   1.277   0.745   4.835  1.0421 -0.6827 -0.4460
 7287SOL    HW233321   1.360   0.782   4.949  0.1661 -0.2305  0.2409
 7288SOL     OW33322   1.717   3.935   1.909 -0.1091  0.0276 -0.0913
 7288SOL    HW133323   1.743   3.979   1.828 -1.4315  0.9575 -0.0179
 7288SOL    HW233324   1.800   3.928   1.955  0.1547 -0.0474 -0.5846
 7289SOL     OW33325   2.012   2.470   4.778  0.0611 -0.2965  0.4515
 7289SOL    HW133326   2.078   2.517   4.828 -0.1445  0.7939 -0.3110
 7289SOL    HW233327   2.060   2.389   4.758 -0.0668 -0.0994 -0.6474
 7290SOL     OW33328   1.208   4.304  16.731  0.0579  0.0106  0.0988
 7290SOL    HW133329   1.245   4.345  16.653  0.3969  0.7132  0.6228
 7290SOL    HW233330   1.127   4.353  16.741 -0.1394 -0.6085  1.5120
 7291SOL     OW33331   3.665   1.125   3.511  0.3151 -0.8288 -0.0164
 7291SOL    HW133332   3.671   1.125   3.606 -0.5207 -2.2818  0.0522
 7291SOL    HW233333   3.570   1.140   3.508  0.4279 -0.1707 -0.2047
 7292SOL     OW33334   2.308   4.065  12.828 -0.2248 -0.3750 -0.2333
 7292SOL    HW133335   2.402   4.060  12.841 -0.3529  1.4858  1.4273
 7292SOL    HW233336   2.285   3.997  12.764  0.0979  1.1482 -1.9590
 7293SOL     OW33337   2.064   3.313   6.182  0.2215 -0.2650 -0.3559
 7293SOL    HW133338   2.073   3.303   6.087 -1.5504 -0.2686 -0.5224
 7293SOL    HW233339   2.109   3.239   6.223  0.1136  0.7761  1.6231
 7294SOL     OW33340   1.353   3.271   8.788 -0.1054 -0.0223 -0.2638
 7294SOL    HW133341   1.435   3.310   8.820 -0.8192  0.7769  0.5745
 7294SOL    HW233342   1.366   3.180   8.816 -1.5209  0.4240  1.8784
 7295SOL     OW33343   2.248   1.151   0.682  0.2652  0.4586 -0.2479
 7295SOL    HW133344   2.169   1.187   0.723 -0.8016 -0.9704 -1.0703
 7295SOL    HW233345   2.311   1.217   0.712 -1.1618  0.8403  1.9250
 7296SOL     OW33346   2.241   0.692   5.557 -0.2949  0.2974  0.0774
 7296SOL    HW133347   2.310   0.653   5.611  1.4036  0.5376 -1.9454
 7296SOL    HW233348   2.281   0.686   5.471 -0.0010 -0.9185  0.2903
 7297SOL     OW33349   3.846   1.626   2.675 -0.2866 -0.3677  0.4703
 7297SOL    HW133350   3.912   1.691   2.653 -2.0421  1.5473  0.7971
 7297SOL    HW233351   3.872   1.599   2.763  1.6755 -0.0646 -0.0238
 7298SOL     OW33352   3.854   0.313   2.511  0.2711 -0.0576  0.5488
 7298SOL    HW133353   3.922   0.360   2.463 -2.0346  2.0659 -0.6604
 7298SOL    HW233354   3.885   0.223   2.501 -0.3516 -0.3280  1.0927
 7299SOL     OW33355   4.072   0.880   9.174 -0.5721 -0.6467 -0.9177
 7299SOL    HW133356   4.148   0.926   9.209 -0.2050 -1.6265 -0.4160
 7299SOL    HW233357   4.023   0.863   9.255 -0.3762  0.3910 -0.5849
 7300SOL     OW33358   0.073   2.310   4.458 -0.6064 -0.1881 -0.0585
 7300SOL    HW133359   0.082   2.364   4.379 -2.3942  0.8561  0.4519
 7300SOL    HW233360   0.162   2.308   4.493 -0.0470  0.5583 -1.4459
 7301SOL     OW33361   2.343   1.100   8.169  0.6498  0.3062 -0.2600
 7301SOL    HW133362   2.380   1.179   8.207 -2.0526  1.5037 -0.1109
 7301SOL    HW233363   2.254   1.110   8.204 -0.0032 -1.7179 -1.3312
 7302SOL     OW33364   1.076   3.309   8.058 -0.7925  0.2078 -0.3940
 7302SOL    HW133365   1.077   3.334   7.966 -1.8433  0.0536 -0.4514
 7302SOL    HW233366   1.133   3.380   8.088 -0.3872 -0.2711 -0.0252
 7303SOL     OW33367   2.962   1.561   1.933 -0.1485 -0.0563  0.3690
 7303SOL    HW133368   2.927   1.623   1.869  0.2488  1.9006  2.0345
 7303SOL    HW233369   2.922   1.487   1.888  0.0937  0.3004 -0.4317
 7304SOL     OW33370   4.690   3.143   6.467  0.1895  0.2966 -0.1155
 7304SOL    HW133371   4.657   3.195   6.540 -1.6770 -1.7535  0.4958
 7304SOL    HW233372   4.720   3.071   6.523 -1.2557 -1.7313 -1.9359
 7305SOL     OW33373   1.810   1.126  16.115 -0.1237  0.2030 -0.0563
 7305SOL    HW133374   1.865   1.131  16.036 -0.2481  1.3879 -0.0635
 7305SOL    HW233375   1.814   1.032  16.134  1.3922  0.3608  0.3759
 7306SOL     OW33376   2.763   3.675   5.950 -0.1522  0.1285  0.0516
 7306SOL    HW133377   2.709   3.616   6.003 -3.5840  1.4121 -2.0322
 7306SOL    HW233378   2.719   3.759   5.963 -0.2187  0.3887 -1.8659
 7307SOL     OW33379   2.216   2.316   5.016  0.1826  0.1245 -0.0053
 7307SOL    HW133380   2.204   2.287   4.925  0.2503 -0.0184  0.0320
 7307SOL    HW233381   2.136   2.273   5.045  1.0561 -1.4965  0.0085
 7308SOL     OW33382   0.656   1.878  15.815 -0.1901 -0.2202 -0.3528
 7308SOL    HW133383   0.684   1.877  15.724  1.0210 -1.5262  0.0284
 7308SOL    HW233384   0.579   1.821  15.810  0.4978 -1.1143 -0.7112
 7309SOL     OW33385   1.582   2.896   7.530 -0.4236 -0.0774  0.0211
 7309SOL    HW133386   1.643   2.897   7.457 -2.2645  0.4403 -1.4971
 7309SOL    HW233387   1.518   2.832   7.502  1.0412 -1.2820 -0.5801
 7310SOL     OW33388   1.788   1.354   5.028  0.3127  0.1177  0.2740
 7310SOL    HW133389   1.791   1.336   5.122 -0.0529 -2.3246 -0.1936
 7310SOL    HW233390   1.865   1.406   5.007  1.1129 -0.4831  1.7432
 7311SOL     OW33391   2.955   0.752  17.080  0.3306 -0.4282  0.3434
 7311SOL    HW133392   2.972   0.678  17.138  1.1570 -0.4622  0.0526
 7311SOL    HW233393   2.859   0.752  17.082  0.3569  1.8621  0.8279
 7312SOL     OW33394   2.534   2.713   4.859 -0.3292 -0.2468  0.0829
 7312SOL    HW133395   2.477   2.640   4.886 -1.6597  0.8862  0.3555
 7312SOL    HW233396   2.618   2.671   4.877 -0.6944 -0.5384  1.1081
 7313SOL     OW33397   2.160   3.062   3.378 -0.0676  0.0338  0.2078
 7313SOL    HW133398   2.239   3.106   3.407  1.2459 -0.6065 -2.3871
 7313SOL    HW233399   2.192   2.973   3.361  0.3156  0.5110 -1.6067
 7314SOL     OW33400   1.923   2.438   3.545 -0.1251  0.1811  0.8141
 7314SOL    HW133401   1.992   2.381   3.512  0.6818  0.4950  1.9613
 7314SOL    HW233402   1.972   2.521   3.550 -0.2831  0.2969  0.3668
 7315SOL     OW33403   2.801   0.534   9.852  0.3430  0.6017  0.2134
 7315SOL    HW133404   2.720   0.529   9.801 -0.6935  1.7860  1.7575
 7315SOL    HW233405   2.765   0.500   9.934 -3.1300  2.1942 -0.6706
 7316SOL     OW33406   1.416   4.033   2.078  0.4063  0.6789  0.0358
 7316SOL    HW133407   1.442   4.112   2.031  1.2495  1.9126  2.6158
 7316SOL    HW233408   1.491   4.006   2.129 -0.0348  1.9800  1.3626
 7317SOL     OW33409   1.352   4.187   2.783 -0.0659  0.2398 -0.4885
 7317SOL    HW133410   1.445   4.206   2.794  0.1807 -0.6227 -1.1077
 7317SOL    HW233411   1.343   4.192   2.688 -0.1025  1.0571 -0.4392
 7318SOL     OW33412   1.857   0.276   9.506 -0.6148  0.1866 -0.6504
 7318SOL    HW133413   1.816   0.223   9.574  2.6437 -0.2242  0.9622
 7318SOL    HW233414   1.885   0.353   9.555  2.9409  0.0391 -2.4370
 7319SOL     OW33415   3.527   0.965   7.644  0.1139 -0.4188  0.6835
 7319SOL    HW133416   3.436   0.945   7.621 -0.2358  2.1434 -0.2091
 7319SOL    HW233417   3.537   1.044   7.591 -1.2295 -0.0770  0.9338
 7320SOL     OW33418   4.413   3.554   4.115 -0.1456  0.2957  0.8351
 7320SOL    HW133419   4.493   3.509   4.088  0.3615  1.0631  1.0799
 7320SOL    HW233420   4.430   3.646   4.095  1.8072 -0.2949 -0.2203
 7321SOL     OW33421   0.652   2.206   2.709 -0.1782  0.3473 -0.0809
 7321SOL    HW133422   0.596   2.282   2.697 -0.9447 -0.1585  0.2734
 7321SOL    HW233423   0.679   2.224   2.799  3.0812  0.3731 -1.0637
 7322SOL     OW33424   2.900   0.252  10.693 -0.2152  0.1449  0.0007
 7322SOL    HW133425   2.895   0.234  10.787  2.4507  0.0954  0.1421
 7322SOL    HW233426   2.875   0.167  10.655  0.2228  0.4722 -1.0276
 7323SOL     OW33427   2.262   0.991   4.856 -0.2748 -0.0220  0.0015
 7323SOL    HW133428   2.200   1.060   4.882 -0.5265 -0.1869 -0.1622
 7323SOL    HW233429   2.306   0.977   4.940  0.1237 -0.3271 -0.2646
 7324SOL     OW33430   2.228   2.458  13.365  0.1119  0.4480  0.0204
 7324SOL    HW133431   2.296   2.461  13.432 -0.7409 -1.0335  0.9278
 7324SOL    HW233432   2.150   2.436  13.416  1.2968 -0.2751  1.5201
 7325SOL     OW33433   3.117   1.342  15.983  0.1131 -0.6693  0.2844
 7325SOL    HW133434   3.206   1.354  15.949 -1.4356  4.1149 -2.0741
 7325SOL    HW233435   3.125   1.351  16.078  2.7338  0.5548 -0.0492
 7326SOL     OW33436   3.371   3.558   3.506 -0.6815  0.4810  0.4852
 7326SOL    HW133437   3.459   3.593   3.518  0.6711 -2.4102 -0.9430
 7326SOL    HW233438   3.309   3.625   3.536 -0.9473  0.2972  0.3510
 7327SOL     OW33439   1.439   0.698  14.856 -0.1998  0.5018 -0.3266
 7327SOL    HW133440   1.347   0.695  14.832  0.1893  0.0357 -1.7169
 7327SOL    HW233441   1.485   0.715  14.774 -0.0135 -1.3047 -0.5989
 7328SOL     OW33442   4.523   3.023  15.035  0.5427 -0.3103  0.2746
 7328SOL    HW133443   4.617   3.002  15.037  0.6044 -0.1418 -1.4714
 7328SOL    HW233444   4.489   2.981  14.956  2.5959 -0.1221 -0.7054
 7329SOL     OW33445   3.194   4.097   9.775 -0.8632 -0.2616  0.3548
 7329SOL    HW133446   3.243   4.039   9.834 -0.1567 -0.4371 -0.4118
 7329SOL    HW233447   3.185   4.053   9.690 -0.9942 -0.1848  0.3295
 7330SOL     OW33448   0.028   3.578   6.414 -1.1340 -0.7042 -0.1811
 7330SOL    HW133449   0.083   3.555   6.489 -2.1934 -1.4021  0.3813
 7330SOL    HW233450   0.043   3.504   6.355  1.8903  0.7353 -1.2041
 7331SOL     OW33451   1.934   3.129   3.177 -0.7469 -0.7462  0.0993
 7331SOL    HW133452   1.991   3.100   3.248  0.1916 -1.2124 -0.8442
 7331SOL    HW233453   1.954   3.058   3.117 -0.6757 -2.0929  1.7120
 7332SOL     OW33454   3.439   2.516  14.811  0.9000 -0.3530  0.0512
 7332SOL    HW133455   3.494   2.449  14.769  1.6587  1.0214 -1.1651
 7332SOL    HW233456   3.477   2.522  14.898 -1.7409 -0.5873  1.2223
 7333SOL     OW33457   3.166   2.708  14.111  0.1846  0.7533  0.4228
 7333SOL    HW133458   3.103   2.779  14.122  0.1607  0.9565 -0.9914
 7333SOL    HW233459   3.166   2.687  14.018 -1.9768  0.3334  0.5175
 7334SOL     OW33460   0.977   1.975   2.260  0.3744 -0.3800 -0.1645
 7334SOL    HW133461   1.046   2.016   2.313 -1.8219  2.6026  0.3642
 7334SOL    HW233462   0.946   2.049   2.208  0.2913 -0.7547 -0.6379
 7335SOL     OW33463   3.837   4.176   6.680  0.2172  0.5265  0.3651
 7335SOL    HW133464   3.787   4.107   6.724  0.2229 -0.9995 -2.0725
 7335SOL    HW233465   3.902   4.124   6.633 -0.4666  0.6005 -0.6601
 7336SOL     OW33466   2.953   1.283   0.102 -0.4285  0.1729 -0.5286
 7336SOL    HW133467   3.001   1.272   0.020  0.0320  0.9509 -0.3578
 7336SOL    HW233468   3.000   1.235   0.170  0.6308  0.2390 -1.2144
 7337SOL     OW33469   1.961   1.449   7.934  0.3023 -0.0454  0.5679
 7337SOL    HW133470   2.007   1.365   7.925 -0.0194 -0.0981 -0.6170
 7337SOL    HW233471   1.932   1.462   7.843  0.0560 -1.0036  0.5062
 7338SOL     OW33472   0.878   2.428   9.548  0.3901 -0.2250  0.0005
 7338SOL    HW133473   0.786   2.406   9.559  0.2962 -0.0321 -0.4050
 7338SOL    HW233474   0.867   2.523   9.552  0.5082 -0.1271 -1.7684
 7339SOL     OW33475   2.900   3.392   2.355 -0.5635  0.0524 -0.1305
 7339SOL    HW133476   2.964   3.453   2.318 -0.2445  1.0348  2.0492
 7339SOL    HW233477   2.923   3.387   2.448 -2.2574 -0.4186  0.2532
 7340SOL     OW33478   0.609   2.404   4.188 -0.5911  0.2516 -0.2641
 7340SOL    HW133479   0.657   2.322   4.191  0.2436  0.6840 -1.9443
 7340SOL    HW233480   0.627   2.441   4.274 -0.8071  0.4731 -0.3116
 7341SOL     OW33481   2.743   0.819   0.321 -0.3278 -0.8483  0.4938
 7341SOL    HW133482   2.801   0.748   0.295 -0.1407 -0.5225  0.0288
 7341SOL    HW233483   2.804   0.854   0.387 -0.8426  0.1344  0.4578
 7342SOL     OW33484   1.423   1.903  13.216 -0.4971  0.1357  0.2835
 7342SOL    HW133485   1.348   1.846  13.197 -1.3151  1.4979 -0.5634
 7342SOL    HW233486   1.377   1.978  13.255  0.1374  1.2499 -1.1254
 7343SOL     OW33487   1.214   1.671   6.737 -0.3229  0.5234  0.3797
 7343SOL    HW133488   1.220   1.752   6.788  1.5374  1.5619 -1.4933
 7343SOL    HW233489   1.163   1.705   6.663 -1.8176 -3.0553 -0.2267
 7344SOL     OW33490   0.939   0.255  10.687  0.7265  0.2819 -0.2712
 7344SOL    HW133491   0.980   0.341  10.701 -0.3142  0.6934  0.2731
 7344SOL    HW233492   1.007   0.190  10.669  1.3936  0.8535  0.1592
 7345SOL     OW33493   3.281   4.422   8.172 -0.0682 -0.1766  0.1563
 7345SOL    HW133494   3.293   4.480   8.247 -0.0263 -1.0861  0.8503
 7345SOL    HW233495   3.188   4.404   8.164  0.4700 -2.1904 -1.7456
 7346SOL     OW33496   1.046   2.568   3.608  0.0225 -0.1032 -0.1164
 7346SOL    HW133497   0.977   2.502   3.619  0.7171 -0.7158  0.5646
 7346SOL    HW233498   1.049   2.600   3.699 -0.1733 -0.8857  0.1715
 7347SOL     OW33499   0.057   0.355   6.374 -0.1424 -0.4339 -0.4099
 7347SOL    HW133500   0.080   0.262   6.364  1.4746 -0.1911  0.9595
 7347SOL    HW233501   4.725   0.365   6.449 -1.1019 -0.9906 -1.0755
 7348SOL     OW33502   0.545   1.924  11.810 -0.5861  0.5396 -0.2270
 7348SOL    HW133503   0.584   1.873  11.880 -0.3679  1.0886  0.0539
 7348SOL    HW233504   0.536   2.014  11.841  2.1186  1.1250 -1.1841
 7349SOL     OW33505   3.755   2.938  15.997  0.6747 -0.9088 -0.7856
 7349SOL    HW133506   3.788   3.026  16.018  0.0833 -1.0530  0.7906
 7349SOL    HW233507   3.821   2.875  16.026  1.1234  0.6941  1.7308
 7350SOL     OW33508   1.987   3.722   0.667 -0.2099 -0.6133 -0.0001
 7350SOL    HW133509   1.921   3.672   0.714  0.4105 -2.1137 -0.7371
 7350SOL    HW233510   2.053   3.656   0.650 -0.9341 -1.1324 -0.7939
 7351SOL     OW33511   0.478   1.166   1.794  0.5210  0.3966  0.7035
 7351SOL    HW133512   0.534   1.107   1.844  1.9462  0.9514 -0.2435
 7351SOL    HW233513   0.551   1.227   1.782  1.4488 -0.5517  1.5774
 7352SOL     OW33514   2.993   1.656   8.829 -0.4547 -0.3146 -0.2950
 7352SOL    HW133515   3.030   1.699   8.906 -0.4026 -0.4121 -0.2652
 7352SOL    HW233516   2.907   1.617   8.847 -0.4614 -0.2108 -0.1047
 7353SOL     OW33517   3.461   1.047   8.733  0.3249 -0.5145 -0.1443
 7353SOL    HW133518   3.474   1.131   8.776  0.1472 -1.4352  1.6997
 7353SOL    HW233519   3.399   1.010   8.797 -2.3252  1.7883 -1.3614
 7354SOL     OW33520   4.261   2.771   2.131 -0.1517 -0.6032 -0.3653
 7354SOL    HW133521   4.313   2.700   2.169 -2.5485 -1.9487  0.4068
 7354SOL    HW233522   4.244   2.831   2.203  1.3872  0.2230 -0.6984
 7355SOL     OW33523   1.123   4.092   4.790  0.0380  0.0462  0.5839
 7355SOL    HW133524   1.042   4.079   4.839  0.1117  1.8801  1.1655
 7355SOL    HW233525   1.124   4.032   4.715  1.9627 -2.0706  2.3308
 7356SOL     OW33526   3.547   2.263  12.410 -0.3600 -0.4450 -0.1171
 7356SOL    HW133527   3.617   2.228  12.354 -0.1312  2.1718 -1.4871
 7356SOL    HW233528   3.593   2.296  12.487 -1.1575  1.4091 -0.4453
 7357SOL     OW33529   2.565   4.657   1.881  0.6514  0.5389  0.3350
 7357SOL    HW133530   2.660   4.654   1.868  0.3266  0.6871 -2.1725
 7357SOL    HW233531   2.550   0.025   1.890  1.1986  0.6423  0.1991
 7358SOL     OW33532   1.441   4.025   3.958 -0.1164 -0.1292  0.2289
 7358SOL    HW133533   1.369   3.967   3.936  1.3235 -1.8524  0.0929
 7358SOL    HW233534   1.384   4.091   3.997  1.1288  0.1179  1.6377
 7359SOL     OW33535   3.417   1.094   2.017  0.1534 -0.4166  0.3084
 7359SOL    HW133536   3.329   1.067   2.041  0.9780 -3.2859  0.0777
 7359SOL    HW233537   3.433   1.156   2.088 -3.7903  2.2269 -1.1071
 7360SOL     OW33538   1.794   2.078   5.273 -0.0566  0.2905 -0.4014
 7360SOL    HW133539   1.706   2.064   5.238 -0.0009 -0.3409 -0.2981
 7360SOL    HW233540   1.769   2.110   5.360  2.1728  0.9588 -0.0064
 7361SOL     OW33541   3.865   0.668   3.830  0.2405 -0.2089  0.2686
 7361SOL    HW133542   3.798   0.644   3.894 -1.1195  0.7014 -0.8246
 7361SOL    HW233543   3.918   0.588   3.830  1.7489  0.8027  0.0151
 7362SOL     OW33544   4.633   3.204   6.715 -0.0793  0.0786  0.0833
 7362SOL    HW133545   0.001   3.210   6.733  0.3182 -1.7016 -1.3932
 7362SOL    HW233546   4.594   3.242   6.794 -1.9047  0.1815 -0.8649
 7363SOL     OW33547   4.095   0.713  10.253 -0.4686  0.6527 -0.1169
 7363SOL    HW133548   4.108   0.618  10.249 -0.7306  0.5818  0.6350
 7363SOL    HW233549   4.181   0.733  10.290  0.7661 -0.5454 -2.3392
 7364SOL     OW33550   0.182   3.625   7.042 -0.2932 -0.4864  0.3166
 7364SOL    HW133551   0.236   3.670   6.977  0.9811 -1.6748  0.5690
 7364SOL    HW233552   0.166   3.543   6.996  1.1662 -0.9855  0.7099
 7365SOL     OW33553   2.288   1.340  13.032  0.3909 -0.3102 -0.0043
 7365SOL    HW133554   2.377   1.336  12.996  0.8153 -1.1467  1.1401
 7365SOL    HW233555   2.243   1.380  12.957  0.0328  0.4902  0.6499
 7366SOL     OW33556   3.934   1.720   6.276  0.5171 -0.3844  0.3098
 7366SOL    HW133557   3.875   1.649   6.302 -0.4455  0.3106  0.0568
 7366SOL    HW233558   3.876   1.795   6.291  0.7603 -0.0677 -0.3426
 7367SOL     OW33559   3.764   2.849   1.551 -0.8266 -0.1790 -0.1392
 7367SOL    HW133560   3.818   2.772   1.570  0.2141  0.9722  1.5513
 7367SOL    HW233561   3.704   2.849   1.626  0.4527  1.4162  0.8607
 7368SOL     OW33562   0.785   4.592   6.577  0.5995 -0.7309 -0.2067
 7368SOL    HW133563   0.716   4.655   6.555  0.7662 -0.6039 -0.3684
 7368SOL    HW233564   0.799   4.631   6.663  1.3214 -1.8616  0.1872
 7369SOL     OW33565   2.905   3.467   5.483 -0.0422  0.3861  0.2983
 7369SOL    HW133566   2.886   3.559   5.466 -0.3134 -0.0129 -1.5807
 7369SOL    HW233567   2.988   3.459   5.435  0.9668 -1.3692  2.3306
 7370SOL     OW33568   3.305   4.726   8.416  0.2605  0.3362 -0.3682
 7370SOL    HW133569   3.360   0.077   8.429  3.1789 -1.6034 -1.2158
 7370SOL    HW233570   3.366   4.664   8.377  0.1672  0.2680 -0.4047
 7371SOL     OW33571   4.115   0.690   9.971 -0.3786 -0.3585  0.4201
 7371SOL    HW133572   4.191   0.633   9.977 -0.7681 -0.9274 -0.0590
 7371SOL    HW233573   4.122   0.731  10.058  3.6056  0.2994 -0.2438
 7372SOL     OW33574   1.512   3.778   7.602  0.6066  0.2073 -0.0576
 7372SOL    HW133575   1.466   3.801   7.683  0.0220  1.5414 -0.7646
 7372SOL    HW233576   1.448   3.812   7.540  1.2463 -1.4797 -1.6282
 7373SOL     OW33577   0.053   4.018   8.866 -0.0201  0.4823  0.5407
 7373SOL    HW133578   0.100   3.960   8.806 -1.6217  0.3524 -0.5671
 7373SOL    HW233579   0.084   3.979   8.948  0.0405  0.5555  0.5534
 7374SOL     OW33580   4.027   3.473   6.804  0.2691  0.3212  0.3969
 7374SOL    HW133581   4.024   3.455   6.710  1.0325  0.8827  0.2675
 7374SOL    HW233582   3.939   3.453   6.837  0.3599  0.2688  0.6068
 7375SOL     OW33583   4.299   2.652   4.584  0.3695  0.0366 -0.2051
 7375SOL    HW133584   4.304   2.747   4.576 -0.8122  0.1096 -0.1500
 7375SOL    HW233585   4.380   2.636   4.632 -0.5349 -1.1330  0.9461
 7376SOL     OW33586   1.257   1.143   2.802 -0.5508 -0.6377  0.2821
 7376SOL    HW133587   1.298   1.217   2.757 -2.6978  0.3598 -0.0445
 7376SOL    HW233588   1.330   1.081   2.801  1.0778  1.3394 -1.5580
 7377SOL     OW33589   2.736   1.365   9.901  0.2095  1.0256  0.1255
 7377SOL    HW133590   2.738   1.444   9.846 -0.2269 -0.8361 -2.5826
 7377SOL    HW233591   2.725   1.411   9.984  0.7466 -0.9427  1.2843
 7378SOL     OW33592   3.424   3.063  13.627 -0.2125  0.6893 -0.3857
 7378SOL    HW133593   3.372   3.143  13.612  0.0951  0.8909 -0.3726
 7378SOL    HW233594   3.375   2.987  13.596 -1.3883  0.8782  0.9861
 7379SOL     OW33595   1.935   3.684  15.401 -0.1274 -0.2511  0.0600
 7379SOL    HW133596   1.954   3.745  15.330 -2.8603 -1.4331 -1.7026
 7379SOL    HW233597   1.851   3.651  15.370 -0.8778  1.6019  0.1497
 7380SOL     OW33598   3.734   3.775   2.926  0.1635 -0.4493  0.1859
 7380SOL    HW133599   3.801   3.804   2.988  0.5495 -1.5091  0.2743
 7380SOL    HW233600   3.762   3.816   2.844  1.0657 -0.6797  0.3811
 7381SOL     OW33601   1.366   3.315   7.970 -0.3618 -0.0072  0.1482
 7381SOL    HW133602   1.324   3.386   8.018 -0.1593  0.9952 -1.1540
 7381SOL    HW233603   1.291   3.265   7.936  2.0257 -1.6422 -2.7483
 7382SOL     OW33604   2.024   2.100   3.765  0.1104 -0.0497  0.1339
 7382SOL    HW133605   2.062   2.031   3.710 -0.2599  0.0156 -0.2088
 7382SOL    HW233606   2.018   2.179   3.710  2.2316  0.2838  0.3728
 7383SOL     OW33607   1.512   2.864   3.027  0.3239 -0.8383  0.3344
 7383SOL    HW133608   1.553   2.934   3.077 -0.6348  1.2087 -1.7534
 7383SOL    HW233609   1.522   2.903   2.940 -0.5100  1.0384  1.0872
 7384SOL     OW33610   4.068   2.252  11.839  0.4598 -0.3132  0.4416
 7384SOL    HW133611   4.085   2.160  11.817  1.0089 -0.3746  1.1438
 7384SOL    HW233612   4.076   2.283  11.749  4.0823 -1.1066  0.5140
 7385SOL     OW33613   1.579   2.117   3.083 -0.3081  0.2323  0.1014
 7385SOL    HW133614   1.535   2.201   3.068 -3.2888 -1.3673 -0.0063
 7385SOL    HW233615   1.660   2.124   3.034 -0.5711 -0.8826 -0.4788
 7386SOL     OW33616   3.647   4.437   5.189  0.5222 -0.2927  0.4783
 7386SOL    HW133617   3.669   4.344   5.200 -0.3048 -0.5987 -0.4675
 7386SOL    HW233618   3.730   4.471   5.155  0.3113  0.0411  0.3032
 7387SOL     OW33619   2.134   2.553   7.153  0.3425 -0.4839 -0.0229
 7387SOL    HW133620   2.096   2.554   7.240 -0.1427 -0.4231 -0.2310
 7387SOL    HW233621   2.209   2.497   7.169  0.4426 -0.3813 -0.1282
 7388SOL     OW33622   1.954   3.912  12.347  0.0793 -0.4491 -0.0852
 7388SOL    HW133623   1.952   3.863  12.265  0.8748 -0.7644  0.0871
 7388SOL    HW233624   1.888   3.863  12.396  0.2161  1.8507  2.3853
 7389SOL     OW33625   3.562   4.127  15.836  0.5519 -0.1663 -0.0217
 7389SOL    HW133626   3.654   4.106  15.854  1.1831  2.7772  0.2769
 7389SOL    HW233627   3.521   4.114  15.921  0.5333 -2.2080 -0.3424
 7390SOL     OW33628   0.005   2.254   3.579  0.4498 -0.5763  0.8750
 7390SOL    HW133629   4.706   2.340   3.612 -1.4010 -0.1470 -1.6275
 7390SOL    HW233630   4.705   2.201   3.654 -0.3407 -0.5230  0.6473
 7391SOL     OW33631   4.084   4.550   9.180 -0.4335  0.0259 -0.2821
 7391SOL    HW133632   4.047   4.520   9.263  0.0264 -0.9176 -0.4222
 7391SOL    HW233633   4.023   4.514   9.115  0.6033 -1.4433 -0.4398
 7392SOL     OW33634   4.023   1.627   7.959  0.0907 -0.2817  0.4048
 7392SOL    HW133635   4.103   1.676   7.938 -0.5966 -0.4430 -2.6143
 7392SOL    HW233636   3.952   1.672   7.913 -0.2768  1.2115  2.4477
 7393SOL     OW33637   0.076   1.972   8.011 -0.2765  0.0466 -0.3115
 7393SOL    HW133638   0.137   2.042   7.990 -1.1842  1.2037  0.9453
 7393SOL    HW233639   0.050   2.008   8.095 -1.6391  1.2877 -1.2649
 7394SOL     OW33640   1.255   0.884   8.134  0.5991  0.5753 -0.3652
 7394SOL    HW133641   1.186   0.929   8.183 -0.1463  0.7252 -1.5344
 7394SOL    HW233642   1.320   0.953   8.118  0.4759  0.5988 -0.7751
 7395SOL     OW33643   4.359   4.227   5.211 -0.4532 -0.0309  0.0606
 7395SOL    HW133644   4.403   4.235   5.296 -0.5386  0.3591  0.0683
 7395SOL    HW233645   4.336   4.320   5.207  0.3721  0.1917  0.4866
 7396SOL     OW33646   2.920   0.754   2.188  0.7721  0.3445  0.1207
 7396SOL    HW133647   2.989   0.772   2.253  3.2987  1.4550 -2.8197
 7396SOL    HW233648   2.930   0.663   2.163 -3.5286 -0.9557  3.2547
 7397SOL     OW33649   1.808   3.541   7.845  0.2090  0.1328  0.2393
 7397SOL    HW133650   1.850   3.627   7.840 -0.2315  0.2608 -1.5318
 7397SOL    HW233651   1.881   3.488   7.877 -2.2573 -3.2011  0.2721
 7398SOL     OW33652   3.409   1.428   5.984 -0.5994  0.1435 -0.2963
 7398SOL    HW133653   3.330   1.383   6.015 -0.7969 -1.2247 -2.8176
 7398SOL    HW233654   3.381   1.520   5.982 -3.4661 -0.6331  3.1295
 7399SOL     OW33655   3.746   2.157   3.650  0.3007 -0.0890  0.0927
 7399SOL    HW133656   3.714   2.238   3.611 -1.2833 -1.4316 -1.4010
 7399SOL    HW233657   3.805   2.124   3.583  1.3708 -0.9273  1.4293
 7400SOL     OW33658   4.266   4.419   8.928 -0.5454  0.3160 -0.2115
 7400SOL    HW133659   4.332   4.350   8.936  1.0993  1.6664 -2.2448
 7400SOL    HW233660   4.301   4.481   8.992 -1.2680  0.8211 -0.2956
 7401SOL     OW33661   2.922   2.044   2.909 -0.2018 -0.3380  0.3569
 7401SOL    HW133662   3.017   2.042   2.920 -0.0728 -0.2332 -0.7656
 7401SOL    HW233663   2.912   1.982   2.836 -0.2616 -0.6352  0.6169
 7402SOL     OW33664   4.493   3.598  11.995  0.0254 -0.2081 -0.4135
 7402SOL    HW133665   4.492   3.603  12.090 -1.1020  2.1074 -0.5259
 7402SOL    HW233666   4.430   3.527  11.986  1.6512 -1.6351 -0.3346
 7403SOL     OW33667   2.068   4.356   2.502  0.0914  0.6712  0.4762
 7403SOL    HW133668   2.118   4.435   2.481  1.4332 -0.4862 -0.6250
 7403SOL    HW233669   1.977   4.382   2.484  0.0385  0.7777  0.8986
 7404SOL     OW33670   2.930   4.673  17.308  0.0964 -0.0558  0.3150
 7404SOL    HW133671   2.838   4.662  17.283  0.0626 -0.1082  0.4624
 7404SOL    HW233672   2.921   4.699  17.400  1.1558  0.1582  0.3512
 7405SOL     OW33673   1.573   0.933   7.984  0.5401  0.1167 -0.2533
 7405SOL    HW133674   1.525   0.995   8.039  0.7455  0.8186 -0.8537
 7405SOL    HW233675   1.602   0.874   8.054 -0.5655 -0.7501 -0.5454
 7406SOL     OW33676   4.118   0.811   8.500  0.5576  0.1245 -0.1303
 7406SOL    HW133677   4.158   0.846   8.580 -0.0339  0.5284 -0.0017
 7406SOL    HW233678   4.195   0.808   8.444  0.6371  1.3840 -0.0972
 7407SOL     OW33679   4.389   3.595   3.758 -0.1097 -0.4141  0.4029
 7407SOL    HW133680   4.387   3.530   3.688  0.9419  0.2020 -0.1894
 7407SOL    HW233681   4.417   3.671   3.707 -1.4610  0.2150  0.5964
 7408SOL     OW33682   0.349   0.710   3.987  0.4982  0.0405  0.0677
 7408SOL    HW133683   0.363   0.786   3.930  2.1571 -0.2325  0.0987
 7408SOL    HW233684   0.439   0.687   4.012 -0.1626  2.0121  4.2077
 7409SOL     OW33685   1.091   4.518   9.415 -0.2864  0.6842 -0.3166
 7409SOL    HW133686   1.008   4.471   9.420 -0.5441  0.9897 -2.0426
 7409SOL    HW233687   1.072   4.589   9.354  3.2122  1.1912 -0.8443
 7410SOL     OW33688   4.641   0.160   1.150 -0.1098 -0.2502 -0.1302
 7410SOL    HW133689   0.007   0.175   1.173 -0.1639  0.3348 -0.2929
 7410SOL    HW233690   4.658   0.126   1.062  1.9641 -1.6722  0.8103
 7411SOL     OW33691   2.894   1.434   7.731 -0.0698 -0.2122 -0.2687
 7411SOL    HW133692   2.812   1.406   7.773  0.2066  0.2612  0.5817
 7411SOL    HW233693   2.960   1.393   7.787 -1.2188 -2.0311 -0.2296
 7412SOL     OW33694   4.545   4.451  11.152  0.2088 -0.1104  0.3172
 7412SOL    HW133695   4.626   4.403  11.134 -0.1042 -0.9838  1.2630
 7412SOL    HW233696   4.574   4.540  11.172  2.6430 -0.7613 -0.3369
 7413SOL     OW33697   2.628   3.393   2.275  0.4908  0.1967 -0.6116
 7413SOL    HW133698   2.722   3.387   2.288  0.3953 -0.0345  0.0278
 7413SOL    HW233699   2.610   3.482   2.305  5.0870  0.8738  0.1392
 7414SOL     OW33700   3.850   0.880   9.834  0.0680 -0.1716 -0.0740
 7414SOL    HW133701   3.833   0.937   9.758  1.7602  2.6284  1.6648
 7414SOL    HW233702   3.813   0.926   9.909 -1.1804  0.5556 -1.1135
 7415SOL     OW33703   3.258   4.545  10.535  0.0792 -0.1996 -0.5459
 7415SOL    HW133704   3.306   4.609  10.588 -1.1889  2.3033 -2.3785
 7415SOL    HW233705   3.191   4.608  10.507  0.7266  0.6154 -0.2456
 7416SOL     OW33706   3.452   2.128   3.370 -0.6951 -0.7108  0.4446
 7416SOL    HW133707   3.378   2.104   3.315 -0.7573  2.1704 -0.7428
 7416SOL    HW233708   3.478   2.209   3.325 -2.9545 -0.2925 -0.0749
 7417SOL     OW33709   3.172   4.652   3.535 -0.3283  0.5631 -0.0122
 7417SOL    HW133710   3.091   4.609   3.560  0.5792 -0.7675  0.6246
 7417SOL    HW233711   3.169   4.633   3.441 -2.0657  0.9219 -0.0264
 7418SOL     OW33712   3.720   1.616  10.143 -0.2882 -0.0505 -0.1285
 7418SOL    HW133713   3.760   1.657  10.067 -0.9452 -2.2588 -1.6499
 7418SOL    HW233714   3.784   1.614  10.215  0.2578 -0.9605 -0.6453
 7419SOL     OW33715   2.512   0.664   3.495 -0.0589 -0.5909 -0.0460
 7419SOL    HW133716   2.435   0.706   3.533 -0.6256 -2.2220  0.6196
 7419SOL    HW233717   2.567   0.636   3.569  0.8318 -0.2816 -0.5828
 7420SOL     OW33718   0.842   3.600  11.916 -0.0285 -0.2764  0.3763
 7420SOL    HW133719   0.797   3.524  11.879 -0.0225 -0.1169  0.0429
 7420SOL    HW233720   0.797   3.668  11.867 -0.4742  0.2041  1.4529
 7421SOL     OW33721   4.183   2.969   3.986 -0.3962  0.3076 -0.0059
 7421SOL    HW133722   4.213   2.965   3.896 -0.7399  0.2596 -0.1187
 7421SOL    HW233723   4.190   2.876   4.010 -1.3609  0.5330  1.1633
 7422SOL     OW33724   3.747   3.870   2.570 -0.2214  0.0968 -0.0846
 7422SOL    HW133725   3.747   3.839   2.480 -0.7798  0.1636 -0.1050
 7422SOL    HW233726   3.671   3.927   2.579 -2.6112 -3.5840  2.8195
 7423SOL     OW33727   0.988   0.950   5.571  0.2666  0.5025 -0.0672
 7423SOL    HW133728   1.071   0.910   5.545  0.1937 -0.7845  1.7090
 7423SOL    HW233729   1.020   1.041   5.563  1.4115  0.1992  0.9853
 7424SOL     OW33730   0.594   1.057  12.793  0.7015 -0.3122  0.0024
 7424SOL    HW133731   0.546   1.058  12.711 -0.1619 -1.5729  0.4962
 7424SOL    HW233732   0.585   1.145  12.830  1.5115 -0.3267  0.2497
 7425SOL     OW33733   2.845   1.867  14.261 -0.5077  0.1889  0.0756
 7425SOL    HW133734   2.770   1.907  14.218  0.1278 -0.9395 -2.0977
 7425SOL    HW233735   2.903   1.943  14.275 -0.0742 -0.7574  3.3501
 7426SOL     OW33736   3.457   3.261   6.108 -0.2567  0.1857  0.5626
 7426SOL    HW133737   3.445   3.321   6.035  1.0464  0.7831  0.8319
 7426SOL    HW233738   3.505   3.315   6.171  1.5103  1.4729 -1.9186
 7427SOL     OW33739   1.302   2.830   3.301  0.0871 -0.1300  0.1904
 7427SOL    HW133740   1.291   2.912   3.253 -0.3008  0.1415  0.7338
 7427SOL    HW233741   1.225   2.818   3.356  1.4604 -0.5844  2.0331
 7428SOL     OW33742   4.521   2.176  17.116  0.1599 -0.3790  0.2974
 7428SOL    HW133743   4.543   2.089  17.081  0.5299  0.1109 -0.6976
 7428SOL    HW233744   4.541   2.162  17.208  1.6860 -0.6805 -0.0736
 7429SOL     OW33745   3.044   3.074   8.452  0.2064  0.2433  0.1014
 7429SOL    HW133746   3.058   2.992   8.405 -1.2434  0.6350 -1.0057
 7429SOL    HW233747   2.949   3.069   8.463  0.2603  2.6263  1.5990
 7430SOL     OW33748   0.384   0.633   6.925 -0.1781 -0.0009 -0.0020
 7430SOL    HW133749   0.386   0.678   6.841 -0.3293 -4.3202 -2.3307
 7430SOL    HW233750   0.308   0.579   6.905 -0.6855 -0.5017  3.3022
 7431SOL     OW33751   2.185   0.294  15.063  0.4682  0.0028 -0.5532
 7431SOL    HW133752   2.170   0.292  15.158  1.7310  0.6051 -0.3421
 7431SOL    HW233753   2.114   0.346  15.026  1.6283  2.9698  1.4069
 7432SOL     OW33754   1.644   2.815   0.222 -0.1648 -0.2279 -0.0759
 7432SOL    HW133755   1.689   2.731   0.236  0.3316 -0.0905 -0.8735
 7432SOL    HW233756   1.709   2.875   0.259 -1.1505 -0.1977  1.5958
 7433SOL     OW33757   3.144   4.665   3.848 -0.4392  0.2220  0.3523
 7433SOL    HW133758   3.051   4.683   3.832 -0.8736  0.1164  2.7144
 7433SOL    HW233759   3.182   4.637   3.765  2.1181 -0.9134  1.9023
 7434SOL     OW33760   0.099   2.006   4.485 -0.2860  0.8737 -0.1110
 7434SOL    HW133761   0.004   2.001   4.479 -0.3179  0.5098  0.5889
 7434SOL    HW233762   0.114   2.097   4.463  3.3903 -0.2510 -2.2053
 7435SOL     OW33763   3.078   3.672   2.566  0.3173 -0.5399  0.4707
 7435SOL    HW133764   3.089   3.585   2.528  0.1100  1.1017 -3.3778
 7435SOL    HW233765   2.986   3.666   2.592  0.0890 -3.3100 -0.9781
 7436SOL     OW33766   0.917   0.927   6.025  0.3306 -0.6283 -0.1142
 7436SOL    HW133767   0.877   0.854   5.976  1.0235 -0.3316 -1.1236
 7436SOL    HW233768   0.849   0.947   6.089  2.9503  0.0629  2.4332
 7437SOL     OW33769   3.733   1.776   7.081  0.0793 -0.0124 -0.3482
 7437SOL    HW133770   3.669   1.750   7.015 -0.5437 -0.0120  0.2505
 7437SOL    HW233771   3.806   1.716   7.065 -0.3492 -0.5924 -0.1326
 7438SOL     OW33772   1.591   0.129   6.863 -0.6257 -0.3350 -0.4916
 7438SOL    HW133773   1.619   0.157   6.776  0.0779 -0.3138 -0.2586
 7438SOL    HW233774   1.608   0.035   6.869 -2.4130 -0.7257 -1.7233
 7439SOL     OW33775   3.137   4.694   5.798 -0.2678 -0.6233  0.3617
 7439SOL    HW133776   3.063   4.691   5.737  0.0798  1.2025 -0.1220
 7439SOL    HW233777   3.097   4.695   5.885 -0.3453  0.4866  0.3137
 7440SOL     OW33778   3.663   2.846   3.689  0.1939  0.4381 -0.3003
 7440SOL    HW133779   3.577   2.853   3.729  1.4214  0.6916  2.3420
 7440SOL    HW233780   3.646   2.874   3.599  1.8797  0.1500 -0.7239
 7441SOL     OW33781   3.399   0.541  14.172  0.0964  0.0861 -0.1983
 7441SOL    HW133782   3.338   0.561  14.102  0.1781  0.4936 -0.1572
 7441SOL    HW233783   3.338   0.531  14.245  0.2011 -0.7839 -0.2266
 7442SOL     OW33784   1.621   1.411   4.595 -0.6491  0.5216 -0.5717
 7442SOL    HW133785   1.600   1.490   4.644  1.0993 -0.1643  1.2985
 7442SOL    HW233786   1.603   1.341   4.659  1.8803  1.3065  1.0094
 7443SOL     OW33787   3.467   2.316   5.637 -0.1685  0.1168 -0.4867
 7443SOL    HW133788   3.427   2.317   5.724 -1.3994  1.3463 -1.0703
 7443SOL    HW233789   3.457   2.221   5.631  2.0933 -0.2373  1.3085
 7444SOL     OW33790   1.272   1.549   6.351  0.7648 -0.0966 -0.3123
 7444SOL    HW133791   1.252   1.572   6.441 -0.3576  3.1372 -1.4079
 7444SOL    HW233792   1.184   1.535   6.316  0.1444 -0.5115  1.4384
 7445SOL     OW33793   4.473   3.409   9.144 -0.0782  0.1157  0.1047
 7445SOL    HW133794   4.481   3.486   9.088 -0.1352 -0.5820 -0.8587
 7445SOL    HW233795   4.392   3.365   9.117  0.9681 -1.1496 -0.9367
 7446SOL     OW33796   3.445   0.494   6.645 -0.2627 -0.0876 -0.6947
 7446SOL    HW133797   3.378   0.427   6.631  0.9963 -1.8259  1.5833
 7446SOL    HW233798   3.392   0.563   6.683  0.1417  0.6928 -1.5545
 7447SOL     OW33799   1.499   2.159  14.060  0.1868  0.2340  0.0780
 7447SOL    HW133800   1.538   2.077  14.092  0.8394  0.0447 -1.2150
 7447SOL    HW233801   1.556   2.217  14.111  0.3202 -1.9250  2.4276
 7448SOL     OW33802   2.149   4.674   2.543 -0.2989 -0.0583 -0.2782
 7448SOL    HW133803   2.245   4.669   2.543 -0.3171 -0.4651 -2.1061
 7448SOL    HW233804   2.128   4.671   2.450 -0.5074 -0.2814 -0.2219
 7449SOL     OW33805   2.280   4.372   4.711  0.1931 -0.1322  0.3962
 7449SOL    HW133806   2.234   4.309   4.766  0.9062 -0.1521  0.9593
 7449SOL    HW233807   2.208   4.415   4.665 -1.7051 -1.0936  2.4581
 7450SOL     OW33808   1.546   3.436  14.824  0.1852 -0.7775  0.8565
 7450SOL    HW133809   1.621   3.483  14.859  0.9138 -3.2878  2.6408
 7450SOL    HW233810   1.485   3.418  14.895 -1.3903  1.0712 -0.0298
 7451SOL     OW33811   1.441   3.057   3.567 -0.5262  0.3465 -0.1999
 7451SOL    HW133812   1.515   3.088   3.515 -0.2192  3.5282  2.1587
 7451SOL    HW233813   1.370   3.060   3.503  0.1720  0.1447 -0.9955
 7452SOL     OW33814   1.726   0.477   1.582  0.2109  0.0694  0.3554
 7452SOL    HW133815   1.761   0.445   1.499 -2.1886  0.7854 -0.9166
 7452SOL    HW233816   1.636   0.446   1.572 -0.1338  1.0348  0.5161
 7453SOL     OW33817   3.927   3.052   2.637  0.1907  0.5891 -0.2369
 7453SOL    HW133818   3.991   2.991   2.599 -0.2001 -1.4719  2.3569
 7453SOL    HW233819   3.855   3.051   2.575 -0.0782 -1.6087  0.0966
 7454SOL     OW33820   2.928   3.506   5.801  0.3304 -0.2124 -0.4045
 7454SOL    HW133821   2.942   3.521   5.708  0.4182  1.6660 -0.0941
 7454SOL    HW233822   2.846   3.552   5.820  1.3280  1.2972  0.2996
 7455SOL     OW33823   0.207   0.891   2.576  0.0513  0.4820 -0.7575
 7455SOL    HW133824   0.163   0.953   2.634  2.0836 -0.5080  1.8693
 7455SOL    HW233825   0.266   0.955   2.536  0.8205  1.3481  1.7482
 7456SOL     OW33826   1.732   2.662   3.941 -0.4343  0.0751 -0.6551
 7456SOL    HW133827   1.805   2.602   3.925  1.0267  1.6070  0.2800
 7456SOL    HW233828   1.658   2.629   3.890 -1.5618 -1.0759  1.7614
 7457SOL     OW33829   4.700   1.274   2.399  0.3887 -0.1899  0.1599
 7457SOL    HW133830   4.700   1.203   2.335  1.0452 -1.5798  1.7023
 7457SOL    HW233831   4.609   1.303   2.406  0.8781  1.5366 -0.5306
 7458SOL     OW33832   3.755   2.505  14.492 -0.0676 -0.2567  0.5083
 7458SOL    HW133833   3.710   2.422  14.508  1.2355 -0.9062  0.8259
 7458SOL    HW233834   3.756   2.546  14.578  0.2194 -1.2641  0.9810
 7459SOL     OW33835   3.299   3.432  13.165  0.2157 -0.3804  0.2046
 7459SOL    HW133836   3.278   3.356  13.219 -2.1245  0.1481  0.0801
 7459SOL    HW233837   3.309   3.384  13.083 -1.5154 -0.3222 -0.0525
 7460SOL     OW33838   2.827   2.954   2.983 -0.2290 -0.0427 -0.7570
 7460SOL    HW133839   2.917   2.986   2.986 -0.3993  0.1832  3.1243
 7460SOL    HW233840   2.795   3.022   2.924  0.2657 -0.8946 -2.0103
 7461SOL     OW33841   1.418   4.615   3.204  0.2121  0.2659  0.1924
 7461SOL    HW133842   1.401   4.521   3.214 -0.4450  0.1930 -1.5787
 7461SOL    HW233843   1.512   4.619   3.190  0.2297  1.8334  0.7008
 7462SOL     OW33844   1.778   0.612   6.817 -0.2843  0.1774 -0.0433
 7462SOL    HW133845   1.745   0.672   6.884 -4.1889  0.2204 -1.9968
 7462SOL    HW233846   1.690   0.592   6.785 -0.4615 -0.7600  1.0251
 7463SOL     OW33847   3.841   3.031   4.106 -0.1286  0.2710  0.1059
 7463SOL    HW133848   3.860   3.124   4.093  0.9391 -0.2304 -1.8894
 7463SOL    HW233849   3.841   2.996   4.017 -1.8156 -1.4198  0.7701
 7464SOL     OW33850   3.887   4.658   5.303 -0.2786 -0.2050  0.5049
 7464SOL    HW133851   3.942   4.725   5.343  2.1006 -2.9857  1.8616
 7464SOL    HW233852   3.815   4.708   5.264 -0.6360 -0.5333  0.7447
 7465SOL     OW33853   0.574   3.744   8.514  0.1335  0.2171  0.2659
 7465SOL    HW133854   0.621   3.815   8.556  0.7320 -0.9252  1.5294
 7465SOL    HW233855   0.625   3.734   8.433  0.6391 -0.1792  0.6300
 7466SOL     OW33856   1.315   1.522   4.879  0.3673 -0.6551 -0.7705
 7466SOL    HW133857   1.243   1.462   4.859 -0.6443  0.4020 -0.2551
 7466SOL    HW233858   1.329   1.512   4.973  0.8375 -0.1821 -0.7899
 7467SOL     OW33859   3.833   1.743   7.771  0.3048 -0.0496 -0.5859
 7467SOL    HW133860   3.819   1.803   7.698 -3.5193  0.8001  0.8752
 7467SOL    HW233861   3.749   1.751   7.815  0.6434 -0.7111  0.1715
 7468SOL     OW33862   0.687   0.085   4.484 -0.0917 -0.5099 -0.1095
 7468SOL    HW133863   0.704   0.017   4.550 -0.1763  0.1223  0.5596
 7468SOL    HW233864   0.664   0.041   4.402  0.4298  0.2365 -0.6509
 7469SOL     OW33865   1.474   3.894  14.438 -0.1377  0.2318 -0.5857
 7469SOL    HW133866   1.503   3.817  14.488 -0.7916  1.0510  1.0601
 7469SOL    HW233867   1.497   3.866  14.350  1.0592 -1.8251  0.3814
 7470SOL     OW33868   1.162   0.088  14.485 -0.7225  0.0597  0.4997
 7470SOL    HW133869   1.091   0.061  14.544 -0.4004 -3.0133 -0.4808
 7470SOL    HW233870   1.115   0.161  14.445 -4.0787 -1.6203  1.3400
 7471SOL     OW33871   3.540   3.617   3.132 -0.1611 -0.2979  0.2364
 7471SOL    HW133872   3.622   3.630   3.084  0.2111  0.0176  0.9537
 7471SOL    HW233873   3.494   3.554   3.076  0.4849 -1.6555  1.2390
 7472SOL     OW33874   3.689   2.186  15.877  0.5566 -0.4610  0.5032
 7472SOL    HW133875   3.742   2.179  15.798 -2.3721  1.4183 -1.6381
 7472SOL    HW233876   3.655   2.097  15.882 -0.9246  0.1516  1.3645
 7473SOL     OW33877   2.568   2.844   6.853  0.1527  0.2655 -0.0220
 7473SOL    HW133878   2.634   2.780   6.880 -1.3784 -0.5483  1.7730
 7473SOL    HW233879   2.513   2.778   6.812 -0.2487  1.2599 -1.0949
 7474SOL     OW33880   0.447   3.640   2.670  0.1167  0.1897 -0.1497
 7474SOL    HW133881   0.372   3.658   2.613 -0.1419  0.8506  0.4000
 7474SOL    HW233882   0.443   3.717   2.726  1.6099 -0.2958  0.6165
 7475SOL     OW33883   4.300   1.539   5.867 -0.1091 -0.3727  0.2811
 7475SOL    HW133884   4.359   1.601   5.910  0.1839  0.2973 -1.1068
 7475SOL    HW233885   4.268   1.591   5.793 -0.5010  0.5690  1.1100
 7476SOL     OW33886   4.038   2.878   7.755 -0.1724 -0.1148 -0.7409
 7476SOL    HW133887   4.067   2.900   7.667  0.1479  0.7281 -0.4218
 7476SOL    HW233888   4.092   2.940   7.804 -1.0919  0.0003  0.1304
 7477SOL     OW33889   2.205   1.880   4.985  0.5270 -0.6867  0.4576
 7477SOL    HW133890   2.263   1.952   4.958 -0.0750 -0.2922  0.2201
 7477SOL    HW233891   2.244   1.832   5.058  1.7615 -0.9935 -0.3823
 7478SOL     OW33892   4.628   2.141  16.314 -0.5201 -0.1092 -0.3279
 7478SOL    HW133893   4.593   2.111  16.230  1.4066  0.2205 -1.2475
 7478SOL    HW233894   4.672   2.059  16.336 -0.3446 -0.4768 -2.0472
 7479SOL     OW33895   3.602   2.099  16.328 -0.5256  0.1134  0.0529
 7479SOL    HW133896   3.664   2.135  16.265  0.9426 -1.8135  0.4167
 7479SOL    HW233897   3.525   2.154  16.313 -0.7031 -0.7964 -2.2817
 7480SOL     OW33898   0.474   4.669  17.551 -0.4487 -0.0829  0.4159
 7480SOL    HW133899   0.391   4.693  17.511 -2.7325  0.1806  5.2935
 7480SOL    HW233900   0.499   4.592  17.501  2.2132  0.5667  0.7340
 7481SOL     OW33901   4.262   4.651  14.793  0.4509 -0.2498 -0.6552
 7481SOL    HW133902   4.253   4.699  14.875 -1.7106  0.5708 -1.3740
 7481SOL    HW233903   4.356   4.630  14.790 -0.3679 -3.8340 -0.7576
 7482SOL     OW33904   2.961   4.214  15.775 -1.3548 -0.3987 -0.1011
 7482SOL    HW133905   2.995   4.214  15.685 -0.1587  1.0911  0.3498
 7482SOL    HW233906   2.866   4.219  15.764 -1.1534  0.5696 -1.3997
 7483SOL     OW33907   4.352   4.084  15.617 -0.0945 -0.5680 -0.4066
 7483SOL    HW133908   4.432   4.100  15.667  0.0666 -1.8846 -0.2611
 7483SOL    HW233909   4.387   4.102  15.529 -1.1692 -0.2131 -0.7587
 7484SOL     OW33910   1.772   0.889   3.446 -0.0317  0.0155 -0.0649
 7484SOL    HW133911   1.727   0.826   3.503 -1.5810  0.8694 -0.3384
 7484SOL    HW233912   1.853   0.844   3.422  1.0660  0.9817  1.8663
 7485SOL     OW33913   2.436   3.119  11.475 -0.2485 -0.4929  0.2404
 7485SOL    HW133914   2.342   3.109  11.488 -0.1436 -1.0104  0.6189
 7485SOL    HW233915   2.457   3.028  11.500 -0.9069 -0.6516  0.2043
 7486SOL     OW33916   2.570   0.480   2.871  0.1384  0.6955 -0.5287
 7486SOL    HW133917   2.493   0.436   2.833 -0.9974  3.2210 -1.1190
 7486SOL    HW233918   2.643   0.448   2.819  0.3333 -1.7331  1.2300
 7487SOL     OW33919   1.814   2.391   0.266  0.1211  0.6611 -0.4755
 7487SOL    HW133920   1.743   2.336   0.233  2.4275 -1.8328 -1.2466
 7487SOL    HW233921   1.774   2.401   0.353  1.3152 -1.8339  0.3581
 7488SOL     OW33922   1.177   4.724   5.878 -0.0686  0.5676  0.0341
 7488SOL    HW133923   1.095   0.046   5.888  0.9334  2.0439  1.0577
 7488SOL    HW233924   1.171   4.700   5.785 -0.4785  1.8189 -0.2563
 7489SOL     OW33925   2.978   4.256  10.651  0.4090 -0.0967 -0.1755
 7489SOL    HW133926   3.035   4.264  10.575 -0.5029  0.6197 -0.7775
 7489SOL    HW233927   2.962   4.161  10.657 -1.8237  0.0959 -3.0647
 7490SOL     OW33928   3.351   3.523  17.608  0.3897  0.0302  0.6576
 7490SOL    HW133929   3.434   3.476  17.609  0.0774 -0.5231 -0.6987
 7490SOL    HW233930   3.376   3.614  17.592  1.0851 -0.4709 -1.0267
 7491SOL     OW33931   2.630   3.335   8.809 -0.5284 -0.4482  0.3785
 7491SOL    HW133932   2.548   3.382   8.821 -0.1260 -0.3945  3.0855
 7491SOL    HW233933   2.700   3.392   8.841  0.6989 -0.2876 -2.6415
 7492SOL     OW33934   0.317   4.003  12.806  0.2456 -0.3529  0.0695
 7492SOL    HW133935   0.341   4.096  12.800  0.5387 -0.4293  0.0134
 7492SOL    HW233936   0.331   3.983  12.713  0.1389  0.3396 -0.0920
 7493SOL     OW33937   3.141   2.382   0.114  0.8522 -0.5353 -0.4832
 7493SOL    HW133938   3.103   2.423   0.192  0.4766  0.3481 -1.1301
 7493SOL    HW233939   3.170   2.460   0.067 -1.2683  0.5424 -0.0125
 7494SOL     OW33940   1.561   3.594   9.390  0.4204 -0.6909  0.1811
 7494SOL    HW133941   1.624   3.666   9.399 -0.6462  0.4675 -1.6407
 7494SOL    HW233942   1.533   3.586   9.481  2.2198 -2.6060  0.5721
 7495SOL     OW33943   2.313   1.496  11.187  0.2516 -0.1994  0.1603
 7495SOL    HW133944   2.296   1.411  11.229  0.6569  0.2439  1.2138
 7495SOL    HW233945   2.263   1.468  11.110  0.9452  1.0185 -0.7236
 7496SOL     OW33946   0.206   3.049  15.485  0.0892  0.2115 -0.4014
 7496SOL    HW133947   0.179   3.022  15.572 -0.1302 -1.2204 -0.9049
 7496SOL    HW233948   0.227   2.961  15.452  0.7400  0.0268  0.5193
 7497SOL     OW33949   2.881   3.009   7.417 -0.3940  0.1018  0.6448
 7497SOL    HW133950   2.975   3.019   7.433 -0.1027 -1.8411  0.1111
 7497SOL    HW233951   2.854   2.974   7.502 -0.7598 -1.2388 -0.0251
 7498SOL     OW33952   2.721   3.132  17.373 -0.7808  0.2479  0.3466
 7498SOL    HW133953   2.737   3.223  17.398  1.5484  0.1448 -0.7675
 7498SOL    HW233954   2.655   3.150  17.306  0.7734  1.7676 -0.7468
 7499SOL     OW33955   2.463   0.477  15.755  0.2743  0.2338 -0.4994
 7499SOL    HW133956   2.453   0.385  15.729 -1.8476  0.7716 -1.5469
 7499SOL    HW233957   2.544   0.496  15.707  0.3629  1.5196  0.1564
 7500SOL     OW33958   2.168   4.102  16.344  0.5009 -0.0990 -0.1033
 7500SOL    HW133959   2.184   4.012  16.372 -1.0022 -0.5663 -0.7132
 7500SOL    HW233960   2.258   4.136  16.345  0.7926 -0.8208 -1.0023
 7501SOL     OW33961   3.102   3.455   3.716  0.5313  0.3013 -0.1129
 7501SOL    HW133962   3.022   3.466   3.664 -0.8009  0.9498  2.0467
 7501SOL    HW233963   3.062   3.399   3.783 -1.1887  0.8594 -0.6790
 7502SOL     OW33964   2.749   2.469   0.935  0.1591  0.0313 -0.3197
 7502SOL    HW133965   2.742   2.551   0.886  1.1821  1.1312  1.3473
 7502SOL    HW233966   2.829   2.476   0.987 -0.4920 -0.6073  0.7673
 7503SOL     OW33967   2.568   4.161   8.401 -0.0506  0.8951 -0.2652
 7503SOL    HW133968   2.594   4.235   8.347 -0.2831  1.2827  0.1505
 7503SOL    HW233969   2.520   4.112   8.334  0.6728  0.6684 -0.6147
 7504SOL     OW33970   2.087   3.798   6.000  0.0807 -0.2555  0.4556
 7504SOL    HW133971   2.058   3.780   5.910 -0.5405 -2.2801  1.0575
 7504SOL    HW233972   2.035   3.736   6.052  1.3949  0.5448  2.7237
 7505SOL     OW33973   2.526   1.352   8.682 -0.7146  0.1142  0.0726
 7505SOL    HW133974   2.487   1.265   8.673  0.7155 -0.2917 -2.1800
 7505SOL    HW233975   2.477   1.399   8.614 -0.9493  1.3865  1.1272
 7506SOL     OW33976   2.775   4.111   5.441  0.1252  0.4915  0.1684
 7506SOL    HW133977   2.796   4.055   5.515 -1.7823  0.5961  0.7993
 7506SOL    HW233978   2.862   4.116   5.402  1.0779 -0.4725  2.1692
 7507SOL     OW33979   4.591   0.155  11.458  0.3321 -0.0973 -0.3738
 7507SOL    HW133980   4.619   0.064  11.471 -2.4884 -0.8759  0.2226
 7507SOL    HW233981   4.540   0.178  11.536  0.3812  0.5122 -0.5241
 7508SOL     OW33982   4.367   2.995  10.642 -0.2997  0.0894 -0.6415
 7508SOL    HW133983   4.439   2.939  10.614 -0.3957 -1.5599  2.4489
 7508SOL    HW233984   4.409   3.079  10.662 -1.5222  0.1643  1.6025
 7509SOL     OW33985   0.382   4.155  12.302 -0.3998  0.3190  0.0159
 7509SOL    HW133986   0.453   4.179  12.243  1.8261 -0.1630  2.5017
 7509SOL    HW233987   0.305   4.189  12.257 -1.0202 -0.5098  0.4554
 7510SOL     OW33988   2.917   1.893   7.962 -0.2288  0.1361 -0.0954
 7510SOL    HW133989   2.877   1.979   7.971  0.2337  0.1137  2.4396
 7510SOL    HW233990   2.845   1.833   7.985  0.7467 -0.6582  0.9081
 7511SOL     OW33991   0.623   0.402  10.598  0.6028 -0.4966  0.5704
 7511SOL    HW133992   0.689   0.410  10.666  1.3659 -0.0840 -0.2211
 7511SOL    HW233993   0.650   0.479  10.548  2.2651  0.0790  2.3636
 7512SOL     OW33994   3.983   2.058  15.205 -0.0041  0.7727 -0.1118
 7512SOL    HW133995   4.025   2.033  15.122 -0.1795 -0.0092  0.0286
 7512SOL    HW233996   4.035   2.135  15.226  2.3132 -1.0152  0.7734
 7513SOL     OW33997   2.948   1.138   8.073 -0.1358 -0.4662 -0.0655
 7513SOL    HW133998   2.938   1.078   8.147 -0.2297  1.2586  1.3551
 7513SOL    HW233999   2.862   1.170   8.047  0.4874  0.4622 -0.9596
 7514SOL     OW34000   3.314   0.748  11.066  0.0832  0.2281 -0.0150
 7514SOL    HW134001   3.269   0.823  11.026  0.7738  0.4316 -0.4243
 7514SOL    HW234002   3.400   0.783  11.089  0.4936 -1.0180  0.3259
 7515SOL     OW34003   3.134   2.305   7.437  0.1868 -0.1861  0.2375
 7515SOL    HW134004   3.143   2.284   7.344  0.9338 -0.7172  0.4313
 7515SOL    HW234005   3.041   2.312   7.456 -0.6132 -0.8774 -3.4234
 7516SOL     OW34006   2.990   0.380  17.487  0.6118 -0.0184  0.4942
 7516SOL    HW134007   3.005   0.344  17.574 -0.2465 -2.6911 -0.4574
 7516SOL    HW234008   2.916   0.328  17.455 -1.3536  3.6670 -0.9160
 7517SOL     OW34009   0.673   2.851   2.252  0.1800  0.0941  0.1596
 7517SOL    HW134010   0.720   2.847   2.169 -1.1338  2.0208 -0.6785
 7517SOL    HW234011   0.663   2.946   2.260 -0.2210  0.0749 -0.0696
 7518SOL     OW34012   1.657   2.148   6.834  0.0883 -0.2652  0.5117
 7518SOL    HW134013   1.594   2.076   6.832  2.0782 -1.9691 -1.0643
 7518SOL    HW234014   1.624   2.204   6.764 -3.7645 -1.2470  1.5350
 7519SOL     OW34015   1.812   0.556   7.119  0.2917  0.0724 -0.2447
 7519SOL    HW134016   1.803   0.629   7.180  0.8477 -0.1203  0.0703
 7519SOL    HW234017   1.723   0.539   7.088  0.6089 -3.0158  0.4527
 7520SOL     OW34018   0.572   0.632   3.704  0.2166 -0.0302 -0.4942
 7520SOL    HW134019   0.646   0.579   3.733  0.0952  0.4488  0.6827
 7520SOL    HW234020   0.621   0.678   3.636  1.0285  0.3614  0.3505
 7521SOL     OW34021   0.654   0.501   8.624 -0.4610 -0.2659  0.4441
 7521SOL    HW134022   0.673   0.434   8.558  4.6568  0.4824  1.0944
 7521SOL    HW234023   0.609   0.451   8.691  0.5859 -1.0101  0.5930
 7522SOL     OW34024   3.108   1.202   0.307 -0.4756  0.6969 -0.2549
 7522SOL    HW134025   3.103   1.109   0.283  1.6686  0.8823 -1.4382
 7522SOL    HW234026   3.068   1.190   0.393 -1.3042  0.8331 -0.6186
 7523SOL     OW34027   3.278   0.443   5.507 -0.2898  0.1551  0.1665
 7523SOL    HW134028   3.344   0.491   5.556 -1.7059 -0.7622  2.9765
 7523SOL    HW234029   3.205   0.471   5.563 -0.5588 -0.5556  0.1675
 7524SOL     OW34030   3.088   2.037   5.213 -0.2350 -0.0340  0.3857
 7524SOL    HW134031   3.117   2.013   5.301 -0.7611 -0.5950  0.4021
 7524SOL    HW234032   2.994   2.048   5.223 -0.2799 -0.9744  1.0563
 7525SOL     OW34033   0.768   4.219   1.268  0.0559 -0.0694  0.6560
 7525SOL    HW134034   0.780   4.253   1.357  1.5531 -0.1180  0.4619
 7525SOL    HW234035   0.745   4.294   1.213  0.6895 -0.3577  0.0016
 7526SOL     OW34036   1.361   2.357  12.360 -0.4107  0.2527 -0.0027
 7526SOL    HW134037   1.400   2.444  12.347 -0.4359  0.0003 -1.8349
 7526SOL    HW234038   1.433   2.297  12.378  0.2205  0.9633 -0.1622
 7527SOL     OW34039   3.402   4.365   7.440 -0.1146 -0.3664 -0.1649
 7527SOL    HW134040   3.326   4.314   7.467  0.0238 -0.8890 -0.7777
 7527SOL    HW234041   3.456   4.292   7.410  1.1086  0.1652  0.7268
 7528SOL     OW34042   3.660   2.487   2.465 -0.2880  0.1764 -0.6712
 7528SOL    HW134043   3.702   2.462   2.382  1.6372 -1.2705  0.7424
 7528SOL    HW234044   3.648   2.400   2.503 -0.8395  0.5570  0.0274
 7529SOL     OW34045   0.526   1.998   3.587  0.2459 -0.0453  0.6265
 7529SOL    HW134046   0.536   2.071   3.526  2.1509 -1.9246 -1.2621
 7529SOL    HW234047   0.431   1.983   3.582  0.5179 -0.6914 -2.0680
 7530SOL     OW34048   0.105   0.052   7.702  0.5927 -0.5988  0.3588
 7530SOL    HW134049   0.172   0.111   7.737  0.5805  0.1460 -0.8485
 7530SOL    HW234050   0.035   0.115   7.688  1.6553  0.3713 -0.6434
 7531SOL     OW34051   1.849   1.346  14.751 -0.5650 -0.4156 -0.7982
 7531SOL    HW134052   1.904   1.345  14.829 -1.4555 -1.3885 -0.1887
 7531SOL    HW234053   1.903   1.305  14.683 -0.4832 -1.7287  0.0559
 7532SOL     OW34054   2.417   4.676  17.486 -0.0983  0.1319  0.2217
 7532SOL    HW134055   2.346   4.723  17.529  0.3473 -2.2419  3.5945
 7532SOL    HW234056   2.371   4.670  17.402 -0.4352 -2.6003  0.6146
 7533SOL     OW34057   1.589   3.708  14.565 -0.7902  0.4259 -0.2639
 7533SOL    HW134058   1.678   3.729  14.591 -0.5390 -0.4234 -0.4575
 7533SOL    HW234059   1.604   3.619  14.535  2.2427  0.4346  1.2909
 7534SOL     OW34060   3.552   4.157   1.039  0.2228  0.0716 -0.2752
 7534SOL    HW134061   3.571   4.146   1.132  0.0295  2.8433  0.0926
 7534SOL    HW234062   3.465   4.119   1.031  1.2763 -2.1344 -1.1977
 7535SOL     OW34063   1.716   0.416   4.181  0.0079 -0.4827 -0.2805
 7535SOL    HW134064   1.635   0.390   4.137 -0.4125 -0.6009  0.5776
 7535SOL    HW234065   1.685   0.502   4.210 -1.8825 -1.5565  0.8790
 7536SOL     OW34066   3.214   0.342   6.644 -0.5871 -0.1510  0.4681
 7536SOL    HW134067   3.133   0.389   6.663 -0.6508  0.1456 -0.5316
 7536SOL    HW234068   3.185   0.274   6.584 -1.2899  0.0061  0.6271
 7537SOL     OW34069   0.936   0.405  17.177 -0.2000  0.3441  0.1087
 7537SOL    HW134070   0.961   0.498  17.182 -1.0725  0.4901  1.4805
 7537SOL    HW234071   0.848   0.415  17.212 -0.1818  0.1286  0.2104
 7538SOL     OW34072   3.907   2.682   2.749 -0.1903 -0.2041 -0.3242
 7538SOL    HW134073   3.923   2.596   2.710  0.0083  0.7142 -2.2761
 7538SOL    HW234074   3.929   2.746   2.681  0.4100  1.3015  1.2819
 7539SOL     OW34075   4.182   1.290  15.057 -0.0945  0.1070  0.3336
 7539SOL    HW134076   4.137   1.285  15.141  0.6560 -0.5081  0.6941
 7539SOL    HW234077   4.102   1.280  15.006 -0.4475 -1.2746  1.1717
 7540SOL     OW34078   4.015   4.048  12.406  0.2346 -0.0660 -0.3515
 7540SOL    HW134079   4.012   3.982  12.475 -0.7733 -1.1465 -1.4462
 7540SOL    HW234080   4.102   4.038  12.366  0.6351 -1.6958  0.9062
 7541SOL     OW34081   0.248   4.538   5.309  0.1889 -0.2749 -0.0478
 7541SOL    HW134082   0.196   4.582   5.242  1.1924  0.6346 -0.2293
 7541SOL    HW234083   0.208   4.451   5.312 -0.4904 -0.0800 -3.4677
 7542SOL     OW34084   0.180   4.253   2.290  0.5147 -0.3274  0.2041
 7542SOL    HW134085   0.122   4.320   2.252  0.6610 -0.4842 -0.3040
 7542SOL    HW234086   0.172   4.265   2.384  2.3178  2.4167  0.0006
 7543SOL     OW34087   3.047   4.631   0.663  0.5938  0.1997  0.0762
 7543SOL    HW134088   3.094   4.557   0.702 -0.3516  0.8399  2.4036
 7543SOL    HW234089   2.976   4.628   0.727  0.6359 -0.6363  0.0838
 7544SOL     OW34090   0.167   4.160   8.481 -0.1740  0.0272 -0.3214
 7544SOL    HW134091   0.155   4.082   8.426  0.1901 -0.4760  0.3175
 7544SOL    HW234092   0.080   4.198   8.476  0.2778  0.8689 -1.9855
 7545SOL     OW34093   0.831   2.251  15.598  0.1398  0.3604  0.1441
 7545SOL    HW134094   0.833   2.247  15.694 -0.1672  1.8631  0.2179
 7545SOL    HW234095   0.886   2.329  15.592  2.5541 -1.2332  1.3294
 7546SOL     OW34096   4.165   4.130   9.901  0.2241  0.4624 -0.4029
 7546SOL    HW134097   4.159   4.162   9.991 -1.6991  0.3448 -0.4891
 7546SOL    HW234098   4.260   4.132   9.891  0.3314 -2.4399  0.0012
 7547SOL     OW34099   3.859   2.940   4.900  0.0067 -0.3764 -0.3035
 7547SOL    HW134100   3.847   2.942   4.805 -0.9069  1.5983 -0.1511
 7547SOL    HW234101   3.822   3.026   4.920  1.1070  0.1216 -0.4159
 7548SOL     OW34102   0.556   0.339   9.419  0.1250  0.0965 -0.0349
 7548SOL    HW134103   0.600   0.423   9.435  0.3608 -0.4711  2.4020
 7548SOL    HW234104   0.468   0.368   9.398  0.0449  1.2121  1.8615
 7549SOL     OW34105   1.445   0.292   6.653 -0.6793 -0.4355 -0.4868
 7549SOL    HW134106   1.414   0.211   6.693  0.8740 -0.2440  1.1079
 7549SOL    HW234107   1.472   0.250   6.572  0.3858  3.2805 -2.0858
 7550SOL     OW34108   4.369   3.263  14.830 -0.0318  0.2280 -0.0430
 7550SOL    HW134109   4.357   3.257  14.925  0.0317  0.3295 -0.0284
 7550SOL    HW234110   4.464   3.260  14.829  0.0241  1.7207  0.6376
 7551SOL     OW34111   2.057   2.141  14.498  0.5947 -1.0446  0.4773
 7551SOL    HW134112   2.001   2.089  14.556 -2.4083  0.8553 -0.6779
 7551SOL    HW234113   2.029   2.112  14.411 -1.1463  0.2057  0.6204
 7552SOL     OW34114   4.117   4.001  10.240  0.3184 -0.4011 -0.6520
 7552SOL    HW134115   4.161   3.931  10.288  0.1791  1.1857  1.7462
 7552SOL    HW234116   4.196   4.041  10.204 -0.1867  0.6447 -0.5891
 7553SOL     OW34117   3.672   4.496   3.119  0.2272  0.5450 -0.1782
 7553SOL    HW134118   3.590   4.506   3.071  0.7054  1.5997 -0.7576
 7553SOL    HW234119   3.686   4.586   3.147 -1.3183  0.8839 -0.4636
 7554SOL     OW34120   0.960   3.836   8.751 -0.2811  0.2723  1.0257
 7554SOL    HW134121   0.938   3.744   8.767 -0.2837  0.1819  0.4927
 7554SOL    HW234122   1.036   3.851   8.807 -0.9986  1.3515  1.6972
 7555SOL     OW34123   1.984   2.048   3.247 -0.2495  0.1963 -0.4808
 7555SOL    HW134124   1.938   1.981   3.296  0.3298  1.1877  1.4003
 7555SOL    HW234125   1.966   2.125   3.300  2.9856  0.9548 -0.4712
 7556SOL     OW34126   2.662   3.885   5.108 -0.5682  0.5748 -0.1917
 7556SOL    HW134127   2.613   3.858   5.030 -2.5156  0.7458  0.9783
 7556SOL    HW234128   2.737   3.931   5.070  0.4969 -0.3949  0.7288
 7557SOL     OW34129   2.860   2.300   5.446 -0.0142  0.0393  0.0877
 7557SOL    HW134130   2.955   2.292   5.438 -0.1567 -1.0432 -0.5739
 7557SOL    HW234131   2.850   2.386   5.405  0.0128  0.1182  0.2456
 7558SOL     OW34132   0.678   1.569   1.146 -0.3628 -0.0227  0.1874
 7558SOL    HW134133   0.628   1.488   1.154 -0.0016 -0.2814 -0.2111
 7558SOL    HW234134   0.645   1.621   1.219 -0.1716  0.1943  0.1171
 7559SOL     OW34135   3.269   3.775   4.710 -0.8537  0.2299  0.0713
 7559SOL    HW134136   3.256   3.681   4.725 -0.6820 -0.0812 -1.7507
 7559SOL    HW234137   3.295   3.770   4.618 -0.5813 -2.5668  0.2903
 7560SOL     OW34138   2.337   2.267   2.728  0.3071  0.0467 -0.0402
 7560SOL    HW134139   2.395   2.214   2.784 -0.5096 -1.1016 -0.2855
 7560SOL    HW234140   2.253   2.270   2.773  0.8365  2.4247  0.7999
 7561SOL     OW34141   0.725   0.324   6.114 -0.2487 -0.4888 -0.2020
 7561SOL    HW134142   0.673   0.345   6.037  0.1267 -1.4062 -0.6995
 7561SOL    HW234143   0.759   0.403   6.155 -0.9576 -0.5842  0.5957
 7562SOL     OW34144   1.635   3.984   0.178  0.0181 -0.2618 -0.6625
 7562SOL    HW134145   1.640   3.904   0.230 -0.9219  0.3548  0.3786
 7562SOL    HW234146   1.698   4.037   0.226  0.9213 -1.8108 -0.1242
 7563SOL     OW34147   2.937   3.405  17.047 -0.1348  0.0308 -0.0519
 7563SOL    HW134148   2.871   3.444  17.104 -0.0552 -0.1209  0.1480
 7563SOL    HW234149   2.912   3.313  17.054  0.3896 -0.0693  0.5982
 7564SOL     OW34150   4.482   4.001   7.322  0.8636 -0.2495  0.1268
 7564SOL    HW134151   4.456   4.018   7.231 -1.7550  2.1433  1.3109
 7564SOL    HW234152   4.488   3.906   7.321 -0.7106 -0.3535 -1.1704
 7565SOL     OW34153   2.938   1.678   4.021 -0.9688  0.3005 -0.2714
 7565SOL    HW134154   2.950   1.742   3.951 -0.3519  1.5272  0.9631
 7565SOL    HW234155   2.934   1.745   4.089 -1.8754  0.1392 -0.1624
 7566SOL     OW34156   1.630   0.371   1.960 -0.4226 -0.0893  0.0874
 7566SOL    HW134157   1.694   0.430   1.919 -2.9810  1.2542 -2.0076
 7566SOL    HW234158   1.621   0.408   2.047 -3.5585 -4.3991  1.5984
 7567SOL     OW34159   3.518   2.232   2.049  0.4242 -0.2479  0.3402
 7567SOL    HW134160   3.431   2.196   2.063  0.3611 -0.2026  0.0664
 7567SOL    HW234161   3.512   2.272   1.963  0.5043 -0.6728  0.1373
 7568SOL     OW34162   2.800   3.361  12.675  0.0523 -0.8070  0.4006
 7568SOL    HW134163   2.878   3.327  12.630 -0.0522  0.4390 -0.7228
 7568SOL    HW234164   2.796   3.447  12.633  0.1886 -1.9943 -2.0235
 7569SOL     OW34165   1.829   4.342   2.138 -0.7590  0.1676  0.0982
 7569SOL    HW134166   1.897   4.334   2.072 -2.0464  1.9808 -1.4500
 7569SOL    HW234167   1.753   4.351   2.081 -0.7860  0.5989  0.1999
 7570SOL     OW34168   3.239   3.218  16.915 -0.3679  0.2556  0.3499
 7570SOL    HW134169   3.182   3.150  16.952 -1.5776  0.9116 -0.3156
 7570SOL    HW234170   3.283   3.249  16.995  0.3115  1.4587 -0.4988
 7571SOL     OW34171   1.153   1.285   4.872 -0.0721 -0.1160 -0.0877
 7571SOL    HW134172   1.181   1.277   4.781 -1.0620 -1.7202 -0.2527
 7571SOL    HW234173   1.152   1.199   4.915  0.6162  0.2898  0.7460
 7572SOL     OW34174   1.815   2.149   6.270 -0.3481  0.0467 -0.1882
 7572SOL    HW134175   1.878   2.160   6.341 -2.5841  0.0074  1.8137
 7572SOL    HW234176   1.735   2.128   6.317  1.3931 -0.6891  2.4312
 7573SOL     OW34177   3.178   0.284  12.407  0.1686  0.2893 -0.6757
 7573SOL    HW134178   3.118   0.211  12.420 -0.5935  1.1504  0.6263
 7573SOL    HW234179   3.170   0.330  12.491  1.7438 -0.8801  0.1306
 7574SOL     OW34180   3.749   4.635  10.341 -0.2301 -0.2681  0.0719
 7574SOL    HW134181   3.795   4.603  10.418  2.8476 -0.2126 -1.7487
 7574SOL    HW234182   3.657   4.650  10.363  0.1095 -1.6024  2.3296
 7575SOL     OW34183   4.394   3.954  16.322  0.2351 -0.4023  0.6580
 7575SOL    HW134184   4.402   3.862  16.295  2.8984  0.8321 -2.7190
 7575SOL    HW234185   4.487   3.974  16.335  0.2875 -0.2584  0.0519
 7576SOL     OW34186   3.467   0.854   7.252  0.4153 -0.3443  0.2471
 7576SOL    HW134187   3.400   0.870   7.187  1.7283  1.4422 -0.6542
 7576SOL    HW234188   3.474   0.936   7.300 -2.3634  0.1464 -0.1941
 7577SOL     OW34189   4.590   2.791  10.134  0.1328  0.0313  0.5595
 7577SOL    HW134190   4.639   2.742  10.199  0.6074  2.2600  1.8697
 7577SOL    HW234191   4.525   2.723  10.114  1.1625 -0.8273  0.0891
 7578SOL     OW34192   3.922   1.214   6.142  0.1922 -0.2088  0.0076
 7578SOL    HW134193   3.893   1.194   6.053 -2.4583  0.0319  0.8233
 7578SOL    HW234194   3.896   1.134   6.189 -1.6211  1.0928  1.2012
 7579SOL     OW34195   3.884   0.719  13.329 -0.3397 -0.2733 -0.6022
 7579SOL    HW134196   3.939   0.754  13.259  2.0250 -0.8076  0.9821
 7579SOL    HW234197   3.905   0.773  13.405  1.1560 -2.2496  0.3898
 7580SOL     OW34198   2.142   0.272   2.201  0.3974 -0.0518 -0.0854
 7580SOL    HW134199   2.065   0.269   2.258  1.6586  0.1612  1.6149
 7580SOL    HW234200   2.099   0.315   2.127 -0.2107 -1.2936 -0.4672
 7581SOL     OW34201   4.175   1.995  11.844 -0.3281 -0.1495  0.0498
 7581SOL    HW134202   4.263   1.980  11.810 -0.0510 -1.1542  1.1961
 7581SOL    HW234203   4.129   1.985  11.761  0.5622  0.1263 -0.4745
 7582SOL     OW34204   2.725   2.120  11.829  0.6083  0.3256 -0.3997
 7582SOL    HW134205   2.797   2.117  11.892  0.3756 -0.9536 -0.2037
 7582SOL    HW234206   2.706   2.026  11.831 -0.3764  0.6191  3.2676
 7583SOL     OW34207   3.910   1.876   2.396 -0.6156  0.1020  0.1343
 7583SOL    HW134208   3.968   1.937   2.441  0.5794  2.7994 -5.0412
 7583SOL    HW234209   3.962   1.801   2.364  0.1143  0.5315  0.3094
 7584SOL     OW34210   1.689   4.474  10.867 -0.2939 -0.9459 -0.3470
 7584SOL    HW134211   1.706   4.563  10.897  0.3462 -0.8244 -1.0738
 7584SOL    HW234212   1.754   4.434  10.925 -0.6445  0.2902  0.8972
 7585SOL     OW34213   2.911   1.628   6.116 -0.0558 -0.3584 -0.0290
 7585SOL    HW134214   2.986   1.598   6.168  0.2230 -2.3071 -1.5578
 7585SOL    HW234215   2.923   1.723   6.117 -1.0349 -0.2239 -1.8145
 7586SOL     OW34216   3.797   2.736   6.712 -0.1068  0.1843 -0.0281
 7586SOL    HW134217   3.730   2.686   6.759  0.0781  0.1091  0.1567
 7586SOL    HW234218   3.835   2.790   6.782  0.4713 -1.3182  0.8128
 7587SOL     OW34219   3.032   3.516   1.592  0.1595 -0.1020 -0.4709
 7587SOL    HW134220   3.085   3.527   1.513  2.6215 -0.0078  1.1940
 7587SOL    HW234221   2.943   3.497   1.562 -0.1840  2.0366 -0.8640
 7588SOL     OW34222   0.454   3.843   2.845 -0.0223  0.1093 -0.2309
 7588SOL    HW134223   0.468   3.937   2.849 -3.9210  0.7004  0.0076
 7588SOL    HW234224   0.494   3.826   2.931 -3.8224  1.4058  1.8011
 7589SOL     OW34225   1.015   1.859   8.873 -0.3135 -0.5396 -0.1084
 7589SOL    HW134226   0.995   1.952   8.872  0.9321 -0.2935 -1.2319
 7589SOL    HW234227   0.941   1.807   8.905 -0.5171 -1.0528 -1.4370
 7590SOL     OW34228   2.654   1.112   8.055 -0.5026  0.7409  0.1927
 7590SOL    HW134229   2.594   1.097   8.128  0.9623  0.0872  1.2691
 7590SOL    HW234230   2.648   1.029   8.008  1.6376  1.3983 -1.2185
 7591SOL     OW34231   3.279   3.826   2.986  0.3834 -0.3266  0.3299
 7591SOL    HW134232   3.366   3.798   2.959  0.7063  2.1854 -1.2456
 7591SOL    HW234233   3.249   3.874   2.909 -3.5733 -0.2791  1.8775
 7592SOL     OW34234   0.145   2.333   9.623  0.5855 -0.1363 -0.1308
 7592SOL    HW134235   0.119   2.244   9.644  1.0043 -0.5172 -1.2711
 7592SOL    HW234236   0.189   2.316   9.540  1.4240  0.1498  0.2442
 7593SOL     OW34237   0.630   2.746   5.356 -0.3359 -0.2434  0.1461
 7593SOL    HW134238   0.592   2.830   5.380  0.6042  0.8480 -2.1419
 7593SOL    HW234239   0.640   2.757   5.261 -0.8875  0.1715  0.1390
 7594SOL     OW34240   3.997   3.032   1.765 -0.0664  0.3333 -0.1629
 7594SOL    HW134241   4.043   2.995   1.689 -0.4000  1.1998 -0.7976
 7594SOL    HW234242   4.072   3.053   1.821 -0.7817  0.6409  0.6672
 7595SOL     OW34243   0.183   2.908  11.610  0.2332  0.1561 -0.1619
 7595SOL    HW134244   0.274   2.921  11.637 -0.3720  1.4465  1.2382
 7595SOL    HW234245   0.189   2.843  11.540 -1.1328 -0.8870  0.6863
 7596SOL     OW34246   0.290   2.442   6.362  0.2625 -0.2093  0.2498
 7596SOL    HW134247   0.297   2.363   6.308 -2.2416 -1.0270  1.1379
 7596SOL    HW234248   0.234   2.501   6.312 -0.0207 -1.1740 -0.5624
 7597SOL     OW34249   2.019   2.215   4.030  0.6061  0.3401  0.3378
 7597SOL    HW134250   2.021   2.168   3.947  1.4287 -0.2977  0.7259
 7597SOL    HW234251   2.010   2.143   4.092 -0.0292  1.2281  1.2894
 7598SOL     OW34252   3.088   0.471   6.053 -0.1627  0.4951  0.6416
 7598SOL    HW134253   3.103   0.558   6.090 -1.6968 -0.0768  2.5960
 7598SOL    HW234254   3.161   0.477   5.991 -1.5095 -1.0047 -1.0937
 7599SOL     OW34255   3.392   1.473   5.269  0.0345 -0.5496 -0.0949
 7599SOL    HW134256   3.407   1.433   5.355 -1.7500 -1.5003 -0.2277
 7599SOL    HW234257   3.484   1.488   5.248 -0.8252  1.0540 -2.7399
 7600SOL     OW34258   4.550   0.517   3.258  0.0588  0.8442  0.3471
 7600SOL    HW134259   4.511   0.580   3.197 -0.9352 -0.1349 -0.0366
 7600SOL    HW234260   4.615   0.573   3.301  0.6836  0.0435  0.4508
 7601SOL     OW34261   1.010   1.957   3.407 -0.9518  0.4135  0.4893
 7601SOL    HW134262   1.007   1.865   3.379  0.2897  0.4731  0.1932
 7601SOL    HW234263   0.947   1.987   3.342 -1.0065 -0.7998 -0.0195
 7602SOL     OW34264   1.641   0.132  14.247  0.3839  0.4106  0.4226
 7602SOL    HW134265   1.720   0.083  14.225 -0.2182 -1.2423  1.8571
 7602SOL    HW234266   1.667   0.224  14.245 -0.1966  0.5613 -0.0840
 7603SOL     OW34267   3.290   3.516  10.058  0.0687  0.4028 -0.0331
 7603SOL    HW134268   3.378   3.541  10.030  0.7885 -1.8943  0.1846
 7603SOL    HW234269   3.239   3.593  10.031 -1.7698 -0.5131  0.8008
 7604SOL     OW34270   4.073   1.786   2.675  0.3382  0.5600 -0.3406
 7604SOL    HW134271   4.148   1.803   2.731 -0.7483 -2.5065  2.0645
 7604SOL    HW234272   4.097   1.838   2.598 -0.0776 -0.5643 -1.2348
 7605SOL     OW34273   2.479   0.725  16.499  0.1857 -0.6513  0.6274
 7605SOL    HW134274   2.564   0.732  16.456 -0.9641  2.0511 -1.1568
 7605SOL    HW234275   2.471   0.815  16.529 -2.4948 -0.8968  0.6019
 7606SOL     OW34276   2.937   3.997   7.317  0.4338 -0.0565  0.5282
 7606SOL    HW134277   2.909   4.072   7.369  0.3128  0.3644 -0.1537
 7606SOL    HW234278   2.870   3.978   7.251  1.0758 -0.0340 -0.1336
 7607SOL     OW34279   0.909   1.536   8.639  0.2890 -0.3818  0.5981
 7607SOL    HW134280   0.910   1.581   8.555 -1.3016 -1.1420  0.1836
 7607SOL    HW234281   0.854   1.461   8.622 -1.3523  1.0559 -0.4283
 7608SOL     OW34282   4.569   1.360   8.873  0.9005 -0.7706 -0.4212
 7608SOL    HW134283   4.541   1.291   8.813 -0.9056  0.2470 -0.7566
 7608SOL    HW234284   4.544   1.319   8.956  0.2208 -0.4977 -0.4958
 7609SOL     OW34285   3.765   2.177   2.144  0.2396 -0.3554  0.6610
 7609SOL    HW134286   3.682   2.176   2.097  0.8557  0.1561 -0.4353
 7609SOL    HW234287   3.766   2.272   2.152 -2.2112  0.0063 -3.4105
 7610SOL     OW34288   0.485   3.126   1.522 -0.0652 -0.3804  0.0410
 7610SOL    HW134289   0.510   3.042   1.484  0.7097  1.2019 -2.9553
 7610SOL    HW234290   0.564   3.174   1.501  1.1296 -0.7481  3.5868
 7611SOL     OW34291   3.486   2.773   6.257  0.1164  0.0319  0.0071
 7611SOL    HW134292   3.548   2.757   6.328  0.5082 -0.2314 -0.3950
 7611SOL    HW234293   3.535   2.736   6.183 -0.8891 -0.9062 -0.1830
 7612SOL     OW34294   0.991   2.721   7.383  0.9317 -0.1710  0.5141
 7612SOL    HW134295   1.005   2.801   7.433  2.3788  0.4436 -0.8665
 7612SOL    HW234296   0.943   2.755   7.307  0.0660  1.7224  1.9117
 7613SOL     OW34297   4.163   4.246   1.642 -0.0877 -0.0388 -0.1320
 7613SOL    HW134298   4.115   4.165   1.626  0.5714 -0.6078  0.8260
 7613SOL    HW234299   4.246   4.240   1.595 -0.0917  1.9492 -0.4021
 7614SOL     OW34300   3.738   0.890   2.350 -0.2608 -0.0998 -0.2098
 7614SOL    HW134301   3.659   0.886   2.295 -0.6693  0.9215  0.3057
 7614SOL    HW234302   3.738   0.978   2.386 -1.9265  0.2849 -1.1629
 7615SOL     OW34303   0.736   2.627   9.902 -0.4386  0.4181 -0.1535
 7615SOL    HW134304   0.659   2.674   9.932 -1.1819 -1.4256  0.8213
 7615SOL    HW234305   0.709   2.595   9.816  0.8215  0.3442 -0.5323
 7616SOL     OW34306   0.343   0.052  13.748 -0.3212  0.1332  0.2881
 7616SOL    HW134307   0.345   0.146  13.766 -1.2106  0.4401 -1.2248
 7616SOL    HW234308   0.414   0.035  13.686  0.6377  0.2265  1.3778
 7617SOL     OW34309   1.800   2.208   8.652 -0.1226 -0.2977 -0.2668
 7617SOL    HW134310   1.854   2.191   8.729  2.2393  1.6861 -1.5133
 7617SOL    HW234311   1.777   2.119   8.625  0.1100 -0.1392 -0.9794
 7618SOL     OW34312   0.334   3.748   3.421  0.2399  0.1877 -0.0782
 7618SOL    HW134313   0.242   3.748   3.449  0.4240 -0.0501  0.5102
 7618SOL    HW234314   0.338   3.834   3.379 -0.6014  1.4851  2.4829
 7619SOL     OW34315   4.401   2.113   2.142 -0.2047  0.4132 -0.2577
 7619SOL    HW134316   4.330   2.178   2.144 -0.7829 -0.2444  0.6648
 7619SOL    HW234317   4.446   2.128   2.059  0.7767 -0.1994  0.1568
 7620SOL     OW34318   0.078   3.542   2.494 -0.6298 -0.2860  0.2954
 7620SOL    HW134319   0.054   3.625   2.536 -0.8875  0.3165 -1.0691
 7620SOL    HW234320   0.166   3.568   2.468 -0.6883 -0.8257 -0.4259
 7621SOL     OW34321   0.858   1.541   6.935 -0.5221 -0.2555  0.8057
 7621SOL    HW134322   0.862   1.448   6.912 -1.5564 -0.0585 -0.1682
 7621SOL    HW234323   0.927   1.540   7.001  2.3852  0.6535 -2.1960
 7622SOL     OW34324   0.684   2.742   5.064 -0.3212 -0.1975  0.3308
 7622SOL    HW134325   0.660   2.804   4.995  0.9806  0.6479  0.6356
 7622SOL    HW234326   0.761   2.788   5.099 -0.5421  0.2453  0.2214
 7623SOL     OW34327   4.477   2.189   7.558 -0.9524  0.4118 -0.0985
 7623SOL    HW134328   4.538   2.259   7.580 -0.7318 -0.5004  2.1623
 7623SOL    HW234329   4.523   2.112   7.591  0.6368  0.1374 -2.9282
 7624SOL     OW34330   1.107   4.156  12.739  0.0227  0.3137 -0.4950
 7624SOL    HW134331   1.181   4.120  12.689  0.6778  0.5402  0.3281
 7624SOL    HW234332   1.048   4.190  12.671  0.5143  0.1451 -1.0133
 7625SOL     OW34333   0.792   3.845   4.703 -0.3692  0.2745  0.1332
 7625SOL    HW134334   0.800   3.763   4.655 -1.1569 -0.9375  2.0636
 7625SOL    HW234335   0.697   3.837   4.715 -0.5611  1.9320 -0.3494
 7626SOL     OW34336   3.160   2.576  14.331  0.6180 -0.0541  0.9696
 7626SOL    HW134337   3.251   2.585  14.360  0.2973 -0.8517  2.2610
 7626SOL    HW234338   3.164   2.632  14.254 -0.4414 -1.2775  0.0396
 7627SOL     OW34339   2.768   0.592   4.941  0.8646  0.0657  0.4272
 7627SOL    HW134340   2.742   0.517   4.995 -1.4933 -0.3587 -1.2993
 7627SOL    HW234341   2.755   0.667   4.999  0.8183 -0.7824  1.5200
 7628SOL     OW34342   4.673   3.555  11.789 -0.3003 -0.3143  0.1197
 7628SOL    HW134343   4.618   3.553  11.866  0.9560  0.9840  1.0567
 7628SOL    HW234344   0.026   3.513  11.822  1.1112 -0.6178 -3.6273
 7629SOL     OW34345   2.495   2.125   7.043  0.5413  0.1524  0.0761
 7629SOL    HW134346   2.575   2.073   7.055  0.3297 -0.3270 -0.6354
 7629SOL    HW234347   2.491   2.174   7.126 -1.1445 -1.4042  0.9238
 7630SOL     OW34348   2.390   0.211   6.404 -0.3730  0.1934 -0.4099
 7630SOL    HW134349   2.450   0.147   6.368  1.5838  1.8694 -0.1183
 7630SOL    HW234350   2.438   0.240   6.481  0.0259  0.1476 -0.6412
 7631SOL     OW34351   3.512   3.234  17.500 -0.2481  0.1203  0.3783
 7631SOL    HW134352   3.538   3.315  17.543  2.0966  0.8484 -2.4489
 7631SOL    HW234353   3.577   3.241  17.430 -0.5658  0.0868  0.0797
 7632SOL     OW34354   3.784   3.824   2.305 -0.2847  0.1943  0.4765
 7632SOL    HW134355   3.764   3.768   2.231  0.6168  0.0784  0.3185
 7632SOL    HW234356   3.752   3.910   2.275  2.0478  1.8896  2.7940
 7633SOL     OW34357   1.816   3.419   4.945 -0.1303  0.1082  0.0621
 7633SOL    HW134358   1.894   3.404   4.891  1.0280  1.0493  1.4677
 7633SOL    HW234359   1.854   3.412   5.033 -3.2271  1.6744  1.5325
 7634SOL     OW34360   4.628   2.281   7.020 -0.4492  0.5816 -0.3080
 7634SOL    HW134361   4.535   2.286   6.999 -0.3219 -1.8707 -1.5342
 7634SOL    HW234362   4.632   2.285   7.115  0.0251  0.9001 -0.3446
 7635SOL     OW34363   3.887   2.231   8.391  0.6133  0.5313 -0.7946
 7635SOL    HW134364   3.834   2.163   8.433 -0.7299  2.8267  1.2168
 7635SOL    HW234365   3.974   2.203   8.420 -0.6044 -0.0431  2.3189
 7636SOL     OW34366   0.858   2.045   2.611 -0.0772 -0.0608 -0.0267
 7636SOL    HW134367   0.797   2.113   2.641  1.9272  1.5888  0.3518
 7636SOL    HW234368   0.947   2.081   2.613  0.3616 -1.1712  0.6545
 7637SOL     OW34369   4.255   3.441   2.219  0.2402  0.2264 -0.4010
 7637SOL    HW134370   4.220   3.511   2.163 -1.6186 -0.6519 -0.3246
 7637SOL    HW234371   4.174   3.400   2.249  1.8518 -1.0242  2.1925
 7638SOL     OW34372   4.672   3.764   9.121 -0.0035 -0.1123 -0.2533
 7638SOL    HW134373   4.713   3.695   9.069  3.2848  1.8587 -0.2991
 7638SOL    HW234374   4.587   3.722   9.126  0.3828 -0.7863  0.6714
 7639SOL     OW34375   2.080   3.886  17.350 -0.1589  0.5349 -0.5189
 7639SOL    HW134376   2.008   3.833  17.384  1.0036 -0.6668  0.0632
 7639SOL    HW234377   2.145   3.818  17.336 -1.2707 -0.4788 -0.6631
 7640SOL     OW34378   0.690   0.386   4.393  0.7928  0.2009  0.1939
 7640SOL    HW134379   0.622   0.434   4.440  1.6620 -0.8066  2.4750
 7640SOL    HW234380   0.670   0.294   4.412 -1.2955  0.3998 -1.0727
 7641SOL     OW34381   4.103   2.847   6.701  0.0699  0.7633 -0.5968
 7641SOL    HW134382   4.165   2.906   6.743  1.7577 -1.7894  0.5323
 7641SOL    HW234383   4.035   2.839   6.769 -1.0638 -1.0332 -1.9301
 7642SOL     OW34384   1.812   3.482   4.416 -0.1448  0.1768  0.2373
 7642SOL    HW134385   1.843   3.564   4.379  0.3548 -0.6675 -1.1933
 7642SOL    HW234386   1.843   3.499   4.505 -0.3282  0.7290  0.1972
 7643SOL     OW34387   4.178   2.545   1.981  0.2642 -0.1071  0.3447
 7643SOL    HW134388   4.097   2.578   2.020 -1.0460  0.4811 -2.8858
 7643SOL    HW234389   4.232   2.530   2.058 -0.5853 -1.5352  0.6420
 7644SOL     OW34390   0.857   3.758   7.217  0.1610  0.0669  0.5509
 7644SOL    HW134391   0.946   3.724   7.226  0.3834  0.2781 -0.7966
 7644SOL    HW234392   0.825   3.734   7.303  0.8627  0.6818  0.9854
 7645SOL     OW34393   4.313   0.327   3.372 -0.3990 -0.5444  0.1736
 7645SOL    HW134394   4.296   0.328   3.278 -0.8191  0.1230  0.2586
 7645SOL    HW234395   4.245   0.389   3.397  0.5950  1.8010 -2.9989
 7646SOL     OW34396   0.727   2.661   7.486  0.2068 -0.1045  0.1897
 7646SOL    HW134397   0.708   2.569   7.469 -3.0619  0.3625  1.2921
 7646SOL    HW234398   0.816   2.664   7.451  0.4951 -0.2010  0.9018
 7647SOL     OW34399   0.560   3.497   9.844 -0.2979  0.1336  0.2268
 7647SOL    HW134400   0.489   3.433   9.840  1.3774 -1.5161 -2.5454
 7647SOL    HW234401   0.602   3.469   9.763  0.3612  0.4234  0.4667
 7648SOL     OW34402   0.980   2.344   7.833 -0.2789  0.1397  0.2193
 7648SOL    HW134403   0.892   2.308   7.847 -0.4867  0.8500  0.6920
 7648SOL    HW234404   1.006   2.283   7.764  1.7013  1.7403 -0.4418
 7649SOL     OW34405   0.402   2.775   4.791 -0.2886  0.3571 -0.2447
 7649SOL    HW134406   0.390   2.854   4.739  1.0423  0.0407 -1.0337
 7649SOL    HW234407   0.372   2.707   4.730  1.4783 -0.0353 -0.6557
 7650SOL     OW34408   2.005   0.032   6.750 -0.9377  0.0933 -0.1718
 7650SOL    HW134409   1.919   0.074   6.739  0.6203  2.5539 -2.7584
 7650SOL    HW234410   2.069   0.089   6.707 -1.4855  0.3590 -0.6483
 7651SOL     OW34411   0.328   3.663  14.213 -0.1385  0.8230  0.0277
 7651SOL    HW134412   0.339   3.710  14.131 -0.5804  0.4000 -0.2785
 7651SOL    HW234413   0.422   3.659  14.233  0.1146  2.0771 -0.9294
 7652SOL     OW34414   4.577   1.718  11.552 -0.5189 -0.0858  0.2108
 7652SOL    HW134415   4.591   1.712  11.457 -1.2667  0.0798  0.0869
 7652SOL    HW234416   4.665   1.692  11.580  0.2679  0.7988 -1.4479
 7653SOL     OW34417   3.197   3.933   9.076  0.3596  0.9566  0.0663
 7653SOL    HW134418   3.165   3.843   9.081 -1.6917  1.6079 -1.0256
 7653SOL    HW234419   3.280   3.921   9.030  0.4043 -0.8146  0.6071
 7654SOL     OW34420   3.280   3.803   8.452  0.2658 -0.4112 -0.2575
 7654SOL    HW134421   3.229   3.723   8.443 -1.0637  0.3568  0.4508
 7654SOL    HW234422   3.268   3.820   8.545 -0.6769  2.3529 -0.8891
 7655SOL     OW34423   2.784   1.357   8.934 -0.2854  0.1100  0.2011
 7655SOL    HW134424   2.856   1.353   8.996  0.3605  3.1422 -0.3750
 7655SOL    HW234425   2.704   1.367   8.986 -0.0590  0.6853  0.4374
 7656SOL     OW34426   2.725   0.088   2.185 -0.5438  0.3841 -0.4339
 7656SOL    HW134427   2.689   0.120   2.103 -0.3985  1.0848 -0.2235
 7656SOL    HW234428   2.814   0.125   2.180 -0.5250  0.3464 -0.3768
 7657SOL     OW34429   2.137   2.539   3.768 -0.3758 -0.3797  0.2405
 7657SOL    HW134430   2.230   2.524   3.750 -1.1207 -3.0350 -1.2845
 7657SOL    HW234431   2.139   2.543   3.864 -0.9669 -1.5004  0.2985
 7658SOL     OW34432   3.336   3.058   8.441  0.0733 -1.0238 -0.0839
 7658SOL    HW134433   3.242   3.053   8.457 -0.1781  0.4652 -1.0993
 7658SOL    HW234434   3.376   3.097   8.519 -1.5945  3.6780 -1.6188
 7659SOL     OW34435   2.021   0.351  15.333  0.1850  0.0423  0.3561
 7659SOL    HW134436   1.964   0.428  15.336 -0.2747 -0.2800 -0.1310
 7659SOL    HW234437   1.980   0.312  15.257  0.4588  2.0738 -0.8430
 7660SOL     OW34438   3.630   2.464   7.069 -0.4232 -0.2463  0.4197
 7660SOL    HW134439   3.700   2.507   7.119  0.3480 -0.5243 -0.4338
 7660SOL    HW234440   3.627   2.376   7.105  1.4929 -0.3604  0.3003
 7661SOL     OW34441   3.708   3.883  17.418 -0.4973 -0.3065 -0.2311
 7661SOL    HW134442   3.685   3.793  17.395  0.6325 -0.6413 -0.0882
 7661SOL    HW234443   3.664   3.931  17.348 -1.4407 -0.9276 -0.0586
 7662SOL     OW34444   2.522   0.005   3.681 -0.0425 -0.3291  0.6712
 7662SOL    HW134445   2.544   4.643   3.651 -0.6588  0.0794 -0.9681
 7662SOL    HW234446   2.560   0.054   3.608 -0.2371  0.5605  1.1592
 7663SOL     OW34447   1.219   3.762   4.876 -0.1299 -0.3729 -0.1267
 7663SOL    HW134448   1.147   3.819   4.904  0.2029  0.2015 -0.4218
 7663SOL    HW234449   1.250   3.722   4.956  1.5574 -0.3307 -0.7648
 7664SOL     OW34450   4.405   0.558   2.385 -0.4674  0.1240  0.5339
 7664SOL    HW134451   4.481   0.566   2.328 -0.1117  2.4155  1.3374
 7664SOL    HW234452   4.333   0.556   2.322  0.1942  0.6758 -0.2287
 7665SOL     OW34453   0.886   0.429   4.587 -0.2975 -0.3390 -0.1326
 7665SOL    HW134454   0.812   0.407   4.531 -0.5141 -0.8228  0.3431
 7665SOL    HW234455   0.865   0.368   4.658 -1.3563  0.9748  0.6853
 7666SOL     OW34456   0.276   2.199   3.783 -0.1062  1.1799  0.4860
 7666SOL    HW134457   0.188   2.180   3.816 -0.1434  0.4308 -0.0466
 7666SOL    HW234458   0.279   2.173   3.691  1.2599 -0.6722  1.0587
 7667SOL     OW34459   3.136   2.817   3.623  0.4879 -0.4319  0.6136
 7667SOL    HW134460   3.125   2.902   3.580  2.3254 -0.2154  0.5600
 7667SOL    HW234461   3.042   2.809   3.638  0.9199 -1.4107  2.7310
 7668SOL     OW34462   1.300   1.050   8.491 -0.6148  0.0058 -0.7241
 7668SOL    HW134463   1.234   1.096   8.543 -3.0793 -2.7762 -1.3515
 7668SOL    HW234464   1.377   1.074   8.543 -0.1817  0.2474 -1.4868
 7669SOL     OW34465   1.442   0.340   2.776 -0.1208  0.0869  0.3716
 7669SOL    HW134466   1.445   0.261   2.721  1.2450 -0.2330  0.8970
 7669SOL    HW234467   1.405   0.320   2.862  0.3891  0.2950  0.6434
 7670SOL     OW34468   1.515   0.661   8.951  0.2646  0.3759  0.0033
 7670SOL    HW134469   1.582   0.720   8.983  0.5841  0.7980 -1.4295
 7670SOL    HW234470   1.487   0.620   9.032  0.5882 -0.0335 -0.0903
 7671SOL     OW34471   4.402   3.328   9.479 -0.5874 -0.1103  0.4528
 7671SOL    HW134472   4.417   3.271   9.404  1.9075 -1.1481  1.7373
 7671SOL    HW234473   4.421   3.416   9.445 -0.5314 -0.2287  0.1782
 7672SOL     OW34474   0.980   2.467  16.151  0.4596 -0.0480 -0.4080
 7672SOL    HW134475   1.027   2.405  16.095 -1.4197 -1.3780 -0.4872
 7672SOL    HW234476   0.986   2.416  16.231 -0.1766  0.4666 -0.0346
 7673SOL     OW34477   1.664   4.305   8.448 -0.7605 -0.3297  0.1471
 7673SOL    HW134478   1.710   4.389   8.443 -2.6447  0.7749  0.8769
 7673SOL    HW234479   1.603   4.318   8.375 -1.2000 -0.2485  0.5269
 7674SOL     OW34480   4.253   1.068   2.607  0.0968  0.0059  0.4266
 7674SOL    HW134481   4.181   1.005   2.610  2.9597 -3.3225 -0.1137
 7674SOL    HW234482   4.204   1.149   2.616 -1.1927 -0.7733  0.4265
 7675SOL     OW34483   4.636   2.318   8.392 -0.3956  1.1827  0.2666
 7675SOL    HW134484   4.569   2.311   8.324 -0.7244  2.1534  0.4900
 7675SOL    HW234485   4.642   2.413   8.391  0.9199  1.1014 -1.1526
 7676SOL     OW34486   4.430   0.384   5.729 -0.2548 -0.2862  0.1725
 7676SOL    HW134487   4.507   0.361   5.781 -0.4343 -2.0547 -0.3371
 7676SOL    HW234488   4.455   0.451   5.666  1.4385 -2.4780 -1.4993
 7677SOL     OW34489   2.733   1.432   9.558 -0.5071 -0.9190 -0.1402
 7677SOL    HW134490   2.642   1.455   9.538 -0.5435  0.3061  1.4488
 7677SOL    HW234491   2.725   1.336   9.555  2.0549 -1.0434 -2.6179
 7678SOL     OW34492   2.219   0.966   4.555  0.4308  0.0076  0.0104
 7678SOL    HW134493   2.190   0.875   4.545 -1.6250  0.5689  0.7298
 7678SOL    HW234494   2.230   0.973   4.650  3.6713 -0.0907 -0.3523
 7679SOL     OW34495   2.183   4.388   7.649  0.0899 -0.4761 -0.0816
 7679SOL    HW134496   2.193   4.308   7.700  0.6503 -0.5319 -0.2827
 7679SOL    HW234497   2.233   4.448   7.704 -2.3697 -0.4892  2.1713
 7680SOL     OW34498   2.565   4.607   8.895  0.0854 -0.0366 -0.5274
 7680SOL    HW134499   2.524   4.669   8.956  0.0769  1.2632 -1.8820
 7680SOL    HW234500   2.537   4.649   8.814  2.2205  1.1011 -0.6733
 7681SOL     OW34501   4.641   3.833   6.976 -0.1293  0.0368  0.1927
 7681SOL    HW134502   0.002   3.866   6.997  0.0978 -0.1683 -0.4350
 7681SOL    HW234503   4.659   3.779   6.899  1.0666 -0.5509  0.8911
 7682SOL     OW34504   4.239   2.995   5.536 -0.0676  0.1868 -0.5395
 7682SOL    HW134505   4.153   2.953   5.543  0.5123 -1.1658 -1.6718
 7682SOL    HW234506   4.295   2.923   5.563 -0.4032  0.7511  1.5967
 7683SOL     OW34507   1.743   3.227   4.585  0.5075  0.0473  0.0377
 7683SOL    HW134508   1.712   3.225   4.675  0.2857  1.7217 -0.0075
 7683SOL    HW234509   1.757   3.322   4.588 -1.1294  0.2329  1.6930
 7684SOL     OW34510   0.414   2.563   2.824 -0.2880  0.8534  0.3174
 7684SOL    HW134511   0.436   2.512   2.746 -0.4032  0.6678  0.4042
 7684SOL    HW234512   0.322   2.585   2.812 -0.9758 -2.0223  0.2117
 7685SOL     OW34513   1.876   0.123  16.546 -0.1335  0.1360 -0.3615
 7685SOL    HW134514   1.955   0.116  16.600  0.9089 -1.2028 -2.0633
 7685SOL    HW234515   1.886   0.048  16.487  1.1705  0.1419 -0.1557
 7686SOL     OW34516   0.777   3.008  15.729 -0.3866  0.7102 -0.5659
 7686SOL    HW134517   0.787   2.931  15.786 -2.8831  0.2055 -0.8179
 7686SOL    HW234518   0.703   3.059  15.761 -1.3141 -0.2321 -1.1898
 7687SOL     OW34519   1.066   4.476  17.484 -0.1597 -0.0445  0.6459
 7687SOL    HW134520   1.019   4.560  17.493 -1.1865 -0.7105  1.5533
 7687SOL    HW234521   1.056   4.460  17.390 -1.7844 -0.1646  0.8247
 7688SOL     OW34522   3.774   3.186   8.438 -0.0234  0.3352 -0.4228
 7688SOL    HW134523   3.736   3.270   8.464 -1.1505 -0.3793  0.2669
 7688SOL    HW234524   3.754   3.191   8.344  2.4366  2.3238 -0.8256
 7689SOL     OW34525   4.359   0.187  16.204 -0.3638 -0.2407 -0.0928
 7689SOL    HW134526   4.426   0.139  16.252 -0.2377 -0.7461 -0.7800
 7689SOL    HW234527   4.328   0.120  16.144  0.3732 -0.9667  0.3411
 7690SOL     OW34528   4.379   3.880   8.339 -0.1244  0.0756 -0.2392
 7690SOL    HW134529   4.319   3.954   8.340 -1.1404 -0.7163 -3.1410
 7690SOL    HW234530   4.320   3.824   8.391  0.7448 -0.4048  0.2320
 7691SOL     OW34531   2.698   1.265  16.647 -0.0023 -0.0315 -0.0795
 7691SOL    HW134532   2.683   1.190  16.589  0.0837  0.6060 -0.9131
 7691SOL    HW234533   2.790   1.248  16.667 -0.2609 -1.4073  0.0026
 7692SOL     OW34534   1.991   0.813  11.233  0.0423  0.4050 -0.1989
 7692SOL    HW134535   1.940   0.807  11.314 -0.7895  0.3319 -0.7168
 7692SOL    HW234536   2.076   0.773  11.246 -0.0960  0.0991 -0.2369
 7693SOL     OW34537   1.843   4.295   7.294 -0.0204 -0.2319  0.1988
 7693SOL    HW134538   1.840   4.304   7.389 -2.0008  1.9123 -0.0737
 7693SOL    HW234539   1.886   4.377   7.269  0.1562  0.4915  2.8897
 7694SOL     OW34540   0.796   3.455   2.188 -0.2576 -0.2560 -0.0854
 7694SOL    HW134541   0.776   3.507   2.265 -1.2038  0.7200 -0.9955
 7694SOL    HW234542   0.881   3.425   2.221  1.0754  3.4984 -0.1204
 7695SOL     OW34543   2.959   3.566   7.017  0.4074  0.0470  0.0237
 7695SOL    HW134544   2.988   3.556   6.927  0.2818  4.1176 -0.4861
 7695SOL    HW234545   2.871   3.600   7.002 -0.2710 -1.9314 -0.3830
 7696SOL     OW34546   2.704   0.787   8.645 -0.1903  0.2668 -0.3372
 7696SOL    HW134547   2.615   0.822   8.638  0.0312  1.6068  3.6208
 7696SOL    HW234548   2.752   0.865   8.674  1.3758 -0.7489 -0.1605
 7697SOL     OW34549   0.967   1.808   4.667  0.0346  0.0445  0.3285
 7697SOL    HW134550   1.057   1.827   4.693  0.0720 -0.2636  0.4230
 7697SOL    HW234551   0.929   1.894   4.645 -0.3225 -0.7508 -2.2432
 7698SOL     OW34552   2.314   1.800  11.834  0.5358 -0.0750 -0.0076
 7698SOL    HW134553   2.368   1.828  11.760 -0.7551 -1.1686 -1.3421
 7698SOL    HW234554   2.335   1.863  11.903  0.0418  1.4960 -1.2873
 7699SOL     OW34555   3.778   1.482  16.253 -0.0820 -0.1462 -0.2636
 7699SOL    HW134556   3.737   1.471  16.168 -0.8295 -1.8688  0.3026
 7699SOL    HW234557   3.791   1.576  16.255 -1.7856  0.0760  0.5247
 7700SOL     OW34558   4.652   2.691  15.743 -0.5691 -0.1660  0.3183
 7700SOL    HW134559   4.558   2.675  15.745 -0.8401  1.7080  2.2553
 7700SOL    HW234560   4.644   2.786  15.734  0.5495  0.3092  4.4987
 7701SOL     OW34561   0.702   1.392  15.677 -0.4313 -0.5666  0.1978
 7701SOL    HW134562   0.765   1.355  15.739 -1.1018  1.1792  1.9348
 7701SOL    HW234563   0.712   1.330  15.606  0.6473 -2.0854  1.6819
 7702SOL     OW34564   2.764   3.125   8.219 -0.3087 -0.1960  0.0400
 7702SOL    HW134565   2.774   3.077   8.301 -0.1947 -1.2100 -0.5738
 7702SOL    HW234566   2.779   3.211   8.258  0.9389  0.2053 -1.3466
 7703SOL     OW34567   3.186   1.042  11.728  0.2924 -0.2143  0.1469
 7703SOL    HW134568   3.116   1.103  11.704 -0.6146 -1.3100 -0.0220
 7703SOL    HW234569   3.236   1.043  11.647 -0.5591 -1.3857 -0.3953
 7704SOL     OW34570   0.048   3.790   5.399  0.4458 -0.3700  0.3465
 7704SOL    HW134571   0.042   3.754   5.487  0.7656 -2.7735 -0.6052
 7704SOL    HW234572   4.681   3.809   5.389  0.1677 -2.8988 -1.9782
 7705SOL     OW34573   3.912   2.640   1.359  0.4973  0.2327 -0.3945
 7705SOL    HW134574   3.834   2.622   1.411 -1.2096  2.4224 -2.2013
 7705SOL    HW234575   3.869   2.655   1.275 -0.2637 -0.1216 -0.0758
 7706SOL     OW34576   0.197   2.749   5.968 -0.0552  0.2726  0.4476
 7706SOL    HW134577   0.290   2.744   5.944 -0.3230 -1.5512 -0.2041
 7706SOL    HW234578   0.213   2.819   6.031  0.5841  1.7297 -1.3453
 7707SOL     OW34579   0.475   4.028   3.674 -0.0266  0.5069 -0.9703
 7707SOL    HW134580   0.476   3.933   3.664 -1.5893  0.1684  2.0598
 7707SOL    HW234581   0.390   4.041   3.716 -1.2802 -2.5276 -2.5608
 7708SOL     OW34582   1.300   3.465   8.384 -0.1769  0.0770  0.3556
 7708SOL    HW134583   1.233   3.445   8.449 -0.1565  1.2643  0.7495
 7708SOL    HW234584   1.380   3.487   8.432  1.1323 -1.9179 -0.8951
 7709SOL     OW34585   2.152   3.355  12.502  0.4516 -0.1744 -0.3529
 7709SOL    HW134586   2.107   3.276  12.532  0.7801 -0.3232 -0.2488
 7709SOL    HW234587   2.226   3.360  12.562  1.2632 -0.2627 -1.3332
 7710SOL     OW34588   3.588   2.302  14.729 -0.3657 -0.3625  0.1515
 7710SOL    HW134589   3.579   2.273  14.639 -1.6390 -0.4810  0.3177
 7710SOL    HW234590   3.532   2.237  14.772 -1.0061  0.9732  1.3706
 7711SOL     OW34591   3.690   0.036  15.907  0.4201  0.0738  0.1447
 7711SOL    HW134592   3.620   0.067  15.850 -0.2651 -2.6989 -0.5340
 7711SOL    HW234593   3.689   0.108  15.970 -0.4810  1.1074 -1.0454
 7712SOL     OW34594   1.223   4.551   5.184  0.3015 -0.6781 -0.2922
 7712SOL    HW134595   1.318   4.552   5.171 -0.5186  1.0355 -5.9885
 7712SOL    HW234596   1.195   4.460   5.175 -0.0469 -0.2324 -3.6447
 7713SOL     OW34597   0.597   4.459   4.134 -0.2265  0.6096  0.7188
 7713SOL    HW134598   0.509   4.494   4.121 -0.6459 -0.0530  1.7502
 7713SOL    HW234599   0.604   4.431   4.043 -0.8132 -1.3546  1.2676
 7714SOL     OW34600   4.343   3.088  12.175  0.2707  0.8562  0.0402
 7714SOL    HW134601   4.418   3.111  12.230  0.4171  1.5377 -0.4527
 7714SOL    HW234602   4.272   3.144  12.208  1.6267  1.0718  2.6344
 7715SOL     OW34603   1.972   3.065   4.516 -0.4204  0.2045  0.2274
 7715SOL    HW134604   1.935   2.981   4.544 -1.4730  1.0159  1.3142
 7715SOL    HW234605   1.908   3.124   4.556 -0.9732 -1.4017  1.7220
 7716SOL     OW34606   4.059   0.141  15.925  0.0926 -0.5198  0.6603
 7716SOL    HW134607   4.035   0.093  15.847  0.2113 -0.7709  0.7769
 7716SOL    HW234608   4.119   0.078  15.966  0.3498 -1.2638 -0.8566
 7717SOL     OW34609   1.757   0.968   4.031  0.3333  0.3675 -0.5887
 7717SOL    HW134610   1.681   0.993   3.979  0.4524  1.3774 -0.2627
 7717SOL    HW234611   1.810   0.910   3.975 -0.4091  1.2379 -2.1907
 7718SOL     OW34612   3.680   1.515   8.709 -0.2616 -0.5420 -0.2133
 7718SOL    HW134613   3.737   1.583   8.745 -0.3090 -0.8884  0.5257
 7718SOL    HW234614   3.596   1.561   8.702  0.6929  1.1644 -0.3917
 7719SOL     OW34615   2.846   2.386   6.813 -0.4579 -0.0692 -0.2623
 7719SOL    HW134616   2.916   2.448   6.831 -0.1395 -0.6735  0.5770
 7719SOL    HW234617   2.795   2.425   6.742 -1.2861 -0.4984  0.0866
 7720SOL     OW34618   4.482   3.184   3.930  0.1343 -0.2614  0.1217
 7720SOL    HW134619   4.574   3.184   3.905  0.2812 -3.4310  0.6131
 7720SOL    HW234620   4.463   3.277   3.936  1.5268  0.0772 -0.7546
 7721SOL     OW34621   1.135   0.434   2.802  0.5191  0.0909  0.7239
 7721SOL    HW134622   1.100   0.348   2.777  2.2482 -0.3396 -0.2237
 7721SOL    HW234623   1.128   0.484   2.721 -1.9268  0.8883  1.4342
 7722SOL     OW34624   3.718   1.254   2.818 -0.0975 -0.6693  0.2827
 7722SOL    HW134625   3.764   1.176   2.851 -0.4516 -0.3768  1.4544
 7722SOL    HW234626   3.768   1.325   2.858  1.6537 -0.4690 -2.2270
 7723SOL     OW34627   0.620   3.886   6.107  0.1283  0.2540 -0.4578
 7723SOL    HW134628   0.644   3.973   6.137 -0.1756  0.1491  0.0910
 7723SOL    HW234629   0.528   3.894   6.132  0.5697  1.2843  0.8095
 7724SOL     OW34630   3.804   1.366   3.449 -0.5353  0.0192  0.2280
 7724SOL    HW134631   3.879   1.333   3.399 -0.8940 -1.5110  0.6971
 7724SOL    HW234632   3.768   1.283   3.480 -1.4581  0.4355  0.2701
 7725SOL     OW34633   0.804   2.394   7.519  0.2761 -0.2036 -0.1610
 7725SOL    HW134634   0.899   2.385   7.531  0.2111  0.9199  1.1023
 7725SOL    HW234635   0.784   2.329   7.586 -1.4664 -1.3274 -1.7578
 7726SOL     OW34636   2.451   3.646   6.938  0.1519  0.1163  0.1686
 7726SOL    HW134637   2.413   3.678   7.020  1.1542 -0.8816  1.0287
 7726SOL    HW234638   2.387   3.576   6.922  0.2626 -0.2810  1.4594
 7727SOL     OW34639   3.185   1.089  10.260  0.0187  0.2353 -0.0537
 7727SOL    HW134640   3.139   1.107  10.178  1.9013  1.8629 -0.7594
 7727SOL    HW234641   3.215   1.176  10.287  0.1254  0.3559 -0.5596
 7728SOL     OW34642   3.849   4.361   4.548  0.8612  0.4910  0.0106
 7728SOL    HW134643   3.905   4.327   4.479 -1.0561  1.0152 -1.7781
 7728SOL    HW234644   3.807   4.280   4.575  2.3778 -1.2400 -2.8456
 7729SOL     OW34645   4.041   2.964  16.258 -0.8635 -0.3988 -0.8715
 7729SOL    HW134646   4.000   2.887  16.219 -1.7731 -0.0737 -0.5647
 7729SOL    HW234647   4.010   3.033  16.201 -0.2972  0.5175 -0.0696
 7730SOL     OW34648   2.578   3.590   9.496 -0.3411  0.2452 -0.5563
 7730SOL    HW134649   2.607   3.521   9.557 -2.8506 -1.2060 -1.0213
 7730SOL    HW234650   2.626   3.573   9.415 -1.8636 -0.1228 -1.3839
 7731SOL     OW34651   0.447   4.175   4.185 -0.0500  0.1701  0.1450
 7731SOL    HW134652   0.357   4.203   4.167 -0.3980 -1.4832 -0.6965
 7731SOL    HW234653   0.430   4.121   4.262  1.6311  0.8829  0.9932
 7732SOL     OW34654   0.438   4.010   8.763  0.0690  0.4022  0.3480
 7732SOL    HW134655   0.528   3.987   8.738  1.2152  1.7402  3.2311
 7732SOL    HW234656   0.402   3.922   8.768  0.5490  0.1101 -1.0792
 7733SOL     OW34657   0.165   1.403   8.361 -0.3685 -0.3721 -0.3593
 7733SOL    HW134658   0.208   1.488   8.354 -0.4327 -0.3690 -0.6946
 7733SOL    HW234659   0.186   1.381   8.452 -1.1855 -1.8048 -0.5261
 7734SOL     OW34660   2.508   3.123  12.764  0.2850  0.3659 -0.2439
 7734SOL    HW134661   2.528   3.037  12.800 -0.1880  0.1127 -0.5907
 7734SOL    HW234662   2.493   3.170  12.845  2.4603 -0.8682  0.8641
 7735SOL     OW34663   2.575   2.576   5.164  0.1799  0.8634 -0.9039
 7735SOL    HW134664   2.550   2.485   5.145 -1.6690  1.3567 -0.8520
 7735SOL    HW234665   2.504   2.622   5.119 -1.6275  1.1620  2.2414
 7736SOL     OW34666   0.686   4.626   9.316  0.1705  0.1047  0.2529
 7736SOL    HW134667   0.741   4.686   9.264  0.2586  0.0785  0.3153
 7736SOL    HW234668   0.607   4.646   9.267 -0.4479 -2.1927  0.3053
 7737SOL     OW34669   1.595   1.439   3.010 -0.0308  0.0281  0.0444
 7737SOL    HW134670   1.619   1.423   2.919  0.2966  1.7784 -0.1770
 7737SOL    HW234671   1.634   1.526   3.019  2.2581 -1.1490  1.4229
 7738SOL     OW34672   3.318   2.794   3.051 -0.2789  0.2955 -0.2857
 7738SOL    HW134673   3.275   2.817   2.968  0.5635  1.3561 -0.4251
 7738SOL    HW234674   3.388   2.740   3.013 -0.8820 -0.4809 -0.2969
 7739SOL     OW34675   4.265   0.049   5.932  0.1765 -0.1463  0.1090
 7739SOL    HW134676   4.209   0.032   5.857 -0.7594 -0.0515  0.7799
 7739SOL    HW234677   4.348   0.021   5.893 -1.5473 -2.3553 -2.0012
 7740SOL     OW34678   2.954   2.109   4.758  0.4955  0.1028 -0.4802
 7740SOL    HW134679   2.987   2.020   4.770  0.1497  0.0681  0.2681
 7740SOL    HW234680   3.031   2.154   4.793 -0.6805  1.4660  0.3854
 7741SOL     OW34681   4.647   1.302   7.661 -0.3947  0.1508  0.5564
 7741SOL    HW134682   4.714   1.270   7.721  1.0247  0.9879 -0.5871
 7741SOL    HW234683   4.568   1.287   7.713 -1.0073 -0.6471 -0.6222
 7742SOL     OW34684   4.473   2.077   3.263  0.1536 -0.1058 -0.7011
 7742SOL    HW134685   4.558   2.121   3.273  1.0898 -1.7085 -1.7049
 7742SOL    HW234686   4.424   2.149   3.223  0.4794 -0.0278 -0.9682
 7743SOL     OW34687   4.549   0.237   3.644 -0.4919 -0.1673 -0.4727
 7743SOL    HW134688   4.465   0.192   3.637 -2.1933  2.6003  2.3192
 7743SOL    HW234689   4.528   0.331   3.643  0.0777 -0.0284  0.7622
 7744SOL     OW34690   3.869   4.491   9.072  0.0791 -0.2630  0.2497
 7744SOL    HW134691   3.801   4.539   9.120  0.5172 -0.1419  0.7472
 7744SOL    HW234692   3.846   4.515   8.983  0.7703  1.7026  0.5994
 7745SOL     OW34693   1.286   4.416   8.563 -0.5973 -0.1404 -0.9018
 7745SOL    HW134694   1.322   4.328   8.558  1.1150  0.4948  0.3685
 7745SOL    HW234695   1.330   4.461   8.491  0.3803  1.7844  0.8933
 7746SOL     OW34696   1.565   2.241   2.524  0.1008  0.2002  0.4631
 7746SOL    HW134697   1.540   2.185   2.450  2.2241  1.8587 -1.4803
 7746SOL    HW234698   1.494   2.226   2.587  0.5238 -0.7650  0.7068
 7747SOL     OW34699   2.298   3.960   7.939  0.5071  0.2757 -0.3658
 7747SOL    HW134700   2.242   3.897   7.894  0.3242 -0.2456  0.6088
 7747SOL    HW234701   2.288   3.938   8.032 -1.0262  2.4447 -0.0254
 7748SOL     OW34702   2.861   1.154   9.748 -0.1675 -0.2157  0.2386
 7748SOL    HW134703   2.815   1.202   9.816 -2.0901  0.8786 -1.8401
 7748SOL    HW234704   2.945   1.140   9.793  1.7337  1.4759 -2.7678
 7749SOL     OW34705   4.254   1.795  12.280  0.0685  0.2292 -0.4569
 7749SOL    HW134706   4.319   1.854  12.320  0.7467 -0.3250 -0.7330
 7749SOL    HW234707   4.242   1.832  12.193  1.4298  1.2256 -0.2385
 7750SOL     OW34708   1.787   1.265   1.693 -0.5714 -0.6162 -0.4148
 7750SOL    HW134709   1.744   1.243   1.610 -0.6078  0.5612 -0.7039
 7750SOL    HW234710   1.858   1.201   1.698 -1.2366 -1.1213  2.2218
 7751SOL     OW34711   0.326   1.367   9.214 -0.4250 -0.5809  0.2526
 7751SOL    HW134712   0.294   1.414   9.291  2.1828  1.6217 -0.0348
 7751SOL    HW234713   0.247   1.364   9.159 -0.3386  3.3613 -0.0568
 7752SOL     OW34714   3.442   3.829   1.184 -0.4400 -0.1548  0.1538
 7752SOL    HW134715   3.395   3.908   1.158 -2.0224 -1.6199 -1.4068
 7752SOL    HW234716   3.452   3.852   1.276 -1.1759  4.3190 -0.9072
 7753SOL     OW34717   0.375   3.122   3.898 -0.1414  0.5510  0.5201
 7753SOL    HW134718   0.414   3.134   3.985  1.1875 -0.8705  0.1366
 7753SOL    HW234719   0.397   3.204   3.855  0.1810 -0.4538 -1.2357
 7754SOL     OW34720   4.073   0.062   9.027  0.2179  0.5888 -0.2269
 7754SOL    HW134721   4.079   0.142   9.080  1.7737  0.6982 -0.5742
 7754SOL    HW234722   4.076   4.716   9.090 -1.0258 -2.7175 -3.9131
 7755SOL     OW34723   2.188   2.162   8.347  0.4349  0.0520  0.5331
 7755SOL    HW134724   2.122   2.144   8.280 -0.0975 -2.0049  1.6179
 7755SOL    HW234725   2.269   2.144   8.299 -0.2167  1.1503 -1.0012
 7756SOL     OW34726   0.638   3.447  15.561 -0.0206 -0.3566 -0.7883
 7756SOL    HW134727   0.693   3.376  15.528  0.7856  0.3552 -0.9645
 7756SOL    HW234728   0.708   3.511  15.558 -1.0035  0.7863  0.7117
 7757SOL     OW34729   3.360   3.888   4.978 -0.0119  0.4382  0.2104
 7757SOL    HW134730   3.450   3.905   4.953  1.1230 -1.8021  2.7768
 7757SOL    HW234731   3.304   3.901   4.902 -2.6359 -0.9950  1.8687
 7758SOL     OW34732   1.894   4.389   5.804 -0.7698  0.2623  0.5221
 7758SOL    HW134733   1.822   4.326   5.793 -2.7497  2.6429 -0.1740
 7758SOL    HW234734   1.973   4.359   5.759 -0.2985 -0.5571  1.9158
 7759SOL     OW34735   2.836   3.524   3.568 -0.4754 -0.7984 -0.1876
 7759SOL    HW134736   2.803   3.437   3.592  2.5267 -1.3137  1.9067
 7759SOL    HW234737   2.813   3.525   3.475 -0.5635 -0.3030 -0.1591
 7760SOL     OW34738   4.219   3.562   3.393  0.4118  0.0629  0.8734
 7760SOL    HW134739   4.277   3.629   3.428 -1.0927  1.4284  0.7078
 7760SOL    HW234740   4.191   3.608   3.315  1.6034  1.5367  1.3185
 7761SOL     OW34741   3.200   4.263   7.676  0.1137 -0.3189 -0.2479
 7761SOL    HW134742   3.172   4.345   7.638  0.6216 -0.2130 -0.3946
 7761SOL    HW234743   3.115   4.223   7.698 -0.7822  1.9427  0.3987
 7762SOL     OW34744   1.043   1.567   1.814  0.4083 -0.7897  0.1854
 7762SOL    HW134745   0.980   1.554   1.885  0.4144  0.1093  0.3549
 7762SOL    HW234746   1.055   1.479   1.778 -0.2314 -1.2496  1.0817
 7763SOL     OW34747   0.081   1.136   6.358 -0.3052  0.0009 -0.0397
 7763SOL    HW134748   0.036   1.081   6.423  0.1202  2.0995  2.0050
 7763SOL    HW234749   0.154   1.080   6.332  0.2022  0.4040  0.5129
 7764SOL     OW34750   2.367   0.266  16.021 -0.1116 -0.6370 -0.2248
 7764SOL    HW134751   2.396   0.356  16.011  0.6262 -0.9759 -1.1255
 7764SOL    HW234752   2.272   0.276  16.029 -0.0982  1.0148 -2.1882
 7765SOL     OW34753   1.577   1.692   7.676 -0.1556  0.2586  0.3206
 7765SOL    HW134754   1.665   1.693   7.714 -0.7667 -0.8507  1.7379
 7765SOL    HW234755   1.594   1.691   7.582 -2.0240 -1.2070  0.0025
 7766SOL     OW34756   1.381   0.288   8.774  0.3059  0.0143  0.2330
 7766SOL    HW134757   1.394   0.202   8.734 -1.2453 -1.0910  2.0706
 7766SOL    HW234758   1.460   0.334   8.744  1.6496 -2.3819  0.0971
 7767SOL     OW34759   3.026   2.804   3.135 -0.1064 -0.0601 -0.1190
 7767SOL    HW134760   3.109   2.774   3.173  1.1146  1.4699 -1.5655
 7767SOL    HW234761   3.036   2.896   3.110  0.4394 -0.0995 -0.0468
 7768SOL     OW34762   2.985   4.290   9.759  0.1444 -0.1731 -0.8382
 7768SOL    HW134763   3.074   4.256   9.770 -0.5552 -2.3042 -1.8183
 7768SOL    HW234764   2.967   4.242   9.678  1.3291  1.8010 -2.2886
 7769SOL     OW34765   4.297   0.485   0.791 -0.1624 -0.2162  0.3271
 7769SOL    HW134766   4.344   0.412   0.831 -0.7143 -0.9807 -0.4238
 7769SOL    HW234767   4.348   0.553   0.836  2.1081 -0.7833 -1.3850
 7770SOL     OW34768   4.436   3.870   4.542  0.4751  0.1470  0.3541
 7770SOL    HW134769   4.521   3.907   4.521 -0.3522  1.9883  0.1808
 7770SOL    HW234770   4.371   3.941   4.546 -1.3341 -1.4417 -0.6977
 7771SOL     OW34771   4.027   2.242   6.618  0.7241  0.1908  0.0732
 7771SOL    HW134772   3.991   2.331   6.622  1.7256  0.6322 -0.7923
 7771SOL    HW234773   4.000   2.203   6.701  0.8984 -1.0522 -0.4556
 7772SOL     OW34774   0.562   0.305   5.854 -0.4173  0.6628  0.0422
 7772SOL    HW134775   0.629   0.372   5.844 -1.5149  1.5421 -1.5191
 7772SOL    HW234776   0.616   0.232   5.885 -0.0956  0.6246 -0.6105
 7773SOL     OW34777   4.703   4.533   2.598  0.2051 -0.4948  1.0861
 7773SOL    HW134778   4.645   4.605   2.575  0.2937 -0.8718 -0.3123
 7773SOL    HW234779   0.055   4.543   2.544  0.5559  2.0854  2.0705
 7774SOL     OW34780   1.215   3.520  12.440 -0.0565 -1.0930 -0.2625
 7774SOL    HW134781   1.226   3.486  12.351  0.7828 -1.6855  0.0669
 7774SOL    HW234782   1.304   3.510  12.476  0.2127  1.6280 -0.1922
 7775SOL     OW34783   2.191   1.160  14.812 -0.2435 -0.1655 -0.2280
 7775SOL    HW134784   2.123   1.158  14.744  0.6989  3.4831 -1.2723
 7775SOL    HW234785   2.214   1.251  14.827 -0.5872 -0.2067  0.5881
 7776SOL     OW34786   4.550   4.234  12.155  0.2231  0.2853 -0.0602
 7776SOL    HW134787   4.496   4.164  12.118 -1.8627  1.5510  0.5555
 7776SOL    HW234788   4.595   4.194  12.230 -0.0029  0.3543  0.1158
 7777SOL     OW34789   2.347   1.413  17.049 -0.2226 -0.3627 -0.6254
 7777SOL    HW134790   2.419   1.439  16.992  0.0843 -2.1438 -1.0415
 7777SOL    HW234791   2.271   1.439  16.998 -0.5440  1.3553  0.7373
 7778SOL     OW34792   4.500   4.273  17.334  0.0509  0.0292  0.4610
 7778SOL    HW134793   4.496   4.350  17.276 -2.8226 -1.3061 -1.1429
 7778SOL    HW234794   4.592   4.278  17.359  0.4864  1.3509 -1.4256
 7779SOL     OW34795   1.421   1.978  15.775 -0.0255 -0.0028 -0.0422
 7779SOL    HW134796   1.356   2.018  15.718  0.4506  0.2757 -0.3939
 7779SOL    HW234797   1.444   1.891  15.743 -0.0033 -0.1160  0.2812
 7780SOL     OW34798   3.894   2.615   6.314  0.2999 -0.1851 -0.3641
 7780SOL    HW134799   3.970   2.643   6.366  0.6936 -1.3566 -0.3188
 7780SOL    HW234800   3.945   2.556   6.259 -0.0567 -0.8211 -0.0186
 7781SOL     OW34801   2.607   1.492   3.480  0.6723 -0.0692 -0.3867
 7781SOL    HW134802   2.574   1.452   3.399  0.9187 -0.6540 -0.1978
 7781SOL    HW234803   2.680   1.432   3.492  1.2783  1.3234  2.8660
 7782SOL     OW34804   4.680   4.108   7.747  0.5839 -0.3875  0.5467
 7782SOL    HW134805   4.646   4.051   7.678  2.1603  1.3915 -1.6727
 7782SOL    HW234806   4.723   4.047   7.806 -2.8769 -1.0924  2.3873
 7783SOL     OW34807   2.420   4.620  10.260  0.3304 -0.0869  0.0863
 7783SOL    HW134808   2.488   4.589  10.201  0.2864 -0.3125  0.1545
 7783SOL    HW234809   2.464   4.632  10.344 -0.0098  4.2336 -0.3769
 7784SOL     OW34810   0.589   4.434   2.884  0.0864 -0.1264  0.5089
 7784SOL    HW134811   0.685   4.430   2.879  0.0735  1.4201 -1.1136
 7784SOL    HW234812   0.577   4.342   2.858  0.2504  0.2560 -0.9250
 7785SOL     OW34813   4.213   1.251   1.097  0.3682 -0.1687 -0.0462
 7785SOL    HW134814   4.228   1.192   1.023  0.5174 -3.0441  2.2780
 7785SOL    HW234815   4.244   1.338   1.076  0.2259  0.2588  1.5158
 7786SOL     OW34816   1.869   0.336   6.882  0.1162 -0.2530  0.1348
 7786SOL    HW134817   1.960   0.334   6.854 -0.3814 -0.4659 -1.4216
 7786SOL    HW234818   1.885   0.373   6.969  0.1176 -2.6014  1.1266
 7787SOL     OW34819   0.094   2.815   4.366  0.1591 -0.0084 -0.7652
 7787SOL    HW134820   0.121   2.781   4.451  1.5184  0.0848 -1.1629
 7787SOL    HW234821   0.159   2.768   4.315 -1.8589  0.0482 -3.3968
 7788SOL     OW34822   2.560   0.841  16.005  0.5009  0.3490 -0.1545
 7788SOL    HW134823   2.619   0.904  15.963 -0.4281  0.8029 -0.7787
 7788SOL    HW234824   2.513   0.806  15.929 -0.5761 -0.6408  0.9674
 7789SOL     OW34825   0.372   0.481   8.044  0.0817  0.0802  0.2293
 7789SOL    HW134826   0.313   0.544   8.005 -0.8745 -2.1960 -2.0224
 7789SOL    HW234827   0.416   0.518   8.121  1.6622  0.0521 -0.6604
 7790SOL     OW34828   3.639   1.315   5.875 -0.0497  0.3065  0.0710
 7790SOL    HW134829   3.554   1.353   5.897 -0.3619 -1.4758  1.8691
 7790SOL    HW234830   3.647   1.245   5.939  1.0506  0.9032  0.5852
 7791SOL     OW34831   0.548   0.148  17.353  0.0282  0.5799  0.0812
 7791SOL    HW134832   0.536   0.194  17.436  0.9714 -0.4999  0.8122
 7791SOL    HW234833   0.546   0.065  17.402  0.6799  0.4816 -0.0609
 7792SOL     OW34834   0.244   0.781   9.595 -0.2533  0.0106  0.0614
 7792SOL    HW134835   0.215   0.872   9.590  0.1959  0.1201 -0.7768
 7792SOL    HW234836   0.296   0.774   9.514 -1.7409  2.8422 -1.1164
 7793SOL     OW34837   0.716   0.560  16.379  0.2182 -0.0420 -0.2370
 7793SOL    HW134838   0.643   0.498  16.371  1.4186 -1.3220 -1.2765
 7793SOL    HW234839   0.797   0.510  16.367  0.5397  0.0641  1.4347
 7794SOL     OW34840   0.790   0.330   4.988 -0.5993  0.3841  0.4516
 7794SOL    HW134841   0.879   0.358   5.010  0.6388 -3.7281  0.7206
 7794SOL    HW234842   0.803   0.296   4.900  0.9989 -1.6158  1.4320
 7795SOL     OW34843   0.622   4.090   5.741 -0.4039  0.1622 -0.2776
 7795SOL    HW134844   0.530   4.095   5.713 -0.6038 -0.8162  0.1861
 7795SOL    HW234845   0.648   3.999   5.722 -1.4361 -0.3335  0.6746
 7796SOL     OW34846   4.417   2.903   2.874  0.2907  0.0914  0.9436
 7796SOL    HW134847   4.445   2.978   2.927  0.8624 -0.1664  1.0011
 7796SOL    HW234848   4.374   2.949   2.802  0.3468  0.1755  0.9640
 7797SOL     OW34849   0.664   1.404   0.884  0.8774 -0.4396  0.8667
 7797SOL    HW134850   0.594   1.398   0.949 -1.3419  0.3216 -1.4251
 7797SOL    HW234851   0.672   1.321   0.837  0.0594 -0.6946  1.1813
 7798SOL     OW34852   1.269   2.311  14.789  0.3039  0.7351  0.2825
 7798SOL    HW134853   1.179   2.297  14.759  1.3431 -2.9138 -1.0458
 7798SOL    HW234854   1.245   2.332  14.880 -1.3150 -1.5672  0.3922
 7799SOL     OW34855   4.271   1.593   4.476 -0.4279 -0.9200 -0.0757
 7799SOL    HW134856   4.281   1.672   4.423 -0.1453 -1.7310 -1.2255
 7799SOL    HW234857   4.229   1.619   4.558 -2.7010 -1.1352 -1.1765
 7800SOL     OW34858   1.602   0.236  10.677  0.0281 -0.0589  0.7265
 7800SOL    HW134859   1.514   0.259  10.649  0.7790  0.2817 -1.3573
 7800SOL    HW234860   1.588   0.142  10.693  2.7270 -0.1220  2.8523
 7801SOL     OW34861   4.173   2.120   5.100  0.3118 -0.2472  0.3446
 7801SOL    HW134862   4.111   2.187   5.074 -0.0620  0.0702  2.0446
 7801SOL    HW234863   4.135   2.087   5.182 -1.3470  1.7266  0.3563
 7802SOL     OW34864   2.753   0.015  11.418  0.0762  0.6963  0.1193
 7802SOL    HW134865   2.755   0.084  11.484 -1.1747 -0.4893  1.4048
 7802SOL    HW234866   2.658   0.001  11.427 -0.0472  2.1007  0.9685
 7803SOL     OW34867   3.546   3.128   6.415  0.3302 -0.3253  0.2044
 7803SOL    HW134868   3.628   3.134   6.465 -0.0117  2.7951  0.3748
 7803SOL    HW234869   3.549   3.207   6.360  0.5411 -0.0253  0.6473
 7804SOL     OW34870   2.784   4.710   5.810  0.4006  0.0303 -0.4059
 7804SOL    HW134871   2.701   0.019   5.779  0.6808  0.9075 -0.1654
 7804SOL    HW234872   2.837   4.720   5.731  0.5833 -0.4127 -0.3409
 7805SOL     OW34873   2.607   4.456  14.896  0.4066 -0.2208 -0.1239
 7805SOL    HW134874   2.574   4.519  14.960  0.6959 -1.6242  1.4008
 7805SOL    HW234875   2.538   4.459  14.829 -0.2353  0.2827  0.5575
 7806SOL     OW34876   4.617   3.277   5.453  0.2382  0.0340 -0.0763
 7806SOL    HW134877   4.615   3.181   5.448  0.6509  0.0058  0.2533
 7806SOL    HW234878   4.556   3.297   5.524 -0.5714  1.5704 -1.2326
 7807SOL     OW34879   2.436   2.390   6.741  0.2986 -0.1669  0.3962
 7807SOL    HW134880   2.388   2.309   6.761 -0.3794 -0.1145 -0.9514
 7807SOL    HW234881   2.465   2.401   6.831  3.8242  1.1576 -0.9077
 7808SOL     OW34882   0.958   3.525   5.869  0.6066  0.1124 -0.2466
 7808SOL    HW134883   0.996   3.463   5.931  0.1600 -0.6541 -0.7351
 7808SOL    HW234884   0.971   3.605   5.919 -0.1798  0.5767 -0.8006
 7809SOL     OW34885   4.429   4.048  12.026  0.3149 -0.1391 -0.0496
 7809SOL    HW134886   4.503   3.991  12.003  1.0751 -0.1424  2.4112
 7809SOL    HW234887   4.358   3.997  11.987  0.4082 -1.5002  1.5711
 7810SOL     OW34888   4.469   4.089   4.080  0.0446 -0.7275  0.2038
 7810SOL    HW134889   4.421   4.046   4.010  0.5080  0.0349 -0.5905
 7810SOL    HW234890   4.427   4.174   4.070  1.8686  0.3306  1.4103
 7811SOL     OW34891   3.852   2.866  10.689 -0.2136 -0.2521  0.9656
 7811SOL    HW134892   3.842   2.797  10.755 -0.4688 -1.7493 -0.6577
 7811SOL    HW234893   3.847   2.820  10.605  0.3895  0.0610  0.7578
 7812SOL     OW34894   0.238   1.997   2.304  0.2519 -0.9208  0.1325
 7812SOL    HW134895   0.235   1.998   2.208 -0.7474  0.5190  0.1886
 7812SOL    HW234896   0.333   2.009   2.305  0.3410 -1.4797 -1.0288
 7813SOL     OW34897   2.930   2.249   7.741 -0.2572 -0.1978  0.4504
 7813SOL    HW134898   2.941   2.299   7.822 -0.4968  0.1847  0.2420
 7813SOL    HW234899   2.989   2.174   7.750 -0.4904 -0.3783  0.4568
 7814SOL     OW34900   0.874   3.016   2.471 -0.5989 -0.2819 -0.1171
 7814SOL    HW134901   0.804   3.062   2.424  0.0371  2.9437  2.0971
 7814SOL    HW234902   0.928   3.093   2.488 -0.1618 -1.2785  3.0249
 7815SOL     OW34903   0.130   1.467  13.950  0.1617 -0.2504 -0.2427
 7815SOL    HW134904   0.173   1.429  13.873 -3.6821 -3.0064 -1.0372
 7815SOL    HW234905   0.038   1.460  13.923  0.1246  2.7484 -0.8875
 7816SOL     OW34906   2.450   4.059   4.789 -0.3251  0.4868 -0.0258
 7816SOL    HW134907   2.479   3.972   4.817 -1.5438 -0.0119 -0.3095
 7816SOL    HW234908   2.431   4.104   4.872 -0.4347  0.1562  0.1276
 7817SOL     OW34909   2.411   3.810   2.952 -0.2294  0.2224 -0.0546
 7817SOL    HW134910   2.429   3.842   2.863  1.7738  0.8420  0.5781
 7817SOL    HW234911   2.370   3.725   2.937 -1.8891  0.4452  3.1981
 7818SOL     OW34912   0.628   3.248   6.646  0.0295 -0.4023  0.0946
 7818SOL    HW134913   0.721   3.249   6.625 -0.4688  1.0078 -1.9986
 7818SOL    HW234914   0.618   3.339   6.675 -0.9815 -1.7285  3.9549
 7819SOL     OW34915   4.676   2.104   0.880  0.0121  0.2833 -0.3863
 7819SOL    HW134916   0.004   2.122   0.803  0.7441  1.3091  0.3746
 7819SOL    HW234917   0.010   2.100   0.954 -0.2957 -2.3031 -0.2735
 7820SOL     OW34918   2.803   2.695   8.781 -0.0743 -0.0813  0.1412
 7820SOL    HW134919   2.735   2.655   8.727  1.7120 -0.9085 -1.5492
 7820SOL    HW234920   2.754   2.747   8.844  1.7711  0.3003  1.2725
 7821SOL     OW34921   0.772   0.424   7.819  0.0651 -0.5234  0.4968
 7821SOL    HW134922   0.792   0.338   7.781 -0.2714 -0.2992 -0.1790
 7821SOL    HW234923   0.687   0.448   7.783 -0.3952 -1.3898  0.9989
 7822SOL     OW34924   4.194   3.075  10.382  0.6513 -0.8458 -0.7694
 7822SOL    HW134925   4.214   3.165  10.408  0.8517 -1.2554  0.4617
 7822SOL    HW234926   4.250   3.055  10.307  0.6095  0.2157 -1.0816
 7823SOL     OW34927   4.660   2.156  10.590  0.1030  0.3841  0.1676
 7823SOL    HW134928   0.030   2.155  10.584  0.0944 -0.6030  0.2365
 7823SOL    HW234929   4.643   2.166  10.684  0.4317  2.4342  0.0200
 7824SOL     OW34930   0.061   4.246   3.594 -0.2125 -0.3226 -0.5663
 7824SOL    HW134931   0.036   4.332   3.627 -1.3053 -1.4287  1.4955
 7824SOL    HW234932   0.119   4.272   3.522  0.0863  0.5261 -0.0157
 7825SOL     OW34933   1.299   2.210   4.321  0.5247  0.5350  0.2843
 7825SOL    HW134934   1.232   2.144   4.306 -0.1178  1.8031 -2.4538
 7825SOL    HW234935   1.259   2.258   4.393 -0.3743 -1.5065  1.1318
 7826SOL     OW34936   2.283   1.642   5.134 -0.0846  0.4880  0.1006
 7826SOL    HW134937   2.338   1.643   5.056  2.0907  1.6151  1.6231
 7826SOL    HW234938   2.274   1.547   5.148 -1.8302  0.7171  0.4499
 7827SOL     OW34939   4.121   0.443  10.283  0.3955 -0.1813 -0.5815
 7827SOL    HW134940   4.036   0.399  10.289  1.0453 -1.3015  0.3397
 7827SOL    HW234941   4.163   0.428  10.368  1.2367  2.4551 -0.5378
 7828SOL     OW34942   4.494   0.658   8.563 -0.3155  0.3269  0.0811
 7828SOL    HW134943   4.569   0.706   8.598  0.8761 -3.1289  2.2919
 7828SOL    HW234944   4.433   0.641   8.634  2.3008 -1.8886  1.8292
 7829SOL     OW34945   2.025   2.158   0.739 -0.5073 -0.2915 -0.0496
 7829SOL    HW134946   2.094   2.162   0.672 -0.1286  0.6686  0.3907
 7829SOL    HW234947   1.960   2.211   0.693 -0.4222  0.8790  1.1689
 7830SOL     OW34948   1.467   0.339   4.069 -0.2480  0.0495  0.0060
 7830SOL    HW134949   1.376   0.357   4.091 -0.6374 -3.1588  1.1604
 7830SOL    HW234950   1.459   0.243   4.075 -0.7485 -0.0283 -1.7929
 7831SOL     OW34951   1.977   3.401   3.267 -0.0915 -0.2513  0.0764
 7831SOL    HW134952   1.882   3.416   3.271  0.1149  0.7934  1.3917
 7831SOL    HW234953   1.977   3.309   3.242 -1.2159 -0.6743  1.6359
 7832SOL     OW34954   1.391   0.266   6.098 -0.3101 -0.7332 -0.1735
 7832SOL    HW134955   1.473   0.246   6.142 -0.1205 -0.3503 -0.3510
 7832SOL    HW234956   1.417   0.312   6.018  0.6232 -1.4408 -0.2776
 7833SOL     OW34957   0.288   2.961   8.306 -1.0004  0.8152 -0.1074
 7833SOL    HW134958   0.346   2.923   8.371  0.2999 -1.8190 -2.8320
 7833SOL    HW234959   0.213   2.987   8.360 -0.0735  0.0088  1.5793
 7834SOL     OW34960   0.884   3.930  13.176  0.0537 -0.4619  0.4071
 7834SOL    HW134961   0.976   3.910  13.196 -0.4693 -0.3064  3.0265
 7834SOL    HW234962   0.864   3.858  13.117 -0.5755 -0.2735  0.3930
 7835SOL     OW34963   0.311   3.279   0.954  0.3884  0.3035 -0.0729
 7835SOL    HW134964   0.283   3.293   0.863  2.4935 -1.3977 -1.0018
 7835SOL    HW234965   0.288   3.188   0.973  0.8527  0.6935  2.3171
 7836SOL     OW34966   2.816   4.107   9.873  0.0939  0.1502 -0.6387
 7836SOL    HW134967   2.731   4.148   9.854  0.1545  0.6215  0.1129
 7836SOL    HW234968   2.877   4.178   9.855  0.5457 -0.2316 -0.6062
 7837SOL     OW34969   4.351   3.806   5.133 -0.3963 -0.2006 -0.3647
 7837SOL    HW134970   4.372   3.744   5.063  1.8251  0.4274 -0.2520
 7837SOL    HW234971   4.433   3.855   5.134 -0.3399 -0.2579 -2.5068
 7838SOL     OW34972   3.618   1.868   2.536 -0.8056  0.7897  0.1543
 7838SOL    HW134973   3.691   1.912   2.492  0.0293 -1.3421 -0.6439
 7838SOL    HW234974   3.538   1.908   2.501 -1.8127  0.1293  1.7059
 7839SOL     OW34975   2.396   1.776  16.730  0.0426 -0.1017 -0.1092
 7839SOL    HW134976   2.307   1.797  16.760 -0.5843  1.5078 -3.1231
 7839SOL    HW234977   2.413   1.852  16.675  2.7579  0.1270  1.0598
 7840SOL     OW34978   4.546   1.359   6.666  0.5347  0.2373 -0.3374
 7840SOL    HW134979   4.464   1.386   6.625  0.1722 -0.3976 -0.0134
 7840SOL    HW234980   4.507   1.296   6.726  1.4454 -0.4014 -0.4145
 7841SOL     OW34981   4.427   2.671  10.804  0.1784  0.4781 -0.0900
 7841SOL    HW134982   4.472   2.743  10.849 -1.1591  0.2703  1.5798
 7841SOL    HW234983   4.400   2.611  10.874 -3.3916  0.3845 -1.5847
 7842SOL     OW34984   1.665   3.082  11.529  0.0814  0.0552 -0.0810
 7842SOL    HW134985   1.665   2.989  11.552  1.5850  0.3750  1.1665
 7842SOL    HW234986   1.620   3.121  11.605 -1.1897  1.7268 -1.7082
 7843SOL     OW34987   0.813   2.352  14.077 -0.1731  0.0785  0.0219
 7843SOL    HW134988   0.824   2.417  14.146  1.9797 -0.1496 -0.1033
 7843SOL    HW234989   0.810   2.273  14.131  0.7593 -0.3148 -0.4892
 7844SOL     OW34990   3.212   3.718   5.840  0.8095 -0.1915 -0.0988
 7844SOL    HW134991   3.235   3.703   5.748  1.0837 -2.5007  0.3378
 7844SOL    HW234992   3.117   3.726   5.829  0.9846 -0.3412 -1.7607
 7845SOL     OW34993   0.865   4.647  17.451  0.3233 -0.0171 -0.2013
 7845SOL    HW134994   0.795   4.587  17.426  1.8040 -1.1970 -1.4316
 7845SOL    HW234995   0.864   4.711  17.380 -2.6498  0.8298  0.5756
 7846SOL     OW34996   1.835   2.199   7.297  0.1349  0.3222 -0.2991
 7846SOL    HW134997   1.774   2.136   7.334  0.3040  1.2419  1.5332
 7846SOL    HW234998   1.900   2.142   7.256  0.1758 -0.5911  1.0489
 7847SOL     OW34999   4.099   3.927   3.943 -0.0516  0.3123  0.1346
 7847SOL    HW135000   4.115   3.990   3.873  3.0053  0.7253  1.1743
 7847SOL    HW235001   4.184   3.882   3.945 -0.9201 -1.2670  1.6090
 7848SOL     OW35002   3.410   4.659   6.995 -0.6530 -1.1215  0.1390
 7848SOL    HW135003   3.425   4.701   6.910  0.0029 -2.1191 -0.2403
 7848SOL    HW235004   3.400   4.569   6.966  3.0330 -1.4125 -0.1963
 7849SOL     OW35005   2.566   4.264   7.073 -0.1277 -0.0192 -0.7428
 7849SOL    HW135006   2.522   4.251   6.990  0.9656 -2.3095 -0.9568
 7849SOL    HW235007   2.517   4.336   7.114  0.8178  1.3965 -2.1134
 7850SOL     OW35008   1.641   3.318   7.512  0.2520  0.0710  0.2800
 7850SOL    HW135009   1.569   3.317   7.576 -1.2129  1.7673 -1.3671
 7850SOL    HW235010   1.666   3.225   7.510  1.4113  0.4341 -1.6380
 7851SOL     OW35011   4.278   1.519   7.227  0.0529 -0.3608  0.3124
 7851SOL    HW135012   4.366   1.543   7.199  0.4419 -1.3657  0.6606
 7851SOL    HW235013   4.301   1.532   7.319  0.3612 -1.2060  0.3555
 7852SOL     OW35014   1.374   0.980   6.667  0.6643  0.3096  1.0931
 7852SOL    HW135015   1.350   0.898   6.624  0.5668  1.0456 -0.2497
 7852SOL    HW235016   1.461   0.982   6.629  0.8957 -0.2467  1.5983
 7853SOL     OW35017   2.396   3.627   4.646  0.2195  0.1802  0.7901
 7853SOL    HW135018   2.370   3.613   4.555  1.6608  0.5114  0.3281
 7853SOL    HW235019   2.474   3.572   4.642  0.5171  0.5709  1.1685
 7854SOL     OW35020   2.262   1.188   9.124 -0.5131  0.7746  0.3466
 7854SOL    HW135021   2.300   1.266   9.083  1.0027 -1.4859 -2.5788
 7854SOL    HW235022   2.185   1.227   9.164  0.4402  1.1749  1.8190
 7855SOL     OW35023   2.433   4.111   2.506  0.1254  0.1152 -0.3681
 7855SOL    HW135024   2.507   4.130   2.448 -0.2744 -0.7034 -1.1512
 7855SOL    HW235025   2.360   4.142   2.452 -0.2173  0.3215  0.2233
 7856SOL     OW35026   0.192   4.510  11.642  0.0152 -0.3296 -0.5152
 7856SOL    HW135027   0.186   4.604  11.625 -3.7739 -0.4117  0.5196
 7856SOL    HW235028   0.235   4.481  11.561  0.4074  0.0089 -0.4255
 7857SOL     OW35029   3.878   1.266   6.594 -0.2308  0.0771 -0.3970
 7857SOL    HW135030   3.955   1.316   6.621  0.4111 -0.4711 -1.2183
 7857SOL    HW235031   3.845   1.317   6.521 -1.9542  1.8123  1.5790
 7858SOL     OW35032   1.489   0.893   1.337 -0.2530  0.9270 -0.5162
 7858SOL    HW135033   1.434   0.822   1.303  2.8386 -0.8916 -1.7791
 7858SOL    HW235034   1.570   0.882   1.287 -0.3660  0.0121 -0.5033
 7859SOL     OW35035   4.529   0.415   7.260  0.6071 -0.2827  0.1738
 7859SOL    HW135036   4.500   0.331   7.296 -0.7597  0.7389  1.4656
 7859SOL    HW235037   4.486   0.481   7.315  1.6269 -0.0691  0.7050
 7860SOL     OW35038   3.909   3.567   5.083 -0.0090 -0.3105  0.0769
 7860SOL    HW135039   3.931   3.656   5.113 -0.8248 -0.3421  0.7930
 7860SOL    HW235040   3.965   3.557   5.006 -0.2689 -2.7578  0.2244
 7861SOL     OW35041   0.787   2.064  11.394  0.2343 -0.4950 -0.0452
 7861SOL    HW135042   0.777   2.136  11.457 -0.6160 -1.3038  0.7216
 7861SOL    HW235043   0.804   2.118  11.316  0.8822  0.9000  1.0511
 7862SOL     OW35044   0.518   0.313   2.495 -0.5607  0.4213 -0.6753
 7862SOL    HW135045   0.599   0.290   2.449 -0.0431  0.0041  0.4394
 7862SOL    HW235046   0.455   0.307   2.423 -1.7985  1.7229  0.2899
 7863SOL     OW35047   1.554   2.026   5.184 -0.1578  0.4402  0.1632
 7863SOL    HW135048   1.473   2.060   5.222  0.1860  2.3308 -0.8056
 7863SOL    HW235049   1.529   2.029   5.092  0.4178  1.3978  0.0409
 7864SOL     OW35050   0.841   3.527   3.363  0.3193 -0.5162 -0.0135
 7864SOL    HW135051   0.840   3.448   3.417  0.3571 -0.2907  0.3188
 7864SOL    HW235052   0.930   3.557   3.383  0.1128  0.8572 -1.1811
 7865SOL     OW35053   1.482   4.635   8.402 -0.0318 -0.3756  0.1946
 7865SOL    HW135054   1.565   4.660   8.361 -0.4694  1.3006  0.3551
 7865SOL    HW235055   1.431   4.614   8.324 -2.7638  1.0549  1.6172
 7866SOL     OW35056   1.138   1.291   4.167  0.2373 -0.2386 -0.2424
 7866SOL    HW135057   1.180   1.241   4.097  1.3908  1.6560 -0.8784
 7866SOL    HW235058   1.074   1.333   4.109 -0.5286 -0.6765  0.2790
 7867SOL     OW35059   4.668   3.164   6.129 -0.2051 -0.4281  0.1791
 7867SOL    HW135060   0.027   3.147   6.090 -0.3135  1.6451 -0.9707
 7867SOL    HW235061   4.615   3.162   6.049  1.0541  0.6199 -0.6842
 7868SOL     OW35062   3.467   1.174   2.910  0.5247  0.0742 -0.0498
 7868SOL    HW135063   3.556   1.205   2.895  0.6260  0.5524  1.4778
 7868SOL    HW235064   3.447   1.225   2.989  1.3763 -1.5532  1.2006
 7869SOL     OW35065   1.839   2.158   2.892  1.1495  0.0698 -0.0051
 7869SOL    HW135066   1.846   2.073   2.849  0.0152  0.1038 -0.2656
 7869SOL    HW235067   1.823   2.213   2.816  0.3738  0.5837  0.5252
 7870SOL     OW35068   2.279   1.958  14.927 -0.0144  0.4231 -0.1544
 7870SOL    HW135069   2.232   2.002  14.998  1.3671  0.2422  0.8595
 7870SOL    HW235070   2.203   1.963  14.868 -0.5012 -2.6517  0.1696
 7871SOL     OW35071   1.606   0.876   3.110 -0.1622  0.1041 -0.4931
 7871SOL    HW135072   1.589   0.792   3.153 -1.8375 -0.0081 -1.3580
 7871SOL    HW235073   1.576   0.936   3.178  3.8606 -0.0470  1.4137
 7872SOL     OW35074   1.129   2.597   8.655  0.1505  0.1086 -0.5115
 7872SOL    HW135075   1.142   2.545   8.576 -0.1118 -0.7716  0.0330
 7872SOL    HW235076   1.189   2.547   8.710  2.5631 -0.7527 -3.9718
 7873SOL     OW35077   2.439   0.108   2.924 -0.3476  0.1296  0.2885
 7873SOL    HW135078   2.419   0.085   2.833 -2.6217 -1.9371  1.3243
 7873SOL    HW235079   2.394   0.193   2.927 -0.7355 -0.0406 -0.9135
 7874SOL     OW35080   3.774   0.272   4.908 -0.6315 -0.0923  0.2341
 7874SOL    HW135081   3.782   0.178   4.925 -0.4217 -0.3889 -1.5202
 7874SOL    HW235082   3.684   0.267   4.874  0.6180 -0.1482 -3.1012
 7875SOL     OW35083   3.475   0.037  13.468 -0.2268 -0.2317  0.1141
 7875SOL    HW135084   3.518   0.121  13.453 -0.7541  0.1679  0.8653
 7875SOL    HW235085   3.533   4.703  13.422 -1.8253 -2.6157  1.2148
 7876SOL     OW35086   4.092   0.684   7.009 -0.8712  1.0228  0.5256
 7876SOL    HW135087   4.044   0.602   6.994  1.7784 -0.4298  0.0981
 7876SOL    HW235088   4.063   0.730   6.930 -1.6777  0.2510  0.3664
 7877SOL     OW35089   1.188   2.408   4.750  0.7527 -0.0090  0.3929
 7877SOL    HW135090   1.099   2.434   4.777  0.8816 -0.9241  1.7107
 7877SOL    HW235091   1.237   2.457   4.816  0.7878 -0.3741  0.6333
 7878SOL     OW35092   2.916   3.133   1.361 -0.2219 -0.2715  0.7700
 7878SOL    HW135093   2.941   3.183   1.283  1.6087 -1.1421  0.7832
 7878SOL    HW235094   3.006   3.117   1.392  0.1700 -0.6972 -0.5766
 7879SOL     OW35095   2.304   3.695   8.384  0.3372 -0.2619 -0.0425
 7879SOL    HW135096   2.262   3.653   8.459  0.5580 -3.5006 -1.7212
 7879SOL    HW235097   2.380   3.735   8.426 -1.1108 -0.1155  2.4317
 7880SOL     OW35098   2.557   3.264   6.206 -0.3186  0.4281 -0.3300
 7880SOL    HW135099   2.640   3.263   6.254 -0.9176 -0.4708  0.7003
 7880SOL    HW235100   2.498   3.290   6.277  0.0580 -1.1494  0.5791
 7881SOL     OW35101   3.020   0.508   2.147  0.5862  0.2313  0.0245
 7881SOL    HW135102   3.006   0.452   2.071  1.4595 -0.9485  0.7345
 7881SOL    HW235103   3.114   0.523   2.149  0.1753  2.9846 -1.6288
 7882SOL     OW35104   3.642   2.822   7.191 -0.4838  0.0147 -0.1663
 7882SOL    HW135105   3.667   2.736   7.157  2.4519  0.5450  0.6664
 7882SOL    HW235106   3.691   2.830   7.273  2.5744  0.4518 -2.0529
 7883SOL     OW35107   4.575   4.281  11.880 -0.2025  0.1034  0.2000
 7883SOL    HW135108   4.662   4.296  11.917 -0.0944  1.1948 -0.4910
 7883SOL    HW235109   4.544   4.213  11.940  0.6562 -1.6979 -1.4299
 7884SOL     OW35110   4.344   1.677  16.199 -0.3311 -0.5168  0.0919
 7884SOL    HW135111   4.390   1.632  16.270 -1.6415  0.5770  1.6309
 7884SOL    HW235112   4.286   1.607  16.168 -0.1498 -0.9463  0.7338
 7885SOL     OW35113   4.024   4.499  14.357  0.5325  0.0197 -0.1971
 7885SOL    HW135114   4.113   4.526  14.333  0.8984 -1.3220 -0.3516
 7885SOL    HW235115   4.032   4.515  14.451 -0.4801 -1.8912  0.2183
 7886SOL     OW35116   1.617   1.873   3.189 -0.1604  0.5907  0.4222
 7886SOL    HW135117   1.538   1.867   3.241 -0.0691 -2.7380  0.1431
 7886SOL    HW235118   1.607   1.964   3.160 -2.3265  0.3093  0.2731
 7887SOL     OW35119   3.464   1.721   8.139 -0.4021  0.1309  0.1641
 7887SOL    HW135120   3.464   1.810   8.104  1.1461  0.3337  0.6542
 7887SOL    HW235121   3.519   1.731   8.217  2.3505 -1.0538 -1.6357
 7888SOL     OW35122   2.314   3.598   5.976  0.0515 -0.3554  0.8733
 7888SOL    HW135123   2.283   3.563   5.892  1.2645  0.3034  0.1473
 7888SOL    HW235124   2.265   3.679   5.988  0.8174  0.2410 -0.0351
 7889SOL     OW35125   3.388   0.294   2.194  0.1870 -0.0224  0.0136
 7889SOL    HW135126   3.361   0.385   2.187 -0.7916 -0.1937  1.4752
 7889SOL    HW235127   3.479   0.302   2.223 -0.2603 -0.8375  1.6060
 7890SOL     OW35128   0.421   0.102   6.718 -0.4658 -0.2942 -0.0189
 7890SOL    HW135129   0.457   0.165   6.781 -2.0775 -1.7187  2.3054
 7890SOL    HW235130   0.349   0.066   6.770  1.4349  2.4047  4.4674
 7891SOL     OW35131   0.797   0.076  17.239  0.3045  0.1592  1.1497
 7891SOL    HW135132   0.705   0.094  17.260 -0.2789 -1.2241 -0.1647
 7891SOL    HW235133   0.804   0.115  17.152 -1.1252  0.0840  1.0036
 7892SOL     OW35134   0.399   4.341   3.786  0.4048  0.3155  0.4718
 7892SOL    HW135135   0.375   4.273   3.849 -1.6012  0.3438 -0.2604
 7892SOL    HW235136   0.344   4.417   3.806  2.9823  2.3451 -0.1724
 7893SOL     OW35137   0.743   1.501   0.212 -0.2633  0.2533  0.1434
 7893SOL    HW135138   0.693   1.466   0.138 -0.9219  2.6888 -0.5609
 7893SOL    HW235139   0.828   1.505   0.170 -0.5289  1.7279 -0.2461
 7894SOL     OW35140   2.136   4.157   6.239  0.2461 -0.0759  0.3135
 7894SOL    HW135141   2.044   4.133   6.227  0.1120  0.0108  1.1467
 7894SOL    HW235142   2.146   4.240   6.194  1.0032  0.1936  0.9741
 7895SOL     OW35143   4.568   3.766   4.780  0.2502 -0.0879  0.1964
 7895SOL    HW135144   4.519   3.781   4.700 -3.3574  1.4762  2.7290
 7895SOL    HW235145   4.501   3.719   4.830  1.4595 -2.0638  0.0079
 7896SOL     OW35146   1.392   4.690  16.601  0.2873  0.4172  0.3689
 7896SOL    HW135147   1.474   4.641  16.595 -0.3198 -0.8106  2.0564
 7896SOL    HW235148   1.430   0.051  16.603  0.2047  0.4964 -1.5355
 7897SOL     OW35149   1.027   1.916   6.125 -0.5135 -0.0273 -0.6847
 7897SOL    HW135150   1.089   1.845   6.106 -0.3140 -0.5261  1.8500
 7897SOL    HW235151   0.982   1.914   6.041 -0.4274  0.2816 -0.7372
 7898SOL     OW35152   2.917   4.331  14.574 -0.1749  0.6526 -0.3759
 7898SOL    HW135153   2.924   4.404  14.514  0.0137 -0.4217 -1.6591
 7898SOL    HW235154   3.006   4.304  14.597 -0.0052  0.6907 -1.0047
 7899SOL     OW35155   1.577   3.363  13.003 -0.0321 -0.8803  0.2418
 7899SOL    HW135156   1.531   3.446  13.016  2.2007 -0.0131  2.6470
 7899SOL    HW235157   1.637   3.360  13.077 -0.0050 -0.4381  0.2372
 7900SOL     OW35158   1.493   3.939   5.763  0.2489 -0.4651 -0.3742
 7900SOL    HW135159   1.585   3.914   5.748  0.0469 -0.7697 -1.0897
 7900SOL    HW235160   1.456   3.856   5.795  0.5756  0.0316  1.2755
 7901SOL     OW35161   4.044   0.207  12.615 -0.0665 -0.0875 -0.4466
 7901SOL    HW135162   4.101   0.270  12.571  0.7250 -0.3413  0.2341
 7901SOL    HW235163   4.101   0.131  12.608  0.6450  0.3106  1.1010
 7902SOL     OW35164   4.159   1.472   0.489  0.2858 -0.4291  0.0272
 7902SOL    HW135165   4.223   1.463   0.560  0.3627  0.1786  0.0402
 7902SOL    HW235166   4.092   1.405   0.499 -1.2748  0.8011 -2.1683
 7903SOL     OW35167   0.419   3.174   7.618 -0.1446 -0.3978 -0.0555
 7903SOL    HW135168   0.510   3.193   7.593 -0.6177 -0.3697 -1.7404
 7903SOL    HW235169   0.387   3.259   7.648  1.0536 -0.1567  0.5573
 7904SOL     OW35170   2.234   3.744   1.548  0.0161 -0.3325  0.3329
 7904SOL    HW135171   2.279   3.670   1.589  1.2405 -0.0516 -0.4929
 7904SOL    HW235172   2.285   3.819   1.582 -0.8835  0.6690 -0.5372
 7905SOL     OW35173   3.490   3.709   2.233 -0.7362 -0.2290 -0.4136
 7905SOL    HW135174   3.473   3.618   2.209  0.4507 -0.8154  0.9915
 7905SOL    HW235175   3.494   3.699   2.328 -2.8114 -0.0425 -0.3193
 7906SOL     OW35176   3.217   1.950  11.370 -0.5185  0.1355  0.2475
 7906SOL    HW135177   3.233   1.856  11.368 -0.7443  0.1859 -2.8578
 7906SOL    HW235178   3.123   1.944  11.356 -0.7562 -2.2076  2.8898
 7907SOL     OW35179   2.631   2.545   8.649  0.3843 -0.0096 -0.4036
 7907SOL    HW135180   2.651   2.480   8.582  3.0493 -0.2897  0.6233
 7907SOL    HW235181   2.561   2.500   8.697  0.1708  0.2356 -0.4850
 7908SOL     OW35182   0.658   3.923   7.109  0.4498  0.4057 -0.0984
 7908SOL    HW135183   0.737   3.876   7.136 -0.0161 -1.3546 -1.8280
 7908SOL    HW235184   0.658   3.999   7.167  0.6297  0.7321 -0.5246
 7909SOL     OW35185   2.137   3.313   3.564  0.4989 -0.4336 -0.0256
 7909SOL    HW135186   2.097   3.236   3.522  0.3747  1.1218 -2.7365
 7909SOL    HW235187   2.139   3.377   3.493 -2.0680  0.7210  0.9525
 7910SOL     OW35188   1.590   4.673   2.912 -0.0243 -0.7144  0.2427
 7910SOL    HW135189   1.664   0.001   2.884  0.3168 -0.3386  1.8888
 7910SOL    HW235190   1.644   4.616   2.967  1.1300 -1.1427 -1.3493
 7911SOL     OW35191   1.320   1.436   2.381  0.0190  0.3189 -0.1055
 7911SOL    HW135192   1.299   1.522   2.416  0.4661  1.3638 -2.4172
 7911SOL    HW235193   1.415   1.429   2.390  0.0222 -1.9189 -1.6459
 7912SOL     OW35194   1.498   0.150   1.901  0.2672 -0.1430 -0.5841
 7912SOL    HW135195   1.548   0.230   1.918 -0.1943 -0.3458  1.6155
 7912SOL    HW235196   1.425   0.165   1.961  0.8555 -0.2226  0.1542
 7913SOL     OW35197   1.929   1.786   8.534  0.3168 -0.1546 -0.7266
 7913SOL    HW135198   1.964   1.787   8.623  1.2094 -0.3566 -1.0759
 7913SOL    HW235199   1.980   1.848   8.482  1.3907  0.1623  0.6979
 7914SOL     OW35200   2.155   0.013   9.275  0.2855  0.2936 -0.0075
 7914SOL    HW135201   2.246   0.002   9.304  0.5495  1.9630 -0.2243
 7914SOL    HW235202   2.172   0.025   9.181 -2.1724 -2.9580 -0.8644
 7915SOL     OW35203   3.127   3.832   9.335  0.0686  0.4435  0.0922
 7915SOL    HW135204   3.208   3.865   9.296  1.1424 -0.2879  1.7236
 7915SOL    HW235205   3.113   3.761   9.273  0.8742  1.1511 -0.9081
 7916SOL     OW35206   2.349   2.383  15.589  0.2709 -0.7026  0.7326
 7916SOL    HW135207   2.312   2.301  15.555 -0.0801  0.1610 -0.9615
 7916SOL    HW235208   2.290   2.412  15.660  1.2044 -0.7007  1.5059
 7917SOL     OW35209   4.140   4.666   9.481  0.2125  0.1341 -0.3766
 7917SOL    HW135210   4.128   0.000   9.408  0.8986 -0.0797 -0.6640
 7917SOL    HW235211   4.204   4.708   9.538  0.4470 -1.1167  0.2842
 7918SOL     OW35212   3.400   4.363   4.012 -0.1614  0.5463  0.4422
 7918SOL    HW135213   3.308   4.390   4.022 -0.7347 -0.6056 -1.7332
 7918SOL    HW235214   3.437   4.426   4.074 -0.4603  2.2753 -1.1196
 7919SOL     OW35215   3.457   0.514   3.737 -0.2082  0.6525  0.4864
 7919SOL    HW135216   3.409   0.433   3.755  0.6716 -0.4745 -2.2867
 7919SOL    HW235217   3.521   0.515   3.808  0.2412 -0.1779  0.0943
 7920SOL     OW35218   0.776   4.311   5.633  0.2532  0.1986  0.0746
 7920SOL    HW135219   0.807   4.301   5.543  0.3320 -1.5375  0.2902
 7920SOL    HW235220   0.710   4.241   5.637 -0.9139  1.1126 -2.7289
 7921SOL     OW35221   1.361   2.913   5.426 -0.1929  0.0947 -0.0085
 7921SOL    HW135222   1.394   2.833   5.386 -1.1480 -0.0145 -0.5940
 7921SOL    HW235223   1.432   2.932   5.486 -0.7944 -0.1923  0.7887
 7922SOL     OW35224   3.527   3.127  12.273  0.0197 -0.4745  0.4300
 7922SOL    HW135225   3.452   3.067  12.269  0.4116 -0.8728 -0.7932
 7922SOL    HW235226   3.578   3.120  12.193 -0.8383  1.5402 -0.2943
 7923SOL     OW35227   0.553   1.218   3.861 -0.4998  0.1693 -0.3877
 7923SOL    HW135228   0.539   1.262   3.777  0.9713  0.4484 -0.4763
 7923SOL    HW235229   0.561   1.298   3.913 -0.8768  0.2087 -0.3889
 7924SOL     OW35230   4.710   3.285   9.233 -0.6663  0.2273 -0.0396
 7924SOL    HW135231   4.649   3.224   9.275  0.2906 -0.2084  0.7184
 7924SOL    HW235232   4.655   3.330   9.169 -2.1457  0.4348  1.3657
 7925SOL     OW35233   1.635   3.796   3.496  0.1434  0.1226 -0.9207
 7925SOL    HW135234   1.728   3.800   3.519 -0.1681 -0.8718  0.5317
 7925SOL    HW235235   1.598   3.871   3.542  0.4978  0.0937 -0.5850
 7926SOL     OW35236   1.335   3.067   7.511  0.0592 -0.7585 -0.3433
 7926SOL    HW135237   1.411   3.011   7.493 -1.2221 -2.9851  1.2420
 7926SOL    HW235238   1.311   3.035   7.598 -2.3190  3.2673  0.4712
 7927SOL     OW35239   3.048   1.018   5.577 -0.2200 -0.3043  0.3437
 7927SOL    HW135240   3.085   0.936   5.610 -0.2895 -0.7816 -0.7612
 7927SOL    HW235241   3.117   1.049   5.518 -0.3281  0.0651  0.4060
 7928SOL     OW35242   1.427   0.713   0.503  0.1283 -0.6299  0.1846
 7928SOL    HW135243   1.416   0.623   0.473  0.5023 -1.1088  1.5012
 7928SOL    HW235244   1.511   0.734   0.461 -1.2837 -0.7312 -2.6741
 7929SOL     OW35245   0.699   0.584   2.509 -0.2363 -0.4384 -0.6105
 7929SOL    HW135246   0.687   0.679   2.518  2.7006 -0.2781  1.5330
 7929SOL    HW235247   0.642   0.570   2.434  0.3107 -0.7748 -0.9639
 7930SOL     OW35248   3.081   1.124   4.187 -0.1982 -0.0042 -0.2798
 7930SOL    HW135249   3.018   1.174   4.135  0.4323 -1.3348 -2.3420
 7930SOL    HW235250   3.161   1.169   4.160  0.3882 -1.1084 -0.3700
 7931SOL     OW35251   1.788   2.755   0.871 -0.0518  0.1164 -0.2728
 7931SOL    HW135252   1.835   2.760   0.954 -0.1022  2.0399 -0.3707
 7931SOL    HW235253   1.741   2.838   0.870  0.4694  0.4125 -0.0598
 7932SOL     OW35254   2.410   2.839   3.137  0.0755  0.1888  0.0979
 7932SOL    HW135255   2.499   2.807   3.119  0.5412  0.3599  2.0553
 7932SOL    HW235256   2.415   2.932   3.117 -1.1889  0.4666  1.0930
 7933SOL     OW35257   0.068   1.487   9.319  0.5395  0.3265  0.2594
 7933SOL    HW135258   4.724   1.467   9.258  0.1613  2.0920  0.0977
 7933SOL    HW235259   0.071   1.583   9.315 -1.8226  0.2885 -1.9860
 7934SOL     OW35260   1.762   3.041   4.202 -0.3998 -0.0274 -0.4457
 7934SOL    HW135261   1.754   2.958   4.249  0.4006 -0.1170 -0.4765
 7934SOL    HW235262   1.775   3.006   4.114  1.3144  0.6325 -0.4435
 7935SOL     OW35263   3.730   0.325   8.806 -0.0886 -0.6537 -0.0852
 7935SOL    HW135264   3.703   0.237   8.833 -0.2967 -0.8364 -0.9070
 7935SOL    HW235265   3.792   0.303   8.737  0.0004  1.0229 -0.5396
 7936SOL     OW35266   3.646   0.292  16.784  0.2867  0.0410 -0.3619
 7936SOL    HW135267   3.713   0.292  16.852 -1.1884  1.0485  1.0922
 7936SOL    HW235268   3.600   0.210  16.800  0.2412 -0.5244 -3.4069
 7937SOL     OW35269   0.667   1.907   2.856  0.2218 -0.3137 -0.2006
 7937SOL    HW135270   0.685   1.850   2.930 -0.1091 -1.4013 -0.9619
 7937SOL    HW235271   0.757   1.922   2.825  1.6496 -4.2788  2.1042
 7938SOL     OW35272   0.073   3.758   3.484  0.3167 -0.1648  0.0432
 7938SOL    HW135273   0.053   3.841   3.527  0.6502  0.2874 -0.6788
 7938SOL    HW235274   0.002   3.754   3.420  1.4581  0.8551 -1.2741
 7939SOL     OW35275   0.065   1.737   9.659  0.3044 -0.1622 -0.3633
 7939SOL    HW135276   0.012   1.743   9.580 -1.8151 -0.7285  1.0007
 7939SOL    HW235277   4.723   1.724   9.725 -0.2970  0.2655 -0.9096
 7940SOL     OW35278   0.380   2.269   0.764  0.3432 -0.2848 -0.2171
 7940SOL    HW135279   0.307   2.220   0.802  2.3026 -4.0603 -1.3305
 7940SOL    HW235280   0.331   2.343   0.727 -1.4771 -1.5803 -0.3817
 7941SOL     OW35281   1.239   1.810   5.513  0.4787 -0.6552 -0.9868
 7941SOL    HW135282   1.185   1.764   5.577  1.0257  2.8743  2.0228
 7941SOL    HW235283   1.175   1.810   5.442  0.5746  1.8561 -1.0553
 7942SOL     OW35284   4.457   1.533   2.168  0.1984 -0.5548  0.5724
 7942SOL    HW135285   4.384   1.533   2.106  1.0013 -2.2002 -0.3612
 7942SOL    HW235286   4.529   1.506   2.111  0.9598  0.9267  0.8087
 7943SOL     OW35287   4.277   4.160   3.143 -0.1398  0.2646 -0.6006
 7943SOL    HW135288   4.368   4.167   3.114 -0.1423 -0.4500 -0.7858
 7943SOL    HW235289   4.218   4.185   3.071 -0.2959  0.8248 -0.2736
 7944SOL     OW35290   0.587   0.634   4.201 -0.5615 -0.2688 -0.3934
 7944SOL    HW135291   0.498   0.629   4.234  0.9336  1.1175  3.8317
 7944SOL    HW235292   0.619   0.719   4.231  1.3985 -0.5227 -1.7609
 7945SOL     OW35293   3.692   3.253  12.516 -0.0845 -0.5217 -0.4315
 7945SOL    HW135294   3.637   3.209  12.453 -0.4763  0.6032 -0.8817
 7945SOL    HW235295   3.743   3.297  12.448 -1.4182  0.8582 -0.5340
 7946SOL     OW35296   3.406   2.464   1.846 -0.2336 -0.4231  0.2310
 7946SOL    HW135297   3.440   2.553   1.838  0.4129 -0.7556 -0.6798
 7946SOL    HW235298   3.314   2.477   1.869 -0.7603 -1.2287 -1.4062
 7947SOL     OW35299   3.967   3.626   2.438  0.1503  0.5814  0.2158
 7947SOL    HW135300   4.036   3.692   2.430  1.9801 -1.2735  0.7126
 7947SOL    HW235301   3.897   3.678   2.399  2.0009  2.2017 -0.9389
 7948SOL     OW35302   0.677   1.333  12.810  0.2739 -0.2169  0.2916
 7948SOL    HW135303   0.706   1.278  12.882  1.7277  1.7020  1.1619
 7948SOL    HW235304   0.696   1.422  12.840  2.2287 -0.6005  0.1884
 7949SOL     OW35305   4.515   2.297   8.913  1.4273  0.6044 -0.2341
 7949SOL    HW135306   4.483   2.207   8.927  0.6359  1.0836  1.0168
 7949SOL    HW235307   4.570   2.273   8.839  0.3877  0.7779 -1.0714
 7950SOL     OW35308   2.832   4.667   6.254 -0.1728  0.4318  0.1417
 7950SOL    HW135309   2.836   4.686   6.348 -1.1100  0.9012  0.0809
 7950SOL    HW235310   2.897   4.596   6.252 -1.1162 -0.3934 -1.1625
 7951SOL     OW35311   3.296   3.503   2.702 -0.2700  0.2737  0.3468
 7951SOL    HW135312   3.300   3.595   2.728  0.8530  0.4720 -0.5225
 7951SOL    HW235313   3.383   3.465   2.716 -0.5778 -0.1237  1.1775
 7952SOL     OW35314   3.039   4.511   6.582 -0.0093 -0.6030 -0.2209
 7952SOL    HW135315   3.123   4.493   6.540 -0.3535  0.3951 -1.3260
 7952SOL    HW235316   3.072   4.540   6.667 -3.2809 -0.7055  1.1028
 7953SOL     OW35317   4.256   0.259   7.148 -0.1049  0.2241 -0.1852
 7953SOL    HW135318   4.199   0.324   7.188  1.8823  0.6661  1.9294
 7953SOL    HW235319   4.197   0.187   7.170 -0.1076  0.0278 -0.8180
 7954SOL     OW35320   0.675   2.573  17.608  0.2065  0.4254  0.8948
 7954SOL    HW135321   0.680   2.478  17.616 -0.9845  0.3641  1.0148
 7954SOL    HW235322   0.589   2.586  17.567  1.1049  2.6402 -0.3177
 7955SOL     OW35323   0.483   0.072  10.104  0.0179 -0.5905 -0.3864
 7955SOL    HW135324   0.464   0.108  10.191 -0.7507 -2.2328  0.1190
 7955SOL    HW235325   0.486   4.703  10.117 -1.3772 -0.6964 -0.8503
 7956SOL     OW35326   0.245   1.843   7.250  0.1380  0.4301 -0.4596
 7956SOL    HW135327   0.287   1.758   7.260 -0.3449  0.2340 -0.0976
 7956SOL    HW235328   0.321   1.901   7.262  0.3719 -0.5629  2.9854
 7957SOL     OW35329   4.111   1.806   5.161  0.2250 -0.2693  0.1868
 7957SOL    HW135330   4.119   1.826   5.068  0.6490 -2.9008 -0.3451
 7957SOL    HW235331   4.100   1.895   5.194  2.3493 -1.1155  3.1910
 7958SOL     OW35332   1.637   0.156   2.557  0.7110 -0.1869  0.0818
 7958SOL    HW135333   1.588   0.095   2.502  0.6458 -0.1231  0.0694
 7958SOL    HW235334   1.711   0.104   2.587 -1.1162 -0.7542  3.5005
 7959SOL     OW35335   3.360   1.858   8.590  0.1711 -0.1944 -0.1254
 7959SOL    HW135336   3.302   1.908   8.533  0.4183  3.1417  2.5099
 7959SOL    HW235337   3.316   1.774   8.595 -2.4281  1.1147 -1.4750
 7960SOL     OW35338   0.964   0.742   7.107 -0.2434 -0.0046  0.3594
 7960SOL    HW135339   0.967   0.664   7.163 -2.0954  0.0338  0.5310
 7960SOL    HW235340   0.979   0.706   7.019 -0.8632 -1.0402  0.6751
 7961SOL     OW35341   3.658   1.861   5.616 -0.3537 -0.5519 -0.3171
 7961SOL    HW135342   3.688   1.816   5.537  1.8286 -0.6808  0.5814
 7961SOL    HW235343   3.713   1.820   5.684 -0.8006 -0.2193  0.2460
 7962SOL     OW35344   2.706   3.824   4.280  0.3699 -0.3402 -0.1822
 7962SOL    HW135345   2.698   3.793   4.370  1.1665 -3.4996 -1.1961
 7962SOL    HW235346   2.689   3.741   4.235  1.2067 -0.4176 -0.3576
 7963SOL     OW35347   0.644   4.372   1.050 -0.1101  0.3213  0.7764
 7963SOL    HW135348   0.586   4.423   1.107 -0.8258 -1.8339  1.9682
 7963SOL    HW235349   0.570   4.323   1.012  2.1673 -2.8406  0.4492
 7964SOL     OW35350   0.461   4.012   4.662  0.2614 -0.0487 -0.3493
 7964SOL    HW135351   0.526   4.076   4.689 -0.5061  1.0424 -1.0791
 7964SOL    HW235352   0.454   3.966   4.746  0.5180 -1.8622 -1.3054
 7965SOL     OW35353   2.966   0.305   4.433  0.5544 -0.4571  0.1234
 7965SOL    HW135354   2.991   0.219   4.399  1.6787 -0.4316  0.8726
 7965SOL    HW235355   2.954   0.281   4.524 -1.1763 -0.1595 -0.0286
 7966SOL     OW35356   1.365   4.007   2.518  0.0868  0.1160 -0.2958
 7966SOL    HW135357   1.303   3.953   2.470 -0.2315 -1.0602  1.4277
 7966SOL    HW235358   1.395   4.060   2.444 -1.8280 -0.1548 -1.2516
 7967SOL     OW35359   0.658   3.997  12.513  0.3495  0.6140  0.0937
 7967SOL    HW135360   0.617   3.929  12.459 -1.1502  1.1371  0.5879
 7967SOL    HW235361   0.750   3.990  12.488  0.2566  0.5585 -0.2339
 7968SOL     OW35362   0.483   3.855   1.496  0.0208 -0.0450  0.1038
 7968SOL    HW135363   0.537   3.779   1.477  0.1760  0.4245 -1.3416
 7968SOL    HW235364   0.486   3.901   1.413 -0.3940  1.4555  0.9160
 7969SOL     OW35365   2.526   0.827   4.694 -0.4231  0.0410  0.0081
 7969SOL    HW135366   2.470   0.811   4.617 -1.3842  1.9472  0.3127
 7969SOL    HW235367   2.589   0.895   4.671  2.4768 -2.5250  0.4313
 7970SOL     OW35368   4.424   1.785  17.262  0.0754 -0.2763  0.1778
 7970SOL    HW135369   4.497   1.725  17.277  0.5129  0.0870 -0.4601
 7970SOL    HW235370   4.415   1.778  17.167 -1.6926  1.9857  0.1893
 7971SOL     OW35371   2.422   0.589   7.749 -0.4169  0.0523 -0.3570
 7971SOL    HW135372   2.498   0.619   7.799 -0.1555  1.6045 -1.6744
 7971SOL    HW235373   2.419   0.646   7.672  1.1848  0.9422  0.2382
 7972SOL     OW35374   0.850   3.324   6.464 -0.4583  0.0492 -0.5102
 7972SOL    HW135375   0.880   3.405   6.422 -0.6062  2.3268  3.8222
 7972SOL    HW235376   0.916   3.315   6.533 -1.6886  1.0377  0.7994
 7973SOL     OW35377   4.534   3.740   8.017 -0.6094  0.4805  0.6274
 7973SOL    HW135378   4.461   3.800   8.006 -0.3238  0.4901 -1.2623
 7973SOL    HW235379   4.500   3.657   7.982  0.3997 -0.0872  0.9733
 7974SOL     OW35380   1.884   1.959   4.151  0.0443 -0.2068  0.5657
 7974SOL    HW135381   1.940   1.886   4.176  0.5199 -0.0604 -0.0799
 7974SOL    HW235382   1.828   1.977   4.226  0.8840 -0.1260  1.1619
 7975SOL     OW35383   1.004   1.408   3.960  0.0004 -0.2522 -0.1243
 7975SOL    HW135384   0.931   1.429   4.018 -0.0028 -1.6581  0.3721
 7975SOL    HW235385   1.018   1.496   3.925 -1.8850 -0.0867 -0.4368
 7976SOL     OW35386   2.860   0.415  10.367  0.0550  0.9613  0.1111
 7976SOL    HW135387   2.921   0.364  10.315 -0.5493  1.3771 -1.0236
 7976SOL    HW235388   2.807   0.447  10.294 -0.4117  0.5867  0.2852
 7977SOL     OW35389   1.956   0.835   4.847  0.2449 -0.2134 -0.3984
 7977SOL    HW135390   2.004   0.864   4.925  3.6286 -2.4546 -1.6307
 7977SOL    HW235391   1.867   0.815   4.875 -0.7905  0.7510 -3.0284
 7978SOL     OW35392   3.635   3.073   7.613  0.4087  0.4344 -0.0257
 7978SOL    HW135393   3.651   3.166   7.623  3.0738 -0.0565  0.2291
 7978SOL    HW235394   3.644   3.048   7.705  2.3876  1.4515  0.0500
 7979SOL     OW35395   2.006   1.560   6.312  0.0068 -0.3526  0.1381
 7979SOL    HW135396   2.092   1.517   6.318 -0.0743 -0.5676 -0.2128
 7979SOL    HW235397   1.947   1.532   6.381 -0.8505 -1.5948 -1.1050
 7980SOL     OW35398   1.246   3.621   9.447 -0.2988  0.0516 -0.1026
 7980SOL    HW135399   1.309   3.555   9.478  1.7161  2.4818  0.9777
 7980SOL    HW235400   1.173   3.573   9.409 -0.5483  0.4149 -0.0758
 7981SOL     OW35401   1.320   1.420  10.857 -0.0605 -0.5799  0.4510
 7981SOL    HW135402   1.300   1.483  10.788  0.3549  0.6053  1.4143
 7981SOL    HW235403   1.348   1.346  10.803 -0.0330 -0.2907  0.0704
 7982SOL     OW35404   3.867   0.519   7.074  0.4648  0.1423 -0.2589
 7982SOL    HW135405   3.805   0.570   7.126  1.0059  1.5065 -0.9571
 7982SOL    HW235406   3.803   0.499   7.006  0.6796  0.2836 -0.5038
 7983SOL     OW35407   3.252   4.686  15.984 -0.5456  0.0233 -0.5118
 7983SOL    HW135408   3.293   0.043  15.961  1.1144 -0.8504 -0.6286
 7983SOL    HW235409   3.237   4.715  16.074 -0.6679  1.8987 -1.1233
 7984SOL     OW35410   0.548   0.244  16.095 -0.5847  0.1738 -0.5423
 7984SOL    HW135411   0.536   0.328  16.139 -0.0177  0.7116 -1.4124
 7984SOL    HW235412   0.607   0.198  16.155 -1.5905  0.0447  0.3496
 7985SOL     OW35413   2.170   3.807   1.872  1.0521 -0.2188  0.3017
 7985SOL    HW135414   2.163   3.845   1.960  3.7732  1.0422 -0.0530
 7985SOL    HW235415   2.249   3.753   1.876  0.2633 -1.4874 -1.3174
 7986SOL     OW35416   4.425   2.599   0.254  0.3676  0.9285 -0.3425
 7986SOL    HW135417   4.466   2.673   0.209 -0.6115  0.7587 -1.5022
 7986SOL    HW235418   4.408   2.544   0.178  1.9864 -0.2134  0.1323
 7987SOL     OW35419   1.919   0.449   1.795  0.1993 -0.6450 -0.6383
 7987SOL    HW135420   1.847   0.432   1.734 -1.8447  1.8634  1.0846
 7987SOL    HW235421   1.997   0.452   1.741  1.4780 -2.0865  1.1279
 7988SOL     OW35422   0.879   1.260   7.177  0.6154  0.6212 -0.2687
 7988SOL    HW135423   0.954   1.299   7.222 -0.2166  0.7658  0.9916
 7988SOL    HW235424   0.890   1.167   7.198  0.1464  0.5181 -0.4898
 7989SOL     OW35425   1.109   2.963   4.354  0.4160  0.2958  0.2563
 7989SOL    HW135426   1.197   3.002   4.345  0.7183 -0.0279  1.8918
 7989SOL    HW235427   1.140   2.880   4.317  0.1557  0.4666 -0.3511
 7990SOL     OW35428   2.240   1.341  17.651  0.0451  0.5706  0.5411
 7990SOL    HW135429   2.327   1.302  17.655 -0.2376  0.0294  1.4939
 7990SOL    HW235430   2.206   1.278   0.008  0.5299 -0.8075 -0.5919
 7991SOL     OW35431   4.468   2.433   0.026 -0.5059  0.0519  0.1819
 7991SOL    HW135432   4.509   2.444  17.646  0.0346  0.8926  0.5451
 7991SOL    HW235433   4.397   2.371   0.011 -0.1148  0.3171 -2.8825
 7992SOL     OW35434   2.207   3.286   4.751 -0.4722  0.1652  0.3734
 7992SOL    HW135435   2.299   3.274   4.776 -0.2905 -0.1866 -0.4693
 7992SOL    HW235436   2.202   3.215   4.687  0.1762 -2.1874  2.8988
 7993SOL     OW35437   2.612   0.143   0.733  0.2067  0.4016 -0.4136
 7993SOL    HW135438   2.572   0.212   0.786  0.5776 -0.0303  0.4186
 7993SOL    HW235439   2.700   0.152   0.770  0.5513  0.4043 -1.2217
 7994SOL     OW35440   3.223   2.902  16.823 -0.2632 -0.1671 -0.2994
 7994SOL    HW135441   3.167   2.884  16.747 -0.0685  0.6296 -0.6354
 7994SOL    HW235442   3.162   2.929  16.891 -0.3122 -0.3971 -0.2535
 7995SOL     OW35443   4.026   1.031  15.960  0.6984  0.0312  0.3790
 7995SOL    HW135444   4.045   0.957  16.018  2.8393  0.9273  0.8155
 7995SOL    HW235445   4.033   0.990  15.873  0.6977  2.9178 -0.9879
 7996SOL     OW35446   0.125   3.814  11.456  0.0360  0.0040 -0.1779
 7996SOL    HW135447   0.149   3.735  11.504  0.8276 -0.7424 -1.8239
 7996SOL    HW235448   0.163   3.790  11.372 -0.3525 -0.2300 -0.2872
 7997SOL     OW35449   0.911   1.264   3.706  0.0935  0.1737 -0.2991
 7997SOL    HW135450   0.991   1.316   3.698  1.5770 -2.0043  0.4821
 7997SOL    HW235451   0.857   1.333   3.744 -1.5982 -2.3581  1.8429
 7998SOL     OW35452   1.657   4.157   4.465 -0.0176 -0.0149  0.6315
 7998SOL    HW135453   1.671   4.111   4.548  2.0766  1.3408  1.0417
 7998SOL    HW235454   1.567   4.127   4.453  0.7916 -3.1097  2.2578
 7999SOL     OW35455   4.094   0.411   3.559 -0.1430  0.0612  1.1404
 7999SOL    HW135456   4.034   0.452   3.497  2.0011 -0.1373 -1.0416
 7999SOL    HW235457   4.032   0.404   3.632  1.9965  0.2862  2.9702
 8000SOL     OW35458   0.169   4.082   5.549  0.0941  0.3227  0.2285
 8000SOL    HW135459   0.245   4.067   5.607  0.2133  1.7419  0.4488
 8000SOL    HW235460   0.135   3.993   5.543  0.5339  0.1882 -0.2720
 8001SOL     OW35461   0.373   1.236  13.502 -0.1729  0.4584  0.0085
 8001SOL    HW135462   0.461   1.241  13.540 -0.7687  0.6949  1.3453
 8001SOL    HW235463   0.328   1.220  13.585 -1.4660  0.2726 -0.7337
 8002SOL     OW35464   0.534   4.561   2.658  0.0055 -0.2264  0.1039
 8002SOL    HW135465   0.550   4.656   2.663 -0.0431 -0.0567 -2.7064
 8002SOL    HW235466   0.531   4.528   2.747  0.0049 -1.4456 -0.3491
 8003SOL     OW35467   3.735   1.523  11.819  0.6929  0.0587 -0.0444
 8003SOL    HW135468   3.818   1.489  11.785  0.6134 -0.7160  0.5296
 8003SOL    HW235469   3.730   1.612  11.784 -1.5234  0.2338  0.7256
 8004SOL     OW35470   2.482   0.651  14.247  0.0371  0.3962  0.3314
 8004SOL    HW135471   2.487   0.729  14.304 -1.0771 -0.7016  1.9253
 8004SOL    HW235472   2.395   0.615  14.264  0.1340 -0.3902 -0.8597
 8005SOL     OW35473   1.415   0.037   2.434 -0.5156 -0.6962 -0.1882
 8005SOL    HW135474   1.348   0.039   2.502 -1.6528 -0.5845 -1.3232
 8005SOL    HW235475   1.359   0.059   2.359 -0.4643  1.5211  0.4279
 8006SOL     OW35476   2.590   1.734   9.673  0.2938  0.6220  0.1983
 8006SOL    HW135477   2.586   1.829   9.676 -0.5574  0.6413 -1.9474
 8006SOL    HW235478   2.684   1.723   9.654  0.0594  0.3868 -0.8195
 8007SOL     OW35479   3.973   2.128  11.353 -0.2431 -0.2085  0.1904
 8007SOL    HW135480   4.001   2.127  11.262 -0.4296  0.9596  0.1210
 8007SOL    HW235481   3.880   2.106  11.343  0.1946 -1.6244 -0.8034
 8008SOL     OW35482   1.018   0.650  14.016 -0.1589  0.0545 -0.3394
 8008SOL    HW135483   1.016   0.746  14.015 -1.1974  0.0382 -0.2722
 8008SOL    HW235484   1.065   0.632  13.935 -0.6278  1.8454 -1.0272
 8009SOL     OW35485   3.035   0.520  16.712  0.5196  0.3547 -0.5930
 8009SOL    HW135486   3.085   0.476  16.781  3.0316  3.5727 -0.3748
 8009SOL    HW235487   3.097   0.588  16.687  1.1724 -0.7362 -1.9834
 8010SOL     OW35488   1.348   0.759   3.724 -0.9209  0.9311  0.4224
 8010SOL    HW135489   1.406   0.751   3.649 -0.8586 -0.3483  0.6215
 8010SOL    HW235490   1.277   0.814   3.690 -0.9767  1.8010  1.9195
 8011SOL     OW35491   3.028   2.097  13.563  0.3390  0.0842 -0.2304
 8011SOL    HW135492   3.029   2.115  13.469  0.0684  0.0453 -0.2397
 8011SOL    HW235493   3.108   2.142  13.591  0.1552 -0.8362  1.7926
 8012SOL     OW35494   3.417   1.267   0.269 -1.3669  0.1860 -0.6376
 8012SOL    HW135495   3.399   1.269   0.175  0.7468  1.1641 -1.0266
 8012SOL    HW235496   3.327   1.260   0.300 -1.1181 -1.9307 -0.3479
 8013SOL     OW35497   2.989   1.821   9.734  0.0900 -0.1872  0.3621
 8013SOL    HW135498   2.903   1.859   9.751  0.0254 -0.5127  0.7744
 8013SOL    HW235499   3.032   1.861   9.809  1.5872  2.2849 -1.8169
 8014SOL     OW35500   3.169   0.219  11.093  0.3203 -0.7224 -0.1293
 8014SOL    HW135501   3.164   0.206  10.998  0.6955  0.3743 -0.2948
 8014SOL    HW235502   3.215   0.302  11.101 -1.1342  0.0200  0.5611
 8015SOL     OW35503   0.540   1.351   1.251 -0.3388 -0.1237 -0.0406
 8015SOL    HW135504   0.562   1.280   1.191  2.5864  0.8891 -0.1816
 8015SOL    HW235505   0.447   1.371   1.242 -0.0810  1.1169 -0.0138
 8016SOL     OW35506   3.737   3.316  14.194 -0.6750 -0.6781  0.1993
 8016SOL    HW135507   3.652   3.351  14.168  0.0113 -0.2290 -1.4073
 8016SOL    HW235508   3.747   3.370  14.273  0.2234 -1.1478  0.4166
 8017SOL     OW35509   0.123   2.399   6.857 -0.0394  0.1856  0.1536
 8017SOL    HW135510   0.075   2.384   6.939 -1.4342 -0.4672 -0.7679
 8017SOL    HW235511   0.087   2.483   6.830  0.3983  0.2598 -0.1875
 8018SOL     OW35512   2.863   4.594   8.654 -0.3380  0.1022  0.0772
 8018SOL    HW135513   2.854   4.596   8.559 -0.5987 -1.3684  0.0738
 8018SOL    HW235514   2.956   4.594   8.677  0.3455  1.5520 -2.7116
 8019SOL     OW35515   0.811   3.395   4.546 -0.9631  0.1716 -0.5261
 8019SOL    HW135516   0.792   3.480   4.586 -2.8020 -0.4401 -0.1132
 8019SOL    HW235517   0.903   3.374   4.561 -0.9920  0.0282 -0.5474
 8020SOL     OW35518   0.110   2.578   8.811 -0.1363 -0.1821  0.5285
 8020SOL    HW135519   0.095   2.663   8.771  0.5268 -1.0658 -1.6100
 8020SOL    HW235520   0.123   2.533   8.728  1.1796 -1.3066  1.3353
 8021SOL     OW35521   1.995   4.519   7.212  0.5346  0.1871 -0.1285
 8021SOL    HW135522   2.027   4.450   7.153  0.8089  0.5538 -0.4106
 8021SOL    HW235523   2.019   4.597   7.162  2.4948 -1.3751 -1.6644
 8022SOL     OW35524   2.014   1.247   3.055  0.4184  0.1627 -0.2777
 8022SOL    HW135525   2.070   1.256   3.133 -1.0090 -2.2289  1.0374
 8022SOL    HW235526   2.070   1.203   2.991 -0.2348  0.0058 -0.7332
 8023SOL     OW35527   2.315   4.393   2.133 -0.1392 -0.4453 -0.0538
 8023SOL    HW135528   2.379   4.364   2.068 -0.3146 -0.8515 -0.0435
 8023SOL    HW235529   2.315   4.485   2.107  1.8029  0.1103  1.9315
 8024SOL     OW35530   0.160   2.860   7.541 -0.0363  0.4813 -0.2924
 8024SOL    HW135531   0.133   2.949   7.563  2.6735  1.5397 -1.2715
 8024SOL    HW235532   0.147   2.855   7.446  0.2174  0.7862 -0.3436
 8025SOL     OW35533   0.794   0.132   8.830  0.5206  0.2688 -0.5437
 8025SOL    HW135534   0.797   0.133   8.735  1.0163  1.9924 -0.4939
 8025SOL    HW235535   0.795   0.036   8.838 -0.2748  0.3604  0.6500
 8026SOL     OW35536   0.861   0.266   4.142  0.4737 -0.3318  0.0688
 8026SOL    HW135537   0.773   0.297   4.163  1.3100  0.0134  3.0940
 8026SOL    HW235538   0.908   0.273   4.225  1.7013  0.0070 -0.6600
 8027SOL     OW35539   1.007   2.410   8.893 -0.1833  0.4665 -0.0114
 8027SOL    HW135540   0.920   2.449   8.897  0.3962  1.7605 -0.0952
 8027SOL    HW235541   1.052   2.427   8.975 -1.4584  2.0801  0.3520
 8028SOL     OW35542   1.390   3.365   2.863 -0.9921  0.0130 -0.0943
 8028SOL    HW135543   1.386   3.350   2.768 -2.6810 -1.4102  0.1940
 8028SOL    HW235544   1.484   3.352   2.869 -1.3579 -2.4310  0.2681
 8029SOL     OW35545   1.379   1.387  10.460  0.1260 -0.4910 -0.0338
 8029SOL    HW135546   1.316   1.428  10.400  0.2767  1.3856  1.0685
 8029SOL    HW235547   1.423   1.469  10.483  1.3097 -0.3148 -2.8978
 8030SOL     OW35548   2.434   1.289   4.244 -0.0312 -0.8264 -0.2959
 8030SOL    HW135549   2.428   1.230   4.319  1.3167 -0.1642  0.3331
 8030SOL    HW235550   2.346   1.284   4.208  0.4814  2.1872 -1.9519
 8031SOL     OW35551   0.879   0.375   8.920 -0.2444  0.1217 -0.4626
 8031SOL    HW135552   0.973   0.368   8.906  0.0166  0.3431  1.1601
 8031SOL    HW235553   0.858   0.288   8.885 -1.2186  0.5700 -0.9884
 8032SOL     OW35554   1.560   4.488   5.687  0.1057 -0.1266 -0.2039
 8032SOL    HW135555   1.466   4.491   5.700 -0.0758  1.6989 -1.9542
 8032SOL    HW235556   1.585   4.416   5.745  1.5944 -0.5401 -1.3640
 8033SOL     OW35557   0.930   4.150  14.659  0.2829  0.2062  0.4271
 8033SOL    HW135558   0.850   4.135  14.708  0.9433 -0.9057  1.1768
 8033SOL    HW235559   0.991   4.169  14.730  1.6137 -1.7308 -0.2028
 8034SOL     OW35560   0.356   3.293   6.521 -0.7486  0.1202 -0.1816
 8034SOL    HW135561   0.343   3.298   6.426 -0.1331 -0.6730 -0.3118
 8034SOL    HW235562   0.439   3.246   6.532 -1.7470 -1.5694  0.2978
 8035SOL     OW35563   0.856   1.468   8.182  0.3751 -0.3704  0.0730
 8035SOL    HW135564   0.850   1.458   8.278 -1.8744 -1.6428 -0.1919
 8035SOL    HW235565   0.826   1.557   8.164 -0.3866 -0.5146  0.5990
 8036SOL     OW35566   0.387   0.995  10.827 -0.1438 -0.2791  0.0868
 8036SOL    HW135567   0.338   0.917  10.855 -0.2315  0.1440  1.1063
 8036SOL    HW235568   0.329   1.032  10.762  0.9177  0.4918 -0.4262
 8037SOL     OW35569   3.698   1.832   0.625 -0.2160  0.1372  0.0015
 8037SOL    HW135570   3.667   1.901   0.567  0.3077 -0.5746 -1.1351
 8037SOL    HW235571   3.624   1.772   0.615  0.0583 -0.5045  1.7278
 8038SOL     OW35572   2.262   2.590   0.042  0.4952 -0.5854 -0.5068
 8038SOL    HW135573   2.269   2.495   0.028 -2.7907 -0.6680 -1.6210
 8038SOL    HW235574   2.341   2.624   0.000  1.2589 -1.1987  0.4410
 8039SOL     OW35575   0.481   2.981   5.328  0.2889 -0.4783  0.2691
 8039SOL    HW135576   0.494   3.022   5.242  1.0923 -0.8444  0.2109
 8039SOL    HW235577   0.427   2.907   5.301 -3.2854  1.4543  2.1597
 8040SOL     OW35578   4.105   0.750  13.143  0.4060 -0.1355  0.2086
 8040SOL    HW135579   4.200   0.750  13.132  0.3746 -0.3177 -0.0652
 8040SOL    HW235580   4.079   0.716  13.057 -1.6104 -3.5805  2.1918
 8041SOL     OW35581   3.789   3.907   5.108 -0.1938 -0.4871 -0.2575
 8041SOL    HW135582   3.763   3.833   5.162  3.3777 -1.3186  0.3221
 8041SOL    HW235583   3.883   3.898   5.095 -0.0603 -0.2306  0.5409
 8042SOL     OW35584   0.714   3.387   9.644  0.1422 -0.0647  0.1718
 8042SOL    HW135585   0.728   3.293   9.638  2.2119  0.0667  3.1084
 8042SOL    HW235586   0.653   3.403   9.572  1.9299 -0.2306 -1.3906
 8043SOL     OW35587   3.087   3.993   9.546  0.3073 -0.2021 -0.8495
 8043SOL    HW135588   3.102   3.929   9.477 -0.7764 -0.1873 -1.0962
 8043SOL    HW235589   3.055   3.939   9.619  1.7792 -0.9113 -0.7217
 8044SOL     OW35590   3.447   1.193   8.214  0.1775 -0.0651  0.2798
 8044SOL    HW135591   3.377   1.129   8.200 -1.4446  0.9768  3.8138
 8044SOL    HW235592   3.446   1.241   8.131  0.8106 -0.7101 -0.1078
 8045SOL     OW35593   2.241   1.470   8.774  0.0415 -0.2195 -0.4618
 8045SOL    HW135594   2.274   1.559   8.772 -1.2558  0.2641 -0.6484
 8045SOL    HW235595   2.303   1.433   8.837  0.1016  0.8770  0.1162
 8046SOL     OW35596   0.851   1.370   3.204  0.0935  0.0902 -0.2351
 8046SOL    HW135597   0.924   1.382   3.142 -1.9376  0.3862 -2.5844
 8046SOL    HW235598   0.779   1.417   3.162 -1.4652 -2.2001 -0.0866
 8047SOL     OW35599   3.058   0.037   4.378  0.6284 -0.3591  0.2646
 8047SOL    HW135600   3.080   4.682   4.332  0.4301 -0.5094  0.4344
 8047SOL    HW235601   3.105   0.034   4.461  1.4178  1.2450 -0.1258
 8048SOL     OW35602   0.186   1.216   1.989  0.0021 -0.3882  0.4300
 8048SOL    HW135603   0.220   1.167   1.914 -0.8189 -0.6062  0.2006
 8048SOL    HW235604   0.134   1.146   2.029 -0.0440 -1.0784 -0.8724
 8049SOL     OW35605   0.850   2.255  16.892 -0.3649 -0.5790  0.5830
 8049SOL    HW135606   0.854   2.294  16.804  0.1841 -0.7392  0.5321
 8049SOL    HW235607   0.772   2.201  16.880  0.3172 -1.8696  1.9714
 8050SOL     OW35608   1.758   1.196  13.017  0.2051 -0.4364  0.4549
 8050SOL    HW135609   1.799   1.273  13.056 -2.7825  1.1177  0.5095
 8050SOL    HW235610   1.832   1.138  12.996  0.6759 -0.5675  2.5001
 8051SOL     OW35611   2.733   1.497  13.499 -0.2800 -0.3730 -0.1580
 8051SOL    HW135612   2.670   1.504  13.427  0.0206 -2.2066 -0.6082
 8051SOL    HW235613   2.675   1.485  13.574  1.7665  1.0515  1.6294
 8052SOL     OW35614   3.184   4.645   2.817  0.1690  0.2392  0.0882
 8052SOL    HW135615   3.089   4.639   2.806  0.3458  0.4655 -1.4966
 8052SOL    HW235616   3.180   4.590   2.895 -3.0565  2.1994  1.2904
 8053SOL     OW35617   3.100   2.056   1.231 -0.1431 -0.0919  0.4972
 8053SOL    HW135618   3.168   2.110   1.192 -1.5432  0.1484 -1.5653
 8053SOL    HW235619   3.137   1.968   1.224 -3.6655 -1.5405 -0.0392
 8054SOL     OW35620   3.883   4.454   4.915  0.3031 -0.1210  0.1153
 8054SOL    HW135621   3.792   4.438   4.893  0.2068  0.8474 -0.2158
 8054SOL    HW235622   3.937   4.394   4.863  1.5636  0.3427  0.8988
 8055SOL     OW35623   2.660   1.757   9.330 -0.1255  0.1744  0.0778
 8055SOL    HW135624   2.681   1.729   9.241  0.0758  0.9887 -0.1315
 8055SOL    HW235625   2.742   1.760   9.378 -1.0021  2.3792  1.4778
 8056SOL     OW35626   1.375   0.361   3.300  0.0501 -0.1143 -0.3814
 8056SOL    HW135627   1.317   0.287   3.316 -2.1100  1.1362 -2.2692
 8056SOL    HW235628   1.449   0.301   3.307 -0.3088 -0.3533  1.2313
 8057SOL     OW35629   0.887   1.592   2.824 -0.6105  0.1103 -0.0505
 8057SOL    HW135630   0.892   1.556   2.736 -3.7872 -1.5082  0.4363
 8057SOL    HW235631   0.924   1.680   2.818  1.9893 -1.0909 -1.4920
 8058SOL     OW35632   0.515   0.476   5.194 -0.6388 -0.0062  0.6634
 8058SOL    HW135633   0.432   0.441   5.228 -1.4544  0.2616 -1.0889
 8058SOL    HW235634   0.579   0.433   5.251  1.2189  1.5692 -0.2627
 8059SOL     OW35635   0.654   1.782   4.766  0.3642 -0.3874  0.3904
 8059SOL    HW135636   0.616   1.700   4.799 -0.1666 -0.1151  0.4514
 8059SOL    HW235637   0.650   1.822   4.853  1.1197 -0.6019  0.5222
 8060SOL     OW35638   0.246   2.809   3.458  0.4148  0.1556  0.2607
 8060SOL    HW135639   0.198   2.744   3.509  1.4638  0.4708  1.6364
 8060SOL    HW235640   0.296   2.837   3.534  1.8582 -2.2117  0.1804
 8061SOL     OW35641   0.588   2.963  11.051 -0.2466  0.3563  0.2573
 8061SOL    HW135642   0.546   3.039  11.009 -0.5704 -0.4441 -0.8684
 8061SOL    HW235643   0.629   3.005  11.126  0.7723 -1.9111  0.9616
 8062SOL     OW35644   3.432   3.194  15.490 -0.2063 -0.2970  0.6750
 8062SOL    HW135645   3.525   3.197  15.470  0.3654 -1.0103  3.1894
 8062SOL    HW235646   3.407   3.246  15.414 -0.3695 -1.4755 -0.0701
 8063SOL     OW35647   0.169   3.015  12.926 -0.4952 -0.2090  0.2788
 8063SOL    HW135648   0.082   3.034  12.960 -0.5923  1.2055 -0.7302
 8063SOL    HW235649   0.221   2.995  13.003 -0.6015 -0.3904  0.3030
 8064SOL     OW35650   2.995   0.258   6.965  0.3193  0.0623 -0.7475
 8064SOL    HW135651   3.047   0.208   7.028 -0.7764 -1.5743 -1.1482
 8064SOL    HW235652   2.956   0.192   6.907  1.5080 -0.0636 -1.4082
 8065SOL     OW35653   0.640   2.010  14.783 -0.4048  0.6566  0.8484
 8065SOL    HW135654   0.652   2.028  14.877 -0.6914  1.7753  0.6669
 8065SOL    HW235655   0.708   1.947  14.757  0.9709  1.8599  1.5071
 8066SOL     OW35656   0.652   2.280   9.333  0.1018 -0.1639  0.0784
 8066SOL    HW135657   0.561   2.275   9.303  0.3484  2.7151 -1.0513
 8066SOL    HW235658   0.635   2.298   9.425 -4.0186 -1.5441 -0.4045
 8067SOL     OW35659   3.075   4.443   7.511  0.1075 -0.1300 -0.2802
 8067SOL    HW135660   3.031   4.523   7.537 -2.2094 -1.1661 -1.0342
 8067SOL    HW235661   3.004   4.412   7.456  0.3605  1.8199 -1.7077
 8068SOL     OW35662   1.337   1.756   8.430 -0.5258 -0.1201 -0.0907
 8068SOL    HW135663   1.374   1.670   8.451  1.5471  0.8906  0.4839
 8068SOL    HW235664   1.308   1.789   8.515 -1.0920 -0.5130 -0.1302
 8069SOL     OW35665   3.074   3.021  16.376 -0.0895  0.0416 -0.3720
 8069SOL    HW135666   2.988   3.043  16.339  0.9128  0.7305 -2.3078
 8069SOL    HW235667   3.132   3.067  16.315  0.4367  1.3885  1.1540
 8070SOL     OW35668   3.102   2.985   4.113  0.1643 -0.1614  0.8520
 8070SOL    HW135669   3.107   2.896   4.150  1.5221 -0.0632  0.9266
 8070SOL    HW235670   3.187   3.013   4.147  0.0484 -1.8585  2.5550
 8071SOL     OW35671   0.716   3.828   3.829  0.2358  0.2018  0.3704
 8071SOL    HW135672   0.634   3.870   3.855 -0.8709 -1.2904 -0.6484
 8071SOL    HW235673   0.690   3.772   3.756  1.6311  1.7322 -1.3194
 8072SOL     OW35674   3.533   0.297   4.826  0.6891 -0.3277 -0.1339
 8072SOL    HW135675   3.481   0.309   4.747  0.1009 -1.2623  0.1159
 8072SOL    HW235676   3.471   0.237   4.868 -0.4250 -1.2460 -3.0938
 8073SOL     OW35677   0.216   3.817   8.748 -0.2647 -0.0724 -0.3197
 8073SOL    HW135678   0.218   3.821   8.653 -0.9471  1.1805 -0.2872
 8073SOL    HW235679   0.180   3.728   8.759 -1.5622  0.9667  3.8600
 8074SOL     OW35680   1.520   1.213   4.722  0.1076 -0.1876  0.1197
 8074SOL    HW135681   1.479   1.129   4.703  0.0125 -0.3181  0.8917
 8074SOL    HW235682   1.441   1.266   4.716  0.9089  1.1292  1.1517
 8075SOL     OW35683   3.600   1.929  14.634 -0.2506  0.4608 -0.3355
 8075SOL    HW135684   3.581   1.948  14.726 -0.9841 -2.9548  0.2060
 8075SOL    HW235685   3.600   2.017  14.596  0.6147 -0.2895 -2.0961
 8076SOL     OW35686   1.031   4.056   5.655  0.2118 -0.3053  0.6525
 8076SOL    HW135687   1.122   4.048   5.685 -0.3466 -2.3971  1.8115
 8076SOL    HW235688   0.981   4.067   5.735 -1.4719  0.4432 -0.5125
 8077SOL     OW35689   2.814   1.736   5.830  0.3722 -0.2011 -0.1752
 8077SOL    HW135690   2.864   1.685   5.766 -2.0254 -1.9956 -0.6151
 8077SOL    HW235691   2.724   1.732   5.799 -0.6141  0.2243  2.6609
 8078SOL     OW35692   2.051   2.676   8.313  0.0436 -0.5748  0.1230
 8078SOL    HW135693   2.045   2.611   8.383  1.0951 -0.1176  0.6254
 8078SOL    HW235694   1.984   2.737   8.343  1.0075  1.7307 -2.3516
 8079SOL     OW35695   3.973   0.836  11.732  0.3261 -0.3233  0.0828
 8079SOL    HW135696   3.988   0.761  11.789  0.7614  0.5366  1.1062
 8079SOL    HW235697   3.880   0.848  11.754 -0.0862 -0.5165 -1.5481
 8080SOL     OW35698   2.304   3.493   3.429 -0.4111  0.0310 -0.2370
 8080SOL    HW135699   2.288   3.512   3.337 -1.3350 -1.0252 -0.3050
 8080SOL    HW235700   2.374   3.429   3.416 -0.9152 -0.1248 -2.1405
 8081SOL     OW35701   3.452   4.142   4.789  0.1746  0.5441  0.0797
 8081SOL    HW135702   3.356   4.140   4.795  0.0512 -0.2731 -2.3428
 8081SOL    HW235703   3.483   4.053   4.807  0.3222  0.7780  1.0191
 8082SOL     OW35704   0.374   2.667   7.895 -0.0475 -0.4677 -0.0496
 8082SOL    HW135705   0.421   2.616   7.829  0.1729  1.2710 -1.2139
 8082SOL    HW235706   0.359   2.755   7.861 -1.0563 -0.7429 -0.3068
 8083SOL     OW35707   1.726   4.567  17.356 -0.2279  0.1072 -0.1172
 8083SOL    HW135708   1.809   4.522  17.341 -0.1294  0.7166 -1.3371
 8083SOL    HW235709   1.706   4.546  17.447 -1.6820 -0.5103 -0.5758
 8084SOL     OW35710   1.746   1.242   3.272 -0.2447 -0.3382  0.6090
 8084SOL    HW135711   1.766   1.160   3.229 -0.5913 -0.4608  0.6806
 8084SOL    HW235712   1.827   1.291   3.258  0.7997 -2.2792 -0.0725
 8085SOL     OW35713   2.085   1.917   3.573  0.7998 -0.4405 -0.0552
 8085SOL    HW135714   2.166   1.934   3.526 -0.2372 -1.1861 -2.0978
 8085SOL    HW235715   2.050   1.841   3.527 -1.6290 -0.4442  1.7417
 8086SOL     OW35716   0.333   2.931   2.922  0.1022  0.0703 -0.0609
 8086SOL    HW135717   0.341   2.928   2.827 -1.3683  0.3724 -0.1932
 8086SOL    HW235718   0.305   3.020   2.944  0.2067  0.8034 -2.9014
 8087SOL     OW35719   2.983   2.689   9.149 -0.7561 -0.0958 -0.6426
 8087SOL    HW135720   3.000   2.760   9.087  1.3041  1.0917  1.2999
 8087SOL    HW235721   2.972   2.612   9.094 -0.9177 -0.2449 -0.4012
 8088SOL     OW35722   4.155   3.983   3.655  0.0127 -0.6754 -0.1423
 8088SOL    HW135723   4.222   3.918   3.676  1.7745  1.2774  0.2723
 8088SOL    HW235724   4.214   4.055   3.676 -3.5650  2.3970 -0.6565
 8089SOL     OW35725   2.366   2.406   1.390  0.2864 -0.0187  0.1489
 8089SOL    HW135726   2.405   2.464   1.325 -0.8333 -0.3804 -0.8638
 8089SOL    HW235727   2.365   2.314   1.363  1.4164  0.8434 -2.7960
 8090SOL     OW35728   3.530   2.202  11.496 -0.5215 -0.4356 -0.0045
 8090SOL    HW135729   3.441   2.193  11.532 -0.8617  0.2009 -0.6782
 8090SOL    HW235730   3.520   2.272  11.432  0.8862 -0.3536 -0.1263
 8091SOL     OW35731   1.841   4.098   2.277  0.4027 -0.7812 -0.1590
 8091SOL    HW135732   1.836   4.188   2.245  0.8611 -0.3861  0.8742
 8091SOL    HW235733   1.751   4.065   2.278  0.5160 -1.1471 -1.3810
 8092SOL     OW35734   2.026   3.111  10.861 -0.0950 -0.1610 -0.8549
 8092SOL    HW135735   2.042   3.177  10.794  1.5022 -1.4213 -1.7058
 8092SOL    HW235736   2.097   3.052  10.834 -0.2134  0.2848 -2.1423
 8093SOL     OW35737   0.835   4.064   5.473  0.0652 -0.3296 -0.1252
 8093SOL    HW135738   0.891   4.062   5.550  0.7193 -3.1679 -0.6770
 8093SOL    HW235739   0.889   4.109   5.407  3.0943 -0.1140  2.5506
 8094SOL     OW35740   4.138   1.903   4.902  0.0735 -0.1354  0.5649
 8094SOL    HW135741   4.189   1.904   4.821 -0.9770 -1.0335 -0.1177
 8094SOL    HW235742   4.180   1.967   4.959  0.9399 -0.7286  0.5825
 8095SOL     OW35743   0.228   4.615  11.138 -0.8524 -0.0922 -0.7518
 8095SOL    HW135744   0.310   4.638  11.181 -1.1443 -0.7344  0.1398
 8095SOL    HW235745   0.168   4.651  11.204  0.3710  1.9112 -0.7169
 8096SOL     OW35746   1.368   0.268  14.890  0.3073  0.2315  0.0026
 8096SOL    HW135747   1.413   0.194  14.849  2.7228  0.7701  1.6581
 8096SOL    HW235748   1.300   0.283  14.825  3.1423  1.4442 -2.7022
 8097SOL     OW35749   1.673   2.034   7.450  0.0929  0.1171  0.1204
 8097SOL    HW135750   1.643   1.943   7.440  0.4612 -0.1902  1.7480
 8097SOL    HW235751   1.730   2.025   7.526  1.0744 -1.3699 -0.7979
 8098SOL     OW35752   0.069   3.158   3.295 -0.3811  0.2162  0.4929
 8098SOL    HW135753   0.007   3.105   3.245 -0.3660  1.1588 -0.5312
 8098SOL    HW235754   0.015   3.163   3.374  1.0610  0.0550  1.4891
 8099SOL     OW35755   3.790   0.267   2.777  0.3500 -0.1402 -0.0284
 8099SOL    HW135756   3.826   0.310   2.699  0.4623 -1.3723 -0.6562
 8099SOL    HW235757   3.835   0.328   2.835  3.4198 -1.8793 -0.5908
 8100SOL     OW35758   3.503   3.415  15.055  0.2234  0.4191  0.4875
 8100SOL    HW135759   3.579   3.413  14.998  0.3349  2.4391  0.5640
 8100SOL    HW235760   3.440   3.385  14.990  0.5614  1.0933 -0.1423
 8101SOL     OW35761   0.746   4.217   8.714 -0.2056  0.1914 -0.2524
 8101SOL    HW135762   0.669   4.228   8.657  1.3194 -0.6855 -2.4670
 8101SOL    HW235763   0.812   4.284   8.699  0.3905 -0.4864 -0.6428
 8102SOL     OW35764   2.462   4.449   5.291 -0.4900  0.0603 -0.2421
 8102SOL    HW135765   2.418   4.429   5.209  1.9314 -0.1583 -1.4856
 8102SOL    HW235766   2.550   4.418   5.270 -1.1163 -2.3668  0.6408
 8103SOL     OW35767   2.481   2.897  12.908 -0.2749 -0.8579  0.5687
 8103SOL    HW135768   2.515   2.912  12.997  4.6021 -2.5954 -1.0657
 8103SOL    HW235769   2.467   2.803  12.907  0.8254 -1.0143  0.4887
 8104SOL     OW35770   0.772   0.634  13.680 -0.2070 -0.1385  0.2116
 8104SOL    HW135771   0.741   0.702  13.620 -0.5290  0.0616  0.6041
 8104SOL    HW235772   0.689   0.589  13.694  0.0874 -1.5378 -2.6438
 8105SOL     OW35773   3.826   3.353  13.192  0.2248 -0.1949  0.9230
 8105SOL    HW135774   3.733   3.370  13.210  0.5926  0.8002  1.8572
 8105SOL    HW235775   3.844   3.437  13.149 -0.4084 -0.8581 -0.6763
 8106SOL     OW35776   0.766   2.879   3.885 -0.0874 -0.1927  0.0382
 8106SOL    HW135777   0.845   2.826   3.897 -0.5817 -0.4028  2.2878
 8106SOL    HW235778   0.747   2.882   3.979  1.2655  1.6358  0.2618
 8107SOL     OW35779   2.001   0.342   4.106  0.1010  0.5842 -0.2032
 8107SOL    HW135780   1.925   0.392   4.138  1.2684  1.7942  0.6425
 8107SOL    HW235781   1.965   0.306   4.025 -0.7708  0.9217  0.0321
 8108SOL     OW35782   1.139   2.922   6.269 -0.1952  0.1084  0.2187
 8108SOL    HW135783   1.089   3.001   6.247  1.3526  0.4180 -2.2924
 8108SOL    HW235784   1.230   2.951   6.278 -0.6421  1.2540  0.9785
 8109SOL     OW35785   2.463   0.728  13.062 -0.3113 -0.6887  0.5644
 8109SOL    HW135786   2.546   0.684  13.078 -0.3450 -0.2497  2.0099
 8109SOL    HW235787   2.491   0.803  13.010 -1.5720 -1.3197 -1.0310
 8110SOL     OW35788   3.084   2.236  15.010  0.1113  0.0057  0.8732
 8110SOL    HW135789   3.088   2.327  14.980  1.9043 -0.7511 -1.1773
 8110SOL    HW235790   3.004   2.200  14.972 -0.5764  0.2213  2.1054
 8111SOL     OW35791   4.425   2.941  10.266  0.5982  0.2177 -0.5279
 8111SOL    HW135792   4.485   3.004  10.305 -0.0740  1.7386 -1.9664
 8111SOL    HW235793   4.481   2.896  10.203 -0.3197 -0.0782 -1.1332
 8112SOL     OW35794   0.005   1.627   3.997  0.5694  0.0833 -0.6398
 8112SOL    HW135795   0.080   1.569   3.982 -0.3582 -1.3937  0.4642
 8112SOL    HW235796   0.056   1.696   4.039  0.9177  1.0950 -2.7426
 8113SOL     OW35797   0.246   3.514   6.072  0.0724  0.1446  0.4092
 8113SOL    HW135798   0.293   3.431   6.063  0.6088  0.1885  2.6017
 8113SOL    HW235799   0.190   3.495   6.147 -0.7741 -1.3743 -0.6205
 8114SOL     OW35800   3.087   2.588  16.732  0.2394  0.8494  0.1303
 8114SOL    HW135801   3.081   2.558  16.641  0.0728  2.3403 -0.3572
 8114SOL    HW235802   3.122   2.676  16.723  2.2407  0.1193  0.6743
 8115SOL     OW35803   1.553   3.915   0.533  0.6963  0.2803  0.2377
 8115SOL    HW135804   1.609   3.853   0.486 -0.0304  0.7072 -1.1756
 8115SOL    HW235805   1.587   3.907   0.623  1.0694  2.4300  0.2852
 8116SOL     OW35806   2.680   1.703   4.197 -0.1283 -0.4018 -0.4957
 8116SOL    HW135807   2.608   1.697   4.134  0.0003  1.7645 -0.8605
 8116SOL    HW235808   2.707   1.612   4.207  1.1491  0.1589  1.2232
 8117SOL     OW35809   1.508   2.883  17.292  0.0207  0.0889  0.5722
 8117SOL    HW135810   1.565   2.913  17.221 -1.8339  3.1027  0.3670
 8117SOL    HW235811   1.452   2.815  17.254 -0.6305  1.3989 -0.8351
 8118SOL     OW35812   4.391   4.164   4.534  0.3294 -0.0407  0.9716
 8118SOL    HW135813   4.451   4.170   4.459 -0.9923  0.5028 -0.0570
 8118SOL    HW235814   4.379   4.259   4.541  1.1613 -0.0533  2.5423
 8119SOL     OW35815   2.227   2.228   6.585 -0.1745  0.2260 -0.2737
 8119SOL    HW135816   2.267   2.159   6.636 -0.4578 -1.9250 -2.9667
 8119SOL    HW235817   2.168   2.280   6.640 -1.0856 -1.9059  0.7392
 8120SOL     OW35818   2.013   3.638   1.436  0.1876 -0.6463 -0.6288
 8120SOL    HW135819   2.104   3.663   1.448 -0.2596  0.2037  1.0249
 8120SOL    HW235820   1.999   3.667   1.346  2.5146  0.3757 -0.6586
 8121SOL     OW35821   4.390   4.268   4.936  0.0336  0.3440  0.0994
 8121SOL    HW135822   4.387   4.212   5.013  0.2422  0.3246  0.0917
 8121SOL    HW235823   4.443   4.212   4.879 -1.2617  0.9460 -1.6841
 8122SOL     OW35824   2.663   2.757   3.037  0.6844 -0.3344 -0.3786
 8122SOL    HW135825   2.732   2.819   3.011  1.5570 -1.4403 -0.7186
 8122SOL    HW235826   2.652   2.705   2.957 -3.6965  0.4650 -0.2545
 8123SOL     OW35827   4.246   2.465   0.654 -0.1951  0.1510 -0.2654
 8123SOL    HW135828   4.314   2.466   0.722  1.1007 -2.2111 -1.5384
 8123SOL    HW235829   4.172   2.426   0.701  0.5642 -0.1487  0.7011
 8124SOL     OW35830   0.037   1.858   6.322  0.3321  0.0876 -0.1801
 8124SOL    HW135831   0.027   1.788   6.387  2.1188 -0.2823 -0.3155
 8124SOL    HW235832   0.113   1.902   6.359  0.6544 -1.9890  1.6568
 8125SOL     OW35833   1.349   3.703  14.744  0.0377  0.9134  0.3562
 8125SOL    HW135834   1.364   3.753  14.664  0.4728  0.7382  0.3294
 8125SOL    HW235835   1.433   3.666  14.772 -0.8570 -0.4950  1.1281
 8126SOL     OW35836   3.122   3.336   7.673  0.1891  0.2863 -0.4454
 8126SOL    HW135837   3.189   3.268   7.663  0.1645  0.2675 -0.4833
 8126SOL    HW235838   3.091   3.343   7.583  0.6468 -0.4762 -0.6574
 8127SOL     OW35839   1.279   4.168  15.755 -0.2523 -0.1231 -0.1780
 8127SOL    HW135840   1.218   4.172  15.682 -0.4273 -1.1967 -0.0871
 8127SOL    HW235841   1.297   4.260  15.772  0.8414 -0.2831 -0.4627
 8128SOL     OW35842   4.538   2.324   1.620 -0.2333  0.1457 -0.1329
 8128SOL    HW135843   4.534   2.412   1.583  0.4352 -1.0045 -3.0129
 8128SOL    HW235844   4.497   2.270   1.552 -0.0139 -0.2026  0.0066
 8129SOL     OW35845   0.964   0.322   5.644 -0.5035  0.0466 -0.2925
 8129SOL    HW135846   0.916   0.293   5.567 -0.8563  0.0648 -0.0805
 8129SOL    HW235847   1.046   0.353   5.605  0.2325 -0.7075  0.6296
 8130SOL     OW35848   3.161   3.127  10.616 -0.5547 -0.1316 -0.5134
 8130SOL    HW135849   3.222   3.157  10.549 -0.9332  1.4907 -0.1309
 8130SOL    HW235850   3.200   3.050  10.658 -0.9017 -0.5150 -0.9011
 8131SOL     OW35851   1.174   4.090  16.259 -0.0682  0.3123 -0.4975
 8131SOL    HW135852   1.179   4.007  16.211 -1.6130  0.5385 -1.0405
 8131SOL    HW235853   1.181   4.162  16.197  3.3535  0.6712  0.3195
 8132SOL     OW35854   1.214   3.821   6.522  0.1299 -0.5979  0.1874
 8132SOL    HW135855   1.202   3.849   6.613  1.8675  0.9735 -0.0809
 8132SOL    HW235856   1.143   3.871   6.480 -1.2933 -2.2009  0.6601
 8133SOL     OW35857   0.373   1.444   3.711 -0.1508  0.0331 -0.5834
 8133SOL    HW135858   0.317   1.482   3.644 -1.0805 -1.1546 -0.4844
 8133SOL    HW235859   0.440   1.414   3.650  0.7651 -1.2778  1.0611
 8134SOL     OW35860   2.324   0.941  12.151 -0.4973 -0.9803  0.1648
 8134SOL    HW135861   2.411   0.938  12.190 -0.5004 -0.2367  0.2316
 8134SOL    HW235862   2.344   0.993  12.072 -1.8320  2.8857  2.3594
 8135SOL     OW35863   2.768   1.600   1.551 -1.0220 -0.5837  0.1154
 8135SOL    HW135864   2.823   1.678   1.561  0.3104 -1.2869 -1.6568
 8135SOL    HW235865   2.728   1.589   1.637  0.5694 -0.2971  0.8877
 8136SOL     OW35866   0.553   0.906   3.287  0.2278 -0.5386 -0.0248
 8136SOL    HW135867   0.645   0.898   3.260  0.2894  0.1045 -0.0138
 8136SOL    HW235868   0.519   0.851   3.216  0.2457 -0.0441 -0.4237
 8137SOL     OW35869   1.554   4.185   5.462 -0.2476 -0.0417 -1.0236
 8137SOL    HW135870   1.598   4.135   5.394  3.6326  0.7978  0.9200
 8137SOL    HW235871   1.463   4.158   5.448 -0.3469 -0.3962  0.3145
 8138SOL     OW35872   0.588   4.058  15.979  0.1167  0.0833 -0.2965
 8138SOL    HW135873   0.622   4.071  15.890  2.9021  1.0729  0.9044
 8138SOL    HW235874   0.497   4.083  15.963  0.2804  1.0577  0.2882
 8139SOL     OW35875   0.842   3.867  14.836  0.0665  0.1445 -1.0365
 8139SOL    HW135876   0.864   3.957  14.809 -0.4075  0.2627 -1.0235
 8139SOL    HW235877   0.750   3.873  14.862  0.6944  0.4179  1.0841
 8140SOL     OW35878   3.065   1.462   4.095 -0.0568  0.3192  0.1200
 8140SOL    HW135879   3.050   1.547   4.053  0.8023 -0.1382 -1.1108
 8140SOL    HW235880   2.982   1.460   4.143  1.6445 -1.5195  3.0320
 8141SOL     OW35881   3.646   1.118   6.503 -0.5063 -1.0031  0.0807
 8141SOL    HW135882   3.725   1.159   6.539 -0.3691  0.0449 -1.3955
 8141SOL    HW235883   3.667   1.026   6.514  2.1230 -0.2969  1.0444
 8142SOL     OW35884   2.755   1.201   0.936  0.1596 -0.7257 -0.7436
 8142SOL    HW135885   2.674   1.231   0.895 -0.7204 -0.7735  0.9664
 8142SOL    HW235886   2.817   1.255   0.886 -1.4523 -0.5991 -2.6158
 8143SOL     OW35887   0.564   3.532   4.081 -0.0683 -0.3812 -0.7587
 8143SOL    HW135888   0.625   3.481   4.028  1.7421 -0.5353  1.4213
 8143SOL    HW235889   0.607   3.592   4.143  0.6629 -0.8751 -0.7815
 8144SOL     OW35890   3.228   2.172   2.667  0.1960  0.3893  0.0394
 8144SOL    HW135891   3.264   2.218   2.743 -1.5135 -0.0991  1.1534
 8144SOL    HW235892   3.141   2.210   2.654  0.0357  0.5829  1.6629
 8145SOL     OW35893   4.463   1.778   4.871  0.0513  0.5217 -0.0010
 8145SOL    HW135894   4.474   1.720   4.796 -0.5318  0.5637 -0.1174
 8145SOL    HW235895   4.418   1.846   4.822  1.1581  0.3660 -1.2445
 8146SOL     OW35896   4.116   2.695   6.473 -0.5927  0.0068  0.2262
 8146SOL    HW135897   4.099   2.775   6.521  1.9683  1.6482 -1.5432
 8146SOL    HW235898   4.193   2.722   6.422  0.1061 -0.7532  0.8558
 8147SOL     OW35899   2.894   4.522   4.120  0.5797 -0.6236  0.0551
 8147SOL    HW135900   2.892   4.442   4.172  2.6167 -1.5636 -1.3060
 8147SOL    HW235901   2.966   4.500   4.062  1.2671 -1.9974  1.4538
 8148SOL     OW35902   2.583   2.019   2.273  0.0089 -0.3519 -0.5313
 8148SOL    HW135903   2.659   1.962   2.281  0.9386  1.1296  1.3586
 8148SOL    HW235904   2.533   1.996   2.351  1.8673  0.4006  0.8929
 8149SOL     OW35905   4.355   4.526  15.423  0.2683  0.2837  0.4533
 8149SOL    HW135906   4.421   4.594  15.410 -1.0618  1.5290  0.1337
 8149SOL    HW235907   4.285   4.555  15.364  1.3381  0.2082 -0.8525
 8150SOL     OW35908   3.299   1.459   6.365 -0.1929 -0.4717  0.1691
 8150SOL    HW135909   3.383   1.417   6.345  0.2056  0.7434 -0.6829
 8150SOL    HW235910   3.251   1.392   6.415 -0.2751 -0.9229 -0.5050
 8151SOL     OW35911   2.413   2.955   7.349 -0.5165  0.1618  0.2616
 8151SOL    HW135912   2.404   3.050   7.356  1.3810  0.4011 -0.5978
 8151SOL    HW235913   2.444   2.939   7.260 -0.8530  0.2524  0.1260
 8152SOL     OW35914   1.013   4.227   3.060  0.6631 -0.2057 -0.0196
 8152SOL    HW135915   0.966   4.144   3.074  0.8960 -0.7364 -2.3654
 8152SOL    HW235916   0.989   4.262   3.145  1.3528  0.6934 -0.2085
 8153SOL     OW35917   2.574   1.881   7.994  0.0837  0.1179  0.7382
 8153SOL    HW135918   2.641   1.816   8.015  0.8488  0.7637  0.3415
 8153SOL    HW235919   2.496   1.843   8.034  2.5306 -1.5320  3.9484
 8154SOL     OW35920   2.529   3.695   3.234  0.1961 -0.2593 -0.4401
 8154SOL    HW135921   2.590   3.755   3.191 -0.6163  0.4488 -0.6014
 8154SOL    HW235922   2.491   3.654   3.156  2.6336 -1.1073 -1.1926
 8155SOL     OW35923   3.735   1.311   3.951 -0.7071 -0.2833 -0.3130
 8155SOL    HW135924   3.684   1.373   3.899 -0.9343 -1.1033 -1.0712
 8155SOL    HW235925   3.680   1.302   4.028 -0.7528  0.8004 -0.2200
 8156SOL     OW35926   1.577   0.449   4.586 -0.6767 -0.9095 -0.3867
 8156SOL    HW135927   1.487   0.453   4.553 -0.9931 -4.7218 -0.0569
 8156SOL    HW235928   1.618   0.405   4.512  1.1987 -0.3124  0.3051
 8157SOL     OW35929   0.032   1.533   7.870  0.6094 -0.4236  0.0641
 8157SOL    HW135930   0.031   1.622   7.834 -2.4239 -1.8948 -3.5873
 8157SOL    HW235931   0.023   1.547   7.964  3.6491 -0.4314  0.3643
 8158SOL     OW35932   3.464   4.431  16.039  0.3851 -0.3207 -0.1606
 8158SOL    HW135933   3.383   4.446  16.087 -0.2135 -0.0699 -1.2641
 8158SOL    HW235934   3.532   4.490  16.071  0.9865 -0.2184 -1.6074
 8159SOL     OW35935   3.576   0.259  11.856 -0.6177 -0.5247  0.7980
 8159SOL    HW135936   3.630   0.338  11.856 -2.2297  0.5583  0.4208
 8159SOL    HW235937   3.522   0.269  11.778  0.9956 -0.9687 -0.3953
 8160SOL     OW35938   2.078   0.401  14.440  0.2720 -0.1718  0.5943
 8160SOL    HW135939   2.136   0.477  14.445  3.4246 -2.5936  1.0638
 8160SOL    HW235940   2.063   0.400  14.345 -0.3294 -1.4789  0.7027
 8161SOL     OW35941   1.836   1.474   3.975 -0.6133 -0.0916 -0.0375
 8161SOL    HW135942   1.782   1.402   3.944  1.0020 -0.1058 -2.8044
 8161SOL    HW235943   1.917   1.425   3.986 -2.5218 -3.2542 -0.2355
 8162SOL     OW35944   1.028   1.944   1.982 -0.8151 -0.0313  0.3604
 8162SOL    HW135945   1.093   1.881   2.013  1.5321  2.7637  1.1822
 8162SOL    HW235946   0.949   1.913   2.026 -1.3200  0.2679 -0.3187
 8163SOL     OW35947   2.748   0.099   8.758  0.1298  0.0038 -0.5052
 8163SOL    HW135948   2.782   0.029   8.703  1.4628 -0.3098  0.7356
 8163SOL    HW235949   2.798   0.092   8.839 -2.1509 -1.7781  0.7705
 8164SOL     OW35950   1.872   0.455  11.136 -0.4039 -0.1745  0.2632
 8164SOL    HW135951   1.948   0.499  11.100 -0.1302  0.0868  1.1557
 8164SOL    HW235952   1.831   0.533  11.174  0.9878  1.3219 -1.3489
 8165SOL     OW35953   3.456   3.131   4.829  0.5498 -0.1052  0.7025
 8165SOL    HW135954   3.370   3.163   4.855  1.4803  3.3441 -0.5207
 8165SOL    HW235955   3.465   3.184   4.750 -0.7107 -0.3016  0.4250
 8166SOL     OW35956   2.631   4.505   2.290  0.6137  0.5441 -0.4851
 8166SOL    HW135957   2.668   4.581   2.245 -2.6955  1.1832 -2.1042
 8166SOL    HW235958   2.688   4.503   2.367  1.4488 -1.7455 -1.1536
 8167SOL     OW35959   4.040   0.680   2.614  0.1879 -0.1330 -0.1141
 8167SOL    HW135960   4.052   0.588   2.591  0.4833 -0.1006 -0.0826
 8167SOL    HW235961   3.945   0.681   2.602  0.4034  0.0655 -1.7647
 8168SOL     OW35962   4.306   3.589   7.925  0.0442 -0.1696 -0.0732
 8168SOL    HW135963   4.234   3.652   7.920 -1.5316 -1.8929  1.0346
 8168SOL    HW235964   4.259   3.520   7.972  2.6302 -1.2242  0.9621
 8169SOL     OW35965   2.786   3.290   6.854  0.1236 -0.2354  0.0397
 8169SOL    HW135966   2.736   3.231   6.797 -1.8523  0.2510  1.2494
 8169SOL    HW235967   2.724   3.362   6.866  0.0277  0.0723 -2.1872
 8170SOL     OW35968   4.470   3.583   3.050 -0.0488  0.1138  0.2437
 8170SOL    HW135969   4.400   3.646   3.033 -0.4768 -0.4221  0.0135
 8170SOL    HW235970   4.528   3.583   2.973  0.6677 -2.6945  0.7678
 8171SOL     OW35971   0.463   0.738   3.089  0.4023 -0.1487  0.2130
 8171SOL    HW135972   0.418   0.758   3.007  1.2524 -2.2474 -0.7721
 8171SOL    HW235973   0.461   0.643   3.077  0.6390  0.0224 -1.2588
 8172SOL     OW35974   1.712   3.604   6.290  0.3576  0.2962  0.2649
 8172SOL    HW135975   1.664   3.560   6.220  1.3579 -1.0635  0.4468
 8172SOL    HW235976   1.646   3.596   6.360  0.2504 -0.2534  0.1052
 8173SOL     OW35977   3.754   4.134   4.062  0.4911 -0.0773 -0.6104
 8173SOL    HW135978   3.740   4.157   3.971  0.8210 -0.4001 -0.7424
 8173SOL    HW235979   3.666   4.138   4.100  0.3814 -2.2350 -0.6401
 8174SOL     OW35980   4.175   2.174   0.197 -0.6595  0.0173  0.1291
 8174SOL    HW135981   4.127   2.125   0.264  2.2104 -2.8330  0.0761
 8174SOL    HW235982   4.099   2.223   0.166 -0.6197  0.4555  0.7469
 8175SOL     OW35983   1.760   2.078  15.019  0.2112  0.4758 -0.1054
 8175SOL    HW135984   1.818   2.116  15.085  0.1541 -1.9431  1.3163
 8175SOL    HW235985   1.743   2.158  14.969 -0.2284 -1.3879 -2.8910
 8176SOL     OW35986   2.766   1.058  15.979  0.1349 -0.3336  0.0443
 8176SOL    HW135987   2.795   1.118  15.911  2.1989 -1.6102 -0.1997
 8176SOL    HW235988   2.792   1.109  16.056 -1.8591  2.0928 -0.8787
 8177SOL     OW35989   4.648   3.061   5.269  0.3290  0.0655  0.3330
 8177SOL    HW135990   4.681   3.106   5.191 -1.1791  0.3152 -0.1525
 8177SOL    HW235991   4.555   3.082   5.262 -0.0139 -1.1393  1.3376
 8178SOL     OW35992   1.868   3.498   7.178 -0.7176  0.5739 -0.2510
 8178SOL    HW135993   1.885   3.590   7.157 -1.5625  1.0248  1.0223
 8178SOL    HW235994   1.784   3.510   7.223 -0.4564 -0.6352  0.5704
 8179SOL     OW35995   1.102   2.430   5.714 -0.0305  0.2042 -0.9129
 8179SOL    HW135996   1.012   2.399   5.727  0.2043 -0.3073 -0.5014
 8179SOL    HW235997   1.094   2.462   5.624 -0.1714  1.8107 -0.3246
 8180SOL     OW35998   4.263   0.046   5.124  0.6195 -0.0669  0.2040
 8180SOL    HW135999   4.339   0.093   5.158  0.7193 -1.1809  1.5355
 8180SOL    HW236000   4.254   0.092   5.041  0.4291 -1.9230 -0.7965
 8181SOL     OW36001   4.289   0.847  15.934 -0.5102  0.0130  0.1110
 8181SOL    HW136002   4.257   0.757  15.941 -0.2795 -0.0779 -0.0249
 8181SOL    HW236003   4.320   0.861  16.023  2.0077  1.5167 -1.0044
 8182SOL     OW36004   1.417   0.444  14.500  0.6865  0.1377  0.2073
 8182SOL    HW136005   1.486   0.391  14.539  0.4409 -2.2457 -2.6343
 8182SOL    HW236006   1.424   0.431  14.406  1.0790  1.8733  0.0142
 8183SOL     OW36007   2.922   2.172   3.368 -0.3403  0.0981 -0.3189
 8183SOL    HW136008   2.920   2.267   3.373  2.0484  0.1300  0.2809
 8183SOL    HW236009   2.876   2.164   3.284 -0.5347 -3.0151  0.0690
 8184SOL     OW36010   0.492   3.991   4.391  0.2901 -0.5231  0.2484
 8184SOL    HW136011   0.488   4.004   4.486  0.1486 -1.9557  0.4348
 8184SOL    HW236012   0.582   3.970   4.366  0.8968  1.8820  0.3183
 8185SOL     OW36013   2.261   3.730   1.225 -0.8821  0.0459  0.5735
 8185SOL    HW136014   2.326   3.729   1.295  0.5463 -0.9899 -0.7659
 8185SOL    HW236015   2.257   3.635   1.219 -0.3093 -0.0251  1.2824
 8186SOL     OW36016   0.749   0.568   0.212 -0.3066  0.0273 -0.4588
 8186SOL    HW136017   0.705   0.649   0.239  1.6120 -0.2244  3.5045
 8186SOL    HW236018   0.719   0.515   0.287 -2.0519  1.4319 -0.1567
 8187SOL     OW36019   2.548   4.610   7.632 -0.6434  0.0812 -0.5283
 8187SOL    HW136020   2.487   4.683   7.645 -2.7214 -1.1242 -3.5681
 8187SOL    HW236021   2.549   4.569   7.718  2.1442 -0.4296 -0.7962
 8188SOL     OW36022   2.070   1.959   5.772 -0.1045 -0.0671  0.0129
 8188SOL    HW136023   2.114   1.993   5.850  0.1336  2.6020 -1.3002
 8188SOL    HW236024   2.146   1.948   5.715  0.6204  1.5143  0.6733
 8189SOL     OW36025   2.214   2.880   7.750  0.3571 -0.3562 -0.0489
 8189SOL    HW136026   2.233   2.903   7.841 -1.7702 -1.0962  0.5747
 8189SOL    HW236027   2.193   2.968   7.717 -0.0380  0.1726  1.5977
 8190SOL     OW36028   2.565   1.843  11.368 -0.4767  0.3818 -0.4679
 8190SOL    HW136029   2.485   1.833  11.317 -0.5901 -3.1307  0.4012
 8190SOL    HW236030   2.624   1.873  11.299  2.2247 -2.2754  0.6529
 8191SOL     OW36031   0.533   4.467  13.138 -0.3246 -0.0157 -0.2882
 8191SOL    HW136032   0.438   4.466  13.146 -0.0984 -1.9094  2.3919
 8191SOL    HW236033   0.548   4.547  13.187 -0.8275  0.9898 -1.7944
 8192SOL     OW36034   2.612   1.669   5.189 -0.2208  0.3342  0.0739
 8192SOL    HW136035   2.698   1.629   5.174  0.8078  3.1562 -1.6412
 8192SOL    HW236036   2.628   1.762   5.177 -0.4783  0.3663 -0.0185
 8193SOL     OW36037   0.018   0.999   6.039  0.1950 -0.0175 -0.0156
 8193SOL    HW136038   0.011   0.977   5.946 -0.4040  0.3883 -0.0580
 8193SOL    HW236039   4.690   0.928   6.074  0.4578 -0.0503  0.3272
 8194SOL     OW36040   2.029   3.774   6.380  0.4041 -0.9060  0.2309
 8194SOL    HW136041   1.990   3.721   6.310  0.2102 -0.7839  0.2468
 8194SOL    HW236042   1.950   3.804   6.424 -0.3588  0.7381 -2.2757
 8195SOL     OW36043   4.385   4.433   4.559  0.3520 -0.2718 -0.1693
 8195SOL    HW136044   4.340   4.492   4.619 -2.1559 -1.8007 -0.5319
 8195SOL    HW236045   4.431   4.501   4.510  1.1165  0.4316  1.5274
 8196SOL     OW36046   2.121   0.039   0.615  0.0301  0.2150 -0.0303
 8196SOL    HW136047   2.144   0.081   0.699 -1.0823 -1.6519  1.2117
 8196SOL    HW236048   2.031   0.026   0.644  0.2207 -0.5649  0.2014
 8197SOL     OW36049   3.269   3.817   1.499 -0.1876 -0.9184  0.3693
 8197SOL    HW136050   3.219   3.899   1.501 -1.0289 -1.3749 -2.0556
 8197SOL    HW236051   3.205   3.758   1.461 -0.1217 -2.3527  2.4798
 8198SOL     OW36052   4.390   0.769   6.569 -0.0678 -0.0705  0.1176
 8198SOL    HW136053   4.346   0.712   6.505 -4.3270  2.0053  1.1907
 8198SOL    HW236054   4.353   0.855   6.551  1.0398  0.0094 -1.8587
 8199SOL     OW36055   0.172   2.827   5.583 -0.2312 -0.2076  0.5258
 8199SOL    HW136056   0.171   2.833   5.487  0.6185 -1.0738  0.4606
 8199SOL    HW236057   0.194   2.917   5.604  2.5494 -0.8304  0.2549
 8200SOL     OW36058   2.204   0.058  17.631 -0.3190  0.2560  0.5318
 8200SOL    HW136059   2.213   4.695  17.665 -1.7344  0.1436  0.6126
 8200SOL    HW236060   2.115   0.056  17.597  0.3714  0.0717 -1.2578
 8201SOL     OW36061   2.806   0.085   4.116  0.2621 -0.0424 -0.1518
 8201SOL    HW136062   2.738   0.055   4.176  0.5446 -0.7579 -0.1840
 8201SOL    HW236063   2.883   0.052   4.161  0.8162  1.0952 -0.2678
 8202SOL     OW36064   3.063   3.698  14.273 -0.1820  0.9606  0.1157
 8202SOL    HW136065   3.125   3.702  14.346 -0.2064  0.7217  0.1468
 8202SOL    HW236066   3.096   3.773  14.223 -0.1816  1.6128  1.0862
 8203SOL     OW36067   1.216   2.798   6.597 -0.0911 -0.2406  0.2756
 8203SOL    HW136068   1.223   2.752   6.681 -1.4397 -2.6435 -0.9336
 8203SOL    HW236069   1.123   2.815   6.586 -0.1567 -0.1161  0.9996
 8204SOL     OW36070   4.216   1.146   5.272  0.2948 -0.5326 -0.3235
 8204SOL    HW136071   4.303   1.145   5.233  0.2445 -1.4889 -0.4050
 8204SOL    HW236072   4.235   1.170   5.362 -0.2555 -0.1146 -0.3149
 8205SOL     OW36073   3.577   2.247   2.610  0.1388 -0.4106  0.0092
 8205SOL    HW136074   3.485   2.273   2.610  0.6190  1.2604  0.4298
 8205SOL    HW236075   3.573   2.157   2.644 -0.3770  0.1929  1.5431
 8206SOL     OW36076   4.125   3.447   5.260 -0.1677 -0.7529  0.1013
 8206SOL    HW136077   4.088   3.496   5.187 -1.4079  1.1832  2.0208
 8206SOL    HW236078   4.152   3.366   5.217  0.1655 -1.6978  2.0755
 8207SOL     OW36079   2.516   3.250   7.474 -0.0241 -0.0062 -0.1534
 8207SOL    HW136080   2.542   3.324   7.530 -0.8025 -0.5873  0.9544
 8207SOL    HW236081   2.598   3.242   7.426  0.1519 -0.9401  0.3232
 8208SOL     OW36082   1.280   0.156  10.797 -0.1254 -0.3568 -0.0209
 8208SOL    HW136083   1.243   0.233  10.840  0.3486 -0.0427 -0.1795
 8208SOL    HW236084   1.210   0.093  10.817 -0.4454  0.1114  0.3089
 8209SOL     OW36085   3.439   4.452   2.733 -0.4402 -0.3640 -0.1151
 8209SOL    HW136086   3.433   4.481   2.642 -0.3630  1.0060  0.3196
 8209SOL    HW236087   3.533   4.456   2.747 -0.3571 -0.2583 -0.7001
 8210SOL     OW36088   2.978   0.192   2.129 -0.2777  0.5466  0.0457
 8210SOL    HW136089   2.969   0.272   2.078  0.9009  1.3218  1.0301
 8210SOL    HW236090   3.032   0.223   2.203 -1.5221  0.4898  0.9852
 8211SOL     OW36091   3.432   0.900   4.635 -0.6567 -0.2244 -0.0609
 8211SOL    HW136092   3.491   0.847   4.581  0.6063 -0.2655  1.3553
 8211SOL    HW236093   3.497   0.944   4.690 -0.1994  0.3608 -1.0798
 8212SOL     OW36094   2.679   2.622   2.771  0.1089  0.7825  0.1955
 8212SOL    HW136095   2.599   2.656   2.733 -0.3118 -0.3973  0.0144
 8212SOL    HW236096   2.680   2.543   2.716  2.6487  0.0500  1.2455
 8213SOL     OW36097   2.974   1.200  16.610  0.1902 -0.4920  0.7593
 8213SOL    HW136098   3.038   1.268  16.630 -2.3210  1.9347  0.4640
 8213SOL    HW236099   2.966   1.202  16.514  2.2584  1.7848  0.6430
 8214SOL     OW36100   1.187   2.025  14.753 -0.3227 -0.3726 -0.1807
 8214SOL    HW136101   1.127   2.097  14.732  0.4948 -0.0788 -1.5444
 8214SOL    HW236102   1.237   2.013  14.672 -1.8845  1.0404 -1.3457
 8215SOL     OW36103   4.430   0.134   6.871 -0.0779 -0.0247 -0.5570
 8215SOL    HW136104   4.433   0.059   6.930  0.8117 -0.5318 -1.2477
 8215SOL    HW236105   4.348   0.170   6.904 -0.7300 -0.3823 -1.8060
 8216SOL     OW36106   3.640   4.497   5.543  0.0437  0.0324 -0.1656
 8216SOL    HW136107   3.634   4.527   5.452 -1.9248  1.2625  0.3697
 8216SOL    HW236108   3.675   4.576   5.584 -1.5165 -0.1962  1.5686
 8217SOL     OW36109   3.404   2.068  11.171 -0.6693 -0.1524 -0.5141
 8217SOL    HW136110   3.355   2.148  11.189  0.1959 -0.3104  2.4493
 8217SOL    HW236111   3.382   2.015  11.247  2.9586 -2.3160 -0.9772
 8218SOL     OW36112   2.873   0.576   4.451 -0.3218 -0.0361 -0.1552
 8218SOL    HW136113   2.865   0.576   4.547 -2.2189  1.0919 -0.3116
 8218SOL    HW236114   2.908   0.487   4.440  1.8544  0.7270  0.4973
 8219SOL     OW36115   1.156   3.454   9.000  0.0637  0.0139 -0.1808
 8219SOL    HW136116   1.202   3.484   8.921 -0.1223  0.7170 -0.0268
 8219SOL    HW236117   1.124   3.376   8.956 -1.2229 -0.2398  1.2272
 8220SOL     OW36118   1.323   3.692   1.113  0.6523  0.2644 -0.5130
 8220SOL    HW136119   1.380   3.647   1.175  0.2550 -0.2033 -0.4878
 8220SOL    HW236120   1.287   3.763   1.165  0.4468 -0.9282  0.9554
 8221SOL     OW36121   4.162   3.674   1.720 -0.5022  0.2829  1.1326
 8221SOL    HW136122   4.183   3.689   1.628 -0.0269 -1.0612  1.0222
 8221SOL    HW236123   4.190   3.584   1.737 -0.7416 -0.4119 -2.2904
 8222SOL     OW36124   2.404   1.164   4.510 -0.2233  0.3468 -0.4173
 8222SOL    HW136125   2.353   1.203   4.580 -2.2050 -3.0640  0.0076
 8222SOL    HW236126   2.348   1.087   4.498 -1.4342  1.1856 -0.1055
 8223SOL     OW36127   1.102   2.740  10.481 -0.0515  0.1165 -0.4504
 8223SOL    HW136128   1.120   2.655  10.440 -1.9691 -1.2089  1.4709
 8223SOL    HW236129   1.143   2.730  10.567 -1.5441 -0.6941  0.1622
 8224SOL     OW36130   2.637   3.640   2.440  0.2236 -0.1351 -0.0499
 8224SOL    HW136131   2.722   3.667   2.406  0.0640 -0.7173 -0.9161
 8224SOL    HW236132   2.577   3.669   2.371  1.3035 -0.1006 -0.9767
 8225SOL     OW36133   4.167   1.849  11.530  0.6381  0.0458 -0.4809
 8225SOL    HW136134   4.255   1.887  11.539  0.1112  0.9421  0.9276
 8225SOL    HW236135   4.115   1.918  11.573 -1.1398 -0.2284 -2.1974
 8226SOL     OW36136   2.490   1.811  11.635 -0.2096 -0.4866 -0.0530
 8226SOL    HW136137   2.567   1.813  11.692 -0.8238 -2.4525  0.8263
 8226SOL    HW236138   2.535   1.820  11.551 -1.3558  1.8501 -0.4233
 8227SOL     OW36139   0.128   4.717   2.403 -0.1722  0.1037 -0.2664
 8227SOL    HW136140   0.198   4.658   2.375 -0.7695 -1.1513  0.9183
 8227SOL    HW236141   0.169   0.059   2.457  1.2377  0.0532 -1.2871
 8228SOL     OW36142   0.655   2.800   7.761  0.6238  0.4053  0.1787
 8228SOL    HW136143   0.739   2.842   7.775  1.3708  0.0952 -3.3604
 8228SOL    HW236144   0.681   2.767   7.676 -2.2308  2.8615 -1.6546
 8229SOL     OW36145   4.528   1.798   7.676  0.3860  0.0104  0.1777
 8229SOL    HW136146   4.523   1.741   7.752  1.2114 -3.9144 -2.6907
 8229SOL    HW236147   4.600   1.855   7.699  2.2843 -2.1621 -0.3884
 8230SOL     OW36148   0.644   0.388  11.216  0.1570 -0.4836 -0.5375
 8230SOL    HW136149   0.586   0.366  11.290  2.5093  0.2433  1.5234
 8230SOL    HW236150   0.711   0.433  11.267  0.7084 -2.9685  0.9412
 8231SOL     OW36151   3.827   2.741   8.451  0.1294  0.0845  0.7853
 8231SOL    HW136152   3.906   2.705   8.411 -0.6597 -1.1156  0.3233
 8231SOL    HW236153   3.843   2.830   8.418 -0.2510  0.2787  1.1089
 8232SOL     OW36154   0.054   0.257  15.511 -0.1777  0.2062 -0.2492
 8232SOL    HW136155   0.128   0.210  15.549 -1.0493 -0.5638  0.4866
 8232SOL    HW236156   0.054   0.216  15.424 -1.3367  0.7786 -0.5236
 8233SOL     OW36157   1.668   3.821  17.270 -0.4124 -0.3620 -0.1908
 8233SOL    HW136158   1.632   3.756  17.209  0.4050 -1.4533  0.4971
 8233SOL    HW236159   1.586   3.869  17.278  1.1044  2.3902 -1.2123
 8234SOL     OW36160   0.500   1.262   5.549  0.2628 -0.1733  0.6708
 8234SOL    HW136161   0.488   1.354   5.524  2.8391 -0.0203  0.0581
 8234SOL    HW236162   0.467   1.213   5.474 -0.1645  4.0672 -1.8633
 8235SOL     OW36163   1.218   3.375   5.914 -0.0545 -0.0502 -0.4769
 8235SOL    HW136164   1.306   3.404   5.890  1.1394 -3.2649 -0.0488
 8235SOL    HW236165   1.223   3.401   6.006 -0.0025 -0.0965 -0.4662
 8236SOL     OW36166   2.120   2.055   2.731  0.1008 -0.0831  0.5602
 8236SOL    HW136167   2.045   2.006   2.700 -0.0485  0.2651  0.3720
 8236SOL    HW236168   2.153   2.001   2.803  1.9883 -1.2186 -1.1549
 8237SOL     OW36169   2.171   2.269   7.102 -0.2796  0.1772 -0.7763
 8237SOL    HW136170   2.086   2.280   7.059 -0.1955  1.2325 -0.6562
 8237SOL    HW236171   2.224   2.236   7.029 -0.0430  0.5429 -0.7679
 8238SOL     OW36172   3.179   0.200   2.845 -0.1575  0.3722 -1.0276
 8238SOL    HW136173   3.185   0.106   2.860  0.7421  0.4840 -0.6768
 8238SOL    HW236174   3.273   0.219   2.849 -0.9981  3.6183  3.3087
 8239SOL     OW36175   3.466   3.747   5.365 -0.4975  0.0947  0.0017
 8239SOL    HW136176   3.442   3.681   5.299 -0.5411 -0.8725  0.9789
 8239SOL    HW236177   3.562   3.740   5.367 -0.4019  1.7517  0.4841
 8240SOL     OW36178   0.504   4.521   5.363 -0.0547 -0.2486  0.0123
 8240SOL    HW136179   0.414   4.529   5.331  0.4880  2.9772 -0.7669
 8240SOL    HW236180   0.509   4.428   5.384  1.0561  0.0009  0.8537
 8241SOL     OW36181   1.642   0.243   8.976  0.7976  0.0896 -0.6457
 8241SOL    HW136182   1.547   0.235   8.986  0.9850 -1.7709 -0.2242
 8241SOL    HW236183   1.660   0.248   8.882 -0.0895  1.2564 -0.7439
 8242SOL     OW36184   3.528   4.238   2.455 -1.2207  0.1479  0.0706
 8242SOL    HW136185   3.437   4.220   2.433 -1.1319  1.4078 -1.2638
 8242SOL    HW236186   3.556   4.322   2.419  0.9875  0.1866  1.8660
 8243SOL     OW36187   2.662   0.372   3.485 -0.1434  0.0143  0.1926
 8243SOL    HW136188   2.655   0.430   3.561 -0.0811 -0.3635  0.4840
 8243SOL    HW236189   2.728   0.419   3.435 -0.5597 -2.0182 -2.2488
 8244SOL     OW36190   4.687   1.468   2.030 -0.3148 -0.1358 -0.1814
 8244SOL    HW136191   4.708   1.429   2.115  1.9454  0.3057 -0.5478
 8244SOL    HW236192   0.045   1.462   1.985  0.4109 -1.6799  1.3866
 8245SOL     OW36193   0.775   1.089   4.708  0.0133  0.0834  0.3401
 8245SOL    HW136194   0.761   0.995   4.717  0.5842 -0.0847 -0.5512
 8245SOL    HW236195   0.860   1.092   4.665  0.0189 -1.6384  0.2303
 8246SOL     OW36196   0.907   1.549   2.055 -1.0033 -0.0829 -0.3624
 8246SOL    HW136197   0.967   1.609   2.100 -2.7449  2.8578 -1.9782
 8246SOL    HW236198   0.828   1.572   2.105  0.4507 -1.4452  2.5125
 8247SOL     OW36199   3.639   0.350   2.343 -0.7885 -0.0738  0.1065
 8247SOL    HW136200   3.720   0.338   2.393 -0.7962  0.7035  0.3104
 8247SOL    HW236201   3.684   0.424   2.300  0.3143 -0.6387  0.2788
 8248SOL     OW36202   0.029   1.015   4.824  0.1678  0.2145 -0.1778
 8248SOL    HW136203   4.710   0.943   4.780  1.5187 -1.0788  0.5779
 8248SOL    HW236204   0.038   1.078   4.752  1.4582 -0.1349 -0.3150
 8249SOL     OW36205   3.255   0.317   7.292  0.5255 -0.1168 -0.1307
 8249SOL    HW136206   3.229   0.277   7.375  0.4139 -2.5069 -1.3095
 8249SOL    HW236207   3.293   0.402   7.315 -1.9319  1.0024 -0.1511
 8250SOL     OW36208   1.752   2.282  16.764  0.5936  0.0238 -0.0419
 8250SOL    HW136209   1.736   2.189  16.779 -1.3901  0.8280  2.9749
 8250SOL    HW236210   1.843   2.277  16.736  0.8575  0.2364  0.7737
 8251SOL     OW36211   1.293   0.750   8.804  0.4642 -0.6682 -0.4627
 8251SOL    HW136212   1.269   0.838   8.833  4.7066  0.5696 -0.6814
 8251SOL    HW236213   1.373   0.742   8.855  0.0473  0.3471  0.3391
 8252SOL     OW36214   2.371   4.161   3.208  0.3290  0.1519  0.1919
 8252SOL    HW136215   2.291   4.212   3.196  0.7098 -0.0110 -2.8589
 8252SOL    HW236216   2.440   4.227   3.202 -0.9763  1.6938  1.9974
 8253SOL     OW36217   1.861   2.399   1.454 -0.5523 -0.4027 -0.3670
 8253SOL    HW136218   1.791   2.456   1.424 -1.4619 -2.5566 -2.3726
 8253SOL    HW236219   1.929   2.433   1.396 -0.0184 -0.3175  0.3093
 8254SOL     OW36220   3.571   1.158   9.226  0.4969  0.2165 -0.1036
 8254SOL    HW136221   3.608   1.187   9.309  1.5132 -1.3568  0.0015
 8254SOL    HW236222   3.514   1.228   9.194  1.1389  1.6311  1.8423
 8255SOL     OW36223   2.816   1.533   6.538  0.3439  0.3827 -0.1030
 8255SOL    HW136224   2.907   1.551   6.517 -0.1862  3.1697 -0.0099
 8255SOL    HW236225   2.794   1.475   6.465 -1.6273  0.9183  0.0651
 8256SOL     OW36226   2.822   2.874   5.551 -0.4179 -0.5347  0.1525
 8256SOL    HW136227   2.829   2.780   5.564 -0.1053 -0.2546  2.0462
 8256SOL    HW236228   2.833   2.904   5.641  2.6654  1.0673 -0.7495
 8257SOL     OW36229   3.350   0.280   3.855 -0.2544 -0.6246  0.3941
 8257SOL    HW136230   3.364   0.296   3.948 -0.8170 -3.7984  1.0001
 8257SOL    HW236231   3.400   0.200   3.841 -1.3238 -0.8141 -2.4875
 8258SOL     OW36232   3.055   0.906   9.268 -0.2488  0.4834 -0.5718
 8258SOL    HW136233   3.056   0.977   9.332  1.5112 -0.8278  0.8859
 8258SOL    HW236234   3.146   0.912   9.237 -0.5289 -0.0415 -1.5048
 8259SOL     OW36235   1.107   4.678   4.001  1.0087  0.3634  0.2373
 8259SOL    HW136236   1.044   0.004   3.951  1.5207  0.4839 -0.2723
 8259SOL    HW236237   1.055   4.604   4.035 -1.6275  2.0815 -0.0009
 8260SOL     OW36238   2.153   1.529   3.389 -0.0210 -0.1049  0.2197
 8260SOL    HW136239   2.106   1.446   3.396  0.0233 -0.1919 -0.4887
 8260SOL    HW236240   2.192   1.514   3.303  3.1814  3.7700  1.0151
 8261SOL     OW36241   1.444   3.831   1.887  0.6619  1.0201 -0.7649
 8261SOL    HW136242   1.452   3.870   1.800  0.0350  2.4567 -0.1803
 8261SOL    HW236243   1.456   3.909   1.942 -2.1553 -0.8422  2.5586
 8262SOL     OW36244   4.254   1.941   2.864 -0.0222  0.7185  0.0663
 8262SOL    HW136245   4.206   2.016   2.898  2.1896  0.3952  3.7734
 8262SOL    HW236246   4.279   1.885   2.937  3.1010 -1.6942 -2.8810
 8263SOL     OW36247   3.565   0.376   0.252  0.3010 -0.5481  0.5240
 8263SOL    HW136248   3.491   0.437   0.247  0.3170 -0.6484 -1.0370
 8263SOL    HW236249   3.579   0.349   0.342  1.4813 -0.3555  0.3952
 8264SOL     OW36250   3.403   4.619   0.131  0.1484  0.3279 -0.1318
 8264SOL    HW136251   3.475   4.682   0.142  1.6270 -0.9657 -2.3106
 8264SOL    HW236252   3.410   4.583   0.219  0.8864 -2.1193 -1.1782
 8265SOL     OW36253   4.071   1.093  13.125 -0.1203  0.3753  0.3247
 8265SOL    HW136254   4.063   1.000  13.105 -1.4720  0.2002  1.6149
 8265SOL    HW236255   4.160   1.085  13.159 -0.3584  1.1315  1.1252
 8266SOL     OW36256   3.110   0.000  10.790  0.1231 -0.4596  0.2256
 8266SOL    HW136257   3.074   4.689  10.710 -2.3900  2.1390  0.1062
 8266SOL    HW236258   3.032   0.040  10.829 -0.9839 -1.2333 -1.1904
 8267SOL     OW36259   2.777   2.669   6.890 -0.0898 -0.0355 -0.1820
 8267SOL    HW136260   2.812   2.629   6.970  1.1531  1.2904 -0.0627
 8267SOL    HW236261   2.861   2.683   6.846  0.0368 -1.4940 -0.3953
 8268SOL     OW36262   2.609   4.501  17.572 -0.6282  0.1582 -0.1040
 8268SOL    HW136263   2.539   4.565  17.562 -0.3930  0.3669 -0.4148
 8268SOL    HW236264   2.555   4.423  17.582 -0.0121 -0.4344 -1.4034
 8269SOL     OW36265   0.688   0.832  16.427  0.2765  0.1062 -0.0580
 8269SOL    HW136266   0.697   0.740  16.402  2.0163  0.5395 -1.0612
 8269SOL    HW236267   0.604   0.822  16.470 -0.0858  1.3666 -0.4849
 8270SOL     OW36268   3.570   3.079   8.051 -0.1085  0.3915  0.2063
 8270SOL    HW136269   3.634   3.057   7.983 -0.5903  0.7355 -0.3589
 8270SOL    HW236270   3.559   2.996   8.097 -2.4906  1.1519  0.9960
 8271SOL     OW36271   4.546   3.944   5.799  0.1024  0.6101  0.3026
 8271SOL    HW136272   4.518   3.991   5.721 -1.2060  2.2761  1.7801
 8271SOL    HW236273   4.594   3.874   5.755 -1.5903 -0.2290 -0.2149
 8272SOL     OW36274   0.949   1.775  16.675  0.5008  0.3637 -0.0261
 8272SOL    HW136275   0.878   1.824  16.715  0.5499  0.8915 -0.5868
 8272SOL    HW236276   0.953   1.689  16.716  1.5618  1.2037  1.6237
 8273SOL     OW36277   4.576   2.777   7.695  0.6750 -0.2372 -0.0188
 8273SOL    HW136278   4.555   2.862   7.732 -1.0847 -0.5062 -0.4230
 8273SOL    HW236279   4.664   2.765   7.732  0.6523  0.7034  0.3231
 8274SOL     OW36280   3.024   0.904  11.871 -0.5082 -0.8178  0.5987
 8274SOL    HW136281   2.999   0.823  11.827  2.5236 -2.3591  1.7396
 8274SOL    HW236282   3.086   0.941  11.808 -2.2166 -0.0049 -0.6278
 8275SOL     OW36283   4.000   0.982   5.313 -0.1856  0.3973  0.1141
 8275SOL    HW136284   4.086   1.025   5.309  0.4301 -0.9116 -0.4980
 8275SOL    HW236285   4.020   0.894   5.344 -0.3703  1.0760  2.1813
 8276SOL     OW36286   0.099   0.279   3.928  0.4910  0.0263 -0.0932
 8276SOL    HW136287   0.110   0.297   3.835 -0.1201  0.8351 -0.0065
 8276SOL    HW236288   0.121   0.365   3.963  2.2530 -0.4908  0.0847
 8277SOL     OW36289   4.341   0.963  13.542 -0.5640 -0.5577  0.3368
 8277SOL    HW136290   4.288   0.906  13.597  0.8413  0.0152  2.3250
 8277SOL    HW236291   4.318   1.046  13.585 -2.4560 -0.2756 -1.2251
 8278SOL     OW36292   4.061   1.450   5.543 -0.4780 -0.3158 -0.7876
 8278SOL    HW136293   4.018   1.426   5.625 -2.1249 -0.4144 -1.6906
 8278SOL    HW236294   4.105   1.367   5.524  0.8637 -0.1162  1.4109
 8279SOL     OW36295   2.620   0.511   1.372  0.6206  0.1155 -0.6319
 8279SOL    HW136296   2.552   0.473   1.428  3.1791 -1.3976  1.3974
 8279SOL    HW236297   2.611   0.604   1.393 -0.2106 -0.3713  1.1548
 8280SOL     OW36298   1.279   2.049  16.840 -0.0393 -0.1537  0.1089
 8280SOL    HW136299   1.216   1.977  16.835 -0.1507 -0.0235 -0.4252
 8280SOL    HW236300   1.289   2.079  16.749 -1.2374  0.7063  0.2499
 8281SOL     OW36301   0.132   1.677   2.166 -0.6376 -0.1103 -0.7144
 8281SOL    HW136302   0.044   1.670   2.127 -0.8095 -3.0380  0.1540
 8281SOL    HW236303   0.116   1.667   2.259  0.6204 -1.7616 -0.6728
 8282SOL     OW36304   2.841   1.713   4.693  0.0484  0.6504  0.5103
 8282SOL    HW136305   2.894   1.700   4.614 -1.4437  1.8675 -0.6783
 8282SOL    HW236306   2.904   1.766   4.742  1.6015 -0.9143  0.2272
 8283SOL     OW36307   4.456   3.915   9.504 -0.2580 -0.5405 -0.0809
 8283SOL    HW136308   4.464   4.009   9.515 -0.7076 -0.4339 -0.6115
 8283SOL    HW236309   4.546   3.886   9.489  0.2058 -0.2134  2.2272
 8284SOL     OW36310   2.249   0.199   4.210  0.7234 -0.6393  0.0797
 8284SOL    HW136311   2.211   0.270   4.262 -0.2638 -0.1017 -1.4080
 8284SOL    HW236312   2.223   0.222   4.121  0.5012 -0.3262  0.2249
 8285SOL     OW36313   2.736   0.997   2.378  0.2585 -0.5797 -0.5289
 8285SOL    HW136314   2.806   1.039   2.428 -0.7851  0.0547  0.3745
 8285SOL    HW236315   2.663   1.002   2.439  0.0398 -1.1744 -0.7392
 8286SOL     OW36316   3.081   4.688  10.362 -0.0119 -0.0091 -0.7141
 8286SOL    HW136317   3.161   4.698  10.310  1.1698  1.4854  1.3823
 8286SOL    HW236318   3.023   4.654  10.293 -1.6410 -2.3558  1.7941
 8287SOL     OW36319   2.447   1.299   3.336  0.1672 -0.9296  0.4387
 8287SOL    HW136320   2.417   1.286   3.426  0.6307  1.1216  0.8910
 8287SOL    HW236321   2.394   1.366   3.294  2.9495  1.6928  1.0938
 8288SOL     OW36322   4.366   1.139   7.471 -0.3412  0.2866  0.0080
 8288SOL    HW136323   4.415   1.167   7.394  0.8578 -0.1138  0.6278
 8288SOL    HW236324   4.439   1.097   7.516 -0.5465 -0.7434 -0.6291
 8289SOL     OW36325   2.542   2.719   4.107  0.5257  0.7055 -0.1804
 8289SOL    HW136326   2.634   2.740   4.114  0.6807  0.0422 -0.1625
 8289SOL    HW236327   2.507   2.669   4.182 -1.7010  0.0204 -1.6537
 8290SOL     OW36328   0.227   1.802   2.664  0.2578 -0.4860 -0.2457
 8290SOL    HW136329   0.306   1.849   2.690 -0.3709  0.1278  0.5724
 8290SOL    HW236330   0.158   1.868   2.672  1.0263  0.2458  0.3500
 8291SOL     OW36331   0.492   0.957   4.631 -0.0513 -0.5666 -0.1212
 8291SOL    HW136332   0.539   0.936   4.712  0.2206  2.5880  0.5676
 8291SOL    HW236333   0.565   0.953   4.569 -0.4396  1.7529 -0.7259
 8292SOL     OW36334   0.505   3.136  15.222 -0.2387  0.5841 -0.2258
 8292SOL    HW136335   0.464   3.109  15.139  1.3471 -2.1932 -0.1113
 8292SOL    HW236336   0.567   3.063  15.227 -1.4064 -0.5814 -2.6561
 8293SOL     OW36337   1.533   3.303   9.389 -0.1600  0.5275 -0.2172
 8293SOL    HW136338   1.571   3.256   9.464  1.3868  0.0868 -1.2760
 8293SOL    HW236339   1.571   3.390   9.399 -0.3254  0.2150  3.0874
 8294SOL     OW36340   1.709   3.138   4.834  0.1171  0.5195  0.0975
 8294SOL    HW136341   1.645   3.199   4.871  0.1223  0.7800 -0.3266
 8294SOL    HW236342   1.662   3.056   4.817 -2.4247  1.8501  0.6989
 8295SOL     OW36343   2.312   1.262  13.990  0.0354 -0.2292 -0.4224
 8295SOL    HW136344   2.277   1.228  13.908  0.3985 -0.4310 -0.4946
 8295SOL    HW236345   2.405   1.274  13.967  0.5848 -3.0125  0.3319
 8296SOL     OW36346   0.132   0.612  11.098  0.0996  0.2182  0.3570
 8296SOL    HW136347   0.063   0.558  11.137 -0.3572 -0.2167 -1.0688
 8296SOL    HW236348   0.126   0.579  11.008 -2.2811  2.0170 -0.1598
 8297SOL     OW36349   0.595   2.578   3.988  0.7313  0.6921  0.0553
 8297SOL    HW136350   0.628   2.524   3.917  1.0130  0.2831  0.4965
 8297SOL    HW236351   0.603   2.514   4.059  0.7530 -1.1194 -1.5759
 8298SOL     OW36352   2.523   2.890   7.910 -0.6208  0.4610 -0.1555
 8298SOL    HW136353   2.529   2.970   7.857  1.4034  2.0735  2.5526
 8298SOL    HW236354   2.479   2.929   7.985  0.0837 -0.3758  0.6905
 8299SOL     OW36355   0.360   4.308   6.251  0.0081 -0.1004 -0.5923
 8299SOL    HW136356   0.383   4.292   6.343 -0.8279  0.0869 -0.3456
 8299SOL    HW236357   0.300   4.383   6.263 -1.1204 -1.0648 -0.1482
 8300SOL     OW36358   2.017   4.666  11.623  0.0344 -0.3237  0.5501
 8300SOL    HW136359   1.960   4.590  11.636  1.9945 -1.8334  0.2537
 8300SOL    HW236360   1.958   0.008  11.655  2.0786  0.7369  2.0395
 8301SOL     OW36361   1.016   2.237   3.036 -0.4540  0.4665 -0.4191
 8301SOL    HW136362   1.044   2.324   3.064 -0.7728  0.1693  0.8409
 8301SOL    HW236363   1.078   2.190   3.093 -3.3091 -0.0225  2.3315
 8302SOL     OW36364   2.262   4.093   3.700 -0.2460 -0.5196 -0.5608
 8302SOL    HW136365   2.170   4.088   3.727 -0.2069 -0.8626 -0.4947
 8302SOL    HW236366   2.298   4.026   3.759 -2.0908 -0.4629  0.6454
 8303SOL     OW36367   3.093   1.260   2.910 -0.6515 -0.2035  0.3262
 8303SOL    HW136368   3.057   1.223   2.830 -1.1298 -0.2872  0.5815
 8303SOL    HW236369   3.168   1.308   2.874 -0.8303 -0.3118 -0.1768
 8304SOL     OW36370   2.872   0.221   8.511  0.4531 -0.0752 -0.5609
 8304SOL    HW136371   2.911   0.158   8.451  0.2046 -1.7483  1.0292
 8304SOL    HW236372   2.823   0.166   8.572 -0.4046 -0.8358 -1.9364
 8305SOL     OW36373   4.582   2.906   2.076  0.3785  0.2215 -0.6995
 8305SOL    HW136374   4.585   2.995   2.041  2.0518  1.5731  2.8735
 8305SOL    HW236375   4.540   2.867   1.999 -1.1666  1.9728 -0.7680
 8306SOL     OW36376   4.247   2.077  14.535 -0.4955  0.3823  0.5183
 8306SOL    HW136377   4.295   2.066  14.453  1.1254  0.4482  1.4771
 8306SOL    HW236378   4.209   2.165  14.536 -3.1441 -0.7608  0.0348
 8307SOL     OW36379   1.541   1.384  14.710 -0.2404 -0.2928  0.2120
 8307SOL    HW136380   1.636   1.398  14.704 -0.8369  2.6671 -2.1654
 8307SOL    HW236381   1.510   1.466  14.747  2.0414  1.4559 -1.7452
 8308SOL     OW36382   2.102   3.504   7.947 -0.1737  0.4671  0.3358
 8308SOL    HW136383   2.078   3.412   7.947 -1.3544  0.7751 -2.1129
 8308SOL    HW236384   2.153   3.507   8.028 -1.5758 -4.2258  1.3721
 8309SOL     OW36385   3.782   1.885   2.129  0.2309  1.1344  0.1121
 8309SOL    HW136386   3.792   1.868   2.222  1.6132 -1.0831 -0.4262
 8309SOL    HW236387   3.801   1.978   2.120  1.4295  0.7813 -1.0826
 8310SOL     OW36388   1.153   0.023   5.375 -0.3291 -0.2146 -0.1349
 8310SOL    HW136389   1.185   4.687   5.310 -1.2775  0.8781 -1.6557
 8310SOL    HW236390   1.108   0.084   5.316 -0.3931  2.1497  2.3276
 8311SOL     OW36391   0.962   3.091   4.810 -0.3247  0.2546 -0.7028
 8311SOL    HW136392   0.974   3.033   4.735 -0.9443 -2.2022  1.0694
 8311SOL    HW236393   0.993   3.176   4.780  0.6911  0.3527  0.6040
 8312SOL     OW36394   0.874   0.512  12.070 -0.3925  0.3568  0.2957
 8312SOL    HW136395   0.796   0.508  12.016  0.3388 -1.1282 -0.6503
 8312SOL    HW236396   0.895   0.419  12.082  0.4486  0.3774 -1.0420
 8313SOL     OW36397   4.300   2.254   3.140  0.1248 -0.1253 -0.0893
 8313SOL    HW136398   4.322   2.259   3.047  1.7135 -1.1220  0.2368
 8313SOL    HW236399   4.207   2.273   3.149 -0.3662 -1.6341 -2.1143
 8314SOL     OW36400   2.458   1.169   9.473 -0.1278 -0.0762 -0.1130
 8314SOL    HW136401   2.431   1.239   9.532  0.7319 -2.3835  2.9740
 8314SOL    HW236402   2.554   1.166   9.479 -0.0916 -0.4264 -0.7956
 8315SOL     OW36403   1.139   0.499   7.093 -0.2128  0.6260 -0.0870
 8315SOL    HW136404   1.162   0.489   7.001 -0.5122  1.7695 -0.2793
 8315SOL    HW236405   1.132   0.407   7.120 -0.7059  0.8976  0.7008
 8316SOL     OW36406   0.110   3.325   5.027 -0.2785  0.7825  0.2207
 8316SOL    HW136407   0.082   3.233   5.025 -0.9074  0.9924 -0.5201
 8316SOL    HW236408   0.082   3.344   5.117 -1.5562 -1.1607  0.2341
 8317SOL     OW36409   0.337   4.722   8.644 -0.1769  0.3846  0.3899
 8317SOL    HW136410   0.250   0.024   8.614  0.0880  1.0935  0.2755
 8317SOL    HW236411   0.395   0.042   8.583 -0.0807  2.4003  2.0253
 8318SOL     OW36412   0.943   2.330   8.499  0.4057 -0.4236  0.3285
 8318SOL    HW136413   0.905   2.254   8.542  0.2407  0.1084  1.1170
 8318SOL    HW236414   0.992   2.297   8.423  2.5058 -0.0050  1.4836
 8319SOL     OW36415   4.419   1.727  11.792 -0.0791 -0.1814 -0.6765
 8319SOL    HW136416   4.476   1.725  11.715  0.7031 -0.6423 -0.0830
 8319SOL    HW236417   4.473   1.714  11.869  0.7123 -0.1765 -1.2335
 8320SOL     OW36418   3.526   3.984   7.714  0.2069  0.4036  0.3912
 8320SOL    HW136419   3.600   3.967   7.655 -0.2183 -3.4738  0.9324
 8320SOL    HW236420   3.513   4.078   7.714  1.0673  0.5262  0.0284
 8321SOL     OW36421   2.081   2.622   0.491  0.0433 -0.1942 -0.1043
 8321SOL    HW136422   2.011   2.686   0.505  0.2911  0.0161  0.1744
 8321SOL    HW236423   2.126   2.643   0.573  0.9403 -0.6977 -0.4674
 8322SOL     OW36424   3.472   2.497   5.450  0.5143  0.1069 -0.2365
 8322SOL    HW136425   3.565   2.476   5.455  0.1927 -0.9484  1.2307
 8322SOL    HW236426   3.442   2.439   5.519 -1.5810 -0.7977 -1.8809
 8323SOL     OW36427   2.191   3.543   3.184 -0.0245  0.1954 -0.4522
 8323SOL    HW136428   2.115   3.492   3.214 -1.8351  1.8407 -2.2783
 8323SOL    HW236429   2.156   3.605   3.120  0.7881 -0.1013 -1.1817
 8324SOL     OW36430   2.434   4.061   1.410  0.3544  0.1319 -0.1440
 8324SOL    HW136431   2.394   4.136   1.454  0.1820  0.4746 -0.8921
 8324SOL    HW236432   2.431   4.002   1.486 -0.9622 -0.5610 -0.7507
 8325SOL     OW36433   3.092   4.591   2.321 -0.0978 -0.2108 -0.2086
 8325SOL    HW136434   3.172   4.643   2.329 -0.8106  0.6296  1.4329
 8325SOL    HW236435   3.070   4.560   2.409 -1.8146 -0.5603 -0.7602
 8326SOL     OW36436   3.071   4.483   6.173  0.3251 -0.1291 -0.2999
 8326SOL    HW136437   3.098   4.413   6.232  0.1212  0.6602  0.7284
 8326SOL    HW236438   3.074   4.442   6.087 -1.2775 -2.4259  0.7484
 8327SOL     OW36439   2.173   1.231   2.807 -0.6257 -0.9824 -0.5528
 8327SOL    HW136440   2.158   1.326   2.805 -0.5376 -0.9642 -0.3420
 8327SOL    HW236441   2.097   1.202   2.757 -1.5128  1.1321 -0.4697
 8328SOL     OW36442   3.080   3.896   2.765 -0.0918  0.0155  0.2101
 8328SOL    HW136443   3.085   3.826   2.700 -1.9616 -0.1792  0.2663
 8328SOL    HW236444   3.065   3.969   2.707  1.8858  1.6229  1.7071
 8329SOL     OW36445   2.597   0.910   8.979 -0.3426  0.2030 -0.4187
 8329SOL    HW136446   2.544   0.924   9.057  0.9452 -0.9268  0.6661
 8329SOL    HW236447   2.563   0.825   8.950 -0.7704 -0.1457  1.1248
 8330SOL     OW36448   0.537   3.967   4.010  0.2016 -0.3959 -0.2647
 8330SOL    HW136449   0.517   4.040   4.068  1.0893 -0.9007  0.6707
 8330SOL    HW236450   0.467   3.981   3.946  0.1106 -1.3618 -0.3769
 8331SOL     OW36451   3.432   1.786   4.418 -0.8625 -0.7410 -0.2274
 8331SOL    HW136452   3.449   1.764   4.510  0.3189  2.7009  0.3874
 8331SOL    HW236453   3.519   1.802   4.382 -0.7731  0.3737  0.4806
 8332SOL     OW36454   2.905   3.789   3.608  0.1581  0.4385 -0.4916
 8332SOL    HW136455   2.895   3.695   3.599  0.8153  0.4591 -1.4489
 8332SOL    HW236456   2.859   3.815   3.688  0.3383 -2.9572  0.6878
 8333SOL     OW36457   0.364   2.734   3.884 -0.1385  0.0175  0.4787
 8333SOL    HW136458   0.427   2.663   3.890 -0.9360 -0.6760  0.5679
 8333SOL    HW236459   0.409   2.803   3.835 -0.8469  0.3764  0.3433
 8334SOL     OW36460   4.548   2.485   0.604 -0.4675  0.1106  0.1139
 8334SOL    HW136461   4.522   2.445   0.687  2.0621  2.4229  2.0608
 8334SOL    HW236462   4.565   2.575   0.631 -1.4752  1.5319 -4.0188
 8335SOL     OW36463   1.533   0.401   2.431  0.2967 -0.5273  0.7076
 8335SOL    HW136464   1.572   0.394   2.344 -0.1514  2.3180  0.2688
 8335SOL    HW236465   1.588   0.343   2.484  2.6494  2.2378  1.2978
 8336SOL     OW36466   0.799   0.005  13.187  0.2095 -0.3758 -0.2721
 8336SOL    HW136467   0.796   4.649  13.139 -0.4991 -0.6480  0.2405
 8336SOL    HW236468   0.707   0.028  13.198 -0.0087 -0.9957 -0.7538
 8337SOL     OW36469   2.027   1.407  14.947  0.1256  0.5242 -0.2062
 8337SOL    HW136470   2.012   1.339  15.012 -1.0467  1.6190  0.6668
 8337SOL    HW236471   2.059   1.478  15.003 -2.3311  1.1685  0.3946
 8338SOL     OW36472   2.785   3.604   6.770 -0.2032  0.1675  0.1915
 8338SOL    HW136473   2.742   3.575   6.689  1.0632 -2.3614  0.4350
 8338SOL    HW236474   2.763   3.697   6.759 -0.3932  0.1751  0.6243
 8339SOL     OW36475   1.273   0.625   8.144 -0.2236 -0.0557 -0.0149
 8339SOL    HW136476   1.278   0.721   8.144 -1.0673 -0.0153  1.2983
 8339SOL    HW236477   1.184   0.603   8.119 -0.7357  0.3903  1.3923
 8340SOL     OW36478   1.091   2.375   3.371 -0.1815  0.2069  0.0907
 8340SOL    HW136479   1.179   2.376   3.335  0.2790 -1.8433  1.1359
 8340SOL    HW236480   1.091   2.423   3.454 -2.1438  0.6558 -0.1672
 8341SOL     OW36481   2.348   3.256   6.536  0.3260  0.4449  0.0162
 8341SOL    HW136482   2.412   3.215   6.594  1.7002  0.0675 -1.7535
 8341SOL    HW236483   2.299   3.319   6.589  0.1757  1.0255 -0.8145
 8342SOL     OW36484   1.995   1.891   9.636  0.1588 -0.1035 -0.4326
 8342SOL    HW136485   2.039   1.947   9.701 -0.9213  0.3875 -0.1325
 8342SOL    HW236486   1.920   1.948   9.621 -0.5123 -0.1836  2.5443
 8343SOL     OW36487   1.636   1.680  14.797  0.1096 -0.0822 -0.1885
 8343SOL    HW136488   1.599   1.748  14.854  0.2688 -1.8757  2.0421
 8343SOL    HW236489   1.685   1.625  14.857 -0.0827  0.3610  0.3853
 8344SOL     OW36490   1.344   1.334   5.680 -0.0587 -0.8395  0.0333
 8344SOL    HW136491   1.414   1.367   5.736  1.1915 -1.3130 -1.2521
 8344SOL    HW236492   1.398   1.272   5.630 -0.9189 -2.8888  1.6418
 8345SOL     OW36493   3.665   1.516   4.392 -0.5154  0.4156  0.7607
 8345SOL    HW136494   3.710   1.592   4.355  2.6567 -0.7723  2.1930
 8345SOL    HW236495   3.645   1.549   4.480  0.7824 -3.3530  2.4546
 8346SOL     OW36496   2.076   1.168   4.987  0.0082  0.1835 -0.6705
 8346SOL    HW136497   2.011   1.196   4.923 -1.9479  0.5719  1.5013
 8346SOL    HW236498   2.042   1.083   5.016  1.2745  0.2377  0.9892
 8347SOL     OW36499   4.179   1.674   5.619 -1.3877 -0.1919 -0.4520
 8347SOL    HW136500   4.136   1.595   5.585 -0.0901 -1.2980  0.4622
 8347SOL    HW236501   4.231   1.698   5.542 -1.4697 -5.7328 -2.2796
 8348SOL     OW36502   0.874   0.559   4.243 -0.1205 -0.8469  0.8874
 8348SOL    HW136503   0.818   0.500   4.294  0.7306  0.3887  3.2715
 8348SOL    HW236504   0.803   0.607   4.202  0.2501  0.2336  1.4880
 8349SOL     OW36505   4.329   1.143  10.514  0.1603  0.2116  0.3615
 8349SOL    HW136506   4.390   1.128  10.442  0.6561  0.4689  0.7308
 8349SOL    HW236507   4.390   1.146  10.588  0.0609  2.3917  0.3332
 8350SOL     OW36508   2.483   1.678  14.061 -0.5241  0.9123 -0.4586
 8350SOL    HW136509   2.419   1.722  14.117 -1.3848  0.6101 -1.2101
 8350SOL    HW236510   2.510   1.612  14.125  0.2945  0.0047 -1.7418
 8351SOL     OW36511   3.834   3.853   3.936 -0.0691  0.3111 -0.4488
 8351SOL    HW136512   3.926   3.876   3.946 -0.0647 -0.6209  1.5892
 8351SOL    HW236513   3.788   3.937   3.927  0.7491  0.8744  0.6658
 8352SOL     OW36514   2.675   0.559   3.696  0.4477 -0.6934  0.1112
 8352SOL    HW136515   2.738   0.630   3.688  1.2019 -1.4351 -0.5543
 8352SOL    HW236516   2.700   0.525   3.782  0.2891 -0.4661  0.2475
 8353SOL     OW36517   2.504   0.551  16.736  0.1827 -0.0573 -0.0522
 8353SOL    HW136518   2.595   0.544  16.708  1.1217 -0.8338  3.2054
 8353SOL    HW236519   2.471   0.627  16.688  3.5772  1.0380 -0.6522
 8354SOL     OW36520   3.920   1.381  11.271  0.5467 -0.5808  0.3494
 8354SOL    HW136521   3.943   1.447  11.205  0.5858 -0.9340  0.0039
 8354SOL    HW236522   3.834   1.370  11.232 -0.1993 -0.3132  1.9410
 8355SOL     OW36523   1.433   2.711  10.017 -0.0613  0.3573 -0.0238
 8355SOL    HW136524   1.385   2.643   9.970  0.0790 -0.0472  0.4132
 8355SOL    HW236525   1.386   2.708  10.100  0.5287 -1.9292  0.2180
 8356SOL     OW36526   3.934   3.865  13.548  0.5577  0.3978 -0.3009
 8356SOL    HW136527   3.912   3.786  13.499  2.9611 -0.0523 -0.6569
 8356SOL    HW236528   3.866   3.925  13.518  0.2955 -0.3017 -1.0989
 8357SOL     OW36529   4.468   3.224   8.011 -0.1231 -0.5272 -0.2864
 8357SOL    HW136530   4.499   3.145   7.966  2.6869  0.3845  0.0191
 8357SOL    HW236531   4.484   3.296   7.950 -3.1894 -0.3444 -0.8882
 8358SOL     OW36532   0.458   0.140   3.019 -0.1381  0.4286  0.3426
 8358SOL    HW136533   0.436   0.049   3.039 -2.2380  1.1324  1.2051
 8358SOL    HW236534   0.549   0.130   2.993 -1.1641 -4.2875 -1.5164
 8359SOL     OW36535   0.597   4.518   4.923 -0.1597 -0.4183 -0.6622
 8359SOL    HW136536   0.509   4.520   4.960  0.1722  0.4331  0.0947
 8359SOL    HW236537   0.642   4.465   4.989  0.1811  1.9963  1.0531
 8360SOL     OW36538   1.502   3.962   9.236 -0.1227  0.0694  0.0803
 8360SOL    HW136539   1.493   3.870   9.210 -1.5221 -0.1644  1.3642
 8360SOL    HW236540   1.416   3.955   9.278  0.4804 -1.3510  1.1027
 8361SOL     OW36541   4.588   3.469   3.926  0.1641 -0.6351  0.5891
 8361SOL    HW136542   4.626   3.428   3.849 -0.2883  1.8238 -0.9432
 8361SOL    HW236543   4.539   3.541   3.886  1.5133  0.1309  0.3533
 8362SOL     OW36544   0.298   4.202   6.009  0.5543 -0.5260 -0.7485
 8362SOL    HW136545   0.211   4.203   6.049  0.3411  1.2747 -1.2684
 8362SOL    HW236546   0.347   4.251   6.075  1.1455  1.0885 -2.4174
 8363SOL     OW36547   1.801   0.311  10.521 -0.5416  0.2423  0.0165
 8363SOL    HW136548   1.866   0.241  10.524  0.2934  1.0263  0.3545
 8363SOL    HW236549   1.729   0.267  10.567  0.6491  0.4832  2.1007
 8364SOL     OW36550   3.088   3.401   2.569  0.1012  0.1854  0.0965
 8364SOL    HW136551   3.017   3.375   2.628 -1.0280  0.3296 -1.1901
 8364SOL    HW236552   3.157   3.428   2.629  0.1656  1.3828 -0.5053
 8365SOL     OW36553   1.663   0.767  15.559  0.0253 -0.5875  0.2292
 8365SOL    HW136554   1.660   0.785  15.465 -1.8912 -1.0237  0.2067
 8365SOL    HW236555   1.682   0.673  15.560  1.7284 -0.2574 -1.0922
 8366SOL     OW36556   4.308   3.195   1.574  0.1416 -0.2292  0.0945
 8366SOL    HW136557   4.272   3.109   1.596 -0.8831  0.0727 -0.3790
 8366SOL    HW236558   4.380   3.160   1.522  0.2643  0.2535 -0.0632
 8367SOL     OW36559   0.525   2.508   6.469 -0.0399 -0.3953 -0.0047
 8367SOL    HW136560   0.442   2.476   6.436 -0.8719  1.0976  0.6523
 8367SOL    HW236561   0.595   2.462   6.421 -0.6076 -2.7025  1.4142
 8368SOL     OW36562   3.475   4.569   2.491 -0.4642  0.5412 -0.6371
 8368SOL    HW136563   3.490   4.534   2.403 -1.3838  0.2114 -0.6614
 8368SOL    HW236564   3.536   4.643   2.488 -0.1906  0.3401  0.1564
 8369SOL     OW36565   0.163   4.205  12.155  0.6076  0.2840  0.1421
 8369SOL    HW136566   0.132   4.223  12.066 -0.9062 -1.1685  0.3655
 8369SOL    HW236567   0.101   4.247  12.214 -0.5494 -0.1839 -0.7457
 8370SOL     OW36568   4.726   4.189  12.367  0.1522  0.1502 -0.6863
 8370SOL    HW136569   0.032   4.108  12.406 -0.4231  0.8244  1.2167
 8370SOL    HW236570   4.699   4.236  12.446  0.5193 -1.8264  0.6174
 8371SOL     OW36571   4.219   4.355   2.724  0.0998 -0.6583  0.2115
 8371SOL    HW136572   4.281   4.388   2.789 -0.6735  2.2418 -0.5439
 8371SOL    HW236573   4.165   4.315   2.791  0.3312 -0.9656  0.2132
 8372SOL     OW36574   0.319   4.486   4.195 -0.6420  0.4735  0.2184
 8372SOL    HW136575   0.244   4.426   4.196  0.7531 -1.2785  0.8761
 8372SOL    HW236576   0.290   4.544   4.125 -3.6029  0.1252  1.1888
 8373SOL     OW36577   2.650   2.170   9.193 -0.6448 -0.4105 -0.0333
 8373SOL    HW136578   2.731   2.220   9.182 -1.5701  1.5456  2.0937
 8373SOL    HW236579   2.646   2.146   9.286 -1.2649 -0.1321  0.0126
 8374SOL     OW36580   3.470   1.339   3.116 -0.3459 -0.4344 -0.4277
 8374SOL    HW136581   3.435   1.427   3.098 -1.2641 -0.3872  1.5525
 8374SOL    HW236582   3.498   1.352   3.207  0.1793 -2.9108 -0.2530
 8375SOL     OW36583   2.644   0.186   6.096  0.1276 -0.7350 -0.3918
 8375SOL    HW136584   2.704   0.142   6.157 -0.4039  0.9685  1.3829
 8375SOL    HW236585   2.691   0.268   6.078 -2.7444  1.0301  0.2315
 8376SOL     OW36586   3.173   1.033  17.005  0.0832 -0.2924 -0.6205
 8376SOL    HW136587   3.211   1.119  17.024  1.3038 -0.9257 -0.2472
 8376SOL    HW236588   3.099   1.041  17.066 -0.1524  0.7984 -1.0388
 8377SOL     OW36589   2.400   0.873   8.650 -0.3515  0.4802 -0.3580
 8377SOL    HW136590   2.375   0.794   8.697 -1.7163  0.9785 -0.2479
 8377SOL    HW236591   2.346   0.871   8.571 -2.7151 -0.6476  1.3085
 8378SOL     OW36592   3.319   0.175  10.663 -0.1827  0.0939  0.0496
 8378SOL    HW136593   3.269   0.221  10.595 -2.2516 -2.6922 -0.2806
 8378SOL    HW236594   3.253   0.145  10.724  0.1744 -0.9465 -0.0752
 8379SOL     OW36595   2.329   2.049  14.475  0.2624  0.0951  0.0957
 8379SOL    HW136596   2.241   2.041  14.511 -0.4896  1.4576 -1.4549
 8379SOL    HW236597   2.327   2.097  14.392  2.4707 -0.0163 -0.0428
 8380SOL     OW36598   2.782   0.945   7.344 -0.7685 -0.3141 -0.0595
 8380SOL    HW136599   2.861   0.892   7.357 -0.5064 -0.7021 -3.2413
 8380SOL    HW236600   2.798   1.028   7.389  0.8610 -0.2050 -0.8314
 8381SOL     OW36601   0.835   4.657   3.577  0.0031 -0.8577 -0.3990
 8381SOL    HW136602   0.809   4.569   3.551 -0.8934 -0.5174 -0.6640
 8381SOL    HW236603   0.848   4.703   3.494 -0.1831  3.3496  1.8701
 8382SOL     OW36604   1.054   3.597   4.626 -0.3315 -0.2072 -0.3654
 8382SOL    HW136605   1.085   3.684   4.650 -0.5306 -0.1177 -0.4399
 8382SOL    HW236606   1.034   3.618   4.536 -1.2436  1.0825  0.1502
 8383SOL     OW36607   2.992   3.035   6.035  0.3021 -0.4222  0.5455
 8383SOL    HW136608   3.088   3.038   6.029  0.3129 -1.1423  0.3274
 8383SOL    HW236609   2.980   3.126   6.061 -0.8828 -0.8578  1.5090
 8384SOL     OW36610   2.946   4.067   8.245  0.0499 -0.1390 -0.4936
 8384SOL    HW136611   2.961   4.122   8.322 -1.9827  0.6053 -0.6349
 8384SOL    HW236612   2.996   4.118   8.181 -1.8948 -0.6206 -2.3911
 8385SOL     OW36613   2.414   0.236   2.242 -0.2423 -0.1912 -0.1554
 8385SOL    HW136614   2.456   0.196   2.318  0.4639  1.0690  0.1145
 8385SOL    HW236615   2.320   0.226   2.260 -0.2455  0.3153  0.1191
 8386SOL     OW36616   1.668   2.327  10.616 -0.3548 -0.1794  0.6672
 8386SOL    HW136617   1.644   2.409  10.573 -3.0091 -2.1723 -1.6497
 8386SOL    HW236618   1.685   2.267  10.543  0.0873  1.0703 -0.2581
 8387SOL     OW36619   0.560   4.432   8.790 -0.1584  0.6332  0.2050
 8387SOL    HW136620   0.506   4.398   8.861 -3.5892 -0.9342 -3.1746
 8387SOL    HW236621   0.569   4.362   8.725  3.7749  0.6596  0.6900
 8388SOL     OW36622   3.066   0.084   5.174 -0.1192  0.1745  0.1379
 8388SOL    HW136623   3.146   0.081   5.227 -0.4239  0.0663  0.5877
 8388SOL    HW236624   3.080   0.172   5.141  0.7583  0.7039  1.9042
 8389SOL     OW36625   3.049   1.747   8.223  0.3109  0.3854  0.2987
 8389SOL    HW136626   3.142   1.769   8.217  0.2175  0.3369 -1.4112
 8389SOL    HW236627   3.016   1.837   8.226 -1.7993 -0.4541  2.1630
 8390SOL     OW36628   2.332   3.675   7.177 -0.1954 -0.4587  0.7953
 8390SOL    HW136629   2.394   3.738   7.215 -2.7444  2.4364  0.1200
 8390SOL    HW236630   2.315   3.632   7.260 -0.9371 -0.6058  0.5614
 8391SOL     OW36631   2.185   3.953   5.303 -0.1056  0.3025  0.1400
 8391SOL    HW136632   2.237   4.012   5.357 -1.2375  0.7394  0.7664
 8391SOL    HW236633   2.112   3.946   5.365  0.9218 -1.8224  1.1304
 8392SOL     OW36634   3.254   3.761  11.052 -0.4488 -0.3804 -0.2914
 8392SOL    HW136635   3.331   3.744  10.998 -0.8840  1.4861 -1.5185
 8392SOL    HW236636   3.232   3.673  11.084  2.0609 -0.8869  0.0365
 8393SOL     OW36637   3.448   1.475  17.615  0.0712  0.0103  0.0779
 8393SOL    HW136638   3.456   1.540  17.545 -0.7362  1.5862  1.4569
 8393SOL    HW236639   3.521   1.498  17.672  0.9535 -0.9799 -0.6523
 8394SOL     OW36640   0.932   3.573   9.160 -0.1430  0.1215 -0.1884
 8394SOL    HW136641   1.017   3.557   9.119  0.6564 -1.4973  2.1125
 8394SOL    HW236642   0.886   3.495   9.127 -1.2859  1.1592 -1.0366
 8395SOL     OW36643   3.973   2.120   1.370 -0.5058  0.3300 -0.1587
 8395SOL    HW136644   4.021   2.201   1.385 -0.4093 -0.1539  2.1200
 8395SOL    HW236645   3.938   2.131   1.281  1.4160  0.9715 -0.8301
 8396SOL     OW36646   3.192   0.401  14.335 -0.6775  0.1354 -0.4583
 8396SOL    HW136647   3.125   0.354  14.285 -1.1289 -1.2879  1.5210
 8396SOL    HW236648   3.146   0.419  14.417  0.2857  1.3968 -0.1823
 8397SOL     OW36649   0.924   1.574   9.327 -0.6553  0.0469 -0.0225
 8397SOL    HW136650   0.938   1.650   9.270 -0.4889  0.7266  0.9352
 8397SOL    HW236651   0.983   1.595   9.399  0.4790  0.7197 -1.1299
 8398SOL     OW36652   0.102   2.459   5.080  0.5234  0.1645  0.0131
 8398SOL    HW136653   0.016   2.430   5.111 -0.3724 -2.4593 -4.8773
 8398SOL    HW236654   0.068   2.527   5.021 -0.9165  0.7954  1.5700
 8399SOL     OW36655   2.108   0.603  17.154 -0.4825 -0.6620 -0.4460
 8399SOL    HW136656   2.023   0.596  17.196  0.2568 -0.4347  1.0942
 8399SOL    HW236657   2.093   0.697  17.145 -0.0096 -0.6683 -1.3215
 8400SOL     OW36658   3.844   0.790   8.957  0.4833  0.2782  0.1240
 8400SOL    HW136659   3.809   0.702   8.954 -0.3100  0.5706  0.9840
 8400SOL    HW236660   3.775   0.854   8.973  1.6901  1.1288  1.9185
 8401SOL     OW36661   1.585   0.680   1.937  0.0458  0.4661  0.4818
 8401SOL    HW136662   1.566   0.651   2.026  0.3619 -1.3785 -0.0520
 8401SOL    HW236663   1.541   0.764   1.942 -2.0999 -0.7516  2.0710
 8402SOL     OW36664   0.098   0.210   4.534  0.0027 -0.3870  0.2087
 8402SOL    HW136665   0.111   0.117   4.549  1.3264 -0.3474 -0.7235
 8402SOL    HW236666   0.085   0.241   4.623 -1.4504 -1.4778  0.3778
 8403SOL     OW36667   4.068   1.977   7.626 -0.1690 -0.1296  0.2472
 8403SOL    HW136668   4.157   1.970   7.592 -1.2063  0.2828 -2.5103
 8403SOL    HW236669   4.086   1.973   7.720  0.2190  0.1866  0.1839
 8404SOL     OW36670   4.407   2.465   9.393 -0.4345  0.2608  0.2280
 8404SOL    HW136671   4.465   2.537   9.369 -0.6105 -0.1434 -1.4117
 8404SOL    HW236672   4.365   2.452   9.308  0.3581 -2.2562  0.2314
 8405SOL     OW36673   3.163   1.703   2.050  0.0727 -0.1224 -0.6684
 8405SOL    HW136674   3.099   1.759   2.093 -0.8360 -2.1061  0.5722
 8405SOL    HW236675   3.105   1.659   1.987  0.0354 -0.2616 -0.5359
 8406SOL     OW36676   4.249   0.133   7.934 -0.3484 -0.1280 -0.4035
 8406SOL    HW136677   4.292   0.113   7.851  0.1417  1.9549 -0.6256
 8406SOL    HW236678   4.275   0.219   7.964  0.8065 -0.7239  0.2801
 8407SOL     OW36679   0.534   3.228   4.137 -0.1518 -0.2116 -0.0955
 8407SOL    HW136680   0.587   3.151   4.159  0.3161 -0.7329 -3.0133
 8407SOL    HW236681   0.581   3.293   4.190 -1.8750 -0.3654  1.6172
 8408SOL     OW36682   0.588   0.611   7.122 -0.0921  0.3091 -0.3583
 8408SOL    HW136683   0.644   0.575   7.053 -0.3185  0.1811 -0.4774
 8408SOL    HW236684   0.514   0.618   7.061  0.3341  1.0037 -0.7999
 8409SOL     OW36685   2.650   3.091   2.639  0.4592  0.4985 -0.6577
 8409SOL    HW136686   2.687   3.018   2.589 -2.1489 -0.0666 -1.7877
 8409SOL    HW236687   2.575   3.122   2.588 -0.2935  1.0697  0.7864
 8410SOL     OW36688   1.310   2.954  14.564  0.0044 -0.5924  0.0059
 8410SOL    HW136689   1.294   2.968  14.658  2.2300  1.3920  0.0679
 8410SOL    HW236690   1.347   2.867  14.554 -1.0268 -1.0324 -0.0426
 8411SOL     OW36691   1.131   4.068   0.625 -0.0866 -0.1520 -0.3223
 8411SOL    HW136692   1.102   3.984   0.591 -0.4339  0.4762 -1.5566
 8411SOL    HW236693   1.221   4.043   0.646 -0.0287  0.5400  0.2378
 8412SOL     OW36694   0.045   0.145   9.249 -0.1775  0.5869  0.2121
 8412SOL    HW136695   0.037   0.091   9.328 -0.4113 -0.2487 -0.3819
 8412SOL    HW236696   0.136   0.133   9.223 -0.6026  0.4916 -1.2419
 8413SOL     OW36697   0.522   2.039  11.544 -0.0917 -0.1379  0.0337
 8413SOL    HW136698   0.508   2.133  11.547  0.0005 -0.1095 -0.4837
 8413SOL    HW236699   0.522   2.010  11.636 -2.0321  2.8738  0.9871
 8414SOL     OW36700   3.285   3.321  10.251  0.1911  0.0810 -0.7430
 8414SOL    HW136701   3.314   3.395  10.197 -0.0470 -0.0470 -1.0484
 8414SOL    HW236702   3.191   3.336  10.244  0.0262 -0.4396  0.4453
 8415SOL     OW36703   4.586   4.512   5.378  0.0397  0.1316 -0.1097
 8415SOL    HW136704   4.492   4.527   5.367  0.3646  1.2929 -1.3136
 8415SOL    HW236705   4.625   4.552   5.300 -1.9572  2.1678 -0.0767
 8416SOL     OW36706   2.438   4.278  17.577 -0.0929 -0.0404  0.4872
 8416SOL    HW136707   2.345   4.265  17.593 -0.4440  2.0073  0.1658
 8416SOL    HW236708   2.482   4.260  17.660  1.5146 -2.3483 -0.8465
 8417SOL     OW36709   1.567   1.435   2.145 -0.6618  0.4488 -0.2086
 8417SOL    HW136710   1.638   1.428   2.081 -1.1619  2.6884 -1.0365
 8417SOL    HW236711   1.491   1.436   2.088  1.8213 -2.5230 -3.5422
 8418SOL     OW36712   0.730   0.511   2.794  0.8002  0.0161 -0.1102
 8418SOL    HW136713   0.781   0.514   2.875  2.4103 -0.7009 -1.1022
 8418SOL    HW236714   0.724   0.605   2.776 -1.2908 -0.3868 -1.4859
 8419SOL     OW36715   1.969   4.560   7.912  0.4149 -0.4686  0.4145
 8419SOL    HW136716   1.916   4.510   7.850  0.1818  0.4991 -0.1633
 8419SOL    HW236717   1.982   4.636   7.855  1.2539 -1.4467 -0.6973
 8420SOL     OW36718   2.087   3.177   2.325 -0.2684 -0.6949  0.2908
 8420SOL    HW136719   2.147   3.228   2.269  0.2967 -1.8950 -0.2026
 8420SOL    HW236720   2.029   3.129   2.266  0.8360 -1.4317 -0.2072
 8421SOL     OW36721   2.279   3.411   9.554 -0.1277 -0.9469 -0.5896
 8421SOL    HW136722   2.205   3.440   9.501 -0.1013  0.4312  0.1048
 8421SOL    HW236723   2.358   3.446   9.512 -1.9413  2.8265 -0.9202
 8422SOL     OW36724   4.439   2.148  16.515  0.0992  0.1674  0.1808
 8422SOL    HW136725   4.409   2.083  16.451 -2.2378  1.4229 -0.0139
 8422SOL    HW236726   4.520   2.171  16.470 -0.7018 -1.3461 -2.0220
 8423SOL     OW36727   2.931   1.684   2.861 -0.0447 -0.1340 -0.0655
 8423SOL    HW136728   3.018   1.670   2.825 -0.7087  0.9276 -2.1489
 8423SOL    HW236729   2.903   1.746   2.793 -0.8727 -0.5442 -0.0996
 8424SOL     OW36730   3.959   2.411   8.870  0.2601  0.2994  0.2960
 8424SOL    HW136731   3.882   2.449   8.827 -0.6041  0.8740  2.3405
 8424SOL    HW236732   3.919   2.378   8.951 -1.3719 -0.7230 -0.9396
 8425SOL     OW36733   0.570   0.772   6.145  0.2219  0.3824 -0.2268
 8425SOL    HW136734   0.574   0.714   6.069  1.2811 -1.8863  1.5470
 8425SOL    HW236735   0.530   0.846   6.100  2.0987  1.0058 -0.8935
 8426SOL     OW36736   1.599   3.450   6.094  0.6963  0.4118 -0.0146
 8426SOL    HW136737   1.510   3.423   6.116 -0.2050  2.1505 -1.4868
 8426SOL    HW236738   1.658   3.382   6.126 -2.1049 -1.4308  1.1829
 8427SOL     OW36739   1.338   1.150  14.806 -0.3879  0.2813 -0.0407
 8427SOL    HW136740   1.377   1.095  14.737  2.7772 -0.1619  2.0863
 8427SOL    HW236741   1.337   1.232  14.758  0.3827  0.9490  1.0843
 8428SOL     OW36742   4.149   3.835   4.210 -0.0945 -0.1555  0.0907
 8428SOL    HW136743   4.155   3.905   4.275 -1.5086 -1.4125  1.5828
 8428SOL    HW236744   4.099   3.881   4.143 -0.1098 -0.5720 -0.1835
 8429SOL     OW36745   3.789   2.882   1.980  0.0925  0.0032  0.8306
 8429SOL    HW136746   3.718   2.872   1.916 -0.2829 -4.4134  1.9595
 8429SOL    HW236747   3.798   2.976   1.996  0.9898  0.0301  0.1270
 8430SOL     OW36748   4.179   0.831  17.466  0.4654 -0.1739 -0.1804
 8430SOL    HW136749   4.149   0.759  17.521 -0.5052 -0.1465 -0.6691
 8430SOL    HW236750   4.244   0.872  17.523 -0.2745  1.3280 -0.4218
 8431SOL     OW36751   0.735   3.256   5.837  0.1600  0.0083 -0.3893
 8431SOL    HW136752   0.762   3.298   5.918 -0.7157  0.7459 -0.4752
 8431SOL    HW236753   0.808   3.253   5.775 -0.0534  0.3241 -0.6584
 8432SOL     OW36754   0.150   3.156  12.168 -0.4695 -0.3765 -0.4350
 8432SOL    HW136755   0.235   3.128  12.202  0.4621  3.0131 -0.0059
 8432SOL    HW236756   0.137   3.237  12.216 -0.2415  0.7117 -2.1984
 8433SOL     OW36757   1.793   0.583   5.356  0.1383  0.1164  0.2200
 8433SOL    HW136758   1.738   0.581   5.435 -0.4321  0.0482 -0.1777
 8433SOL    HW236759   1.876   0.596   5.402 -0.8838  1.3957  1.6759
 8434SOL     OW36760   3.549   0.513  15.177 -0.1111 -0.4907 -0.1034
 8434SOL    HW136761   3.609   0.444  15.205 -0.1477 -0.0076  1.1804
 8434SOL    HW236762   3.468   0.463  15.170 -0.4561 -0.3441  2.6023
 8435SOL     OW36763   2.525   4.679   6.534 -0.5867 -0.0380  0.6429
 8435SOL    HW136764   2.564   0.030   6.574 -1.7368  1.5459 -1.2818
 8435SOL    HW236765   2.591   4.613   6.558  1.3254  1.5821 -0.1747
 8436SOL     OW36766   3.150   1.554  17.578 -0.6474  0.2556 -0.0847
 8436SOL    HW136767   3.121   1.508  17.499  0.2662  2.6333 -1.8117
 8436SOL    HW236768   3.232   1.509  17.595  0.6894  2.7657  0.1037
 8437SOL     OW36769   0.880   3.051   2.958  0.1104 -0.3643 -0.3349
 8437SOL    HW136770   0.913   2.983   3.017  2.4595 -1.4077 -2.7921
 8437SOL    HW236771   0.932   3.026   2.882  0.8723 -0.5795  0.2653
 8438SOL     OW36772   1.433   0.888   5.637  0.0544 -0.1169 -0.0176
 8438SOL    HW136773   1.515   0.846   5.663 -0.0181  0.1273  0.5933
 8438SOL    HW236774   1.381   0.816   5.601  0.1031 -1.0713  1.8175
 8439SOL     OW36775   2.700   1.047   8.780  0.3609  0.7307 -0.0023
 8439SOL    HW136776   2.675   1.005   8.862 -0.1872  1.6456  0.2918
 8439SOL    HW236777   2.641   1.121   8.776 -2.0859 -1.0974  1.9692
 8440SOL     OW36778   1.146   1.096   6.564  0.1837 -0.3462  0.2147
 8440SOL    HW136779   1.116   1.142   6.642 -0.5117  1.0468 -0.9000
 8440SOL    HW236780   1.227   1.052   6.593  1.1128  0.8676 -0.5523
 8441SOL     OW36781   4.347   3.952   2.877  0.1585 -0.1261  0.3394
 8441SOL    HW136782   4.358   3.891   2.804  2.0186 -0.5293  0.9660
 8441SOL    HW236783   4.252   3.939   2.877  0.1015  0.3123 -0.2332
 8442SOL     OW36784   2.611   3.502   2.691  0.2331 -0.1551  0.4113
 8442SOL    HW136785   2.631   3.550   2.611  0.3871  0.0404  0.5676
 8442SOL    HW236786   2.552   3.565   2.732  1.2483  0.8661  0.3105
 8443SOL     OW36787   0.184   1.034  14.838 -0.6243  0.1592  0.4876
 8443SOL    HW136788   0.113   1.041  14.902  0.3020 -0.2359  1.5700
 8443SOL    HW236789   0.248   1.099  14.870  1.7328 -1.1848 -1.5238
 8444SOL     OW36790   0.442   1.653   3.482  0.4173  0.2362 -0.1186
 8444SOL    HW136791   0.352   1.621   3.486  0.4343  0.0206 -1.3696
 8444SOL    HW236792   0.427   1.701   3.400  1.3790  0.5523 -0.1074
 8445SOL     OW36793   3.460   3.882  14.416 -0.2700 -0.1242 -0.1256
 8445SOL    HW136794   3.430   3.973  14.416 -1.6489 -0.5774 -1.3091
 8445SOL    HW236795   3.502   3.888  14.501 -0.4650 -0.6599  0.0107
 8446SOL     OW36796   2.480   3.047   8.121  0.3347 -0.0298  0.1778
 8446SOL    HW136797   2.449   3.086   8.203 -0.4174  1.9388 -1.0375
 8446SOL    HW236798   2.573   3.066   8.130  0.0346  0.7175  1.7889
 8447SOL     OW36799   1.092   1.019   1.605  0.5155 -0.0782 -0.3183
 8447SOL    HW136800   1.168   1.003   1.549  0.6273 -0.1508 -0.1467
 8447SOL    HW236801   1.042   1.087   1.559 -0.9786 -2.0034 -1.5375
 8448SOL     OW36802   1.286   3.754   6.088  0.4185  0.4147 -0.0737
 8448SOL    HW136803   1.310   3.838   6.048  2.3264  0.2898  0.7991
 8448SOL    HW236804   1.311   3.768   6.180  0.6982 -0.1442 -0.0693
 8449SOL     OW36805   2.005   1.976   6.718 -1.2339  0.3839 -0.2508
 8449SOL    HW136806   1.964   1.890   6.710  0.9637 -0.7332  0.4093
 8449SOL    HW236807   2.099   1.960   6.723 -1.5424 -0.7912  1.9518
 8450SOL     OW36808   1.699   1.864   2.469 -0.2652  0.6111 -0.2870
 8450SOL    HW136809   1.620   1.821   2.437 -0.3278 -0.1049  0.8240
 8450SOL    HW236810   1.760   1.851   2.396  0.3309 -1.1350  0.5077
 8451SOL     OW36811   4.292   2.442   9.669  0.6471 -0.7172  0.7755
 8451SOL    HW136812   4.326   2.497   9.739  0.5620  0.1200  0.1606
 8451SOL    HW236813   4.200   2.469   9.663  0.7742 -0.8359 -1.9824
 8452SOL     OW36814   0.427   1.250   7.238 -0.3070  0.0872  0.5070
 8452SOL    HW136815   0.449   1.276   7.149 -4.1807  2.0845  0.0977
 8452SOL    HW236816   0.499   1.192   7.261 -0.9082 -0.6379  0.5620
 8453SOL     OW36817   4.094   2.878   7.472 -0.1473 -0.2836 -0.3673
 8453SOL    HW136818   4.047   2.919   7.399  0.0142 -0.0176 -0.3244
 8453SOL    HW236819   4.169   2.938   7.472 -1.0911  0.8992  0.6024
 8454SOL     OW36820   3.330   1.335   9.169  0.0551 -0.0459 -0.2383
 8454SOL    HW136821   3.340   1.394   9.095  0.0721 -0.1053 -0.2835
 8454SOL    HW236822   3.280   1.391   9.228 -0.3436  0.7840 -1.3657
 8455SOL     OW36823   2.454   3.557   8.885  0.1060  0.5921 -0.0245
 8455SOL    HW136824   2.408   3.582   8.965 -1.1132  0.5502 -0.7116
 8455SOL    HW236825   2.526   3.619   8.893 -0.4535  1.7014 -3.8432
 8456SOL     OW36826   0.959   2.951   2.714  0.6761 -0.2985 -0.0311
 8456SOL    HW136827   0.927   2.956   2.624  1.1046 -0.0076 -0.1701
 8456SOL    HW236828   1.053   2.956   2.698  1.1030 -0.3337  2.3907
 8457SOL     OW36829   1.659   3.445   3.088  0.7012  0.6352  0.3155
 8457SOL    HW136830   1.590   3.409   3.144  0.6534 -0.0303 -0.1710
 8457SOL    HW236831   1.697   3.524   3.127 -1.0978  2.2465 -1.1712
 8458SOL     OW36832   4.297   2.211  17.651 -0.2759  0.0590 -0.5721
 8458SOL    HW136833   4.237   2.168  17.589  0.2980 -1.9722  0.2758
 8458SOL    HW236834   4.252   2.193   0.028 -1.9242 -0.4542 -1.5588
 8459SOL     OW36835   2.302   3.566   5.700  0.0988 -0.0049  0.1696
 8459SOL    HW136836   2.385   3.598   5.663 -0.8776  1.4947 -0.7065
 8459SOL    HW236837   2.292   3.475   5.673 -2.1116  0.5584 -0.8825
 8460SOL     OW36838   1.380   1.122   1.722 -0.1452 -0.4367 -0.5061
 8460SOL    HW136839   1.424   1.206   1.703 -2.1909  1.1774  1.9869
 8460SOL    HW236840   1.361   1.112   1.628  1.2530 -4.6498 -0.3337
 8461SOL     OW36841   1.722   2.230  12.657 -0.3172 -0.4301  0.1685
 8461SOL    HW136842   1.811   2.251  12.685  0.1313 -2.4854  0.2834
 8461SOL    HW236843   1.680   2.185  12.730 -2.8281  0.0733 -0.9453
 8462SOL     OW36844   4.524   2.673   4.760  0.4874 -0.2633 -0.2134
 8462SOL    HW136845   4.586   2.671   4.688  0.9947  0.9860  0.1934
 8462SOL    HW236846   4.549   2.742   4.821  2.5387 -0.6270 -0.6703
 8463SOL     OW36847   1.819   0.743   7.841  0.4995 -0.4757  0.4446
 8463SOL    HW136848   1.855   0.813   7.897  1.9250 -0.2530 -0.7655
 8463SOL    HW236849   1.727   0.752   7.867 -0.4505 -1.7991 -2.4812
 8464SOL     OW36850   3.035   2.730  15.567  0.5158  1.0500  0.3932
 8464SOL    HW136851   2.959   2.679  15.538 -1.3014  2.7628  2.1648
 8464SOL    HW236852   3.108   2.669  15.553 -1.3865 -1.1400  0.0366
 8465SOL     OW36853   3.524   3.117   6.940 -0.2749 -0.5143  0.3458
 8465SOL    HW136854   3.473   3.119   6.859  2.1207 -1.8421 -1.2116
 8465SOL    HW236855   3.484   3.044   6.987 -1.0143  1.8416  3.3971
 8466SOL     OW36856   3.895   1.081   8.693  0.0217  0.5603  0.4326
 8466SOL    HW136857   3.883   1.172   8.721 -2.1318  0.3538  0.1158
 8466SOL    HW236858   3.963   1.047   8.752 -0.1219  2.2709  1.5932
 8467SOL     OW36859   1.830   3.789   7.140  0.2860  0.5540 -0.6165
 8467SOL    HW136860   1.913   3.817   7.180  1.8489 -1.7190 -2.2095
 8467SOL    HW236861   1.855   3.809   7.049  2.8000 -0.4390 -0.1656
 8468SOL     OW36862   1.394   4.403   7.240  0.5500 -0.7437  0.4467
 8468SOL    HW136863   1.422   4.313   7.259 -0.0358 -1.0759 -0.2645
 8468SOL    HW236864   1.329   4.382   7.173 -0.2251  1.0762  0.6325
 8469SOL     OW36865   0.796   2.895   1.993 -0.0039  0.2346 -0.4679
 8469SOL    HW136866   0.803   2.879   1.899 -0.0432  1.1703 -0.6339
 8469SOL    HW236867   0.762   2.984   2.008  1.2293  0.2768  1.9991
 8470SOL     OW36868   4.279   1.955   0.492  0.0306  0.4256 -0.3577
 8470SOL    HW136869   4.316   1.945   0.404 -0.7519  0.2997 -0.6743
 8470SOL    HW236870   4.356   1.939   0.546  0.7985  2.1664 -0.9365
 8471SOL     OW36871   1.958   3.706   8.301  0.0770  0.6455 -0.3242
 8471SOL    HW136872   1.945   3.788   8.349 -1.7771  0.4863 -0.5398
 8471SOL    HW236873   2.034   3.736   8.252  0.9679  0.3963  0.8897
 8472SOL     OW36874   1.259   0.468   9.439 -0.1019 -0.4137  0.2744
 8472SOL    HW136875   1.194   0.507   9.497 -0.3180 -0.0387 -0.2155
 8472SOL    HW236876   1.297   0.404   9.499  3.3383  0.0157 -1.4349
 8473SOL     OW36877   0.143   0.345   3.654 -0.3192  0.8163  0.0768
 8473SOL    HW136878   0.197   0.423   3.639 -2.5611  1.9676 -1.9760
 8473SOL    HW236879   0.082   0.355   3.582 -1.5587  0.5858  1.1018
 8474SOL     OW36880   1.845   1.545   8.808 -0.0869  0.2537  0.1978
 8474SOL    HW136881   1.769   1.551   8.867  0.4539 -1.5671  1.0626
 8474SOL    HW236882   1.909   1.505   8.866 -2.0219 -1.6163  1.0511
 8475SOL     OW36883   0.319   1.088   3.491  0.4164  0.3798  0.6724
 8475SOL    HW136884   0.344   1.012   3.544  2.2011  0.0844 -0.6288
 8475SOL    HW236885   0.401   1.135   3.475 -0.7910  1.9047 -1.0395
 8476SOL     OW36886   1.581   2.587   0.832 -0.1568 -0.0605 -0.3611
 8476SOL    HW136887   1.634   2.508   0.822  0.7027  0.3952  0.5854
 8476SOL    HW236888   1.645   2.647   0.793  0.1838 -1.1205 -1.4614
 8477SOL     OW36889   2.776   1.686   9.062 -0.4151  0.0016  0.4547
 8477SOL    HW136890   2.864   1.722   9.066 -0.2100 -0.2947 -1.3047
 8477SOL    HW236891   2.734   1.745   8.999 -0.1529  1.5586  1.7538
 8478SOL     OW36892   2.614   1.400   8.370 -0.4556 -0.0352 -0.0367
 8478SOL    HW136893   2.663   1.402   8.288  1.9460  0.4900  1.4041
 8478SOL    HW236894   2.687   1.391   8.432  1.3453  3.0748 -1.6766
 8479SOL     OW36895   0.736   2.236  13.814 -0.0423  0.2453 -0.2327
 8479SOL    HW136896   0.747   2.142  13.803 -0.4418  0.3831 -1.8373
 8479SOL    HW236897   0.664   2.242  13.876  2.0531  0.7135  2.1584
 8480SOL     OW36898   1.157   1.077  10.802 -0.0332  0.6390 -0.2437
 8480SOL    HW136899   1.201   1.143  10.748 -0.3732  0.8256 -0.2968
 8480SOL    HW236900   1.184   1.105  10.889  2.7059  0.6025 -1.0983
 8481SOL     OW36901   2.788   1.094   5.561 -0.7356  0.2846 -0.0374
 8481SOL    HW136902   2.882   1.074   5.561 -0.9847 -0.8859 -1.7244
 8481SOL    HW236903   2.777   1.155   5.634 -1.3401 -0.0988  0.1929
 8482SOL     OW36904   2.092   0.541   8.583 -0.0174  0.4659  0.1150
 8482SOL    HW136905   2.090   0.563   8.676 -0.7169  0.9792 -0.0186
 8482SOL    HW236906   2.055   0.623   8.552 -1.9782 -1.1753 -1.8563
 8483SOL     OW36907   2.697   3.985   8.553  0.3990  0.2677  0.4566
 8483SOL    HW136908   2.652   4.043   8.492  1.6251  0.3337 -0.3954
 8483SOL    HW236909   2.688   4.035   8.634 -0.3176  0.4720  0.2503
 8484SOL     OW36910   3.982   1.320   4.069 -0.3259 -0.6928  0.0789
 8484SOL    HW136911   3.959   1.350   4.157  1.4432  0.5480  0.1137
 8484SOL    HW236912   3.897   1.307   4.028  0.6539 -2.5701 -1.3598
 8485SOL     OW36913   3.002   3.127   9.724  0.6044 -0.6264 -0.0074
 8485SOL    HW136914   3.069   3.176   9.771  2.5364 -3.9011  0.7350
 8485SOL    HW236915   3.051   3.046   9.706  1.6106  0.4109 -2.0292
 8486SOL     OW36916   2.135   2.651   6.888  0.0018  0.5197  0.0263
 8486SOL    HW136917   2.122   2.609   6.973  1.0678 -0.7284 -0.4351
 8486SOL    HW236918   2.143   2.742   6.918 -0.8372  1.0315 -1.2945
 8487SOL     OW36919   1.197   0.942  17.197 -0.4015 -0.3908  0.1678
 8487SOL    HW136920   1.240   0.986  17.123  0.3486  0.9204  1.3863
 8487SOL    HW236921   1.126   0.907  17.144 -2.2340  3.9178 -0.2519
 8488SOL     OW36922   1.659   4.070  13.392 -0.2149  0.5035 -1.0668
 8488SOL    HW136923   1.752   4.048  13.384 -0.3330 -0.8115  1.1679
 8488SOL    HW236924   1.640   4.081  13.298 -0.1796  2.3776 -0.8579
 8489SOL     OW36925   3.948   3.719  11.819  0.6190 -0.1310 -0.1800
 8489SOL    HW136926   4.001   3.764  11.885  0.3259  0.3695 -0.2855
 8489SOL    HW236927   3.870   3.774  11.810 -0.9456 -2.5314 -1.1491
 8490SOL     OW36928   4.698   2.248   6.584  0.1570 -0.1257 -0.3608
 8490SOL    HW136929   4.639   2.323   6.590  0.8832  0.3766  0.5193
 8490SOL    HW236930   4.659   2.195   6.514 -2.8926  0.1287  1.1156
 8491SOL     OW36931   4.704   4.074  14.461 -0.2091  0.2569  0.2097
 8491SOL    HW136932   4.636   4.103  14.522 -1.4876 -1.6731 -0.2799
 8491SOL    HW236933   4.662   4.006  14.408  1.3993  0.0581 -0.8093
 8492SOL     OW36934   3.419   0.071  16.856 -0.2050  0.1587  1.0538
 8492SOL    HW136935   3.446   0.089  16.767 -2.0347  0.1226  0.4873
 8492SOL    HW236936   3.324   0.070  16.846 -0.0560 -2.1930 -0.1663
 8493SOL     OW36937   0.053   4.568   6.896 -0.2088  0.6954 -0.0634
 8493SOL    HW136938   0.144   4.599   6.896  0.0570 -0.0894 -0.0995
 8493SOL    HW236939   0.019   4.555   6.807 -2.5503 -0.8982  1.0775
 8494SOL     OW36940   1.727   1.698   1.286 -0.2118  0.3648  0.4832
 8494SOL    HW136941   1.676   1.775   1.311  1.7014  0.9013  2.8188
 8494SOL    HW236942   1.819   1.725   1.293 -0.9478  2.7141  0.8129
 8495SOL     OW36943   0.796   0.467   3.658  0.9008 -1.1148 -0.2557
 8495SOL    HW136944   0.740   0.390   3.648 -0.2341 -0.0233 -2.3491
 8495SOL    HW236945   0.762   0.510   3.580 -0.8602  2.6938  2.6269
 8496SOL     OW36946   1.739   1.929  10.794 -0.3379  0.2530  0.1677
 8496SOL    HW136947   1.816   1.978  10.824 -1.4238  0.3270  2.8353
 8496SOL    HW236948   1.746   1.922  10.699 -1.9735 -1.0878  0.1551
 8497SOL     OW36949   0.817   2.253  11.160 -0.1479 -0.2794 -0.5058
 8497SOL    HW136950   0.794   2.317  11.093  0.5808  0.1218 -0.3705
 8497SOL    HW236951   0.727   2.234  11.185  0.1322 -1.2112 -0.1845
 8498SOL     OW36952   0.923   2.947  10.397  0.2306 -0.2616 -0.0024
 8498SOL    HW136953   0.972   2.865  10.400  1.2024  0.4649  2.9817
 8498SOL    HW236954   0.907   2.956  10.491 -1.5798 -0.6055 -0.2796
 8499SOL     OW36955   3.693   4.076   6.260  0.2712  0.5541 -0.0931
 8499SOL    HW136956   3.713   4.001   6.205 -0.0047  0.4894 -0.1052
 8499SOL    HW236957   3.753   4.140   6.223  2.9516 -1.3092  0.9890
 8500SOL     OW36958   4.472   3.019   3.667 -0.0887  0.5081  0.7374
 8500SOL    HW136959   4.416   2.942   3.675  1.7759 -0.9009  0.3058
 8500SOL    HW236960   4.464   3.061   3.753  0.2887  1.0057  0.5333
 8501SOL     OW36961   2.031   2.661  15.380 -0.1629 -0.1949  0.7375
 8501SOL    HW136962   1.943   2.667  15.341  0.0197 -1.9773  0.0393
 8501SOL    HW236963   2.014   2.713  15.458  1.3359  1.7599 -0.2446
 8502SOL     OW36964   2.249   1.890   2.915  0.3513  0.0999 -0.3700
 8502SOL    HW136965   2.308   1.901   2.989 -0.2911 -1.0287  0.3126
 8502SOL    HW236966   2.268   1.802   2.883  0.7275 -0.3457  1.1190
 8503SOL     OW36967   3.481   1.974   8.025  0.0001 -0.1073  0.0458
 8503SOL    HW136968   3.493   2.042   8.091  0.4593 -0.1604  0.0160
 8503SOL    HW236969   3.416   2.012   7.965  2.4697 -0.3034 -2.7766
 8504SOL     OW36970   1.138   3.367  14.905 -1.1104 -0.2473 -0.2236
 8504SOL    HW136971   1.220   3.377  14.952 -0.7916 -3.5066 -0.0414
 8504SOL    HW236972   1.121   3.461  14.910  0.0180 -0.1261  1.2342
 8505SOL     OW36973   0.274   1.659   8.363  0.1566 -0.1537  0.4386
 8505SOL    HW136974   0.200   1.720   8.370  0.9497  0.8007  0.4696
 8505SOL    HW236975   0.308   1.686   8.278  2.5646 -1.8072  0.8711
 8506SOL     OW36976   2.194   2.984   1.847  0.0649  0.1186  0.0119
 8506SOL    HW136977   2.188   2.897   1.885  3.0828  0.0804  0.3921
 8506SOL    HW236978   2.103   3.014   1.842  0.4898  1.3868 -0.0522
 8507SOL     OW36979   3.726   4.724  11.761  0.4988  0.2116  0.5733
 8507SOL    HW136980   3.785   0.063  11.724 -0.8993  0.4486 -1.2373
 8507SOL    HW236981   3.684   0.064  11.817  1.0988  1.7420 -0.7821
 8508SOL     OW36982   3.936   4.171   4.316 -0.2369  0.2914  0.1562
 8508SOL    HW136983   4.004   4.237   4.304  0.7335 -0.8311 -0.6715
 8508SOL    HW236984   3.895   4.194   4.232 -0.7057  0.7789  0.5181
 8509SOL     OW36985   3.108   4.102   2.595 -0.3061  0.1404  0.5616
 8509SOL    HW136986   3.174   4.093   2.526 -0.9010 -1.7243  0.2238
 8509SOL    HW236987   3.148   4.158   2.660  0.1178  1.1345 -0.5514
 8510SOL     OW36988   0.600   2.693   3.503 -0.2371 -0.2324 -0.1304
 8510SOL    HW136989   0.586   2.707   3.409  0.5038 -0.0247 -0.2131
 8510SOL    HW236990   0.564   2.776   3.535 -0.7904 -0.2961 -0.5878
 8511SOL     OW36991   3.926   2.608   1.668 -0.0302  0.0275 -0.4176
 8511SOL    HW136992   3.917   2.532   1.610 -0.6178 -2.7939  3.3667
 8511SOL    HW236993   3.843   2.599   1.714 -0.1781 -0.8610 -0.8627
 8512SOL     OW36994   1.226   1.827   5.114 -0.3224 -0.2183  0.1838
 8512SOL    HW136995   1.195   1.821   5.023 -0.8987  0.5354  0.3338
 8512SOL    HW236996   1.253   1.919   5.121 -2.2780  0.3090  0.7798
 8513SOL     OW36997   4.559   2.187   4.381 -0.5186  0.0192  0.2012
 8513SOL    HW136998   4.535   2.218   4.293  0.4289 -1.6756 -0.6620
 8513SOL    HW236999   4.640   2.235   4.399 -1.2526  1.3208  0.0088
 8514SOL     OW37000   1.959   0.373   8.424 -0.1738 -0.0352  0.0180
 8514SOL    HW137001   1.870   0.406   8.427 -0.6161 -0.9847 -2.7309
 8514SOL    HW237002   2.001   0.434   8.484  0.7062  0.9665 -1.6098
 8515SOL     OW37003   3.024   4.124   1.303 -0.7840 -0.9677 -0.0097
 8515SOL    HW137004   2.938   4.085   1.319 -0.8914  0.4739  2.9230
 8515SOL    HW237005   3.070   4.085   1.378  1.4929  1.8696  0.0448
 8516SOL     OW37006   4.325   3.154   3.152  0.0045  0.5931 -1.0411
 8516SOL    HW137007   4.306   3.113   3.236 -0.3980  0.9923 -0.9396
 8516SOL    HW237008   4.328   3.247   3.173 -2.3627  0.2006  0.9789
 8517SOL     OW37009   2.483   4.546  16.828 -0.0792 -0.1933  0.1448
 8517SOL    HW137010   2.463   4.542  16.922  1.5702 -1.7157  0.4482
 8517SOL    HW237011   2.521   4.460  16.811 -0.1509 -0.0419 -0.7980
 8518SOL     OW37012   1.992   4.456  11.286 -0.2469 -0.0451  0.4794
 8518SOL    HW137013   2.051   4.393  11.246 -0.1959 -1.6572  3.1030
 8518SOL    HW237014   2.011   4.536  11.236  1.1863 -1.2265 -0.8668
 8519SOL     OW37015   3.219   2.883   6.218  0.0153  0.1569  0.0940
 8519SOL    HW137016   3.310   2.857   6.205 -0.0412 -0.8198  1.6056
 8519SOL    HW237017   3.236   2.973   6.190 -0.1043 -0.0242 -0.5528
 8520SOL     OW37018   0.144   2.673   4.065 -0.1966  0.6080 -0.3203
 8520SOL    HW137019   0.088   2.631   3.999 -1.0687 -0.6286  1.2290
 8520SOL    HW237020   0.195   2.738   4.016  2.8087 -1.6334 -0.1262
 8521SOL     OW37021   4.017   3.390   1.934  0.1587 -0.3012  0.3152
 8521SOL    HW137022   4.101   3.373   1.891  0.4519 -2.0134  1.6118
 8521SOL    HW237023   4.035   3.467   1.989 -2.3308 -0.1265  0.8436
 8522SOL     OW37024   2.172   2.118   2.144  0.1061  0.3961  0.3406
 8522SOL    HW137025   2.089   2.141   2.101  0.9306  1.8599 -0.4748
 8522SOL    HW237026   2.157   2.027   2.169 -3.4855  0.8289 -0.1715
 8523SOL     OW37027   3.174   0.710   6.226 -0.0151 -0.4485 -0.1543
 8523SOL    HW137028   3.228   0.780   6.188 -1.6305  0.8769 -0.0366
 8523SOL    HW237029   3.143   0.760   6.302 -2.5157  0.4799 -1.7833
 8524SOL     OW37030   2.578   3.824   4.812  0.8835 -0.5125  0.0459
 8524SOL    HW137031   2.659   3.802   4.766  0.8328  0.7712 -0.6677
 8524SOL    HW237032   2.521   3.755   4.778 -0.5002  0.5628  0.1532
 8525SOL     OW37033   0.518   4.527   8.512  0.0499  0.5405 -0.2558
 8525SOL    HW137034   0.442   4.584   8.525 -1.4288 -1.2895 -0.9983
 8525SOL    HW237035   0.493   4.443   8.549 -0.4964  1.8309  2.2608
 8526SOL     OW37036   3.408   0.460   3.393 -0.4204  0.7100  0.1289
 8526SOL    HW137037   3.342   0.441   3.460  0.3703  1.8228  1.2120
 8526SOL    HW237038   3.488   0.444   3.443 -1.5896 -1.9374  1.1720
 8527SOL     OW37039   3.669   0.041   3.143 -0.3542  0.0223  0.2855
 8527SOL    HW137040   3.724   0.109   3.182 -0.5734 -0.0363  0.6982
 8527SOL    HW237041   3.581   0.059   3.176 -1.1684  3.6141 -3.7697
 8528SOL     OW37042   3.059   1.407   2.161  0.5556  0.0059 -0.4844
 8528SOL    HW137043   3.023   1.319   2.151  0.7172 -0.3494  2.0825
 8528SOL    HW237044   3.046   1.443   2.074  0.7425  0.2713 -0.4014
 8529SOL     OW37045   1.203   1.298  13.911 -0.3217 -0.2750 -0.5463
 8529SOL    HW137046   1.259   1.330  13.840  1.2523  1.0574  1.2973
 8529SOL    HW237047   1.151   1.231  13.866 -1.4720 -0.3747  0.9362
 8530SOL     OW37048   0.808   1.801  14.562  0.3863 -0.0260  0.4147
 8530SOL    HW137049   0.854   1.818  14.644 -1.7545  3.0641  0.9752
 8530SOL    HW237050   0.792   1.707  14.556  0.1449 -0.2205  4.1470
 8531SOL     OW37051   1.276   1.678   2.497  0.1120 -0.5040  0.0164
 8531SOL    HW137052   1.260   1.760   2.544  0.4192 -0.9330  0.8735
 8531SOL    HW237053   1.233   1.614   2.553 -1.4004  0.0516 -0.4953
 8532SOL     OW37054   1.358   1.468   9.806  1.0552  0.6916  0.3212
 8532SOL    HW137055   1.397   1.464   9.719 -0.2452 -0.3928 -0.2305
 8532SOL    HW237056   1.352   1.374   9.823  0.8500  0.3400 -1.6812
 8533SOL     OW37057   0.478   0.928   3.797  0.0644 -0.0710 -0.2371
 8533SOL    HW137058   0.567   0.898   3.817  0.2347 -0.5926 -1.8052
 8533SOL    HW237059   0.481   1.016   3.832 -0.7868 -1.3279  2.9826
 8534SOL     OW37060   4.028   0.708   5.371  0.0663 -0.3695  0.1187
 8534SOL    HW137061   4.050   0.670   5.456 -0.5360 -0.9404  0.0221
 8534SOL    HW237062   3.942   0.672   5.349 -0.6395  1.2263  0.2618
 8535SOL     OW37063   2.702   1.813   5.541 -0.5847  0.0805 -0.1318
 8535SOL    HW137064   2.687   1.875   5.612  0.4949  1.8036 -1.4153
 8535SOL    HW237065   2.663   1.860   5.467 -0.8529  2.0155  1.2507
 8536SOL     OW37066   4.569   1.581   7.199 -0.3150 -0.1277  0.2122
 8536SOL    HW137067   4.616   1.664   7.204  2.7737 -1.9557  1.6429
 8536SOL    HW237068   4.611   1.557   7.117  2.7503  1.3796  1.3364
 8537SOL     OW37069   4.225   3.982   0.758 -0.2858 -0.2989 -0.2410
 8537SOL    HW137070   4.176   3.972   0.676 -1.0874 -2.3111  0.4780
 8537SOL    HW237071   4.291   4.041   0.722  1.7496 -2.0713  0.5781
 8538SOL     OW37072   0.982   3.968   6.254 -0.4268 -0.3779 -0.5930
 8538SOL    HW137073   0.948   3.963   6.165 -1.2458  1.0720 -0.3431
 8538SOL    HW237074   1.062   4.019   6.239  0.5271 -1.3002  1.2760
 8539SOL     OW37075   2.953   3.436  12.289  0.1078 -0.2607 -0.8321
 8539SOL    HW137076   2.907   3.488  12.224 -1.6591 -1.6639 -0.7288
 8539SOL    HW237077   2.942   3.490  12.367  1.6164 -0.4656 -0.4649
 8540SOL     OW37078   1.221   4.360   2.943 -0.5410  0.3434  0.3580
 8540SOL    HW137079   1.256   4.285   2.895  1.6514  0.0118  2.4425
 8540SOL    HW237080   1.165   4.310   3.002  0.2632 -2.2976 -1.1259
 8541SOL     OW37081   2.816   4.397   9.127 -0.0791  0.2088  0.1359
 8541SOL    HW137082   2.797   4.397   9.033  0.0551 -2.3071  0.1136
 8541SOL    HW237083   2.796   4.303   9.134 -0.8611  0.2494 -1.4385
 8542SOL     OW37084   4.705   2.848  11.757 -0.9792  0.2899  0.0262
 8542SOL    HW137085   4.659   2.913  11.704 -3.6950 -1.8594 -0.2566
 8542SOL    HW237086   0.066   2.887  11.747 -1.1526  0.6957  0.1150
 8543SOL     OW37087   0.901   3.733   7.930 -0.2416 -0.1490  0.1579
 8543SOL    HW137088   0.940   3.782   7.858 -0.1126 -0.9551 -0.3109
 8543SOL    HW237089   0.818   3.779   7.926 -0.4424 -0.5821 -0.4767
 8544SOL     OW37090   3.175   0.161   2.343  0.1209 -0.1776  0.1565
 8544SOL    HW137091   3.205   0.136   2.430  3.4854 -1.8885 -1.4987
 8544SOL    HW237092   3.255   0.200   2.309  0.8450 -0.5544  1.4239
 8545SOL     OW37093   2.164   4.271   5.902  0.6096  0.4265 -0.1333
 8545SOL    HW137094   2.190   4.330   5.832  0.7549  0.7334  0.1744
 8545SOL    HW237095   2.202   4.311   5.981 -1.0350 -0.8598  1.3167
 8546SOL     OW37096   1.227   4.486   2.526 -0.0232 -0.4979 -0.1416
 8546SOL    HW137097   1.229   4.566   2.473  1.7129 -2.8017 -3.5425
 8546SOL    HW237098   1.157   4.436   2.483 -0.5584 -1.4152  1.8037
 8547SOL     OW37099   2.357   4.618   6.293 -0.4787  0.2069  0.6672
 8547SOL    HW137100   2.392   4.638   6.380  0.6242 -0.6552  0.4191
 8547SOL    HW237101   2.435   4.611   6.239 -2.2104 -0.3482 -1.7656
 8548SOL     OW37102   4.022   0.865   8.208 -0.0022 -0.0810 -0.4903
 8548SOL    HW137103   4.098   0.812   8.231 -0.0916 -0.1530 -0.3616
 8548SOL    HW237104   4.060   0.953   8.198 -1.1766  0.4835  0.0270
 8549SOL     OW37105   0.533   4.398   9.499  0.4646 -0.0512 -0.4552
 8549SOL    HW137106   0.595   4.438   9.560 -0.8638 -2.4424  2.4852
 8549SOL    HW237107   0.584   4.322   9.472  2.9657  1.3883  0.2328
 8550SOL     OW37108   0.043   4.562   5.601 -0.0735 -0.0083  0.6274
 8550SOL    HW137109   4.713   4.531   5.530  0.0525  0.5139  0.2987
 8550SOL    HW237110   0.056   4.477   5.644  0.9983 -0.5621 -0.8082
 8551SOL     OW37111   4.251   0.693   5.661 -0.1147 -0.0797 -0.5919
 8551SOL    HW137112   4.311   0.717   5.731  0.9304 -1.0997 -1.1448
 8551SOL    HW237113   4.277   0.739   5.581 -0.3613  0.5916 -0.2808
 8552SOL     OW37114   3.564   0.142   9.131 -0.1435  0.3294  0.1447
 8552SOL    HW137115   3.493   0.168   9.191  0.4027  1.0969  0.4589
 8552SOL    HW237116   3.518   0.177   9.055  2.2384 -0.1963 -1.5304
 8553SOL     OW37117   2.803   3.955   8.027 -0.0668 -0.4695 -0.0841
 8553SOL    HW137118   2.869   3.919   7.967  2.2078  0.6323  1.7557
 8553SOL    HW237119   2.853   3.974   8.106  1.5199  0.3821 -1.2973
 8554SOL     OW37120   2.811   0.068   0.907  0.5403  0.1699 -0.3637
 8554SOL    HW137121   2.903   0.086   0.887  0.8848 -1.7311 -0.5302
 8554SOL    HW237122   2.822   0.004   0.977 -0.5310 -1.0646 -1.3295
 8555SOL     OW37123   3.271   0.897  12.229 -0.3255 -0.3996 -0.0900
 8555SOL    HW137124   3.253   0.991  12.229  1.5933 -0.0244 -1.8018
 8555SOL    HW237125   3.350   0.900  12.174 -1.0581 -2.0976 -1.2470
 8556SOL     OW37126   2.391   4.421  12.061 -0.5911 -0.1973 -0.2624
 8556SOL    HW137127   2.452   4.465  12.120 -0.6858 -0.5741  0.1104
 8556SOL    HW237128   2.355   4.365  12.129  1.7886 -1.1519  0.1937
 8557SOL     OW37129   4.228   0.204   2.260  0.2060  0.4328  0.4199
 8557SOL    HW137130   4.282   0.155   2.322  1.7700  2.8824  0.9518
 8557SOL    HW237131   4.183   0.129   2.221 -1.9838  2.9605 -1.9258
 8558SOL     OW37132   1.604   1.971   9.159  0.4933  0.4170 -0.6010
 8558SOL    HW137133   1.608   2.029   9.235  1.0073 -0.9004  0.3881
 8558SOL    HW237134   1.573   1.890   9.200  0.1215  1.2715  0.8351
 8559SOL     OW37135   0.774   2.300   6.623 -0.0854  0.4894  0.0909
 8559SOL    HW137136   0.804   2.388   6.600  0.6723 -0.2869 -1.9509
 8559SOL    HW237137   0.804   2.293   6.713 -1.9236  2.6662  0.8566
 8560SOL     OW37138   4.495   2.350   5.572 -0.0411 -0.0444 -0.2643
 8560SOL    HW137139   4.564   2.285   5.586  1.8263  1.4261 -2.6128
 8560SOL    HW237140   4.551   2.427   5.561 -1.3992  0.6991 -1.9229
 8561SOL     OW37141   4.257   3.268   6.267  0.1603 -0.0903 -0.2665
 8561SOL    HW137142   4.306   3.338   6.309  0.8222 -0.4501 -0.4415
 8561SOL    HW237143   4.326   3.202   6.263  0.3930  0.0536  1.4988
 8562SOL     OW37144   2.358   3.606   3.881 -0.0219  0.0039 -0.4397
 8562SOL    HW137145   2.275   3.598   3.834 -1.3210 -1.2701  2.0558
 8562SOL    HW237146   2.416   3.602   3.805  1.6246 -1.3640  0.8951
 8563SOL     OW37147   1.645   3.464   2.369  0.2460 -0.0686 -0.3004
 8563SOL    HW137148   1.684   3.397   2.313  0.1355 -1.4797  1.3039
 8563SOL    HW237149   1.607   3.525   2.305 -4.1964 -0.9701  1.4715
 8564SOL     OW37150   4.092   0.221   9.296  0.2086  0.2793 -0.3923
 8564SOL    HW137151   4.027   0.237   9.365  0.5824  0.3023 -0.0487
 8564SOL    HW237152   4.154   0.294   9.300  0.6399 -0.0311 -1.5070
 8565SOL     OW37153   2.866   2.348   7.500 -0.1642  0.3881 -0.1072
 8565SOL    HW137154   2.786   2.398   7.515 -0.1703  0.7801 -1.4216
 8565SOL    HW237155   2.885   2.314   7.587 -0.6532  2.4297  0.8078
 8566SOL     OW37156   1.868   2.372  11.335  0.2633  0.4694  0.1090
 8566SOL    HW137157   1.911   2.452  11.304  0.1944  0.3577 -0.2780
 8566SOL    HW237158   1.861   2.316  11.257  1.8463  1.2633 -0.6030
 8567SOL     OW37159   0.949   2.758   5.540 -0.2907  0.2203 -0.4949
 8567SOL    HW137160   0.918   2.685   5.593 -0.4087  0.9497  0.4271
 8567SOL    HW237161   0.881   2.822   5.561 -0.2622 -0.7301  2.3916
 8568SOL     OW37162   3.788   0.864   6.493  0.6164 -0.2399 -0.2072
 8568SOL    HW137163   3.798   0.772   6.516 -0.7230  0.2207  2.2121
 8568SOL    HW237164   3.814   0.903   6.577 -1.2271 -0.5291  0.5035
 8569SOL     OW37165   0.671   3.876   6.623 -0.1692 -0.3008 -0.1149
 8569SOL    HW137166   0.606   3.884   6.553 -1.2651  1.3880  1.0754
 8569SOL    HW237167   0.749   3.868   6.568 -0.3780 -3.3284  0.0442
 8570SOL     OW37168   4.156   2.710   5.531  0.1667  0.3864 -0.4545
 8570SOL    HW137169   4.078   2.766   5.531  0.6904  1.1398 -1.4942
 8570SOL    HW237170   4.130   2.649   5.463 -0.9788  0.1807  0.1768
 8571SOL     OW37171   2.070   0.683   6.796  0.1420 -0.0991 -0.0643
 8571SOL    HW137172   2.034   0.768   6.819 -0.7497 -0.8020  1.1094
 8571SOL    HW237173   1.992   0.627   6.796  0.6442 -0.8092  0.3324
 8572SOL     OW37174   2.134   0.311   4.740  0.1555  0.1775  0.2062
 8572SOL    HW137175   2.220   0.347   4.761  0.0090 -0.0916  1.2497
 8572SOL    HW237176   2.078   0.354   4.805 -0.7392 -0.8105  0.0978
 8573SOL     OW37177   0.965   1.064  12.750 -0.9534 -0.2670 -0.4292
 8573SOL    HW137178   0.887   1.051  12.805 -0.3668  0.5164  0.6028
 8573SOL    HW237179   1.000   0.976  12.736  2.7828  1.2014 -0.3574
 8574SOL     OW37180   0.399   2.011   5.199  0.4370  0.6741 -0.0344
 8574SOL    HW137181   0.322   2.031   5.147  0.7845  1.5183 -0.2261
 8574SOL    HW237182   0.371   2.028   5.289 -1.3396 -1.6802 -0.1721
 8575SOL     OW37183   2.317   4.644   7.795 -0.2954 -0.2404  0.2591
 8575SOL    HW137184   2.274   4.723   7.762 -0.8687 -0.8174 -0.3783
 8575SOL    HW237185   2.388   4.676   7.850 -0.4744 -1.0063  0.9420
 8576SOL     OW37186   3.939   1.930   4.083 -0.1390 -0.1304  0.2232
 8576SOL    HW137187   3.925   2.001   4.146 -0.9925 -0.7205  0.6958
 8576SOL    HW237188   4.004   1.960   4.020  1.7152 -1.3960  1.5173
 8577SOL     OW37189   1.724   1.367  16.198  0.2768  0.9507 -0.0925
 8577SOL    HW137190   1.737   1.273  16.194 -0.3090  0.8662 -0.0595
 8577SOL    HW237191   1.745   1.401  16.111 -1.9741  0.3082 -0.8860
 8578SOL     OW37192   1.206   0.377  14.675  0.1166 -0.1791 -0.5180
 8578SOL    HW137193   1.157   0.345  14.600 -0.8141  0.7519 -0.3054
 8578SOL    HW237194   1.279   0.424  14.634 -0.3907  3.1967  2.4522
 8579SOL     OW37195   3.100   3.444  16.795  0.0871 -0.0183  0.3287
 8579SOL    HW137196   3.171   3.394  16.836 -0.1881 -1.3702 -0.8675
 8579SOL    HW237197   3.028   3.411  16.848  0.6200 -0.2448  0.9190
 8580SOL     OW37198   4.120   0.250  14.185 -0.1578 -0.4418 -0.0957
 8580SOL    HW137199   4.071   0.236  14.267 -2.4622  4.3454 -0.6375
 8580SOL    HW237200   4.084   0.176  14.138 -0.4680  0.9080 -1.9711
 8581SOL     OW37201   2.139   0.605  16.599 -0.1416  0.5780  0.2388
 8581SOL    HW137202   2.175   0.602  16.510  1.1849  1.9679  0.7497
 8581SOL    HW237203   2.131   0.515  16.630  2.5351  0.3585  0.2957
 8582SOL     OW37204   0.930   0.349  16.382 -0.5941  0.7064  0.1813
 8582SOL    HW137205   0.892   0.303  16.457  0.6993  0.4287  0.6737
 8582SOL    HW237206   1.024   0.342  16.403 -0.5852  1.1901  0.2943
 8583SOL     OW37207   0.717   3.757   5.043  0.2142 -0.3131  0.0125
 8583SOL    HW137208   0.736   3.751   5.136 -1.1970  2.7501  0.4864
 8583SOL    HW237209   0.781   3.695   5.007  0.1291 -0.2435 -0.2631
 8584SOL     OW37210   2.581   3.873   1.963 -0.3272 -0.5774 -0.6539
 8584SOL    HW137211   2.650   3.807   1.964  0.1995 -0.0002  0.5020
 8584SOL    HW237212   2.638   3.947   1.983 -0.0653 -0.5923 -1.3618
 8585SOL     OW37213   2.945   3.362  13.881 -0.4474 -0.2338  0.5116
 8585SOL    HW137214   2.953   3.398  13.793  2.4187 -1.5274  0.2358
 8585SOL    HW237215   2.975   3.434  13.937  1.2889 -0.2608 -0.3992
 8586SOL     OW37216   3.416   2.664   9.518 -0.2811 -0.0411 -0.0360
 8586SOL    HW137217   3.339   2.708   9.482  0.0058 -0.2841 -0.9578
 8586SOL    HW237218   3.393   2.572   9.506 -3.7666  0.6383  1.4635
 8587SOL     OW37219   1.198   0.433   5.583  0.1044  0.0993  0.2633
 8587SOL    HW137220   1.234   0.491   5.650  0.3294  0.5681 -0.2524
 8587SOL    HW237221   1.277   0.380   5.570 -0.2950 -0.8189  1.6400
 8588SOL     OW37222   1.212   3.471   3.039 -0.2307 -0.1653  0.5081
 8588SOL    HW137223   1.262   3.418   2.977 -1.7312  1.9447 -2.4568
 8588SOL    HW237224   1.141   3.413   3.066 -1.5644  0.2583 -2.1235
 8589SOL     OW37225   3.427   2.731   2.353  0.4984  0.1214 -0.1836
 8589SOL    HW137226   3.428   2.639   2.382 -1.3084  0.6505  1.5756
 8589SOL    HW237227   3.354   2.763   2.406  1.5808 -0.1555  1.4588
 8590SOL     OW37228   1.879   3.252   5.183  0.0106 -0.1907  0.1357
 8590SOL    HW137229   1.798   3.213   5.214 -0.1757 -0.2535 -0.4363
 8590SOL    HW237230   1.911   3.191   5.117  0.5589 -0.0005  0.2202
 8591SOL     OW37231   3.676   1.018   4.007  0.2661  0.3212 -0.1187
 8591SOL    HW137232   3.717   1.042   3.924  2.3257  0.8852  1.0819
 8591SOL    HW237233   3.667   1.106   4.044  0.3448  0.5194 -0.5682
 8592SOL     OW37234   3.004   4.138   5.321  0.1783  0.3399 -0.4601
 8592SOL    HW137235   2.972   4.193   5.249 -0.5927 -2.2943 -2.1295
 8592SOL    HW237236   3.081   4.101   5.279  0.2570 -0.7030  0.5995
 8593SOL     OW37237   2.769   2.401   7.155  0.0954  0.5211 -0.1100
 8593SOL    HW137238   2.738   2.384   7.066 -0.6524 -1.8543  0.6163
 8593SOL    HW237239   2.704   2.458   7.196  1.1135  0.6099  1.3790
 8594SOL     OW37240   1.959   0.203   9.279  0.4204  0.6560 -0.4601
 8594SOL    HW137241   2.016   0.129   9.301 -1.3709 -0.3760  0.7025
 8594SOL    HW237242   1.907   0.209   9.359 -2.4900 -1.5073 -2.2034
 8595SOL     OW37243   4.239   0.433   8.327 -0.1299 -0.1105  0.2328
 8595SOL    HW137244   4.147   0.421   8.352  0.5534 -0.3737  2.6255
 8595SOL    HW237245   4.285   0.381   8.393 -0.5931 -0.5132  0.2417
 8596SOL     OW37246   0.033   4.133   7.283  0.3493  0.4688  0.1837
 8596SOL    HW137247   0.034   4.209   7.341 -1.5088 -0.5677  1.5887
 8596SOL    HW237248   4.672   4.096   7.299  0.1027  1.3761  0.9524
 8597SOL     OW37249   0.291   2.938  13.155 -0.2795 -0.2323 -0.2053
 8597SOL    HW137250   0.236   2.868  13.121 -1.8264  0.6051  0.5978
 8597SOL    HW237251   0.307   2.904  13.243  0.4634 -0.3311 -0.3752
 8598SOL     OW37252   1.390   1.343   2.653 -0.2916  0.0371 -0.6233
 8598SOL    HW137253   1.467   1.400   2.651  0.9218 -1.5831  0.0885
 8598SOL    HW237254   1.395   1.293   2.571  0.7598 -1.1798  0.1964
 8599SOL     OW37255   3.841   1.748   3.781 -0.4781 -0.1268  0.2123
 8599SOL    HW137256   3.879   1.689   3.846  1.2871  0.8316  0.0501
 8599SOL    HW237257   3.815   1.693   3.708 -1.2319  0.2753  0.1797
 8600SOL     OW37258   3.210   4.420   8.595 -0.5346 -0.2322 -0.1413
 8600SOL    HW137259   3.170   4.461   8.672  0.1394  0.4815 -0.1673
 8600SOL    HW237260   3.285   4.477   8.578  1.3754 -2.8407 -0.4234
 8601SOL     OW37261   1.530   1.052   3.319 -0.3289  0.3201 -0.0266
 8601SOL    HW137262   1.485   1.131   3.289 -1.9601 -0.4079  0.5186
 8601SOL    HW237263   1.622   1.079   3.322 -0.0978 -0.4768  0.0171
 8602SOL     OW37264   0.057   3.825   6.154 -0.3838 -0.3782 -0.0613
 8602SOL    HW137265   4.725   3.894   6.122  0.9374  0.8023  0.0820
 8602SOL    HW237266   0.004   3.747   6.140  1.5722 -1.4934 -1.2187
 8603SOL     OW37267   0.216   1.659   2.440  0.0762 -0.5379 -0.3139
 8603SOL    HW137268   0.209   1.706   2.523  2.2959  0.7308 -0.8448
 8603SOL    HW237269   0.309   1.672   2.422 -0.7627  1.0651 -3.5102
 8604SOL     OW37270   2.725   3.052   4.721 -0.1038 -0.4617 -0.1523
 8604SOL    HW137271   2.767   3.111   4.658 -1.7237  0.5667 -0.2489
 8604SOL    HW237272   2.638   3.092   4.721  1.0561  2.1031 -0.0435
 8605SOL     OW37273   0.306   3.587   1.435 -0.3804 -0.3285  0.2535
 8605SOL    HW137274   0.400   3.582   1.451 -0.1798  1.1373 -0.4971
 8605SOL    HW237275   0.299   3.568   1.341  0.7917 -0.1479  0.1354
 8606SOL     OW37276   4.359   4.198   3.661  0.1720  0.3328  0.1335
 8606SOL    HW137277   4.413   4.259   3.713  1.3299 -1.8981  1.5375
 8606SOL    HW237278   4.288   4.257   3.634 -0.9433 -1.6723 -1.2642
 8607SOL     OW37279   1.695   2.742  13.518 -0.0352  0.1616 -0.1492
 8607SOL    HW137280   1.698   2.693  13.600  2.1258  0.0756 -0.2802
 8607SOL    HW237281   1.775   2.792  13.533 -0.0508 -0.4425  1.9732
 8608SOL     OW37282   3.881   1.443  13.281 -0.0927  0.1176  0.2836
 8608SOL    HW137283   3.909   1.387  13.353  2.8281  2.1591  0.7245
 8608SOL    HW237284   3.812   1.498  13.318 -0.4281  1.0461 -1.7000
 8609SOL     OW37285   4.611   3.781   3.296  0.0581 -0.4108 -0.3557
 8609SOL    HW137286   4.550   3.760   3.225  3.1533  1.6177 -3.6111
 8609SOL    HW237287   4.663   3.841   3.242 -0.7677  1.3136  0.7514
 8610SOL     OW37288   4.313   1.952   9.816 -0.0730  0.1254  1.2841
 8610SOL    HW137289   4.387   1.933   9.873  0.2837 -0.4011  0.6586
 8610SOL    HW237290   4.236   1.951   9.873  0.8580  0.3980  2.5266
 8611SOL     OW37291   2.269   1.785   7.419 -0.2640 -0.0218  0.6257
 8611SOL    HW137292   2.272   1.819   7.329  1.2101 -2.2102 -0.1409
 8611SOL    HW237293   2.353   1.740   7.424  0.0525  0.7082  1.7743
 8612SOL     OW37294   1.016   4.348  14.009 -1.0678  0.2729  0.1493
 8612SOL    HW137295   1.091   4.309  13.964 -2.7921 -1.9099 -0.8315
 8612SOL    HW237296   0.944   4.324  13.951 -1.5862  1.2978  0.3669
 8613SOL     OW37297   0.927   3.216   3.954 -0.4814  0.0481 -0.3517
 8613SOL    HW137298   0.910   3.139   4.007  1.1334  0.3933  0.6697
 8613SOL    HW237299   1.019   3.229   3.977 -0.4969  1.2193 -0.9149
 8614SOL     OW37300   0.909   3.561   8.814  0.4752 -0.1724 -0.3990
 8614SOL    HW137301   0.936   3.507   8.889  2.1146  0.4210 -0.5456
 8614SOL    HW237302   0.820   3.570   8.847  0.2291  0.5693 -1.3040
 8615SOL     OW37303   0.279   1.525   3.950  0.1935  0.2068 -0.1618
 8615SOL    HW137304   0.313   1.497   3.865  1.9483  1.7086  0.0673
 8615SOL    HW237305   0.336   1.600   3.965  2.0633 -1.1614 -0.4252
 8616SOL     OW37306   0.310   1.172   4.327 -0.1569  0.1728  0.2694
 8616SOL    HW137307   0.276   1.209   4.409 -0.4133  0.8622 -0.1558
 8616SOL    HW237308   0.263   1.226   4.264 -1.6955 -0.9199  0.4836
 8617SOL     OW37309   3.791   2.062   5.341 -0.0314 -0.2645 -0.2170
 8617SOL    HW137310   3.886   2.053   5.348 -0.0941 -0.2734  0.5568
 8617SOL    HW237311   3.787   2.158   5.341 -0.4749 -0.2842 -0.4352
 8618SOL     OW37312   1.838   1.464  13.482  0.5767 -0.3796 -0.3635
 8618SOL    HW137313   1.769   1.525  13.506  0.3844 -0.3474 -0.9930
 8618SOL    HW237314   1.849   1.410  13.560  2.0703  0.6526  0.1394
 8619SOL     OW37315   2.751   4.360   2.484 -0.3002  0.0234 -0.1336
 8619SOL    HW137316   2.726   4.336   2.573  2.0764 -1.5694  0.1127
 8619SOL    HW237317   2.707   4.294   2.430 -0.9769  0.8652 -0.6052
 8620SOL     OW37318   4.396   1.192   5.047  0.2177  0.1569  0.1266
 8620SOL    HW137319   4.401   1.270   5.103 -0.1364 -0.8981  1.6162
 8620SOL    HW237320   4.358   1.227   4.966 -0.2373  0.6982  0.5709
 8621SOL     OW37321   4.499   2.291   8.167 -0.2811 -0.4216  0.5446
 8621SOL    HW137322   4.409   2.270   8.139 -0.3972  1.8937 -0.8353
 8621SOL    HW237323   4.552   2.296   8.087 -0.3111 -1.0610  0.4881
 8622SOL     OW37324   0.742   4.612  16.412 -0.2320  0.1031 -0.3420
 8622SOL    HW137325   0.718   4.569  16.494 -1.5095  2.0417  0.3107
 8622SOL    HW237326   0.777   4.537  16.364 -1.9256  0.2055 -1.7271
 8623SOL     OW37327   3.722   3.565   7.977  0.0680  0.2880  0.1056
 8623SOL    HW137328   3.651   3.564   8.041 -0.1941 -2.0186 -0.2243
 8623SOL    HW237329   3.688   3.628   7.913 -0.2244 -1.1028 -1.0933
 8624SOL     OW37330   2.431   0.214  14.950  0.3509 -0.0693  0.0514
 8624SOL    HW137331   2.500   0.263  14.996 -0.8019  0.6134  1.0662
 8624SOL    HW237332   2.353   0.270  14.948  1.4114  1.3662 -1.4822
 8625SOL     OW37333   1.984   1.711   9.019 -0.1634 -0.0893 -0.1668
 8625SOL    HW137334   1.956   1.715   9.111  1.1433 -1.5884  0.2912
 8625SOL    HW237335   1.987   1.617   9.006  2.1827 -0.0045 -0.2829
 8626SOL     OW37336   3.638   0.602   3.970 -0.0675  0.2083 -0.3041
 8626SOL    HW137337   3.559   0.655   3.958 -0.5323 -0.1043  1.4255
 8626SOL    HW237338   3.641   0.574   4.061  0.1082  2.1956  0.2850
 8627SOL     OW37339   2.919   0.555  13.600 -0.0784 -0.1384 -0.1900
 8627SOL    HW137340   2.960   0.584  13.519 -1.0107  1.2144 -0.1823
 8627SOL    HW237341   2.875   0.632  13.635 -0.5926  0.0735 -1.3277
 8628SOL     OW37342   1.086   2.256   9.256 -0.6391  0.3231  0.1903
 8628SOL    HW137343   1.138   2.192   9.207 -0.8946  1.3390 -1.3949
 8628SOL    HW237344   1.013   2.198   9.277 -0.6058 -0.6723 -2.4002
 8629SOL     OW37345   0.416   0.503  17.212  0.1120 -0.2868  0.3848
 8629SOL    HW137346   0.351   0.465  17.272 -0.3435 -0.7587 -0.3992
 8629SOL    HW237347   0.374   0.589  17.204 -0.1535 -0.6125 -1.6516
 8630SOL     OW37348   0.247   3.455   8.279  0.2549  0.3243 -0.4058
 8630SOL    HW137349   0.195   3.379   8.255  0.7354  0.1412 -0.8826
 8630SOL    HW237350   0.268   3.440   8.371  0.9374 -0.4976 -0.6950
 8631SOL     OW37351   0.720   0.099  15.577  0.3993 -0.3067 -0.0178
 8631SOL    HW137352   0.716   0.189  15.543  1.0735 -0.0910  0.4674
 8631SOL    HW237353   0.663   0.056  15.514 -0.5729 -1.5448  1.7219
 8632SOL     OW37354   2.185   2.535   4.070  0.4018 -0.3850 -0.0741
 8632SOL    HW137355   2.236   2.457   4.091 -0.9297 -1.4730 -0.8845
 8632SOL    HW237356   2.116   2.540   4.136  0.0392  1.3426 -0.5792
 8633SOL     OW37357   0.858   3.999   3.105  0.6306  0.0848 -0.5322
 8633SOL    HW137358   0.763   3.997   3.118  0.6796 -0.0964 -0.2005
 8633SOL    HW237359   0.892   3.928   3.159  0.4566 -0.4737 -1.1659
 8634SOL     OW37360   2.801   4.361   2.001 -0.4054  0.3463 -0.6135
 8634SOL    HW137361   2.855   4.376   2.079  0.0478 -0.4714 -0.7698
 8634SOL    HW237362   2.861   4.403   1.940  0.9762  0.1351  0.5992
 8635SOL     OW37363   3.353   1.750  10.706 -0.1718  0.0152  1.1035
 8635SOL    HW137364   3.282   1.808  10.679 -0.3084 -1.1894 -1.0975
 8635SOL    HW237365   3.341   1.745  10.801  1.8738 -1.2227  1.3025
 8636SOL     OW37366   3.787   0.140  17.010 -0.3639  0.3678 -0.0223
 8636SOL    HW137367   3.858   0.201  16.992  0.0691 -0.0373  0.3416
 8636SOL    HW237368   3.842   0.066  17.035 -0.0191  0.8395  0.6233
 8637SOL     OW37369   0.106   1.153   7.814 -0.2345  0.3975  0.0565
 8637SOL    HW137370   0.046   1.145   7.888 -0.1056 -0.4729  0.0644
 8637SOL    HW237371   0.181   1.108   7.853  0.0463  0.5395 -0.3303
 8638SOL     OW37372   1.965   0.233  15.592 -0.3010 -0.7857  0.1127
 8638SOL    HW137373   1.980   0.274  15.506  0.5391  0.2251  0.7505
 8638SOL    HW237374   1.870   0.227  15.602 -0.6786  0.5560 -2.6438
 8639SOL     OW37375   2.975   4.424  15.569 -0.4137  0.1748 -0.4135
 8639SOL    HW137376   3.044   4.405  15.632 -1.0051  1.7386  0.7256
 8639SOL    HW237377   3.020   4.396  15.490 -1.0755 -0.1520 -0.6783
 8640SOL     OW37378   0.581   0.387   3.491  0.2055 -0.0021 -0.1596
 8640SOL    HW137379   0.491   0.376   3.459  0.4589  2.2585 -1.6588
 8640SOL    HW237380   0.613   0.405   3.403  0.0355 -1.1860 -0.4659
 8641SOL     OW37381   4.171   3.279   6.944  0.2202  0.2527  0.4457
 8641SOL    HW137382   4.146   3.240   7.027 -0.7706 -0.9462 -0.4236
 8641SOL    HW237383   4.097   3.337   6.928  0.1095 -0.1905 -0.6338
 8642SOL     OW37384   0.266   2.003   9.160 -0.5063 -0.0589  0.0682
 8642SOL    HW137385   0.277   1.958   9.076  3.4030  0.9265  0.0279
 8642SOL    HW237386   0.183   2.045   9.141 -1.3087 -0.4654  2.6042
 8643SOL     OW37387   2.889   0.339  15.920  0.0875  0.2080  0.1316
 8643SOL    HW137388   2.904   0.361  15.828 -1.2829  2.0397  0.3532
 8643SOL    HW237389   2.848   0.423  15.941 -3.2999 -1.4924  0.4515
 8644SOL     OW37390   1.532   2.347   8.553 -0.2879 -0.3829  0.3171
 8644SOL    HW137391   1.573   2.260   8.557 -0.2095 -0.3904 -0.6580
 8644SOL    HW237392   1.550   2.379   8.641 -3.6605 -0.0832  0.9228
 8645SOL     OW37393   0.312   3.485  13.870 -0.1336 -0.1564 -0.4198
 8645SOL    HW137394   0.347   3.403  13.906  0.4621  1.0452  1.7290
 8645SOL    HW237395   0.306   3.545  13.944  2.7820  1.2712 -1.3615
 8646SOL     OW37396   3.358   0.203   9.307 -0.1359  0.0476 -0.2054
 8646SOL    HW137397   3.341   0.226   9.399 -3.5624  1.6088 -1.2220
 8646SOL    HW237398   3.291   0.256   9.264 -0.1037 -0.1115 -0.4493
 8647SOL     OW37399   3.274   0.549   2.215 -0.4466  0.2591  0.7682
 8647SOL    HW137400   3.275   0.641   2.190  2.9596  0.0002  0.0033
 8647SOL    HW237401   3.255   0.565   2.307 -1.6361  0.7106  0.4545
 8648SOL     OW37402   1.822   3.678  11.969 -0.3764  0.1663 -0.5304
 8648SOL    HW137403   1.877   3.682  12.047 -0.9301  2.0329 -0.2319
 8648SOL    HW237404   1.889   3.717  11.912 -1.7418  1.0924 -1.4937
 8649SOL     OW37405   3.382   1.916   5.888  0.1747 -0.3085  0.2389
 8649SOL    HW137406   3.403   1.955   5.803  1.2357  0.8436  1.0507
 8649SOL    HW237407   3.440   1.842   5.904 -0.0927 -1.1235 -2.4477
 8650SOL     OW37408   3.334   3.301   3.246  0.3054  0.5570 -0.1149
 8650SOL    HW137409   3.367   3.308   3.336 -2.5116  0.6569  0.9248
 8650SOL    HW237410   3.243   3.330   3.253  1.1205  2.4785  2.4362
 8651SOL     OW37411   3.512   1.560  17.143  0.1831 -0.7096  0.2132
 8651SOL    HW137412   3.500   1.466  17.159 -0.3793 -0.7683 -0.5878
 8651SOL    HW237413   3.483   1.597  17.227 -1.3958  0.6848 -0.9597
 8652SOL     OW37414   3.334   0.030  12.557 -0.0285  0.5276  0.0864
 8652SOL    HW137415   3.422   0.024  12.593 -0.8140  0.6206  1.9802
 8652SOL    HW237416   3.318   0.124  12.561 -0.6264  0.5300 -2.3449
 8653SOL     OW37417   3.221   3.233  16.571  0.3614  0.1025  0.1752
 8653SOL    HW137418   3.185   3.268  16.490 -1.1898 -2.0900 -0.0825
 8653SOL    HW237419   3.312   3.263  16.575 -0.8160  3.7234  0.1758
 8654SOL     OW37420   3.149   4.241   5.780  0.0757  0.7824  0.0127
 8654SOL    HW137421   3.118   4.296   5.708 -1.3551 -0.1469 -0.0907
 8654SOL    HW237422   3.203   4.180   5.730 -1.5786  0.0011 -0.8132
 8655SOL     OW37423   2.355   2.304  15.259 -0.1093 -0.0255 -0.4097
 8655SOL    HW137424   2.385   2.213  15.269  1.0000  0.2484 -1.2377
 8655SOL    HW237425   2.292   2.296  15.188 -1.7357  0.7275  0.9562
 8656SOL     OW37426   3.626   1.177   5.635 -0.3492 -0.0088  0.1360
 8656SOL    HW137427   3.715   1.166   5.601 -0.8247  0.7388 -1.3986
 8656SOL    HW237428   3.642   1.220   5.719  1.6333 -1.5775  0.5730
 8657SOL     OW37429   1.271   3.238   7.049  0.2992 -0.0293  0.1949
 8657SOL    HW137430   1.329   3.167   7.077  0.4752 -0.1732 -0.5347
 8657SOL    HW237431   1.316   3.319   7.074 -1.3268  0.3996  1.7558
 8658SOL     OW37432   1.705   0.723   8.158 -0.1221 -0.4008 -0.0340
 8658SOL    HW137433   1.788   0.682   8.132 -0.9109 -2.3641  0.5385
 8658SOL    HW237434   1.727   0.774   8.236 -0.4711  0.9294 -0.8109
 8659SOL     OW37435   1.903   1.471   2.197  0.0689  0.1733  0.6428
 8659SOL    HW137436   1.856   1.427   2.126 -0.3228  0.8640  0.4705
 8659SOL    HW237437   1.974   1.519   2.155  0.5284 -0.9858  0.1242
 8660SOL     OW37438   1.810   4.374   6.822  0.3946 -0.0723  0.1019
 8660SOL    HW137439   1.754   4.450   6.838  1.4176  1.1725 -2.0993
 8660SOL    HW237440   1.898   4.412   6.812 -0.0584  1.0746  0.4816
 8661SOL     OW37441   2.886   2.453   3.344  0.1452  0.0027  0.4831
 8661SOL    HW137442   2.814   2.496   3.390 -1.1815 -0.2369 -1.3710
 8661SOL    HW237443   2.963   2.510   3.351 -0.0254  0.2757  0.1523
 8662SOL     OW37444   3.540   2.537   2.110  0.1621 -0.3978 -0.0398
 8662SOL    HW137445   3.463   2.480   2.117 -0.8948  1.0113 -0.3788
 8662SOL    HW237446   3.531   2.571   2.021  0.4892  0.9842  0.4702
 8663SOL     OW37447   0.043   1.606   5.713 -0.7972 -0.0695  0.4231
 8663SOL    HW137448   0.125   1.645   5.742 -0.9380  0.8242 -0.4035
 8663SOL    HW237449   0.048   1.515   5.742  0.3076  0.2655  1.2637
 8664SOL     OW37450   3.366   1.941   2.076  0.1998  0.3373 -0.2749
 8664SOL    HW137451   3.300   1.873   2.065  0.2984  0.0479  0.9549
 8664SOL    HW237452   3.435   1.914   2.016  1.0325 -0.2133  0.9409
 8665SOL     OW37453   2.574   0.254   9.707 -0.3442  0.6165 -0.5227
 8665SOL    HW137454   2.656   0.285   9.667 -1.0029  0.9077 -1.6427
 8665SOL    HW237455   2.517   0.262   9.631 -1.3707 -2.5866 -0.0725
 8666SOL     OW37456   2.974   4.185   7.793 -0.3029  0.5122 -0.5100
 8666SOL    HW137457   2.973   4.092   7.817 -3.4523  0.9200  0.9567
 8666SOL    HW237458   2.900   4.187   7.732 -1.1645 -1.1756  0.4718
 8667SOL     OW37459   4.125   1.428   9.787  0.2560 -0.2977 -0.0704
 8667SOL    HW137460   4.205   1.388   9.754 -0.1438 -3.2591  2.5432
 8667SOL    HW237461   4.165   1.471   9.863  0.2668  0.2467 -0.3864
 8668SOL     OW37462   0.838   2.213   3.889  0.0838  0.0382 -0.4817
 8668SOL    HW137463   0.873   2.139   3.940 -0.8505 -0.5528 -0.6865
 8668SOL    HW237464   0.864   2.186   3.801  2.6333 -0.0159  0.3058
 8669SOL     OW37465   0.687   0.280  10.963 -0.3111  0.1787  0.1936
 8669SOL    HW137466   0.727   0.343  10.903  2.2536 -0.5173  1.1864
 8669SOL    HW237467   0.704   0.316  11.050  1.6812  1.3873 -0.7048
 8670SOL     OW37468   2.964   2.753   9.716 -0.1389 -0.0767  0.0508
 8670SOL    HW137469   3.031   2.808   9.757  0.2838 -0.7700  0.2936
 8670SOL    HW237470   2.957   2.794   9.630  0.4220 -0.6014 -0.2470
 8671SOL     OW37471   2.148   2.396  17.416  0.2581  0.1315  0.1394
 8671SOL    HW137472   2.152   2.411  17.322  0.5568  0.4118  0.1955
 8671SOL    HW237473   2.199   2.472  17.444 -0.4314  0.1241  1.4352
 8672SOL     OW37474   1.613   2.849  15.652  0.0044  0.1339 -0.0657
 8672SOL    HW137475   1.706   2.869  15.663  0.2977 -1.7271  0.7794
 8672SOL    HW237476   1.587   2.920  15.593  0.3728 -0.7315 -1.2839
 8673SOL     OW37477   3.268   2.036   7.402 -0.2944 -0.7293 -0.4155
 8673SOL    HW137478   3.320   2.110   7.370 -0.5966 -1.0110 -1.5586
 8673SOL    HW237479   3.201   2.081   7.454  0.4004 -1.5177  1.1177
 8674SOL     OW37480   4.112   3.849   7.459 -1.0232 -0.2595 -0.4411
 8674SOL    HW137481   4.134   3.855   7.366  1.8898  1.9945  0.4291
 8674SOL    HW237482   4.110   3.753   7.465 -1.7203 -0.1459  1.2003
 8675SOL     OW37483   1.656   1.618   4.121 -0.0345 -0.9547 -0.4231
 8675SOL    HW137484   1.628   1.544   4.174 -4.5271  0.7889 -0.3383
 8675SOL    HW237485   1.720   1.572   4.067 -0.3143 -1.7830 -0.0454
 8676SOL     OW37486   0.031   0.706   2.746  0.1496 -0.2941  0.1040
 8676SOL    HW137487   0.059   0.631   2.798  3.3322  0.2584 -0.8271
 8676SOL    HW237488   0.112   0.738   2.706 -1.9686  2.3280 -2.0704
 8677SOL     OW37489   2.428   0.087  15.808 -0.6538  0.0800  0.0684
 8677SOL    HW137490   2.343   0.118  15.775 -0.6148 -0.2814 -0.3651
 8677SOL    HW237491   2.433   0.143  15.886 -2.1705 -2.2413  1.8254
 8678SOL     OW37492   4.588   4.577   3.237 -0.1881  0.4714  0.0333
 8678SOL    HW137493   4.519   4.576   3.170 -0.5771  2.0923  0.3980
 8678SOL    HW237494   4.615   4.486   3.246 -0.1021  0.3701 -1.2840
 8679SOL     OW37495   2.134   2.970   9.828  0.3777 -0.2506 -0.6991
 8679SOL    HW137496   2.176   3.055   9.816 -2.1123  1.1018  0.2468
 8679SOL    HW237497   2.182   2.929   9.899 -0.6886 -1.0095 -0.4073
 8680SOL     OW37498   4.663   2.593   6.726  0.0174 -0.1223 -0.9769
 8680SOL    HW137499   4.580   2.625   6.692  0.0262 -0.2319 -1.1011
 8680SOL    HW237500   4.726   2.627   6.662  0.0834  1.0054 -0.3128
 8681SOL     OW37501   0.030   0.501   2.365 -0.1415 -0.0973 -0.3494
 8681SOL    HW137502   0.040   0.452   2.284  2.0437 -0.4596  0.1152
 8681SOL    HW237503   0.096   0.569   2.354 -2.1778  2.0304  0.6838
 8682SOL     OW37504   1.795   4.204   7.027  0.3130 -0.1228 -0.3574
 8682SOL    HW137505   1.814   4.287   6.983 -0.2751  0.0494 -0.2834
 8682SOL    HW237506   1.820   4.225   7.117  0.5026  0.6879 -0.5986
 8683SOL     OW37507   0.426   4.516   7.874 -0.0077  0.1380 -0.2006
 8683SOL    HW137508   0.439   4.583   7.808 -1.4320 -2.0202 -2.6706
 8683SOL    HW237509   0.333   4.536   7.888 -0.3052  0.0577 -2.0943
 8684SOL     OW37510   4.702   2.540   5.536 -0.0569 -0.4100  0.4337
 8684SOL    HW137511   0.029   2.565   5.611  0.6848  2.3436 -1.0190
 8684SOL    HW237512   0.039   2.499   5.478  1.3190  2.2164  0.0973
 8685SOL     OW37513   2.154   1.380  11.016 -0.1399  0.4603  0.1525
 8685SOL    HW137514   2.157   1.285  11.005  1.7746  0.6010 -0.5580
 8685SOL    HW237515   2.094   1.401  10.944  2.5259  1.2524 -1.8543
 8686SOL     OW37516   1.946   0.985  15.692  0.0809  0.1645  0.6396
 8686SOL    HW137517   1.881   1.014  15.628  0.0476  1.5536  1.3093
 8686SOL    HW237518   1.996   0.922  15.639 -1.1812 -0.5634  0.3122
 8687SOL     OW37519   1.927   0.673   8.913  0.1198  0.4206 -0.4553
 8687SOL    HW137520   2.008   0.647   8.957 -0.2673  1.5036  0.8998
 8687SOL    HW237521   1.858   0.617   8.950  1.6041  0.2355  1.9928
 8688SOL     OW37522   2.565   2.406   8.125 -0.6076 -0.2085 -0.4794
 8688SOL    HW137523   2.571   2.334   8.063  0.6243  0.6882 -1.3890
 8688SOL    HW237524   2.478   2.388   8.159 -0.7884 -0.2585 -0.9760
 8689SOL     OW37525   1.230   0.855   4.397  1.0642  0.2623  0.3568
 8689SOL    HW137526   1.237   0.922   4.330  0.7903 -0.3846 -0.3187
 8689SOL    HW237527   1.257   0.769   4.364 -2.6540 -1.1616  1.0864
 8690SOL     OW37528   0.679   3.427   5.171 -0.4278  1.4218  0.3508
 8690SOL    HW137529   0.600   3.400   5.216  1.0121 -0.0368  1.9824
 8690SOL    HW237530   0.732   3.468   5.239 -0.0103  0.5275  0.5514
 8691SOL     OW37531   3.951   2.141   4.281 -0.2668  0.1646  0.4493
 8691SOL    HW137532   3.866   2.184   4.269 -0.1302  0.6169  1.1321
 8691SOL    HW237533   3.942   2.106   4.369 -0.3754  0.0792  0.4049
 8692SOL     OW37534   1.769   3.230   2.237  0.7915  0.3028 -0.0640
 8692SOL    HW137535   1.787   3.137   2.227 -1.1253 -0.0392 -0.3474
 8692SOL    HW237536   1.807   3.263   2.156 -1.7353  0.7224 -1.0907
 8693SOL     OW37537   0.099   1.375   8.994 -0.2908  0.2308 -0.6622
 8693SOL    HW137538   0.026   1.374   8.931 -0.5553  1.4560 -0.3779
 8693SOL    HW237539   0.123   1.468   9.001 -1.4166  0.3622  1.3007
 8694SOL     OW37540   0.290   1.679   6.059  0.0029 -0.3519  0.0924
 8694SOL    HW137541   0.358   1.664   6.125 -0.1009 -0.9204  0.0655
 8694SOL    HW237542   0.216   1.622   6.082 -0.4180  0.2956  0.3510
 8695SOL     OW37543   3.166   3.786   3.495 -0.1499 -0.2974 -0.1356
 8695SOL    HW137544   3.184   3.849   3.425  0.8492  1.0979  1.3937
 8695SOL    HW237545   3.092   3.830   3.535  0.3175  1.2773 -1.0179
 8696SOL     OW37546   1.202   4.361   6.021 -0.1765 -0.6471  0.1391
 8696SOL    HW137547   1.273   4.378   5.958 -1.8260 -0.3229 -1.6187
 8696SOL    HW237548   1.126   4.408   5.987  1.2271  0.9561 -0.8065
 8697SOL     OW37549   3.425   3.804   7.039  0.0823  0.0008  0.2577
 8697SOL    HW137550   3.434   3.733   6.975 -0.1671 -1.8093  2.2187
 8697SOL    HW237551   3.335   3.786   7.069  0.0421  0.1520  0.2254
 8698SOL     OW37552   4.052   4.299   5.978  0.5463 -0.0831  0.4327
 8698SOL    HW137553   3.985   4.363   5.953 -0.1898 -0.1869  2.1095
 8698SOL    HW237554   4.024   4.259   6.061 -0.7084  1.7806  0.9114
 8699SOL     OW37555   0.051   2.779   8.644 -0.4353  0.2018  0.4740
 8699SOL    HW137556   4.703   2.785   8.584  0.4394  2.1229 -0.4000
 8699SOL    HW237557   0.092   2.859   8.613 -0.3673 -0.3450 -0.8518
 8700SOL     OW37558   2.177   4.627   4.939 -0.7071  0.1983 -0.1401
 8700SOL    HW137559   2.197   4.668   4.855 -1.6210 -1.4682 -1.1747
 8700SOL    HW237560   2.089   4.591   4.927  0.0116 -0.5402 -3.3121
 8701SOL     OW37561   3.483   1.765   4.864 -0.1970  0.2003  0.1007
 8701SOL    HW137562   3.449   1.854   4.869 -0.1197  0.2775 -0.8478
 8701SOL    HW237563   3.434   1.721   4.934 -0.8111 -0.4240 -0.7135
 8702SOL     OW37564   3.497   2.636   7.522  0.5993  0.2665 -0.4690
 8702SOL    HW137565   3.533   2.704   7.465  0.0620  0.4881 -0.5508
 8702SOL    HW237566   3.430   2.593   7.469 -1.3800  1.5998  0.9695
 8703SOL     OW37567   4.468   1.394   5.406  0.1579  0.0466 -0.0516
 8703SOL    HW137568   4.476   1.378   5.500  1.3625  1.8752  0.1768
 8703SOL    HW237569   4.538   1.459   5.409  2.0238 -1.9260 -1.4720
 8704SOL     OW37570   1.396   2.243  13.828  0.1089  0.3504  0.2862
 8704SOL    HW137571   1.474   2.299  13.825  0.3886 -0.2057 -2.6845
 8704SOL    HW237572   1.413   2.192  13.907  1.1429 -1.5030 -1.1494
 8705SOL     OW37573   3.972   4.533   5.690 -0.3913 -0.0757 -0.3696
 8705SOL    HW137574   3.893   4.586   5.681  0.1407  0.7669 -0.0086
 8705SOL    HW237575   4.038   4.592   5.654 -0.4771 -0.3716 -1.0195
 8706SOL     OW37576   2.717   1.685   7.608 -0.3632 -0.1246 -0.0184
 8706SOL    HW137577   2.724   1.599   7.567 -0.5242 -0.2529  0.2278
 8706SOL    HW237578   2.652   1.724   7.550 -0.3397  0.8033  0.5801
 8707SOL     OW37579   0.784   3.409   2.609  0.2926 -0.1489  0.0026
 8707SOL    HW137580   0.841   3.369   2.544 -1.2581  0.3488 -1.6599
 8707SOL    HW237581   0.764   3.333   2.663  0.3194 -0.9051 -1.0460
 8708SOL     OW37582   1.795   1.452   3.545  0.2823 -0.4521  0.0347
 8708SOL    HW137583   1.886   1.468   3.519  0.6087  0.5600  1.8158
 8708SOL    HW237584   1.798   1.477   3.637  1.8508  1.6132 -0.5573
 8709SOL     OW37585   2.880   0.083  10.930  0.0786 -0.0378 -0.0866
 8709SOL    HW137586   2.803   0.030  10.910 -0.3438  1.2973 -1.9711
 8709SOL    HW237587   2.847   0.137  11.002 -0.6556  1.7965 -1.8254
 8710SOL     OW37588   2.550   2.492   3.297 -0.5099 -0.4478 -0.8517
 8710SOL    HW137589   2.547   2.430   3.370  2.5305  0.2933 -0.0969
 8710SOL    HW237590   2.459   2.503   3.268 -0.7440  1.6021  0.6294
 8711SOL     OW37591   1.396   4.548   6.239  0.3193 -0.0775  0.3262
 8711SOL    HW137592   1.332   4.599   6.190  0.5967  1.1216  1.2256
 8711SOL    HW237593   1.476   4.584   6.202 -0.8992  1.3069 -0.9222
 8712SOL     OW37594   1.156   0.815   4.714  0.3263 -0.0059 -0.0898
 8712SOL    HW137595   1.123   0.853   4.632  2.2037  1.0923 -0.3265
 8712SOL    HW237596   1.179   0.890   4.769 -0.5959 -0.3476  0.7686
 8713SOL     OW37597   1.051   4.105  12.246 -0.1199  0.1065 -0.7229
 8713SOL    HW137598   1.136   4.072  12.275  0.1436 -0.8683 -2.5985
 8713SOL    HW237599   0.991   4.038  12.277  0.5117  0.8200  2.0535
 8714SOL     OW37600   2.478   0.977  16.684  0.2707  0.3769  0.5506
 8714SOL    HW137601   2.422   1.054  16.692  0.6634  0.9215 -2.0059
 8714SOL    HW237602   2.468   0.933  16.769 -2.7384  0.0406  0.0090
 8715SOL     OW37603   4.346   3.834   3.944  0.3768  0.3160  0.9135
 8715SOL    HW137604   4.425   3.818   3.996  0.5692 -0.0885  0.4881
 8715SOL    HW237605   4.340   3.750   3.900  0.3823  0.2892  0.9640
 8716SOL     OW37606   2.532   0.154   1.285  0.0288  0.3996  0.0716
 8716SOL    HW137607   2.483   0.179   1.206 -1.4649  4.5929  2.3321
 8716SOL    HW237608   2.496   0.069   1.311  2.3250  0.1041  2.2559
 8717SOL     OW37609   0.426   1.641   7.271 -0.0034 -0.4543  0.0281
 8717SOL    HW137610   0.500   1.581   7.285 -0.6087 -1.4587 -1.1012
 8717SOL    HW237611   0.483   1.718   7.263 -1.7863  0.6962 -1.5174
 8718SOL     OW37612   3.583   4.503   9.408  0.3081 -0.5790 -0.5979
 8718SOL    HW137613   3.647   4.432   9.418 -0.9739 -1.6175  0.1594
 8718SOL    HW237614   3.598   4.536   9.497 -1.7241 -2.7283  0.5358
 8719SOL     OW37615   0.158   3.804   9.745  0.2509 -0.7115 -0.1767
 8719SOL    HW137616   0.152   3.711   9.725 -3.8255 -0.3731 -0.5858
 8719SOL    HW237617   0.198   3.835   9.663 -0.2138  0.0097 -0.1270
 8720SOL     OW37618   2.524   0.103   9.070 -0.7716  0.0294  0.2861
 8720SOL    HW137619   2.599   0.086   9.127 -0.9267 -3.0046 -0.4212
 8720SOL    HW237620   2.447   0.070   9.115 -0.6929  0.5127  0.7783
 8721SOL     OW37621   4.667   0.262  10.578  0.2097 -0.1889 -0.1517
 8721SOL    HW137622   0.016   0.271  10.637  1.9280 -0.9020 -2.2252
 8721SOL    HW237623   4.603   0.250  10.648  0.2434 -0.9142 -0.2469
 8722SOL     OW37624   0.953   4.053   2.810  1.0425 -0.1558 -0.5765
 8722SOL    HW137625   0.948   4.031   2.904  0.5046  0.3318 -0.4874
 8722SOL    HW237626   1.029   4.111   2.809  0.6930  0.2808 -1.8465
 8723SOL     OW37627   0.738   1.255   6.942  0.2106 -0.1076  0.0196
 8723SOL    HW137628   0.769   1.272   7.031  2.5414 -1.3068 -0.5430
 8723SOL    HW237629   0.644   1.269   6.949  0.4017  1.5410 -0.7266
 8724SOL     OW37630   3.770   1.123   8.237  0.2248  0.4809  0.3783
 8724SOL    HW137631   3.685   1.096   8.273  0.7629 -1.7482 -0.0138
 8724SOL    HW237632   3.826   1.119   8.315  3.1438  1.8279 -1.6642
 8725SOL     OW37633   0.618   0.765  10.127  0.7739  0.3115  0.2699
 8725SOL    HW137634   0.559   0.762  10.051 -0.7488 -1.5598  1.5152
 8725SOL    HW237635   0.569   0.788  10.206  0.0608 -1.5461  0.3502
 8726SOL     OW37636   3.573   0.759  12.685  0.4322 -0.0245 -0.2291
 8726SOL    HW137637   3.491   0.804  12.703  0.9249  0.8192 -0.0941
 8726SOL    HW237638   3.646   0.806  12.725  0.8884 -1.2206  0.3539
 8727SOL     OW37639   0.028   0.058   8.094 -0.2397 -0.0247  0.3713
 8727SOL    HW137640   0.018   0.115   8.018 -1.7375 -0.1626  0.4779
 8727SOL    HW237641   0.057   0.119   8.162  1.0825 -0.5595  0.2898
 8728SOL     OW37642   3.002   2.356   1.926  0.3315 -0.1641  0.4915
 8728SOL    HW137643   2.955   2.361   1.843  2.0780 -1.1457 -0.5720
 8728SOL    HW237644   2.967   2.429   1.976 -0.6188  1.5954 -2.7299
 8729SOL     OW37645   2.293   4.610   6.946 -0.7637 -0.5034 -0.3923
 8729SOL    HW137646   2.200   4.623   6.933 -0.7656  0.1194  0.2439
 8729SOL    HW237647   2.298   4.533   7.002 -1.0096 -0.6180 -0.5300
 8730SOL     OW37648   3.306   4.630   6.221 -0.2750 -0.0407 -0.1109
 8730SOL    HW137649   3.222   4.618   6.177 -1.0228 -0.8473  1.5366
 8730SOL    HW237650   3.288   4.601   6.311  1.2721  3.7099  1.4174
 8731SOL     OW37651   1.592   1.277   6.744  0.4854 -0.5731  0.1904
 8731SOL    HW137652   1.602   1.273   6.649 -1.2576 -0.6901  0.0111
 8731SOL    HW237653   1.681   1.256   6.772  0.2968 -3.2064 -1.1545
 8732SOL     OW37654   1.713   3.411  12.720 -0.2564 -0.0635 -0.2736
 8732SOL    HW137655   1.794   3.368  12.748 -0.9675 -0.9754  0.3738
 8732SOL    HW237656   1.654   3.393  12.793 -1.0967 -0.2675 -1.0089
 8733SOL     OW37657   3.226   0.433   8.523  0.0598  0.3261  0.0909
 8733SOL    HW137658   3.176   0.407   8.445 -1.1233 -2.5202  1.7822
 8733SOL    HW237659   3.266   0.512   8.487  2.4934  0.2690  2.7088
 8734SOL     OW37660   1.519   2.655   3.218  0.2122 -0.4650 -0.8725
 8734SOL    HW137661   1.558   2.698   3.141 -1.0010  0.3017 -1.0564
 8734SOL    HW237662   1.447   2.715   3.238  0.9567  0.5102 -1.0703
 8735SOL     OW37663   4.425   1.602   8.865 -0.1871 -0.2563  0.1237
 8735SOL    HW137664   4.436   1.630   8.774 -0.0155  0.8830  0.4915
 8735SOL    HW237665   4.471   1.519   8.868 -2.0911 -1.3141 -0.1631
 8736SOL     OW37666   4.163   1.245  11.452  0.7084 -0.0628 -0.1358
 8736SOL    HW137667   4.136   1.248  11.544  1.5606  1.4700  0.0794
 8736SOL    HW237668   4.083   1.268  11.406 -1.3152 -3.2547  1.8006
 8737SOL     OW37669   0.661   3.290   1.419 -0.1779 -0.4683  0.1266
 8737SOL    HW137670   0.677   3.322   1.331 -0.3016  0.2236  0.3572
 8737SOL    HW237671   0.748   3.260   1.446 -0.1732  0.0811  0.7510
 8738SOL     OW37672   2.275   3.149   5.709  0.1596 -0.1189  0.1180
 8738SOL    HW137673   2.249   3.162   5.617  0.2251 -0.8224  0.0007
 8738SOL    HW237674   2.364   3.177   5.690  0.7164 -1.4149  0.8518
 8739SOL     OW37675   2.280   1.497   4.505  0.6093  0.1241 -0.0393
 8739SOL    HW137676   2.332   1.444   4.566  2.4182  2.1635  0.2133
 8739SOL    HW237677   2.208   1.434   4.495  0.9443 -0.4914  1.3905
 8740SOL     OW37678   4.332   1.040   3.472 -0.0186  0.0838 -0.4674
 8740SOL    HW137679   4.284   1.122   3.483  1.6620  1.2492 -1.8188
 8740SOL    HW237680   4.298   1.006   3.389  0.4183 -1.2379 -0.1032
 8741SOL     OW37681   0.368   4.368  17.183  0.1133 -0.2427 -0.2804
 8741SOL    HW137682   0.442   4.318  17.148 -0.1767 -0.6496 -0.3109
 8741SOL    HW237683   0.329   4.292  17.227  2.9719 -0.4751  1.8653
 8742SOL     OW37684   1.901   2.767   9.336  0.1638 -0.4580  0.0409
 8742SOL    HW137685   1.815   2.727   9.347 -0.4779  0.7316 -0.6253
 8742SOL    HW237686   1.925   2.814   9.416 -3.1642 -2.6827  2.3556
 8743SOL     OW37687   1.872   4.040   5.038  0.5916  0.0944  0.3932
 8743SOL    HW137688   1.934   4.043   5.111  1.5816  0.1882 -0.4442
 8743SOL    HW237689   1.856   3.946   5.025  0.3620  0.2940 -0.7890
 8744SOL     OW37690   2.152   2.144  15.767 -0.3206  0.4317 -0.0588
 8744SOL    HW137691   2.167   2.106  15.854 -3.6538 -1.6456 -0.3764
 8744SOL    HW237692   2.138   2.236  15.791  1.4943  0.6994 -0.0374
 8745SOL     OW37693   0.554   4.490   6.114 -0.6583 -0.2903 -0.0726
 8745SOL    HW137694   0.573   4.412   6.167  1.7718 -0.6796 -1.4809
 8745SOL    HW237695   0.460   4.490   6.129  0.0135 -1.3115  4.1277
 8746SOL     OW37696   3.838   3.533   3.060  0.5045  0.3766 -0.0343
 8746SOL    HW137697   3.799   3.517   2.974 -0.3249  1.8037  0.0632
 8746SOL    HW237698   3.895   3.606   3.037 -0.0751  0.7072 -0.4221
 8747SOL     OW37699   1.627   0.698   4.204 -0.3233 -0.3190  0.0469
 8747SOL    HW137700   1.545   0.650   4.209  0.7523 -2.0877  0.9638
 8747SOL    HW237701   1.647   0.706   4.111  0.9659  0.3799  0.3828
 8748SOL     OW37702   1.492   2.478   8.116 -0.2940 -0.4009 -0.0317
 8748SOL    HW137703   1.566   2.539   8.123 -0.2508 -0.5000  0.3929
 8748SOL    HW237704   1.541   2.396   8.123 -0.1126 -0.2181  0.8088
 8749SOL     OW37705   0.786   0.539   7.343  0.4909 -0.0367  0.2116
 8749SOL    HW137706   0.734   0.533   7.263  0.7745  0.8499 -0.0341
 8749SOL    HW237707   0.735   0.597   7.400  1.3775  0.1682  0.8008
 8750SOL     OW37708   1.068   4.368   4.613 -0.2744  0.4121  0.8372
 8750SOL    HW137709   1.020   4.307   4.558  0.7355 -0.1425  0.5547
 8750SOL    HW237710   1.025   4.448   4.583  0.8000 -0.0794 -2.0383
 8751SOL     OW37711   3.984   2.639   7.467  0.5131 -0.0300 -0.0450
 8751SOL    HW137712   4.055   2.592   7.423  0.1998 -0.8603  0.3448
 8751SOL    HW237713   4.034   2.721   7.461  0.2785  0.1281  0.1605
 8752SOL     OW37714   1.017   2.724   6.854 -0.0042  0.0469 -0.4095
 8752SOL    HW137715   0.996   2.786   6.923  0.2102  0.1297 -0.4181
 8752SOL    HW237716   1.086   2.676   6.900 -3.3658 -2.8426  1.6028
 8753SOL     OW37717   2.593   1.970  13.922  0.6535 -0.0665 -0.2334
 8753SOL    HW137718   2.537   1.926  13.985  0.2487  0.1646 -0.4306
 8753SOL    HW237719   2.648   2.006  13.991  0.3456 -3.1291  1.5872
 8754SOL     OW37720   0.594   1.031   5.310  0.2634  0.8196 -0.2301
 8754SOL    HW137721   0.537   0.956   5.298 -0.4942  1.3912 -0.2342
 8754SOL    HW237722   0.680   0.990   5.302  0.4966  1.3218 -0.3442
 8755SOL     OW37723   0.245   3.707   1.718  0.2779  0.3811  0.2174
 8755SOL    HW137724   0.257   3.695   1.623 -0.7471 -3.4736  0.5470
 8755SOL    HW237725   0.156   3.738   1.730  0.2403  1.4190 -2.6056
 8756SOL     OW37726   3.930   1.638   8.772  0.4454  0.2347 -0.0832
 8756SOL    HW137727   3.980   1.625   8.853  2.4988  0.0878 -1.3631
 8756SOL    HW237728   3.982   1.705   8.728  0.0834 -1.0103 -2.4295
 8757SOL     OW37729   2.145   0.813   9.302  0.2578  0.3481  0.6400
 8757SOL    HW137730   2.118   0.747   9.367  2.5394 -0.0339  1.2288
 8757SOL    HW237731   2.175   0.891   9.349  0.4757  0.0980  0.9183
 8758SOL     OW37732   4.176   1.923   6.953  0.5596  0.0340  0.2771
 8758SOL    HW137733   4.249   1.868   6.925 -0.5369 -0.6330 -1.2213
 8758SOL    HW237734   4.226   1.999   6.986 -0.9658  2.4437 -2.9941
 8759SOL     OW37735   0.304   4.446  16.365 -0.3266  0.0341  0.6337
 8759SOL    HW137736   0.326   4.497  16.443  1.0426  0.1488  0.1701
 8759SOL    HW237737   0.377   4.469  16.307 -0.3698  0.8622  0.9108
 8760SOL     OW37738   3.428   3.307   3.488 -0.0736 -0.0308  0.1227
 8760SOL    HW137739   3.515   3.313   3.527  0.8352 -0.7327 -1.8368
 8760SOL    HW237740   3.403   3.397   3.508 -2.0677 -0.4456 -0.4715
 8761SOL     OW37741   0.974   0.823   5.054  0.3821  0.2151  0.4627
 8761SOL    HW137742   0.961   0.774   4.973  0.0950 -2.0398  1.8650
 8761SOL    HW237743   0.901   0.803   5.113  0.4903  0.1316  0.5685
 8762SOL     OW37744   0.160   1.275   2.946  0.2753 -0.4696  0.4250
 8762SOL    HW137745   0.218   1.344   2.977 -3.3039  1.6333  2.4197
 8762SOL    HW237746   0.106   1.321   2.882  3.1672 -0.2013 -1.8144
 8763SOL     OW37747   4.611   0.095   3.876  0.4383  0.3013 -0.3459
 8763SOL    HW137748   4.581   0.155   3.808 -0.5177 -2.1153 -2.0491
 8763SOL    HW237749   4.678   0.152   3.913  0.1572  0.2188  0.2885
 8764SOL     OW37750   1.081   2.639   2.593  0.1620 -0.2752  0.5156
 8764SOL    HW137751   1.147   2.646   2.662 -0.3669  0.7750  0.9140
 8764SOL    HW237752   0.998   2.645   2.640  0.5753 -2.0217  1.4637
 8765SOL     OW37753   2.504   3.361   1.995 -0.2641  0.3621  0.0160
 8765SOL    HW137754   2.568   3.364   2.066  0.5138 -2.6185 -0.5925
 8765SOL    HW237755   2.544   3.316   1.920  0.2020  2.0067 -0.7374
 8766SOL     OW37756   4.110   0.468   7.246  0.1479  0.0976  0.2788
 8766SOL    HW137757   4.033   0.487   7.192 -0.9014 -0.1402  1.6882
 8766SOL    HW237758   4.067   0.480   7.331 -2.0192  1.6114 -1.0167
 8767SOL     OW37759   3.710   2.478   8.771 -0.0480 -0.3168 -0.7324
 8767SOL    HW137760   3.653   2.474   8.694  1.2971 -1.2853 -1.6805
 8767SOL    HW237761   3.645   2.441   8.831  0.9225 -0.6604  0.1066
 8768SOL     OW37762   2.927   2.066  11.989  0.1521 -0.1461 -0.2276
 8768SOL    HW137763   2.984   1.989  11.988  0.2130 -0.0922 -1.0430
 8768SOL    HW237764   2.973   2.118  12.054 -1.3572  0.0835  0.6590
 8769SOL     OW37765   0.631   2.556  15.160  0.2443 -0.1894  0.3008
 8769SOL    HW137766   0.544   2.520  15.173 -1.0430  2.1982 -1.8165
 8769SOL    HW237767   0.637   2.566  15.065 -2.7357  0.7802  0.2343
 8770SOL     OW37768   3.896   0.181  10.744 -0.0734 -0.3019 -0.2539
 8770SOL    HW137769   3.925   0.097  10.779 -1.8553 -1.4174 -1.5320
 8770SOL    HW237770   3.889   0.238  10.821 -3.1406 -2.7551  1.2732
 8771SOL     OW37771   4.057   2.514   2.397  0.0295  0.3787 -0.3805
 8771SOL    HW137772   4.056   2.458   2.475 -1.2826  0.7659 -0.1194
 8771SOL    HW237773   4.150   2.533   2.398  0.2364 -0.7121  1.9260
 8772SOL     OW37774   3.050   2.936  12.066 -0.7190  0.5278 -0.8101
 8772SOL    HW137775   3.143   2.940  12.045 -0.3484  1.6466  1.1158
 8772SOL    HW237776   3.022   3.021  12.031 -3.1682 -0.1478 -0.5321
 8773SOL     OW37777   3.946   2.423  11.128  0.3019  0.0574 -0.9021
 8773SOL    HW137778   3.962   2.328  11.129 -0.5262 -0.1181 -3.3291
 8773SOL    HW237779   3.874   2.424  11.065 -1.0577 -2.1314  0.6152
 8774SOL     OW37780   3.523   1.999   5.304 -0.1178  0.4401 -0.1142
 8774SOL    HW137781   3.492   1.992   5.214  0.1592  0.6917 -0.2309
 8774SOL    HW237782   3.616   2.016   5.288  0.2479  0.1930  1.7466
 8775SOL     OW37783   0.898   3.580   6.328  1.1291 -0.3278  0.1331
 8775SOL    HW137784   0.988   3.589   6.361  0.5493  1.7855  1.1686
 8775SOL    HW237785   0.915   3.580   6.234 -0.2970 -0.0727 -0.1234
 8776SOL     OW37786   3.396   0.669   2.644  0.6460  0.0780  0.0766
 8776SOL    HW137787   3.388   0.603   2.576 -1.7130 -0.4871  0.8927
 8776SOL    HW237788   3.477   0.636   2.683  0.4357  0.0246  0.4649
 8777SOL     OW37789   0.869   2.685   8.034 -0.9790  0.9485 -0.2470
 8777SOL    HW137790   0.793   2.715   8.084 -0.0610  0.2850  1.5414
 8777SOL    HW237791   0.931   2.653   8.100 -1.9340 -1.5662 -0.5505
 8778SOL     OW37792   3.876   3.036   2.902 -0.3152 -0.2517 -0.3279
 8778SOL    HW137793   3.891   3.046   2.808  0.4697 -2.3315 -0.4186
 8778SOL    HW237794   3.945   3.091   2.938 -0.4611 -0.9552  1.0253
 8779SOL     OW37795   0.805   2.041   3.273 -0.7941 -0.1855  0.1671
 8779SOL    HW137796   0.722   2.015   3.312 -0.4921 -3.7865 -1.6000
 8779SOL    HW237797   0.775   2.069   3.187 -0.9816  0.2439  0.3752
 8780SOL     OW37798   0.826   1.058   8.307 -0.7550 -0.3906  0.1494
 8780SOL    HW137799   0.823   0.979   8.253 -1.5309 -2.7249  3.6283
 8780SOL    HW237800   0.920   1.067   8.325 -0.5618 -0.1867 -0.9975
 8781SOL     OW37801   0.681   0.829   4.406 -0.1994  0.2410 -0.3290
 8781SOL    HW137802   0.638   0.909   4.376 -0.7416  0.0332 -0.1136
 8781SOL    HW237803   0.771   0.858   4.394  0.5029 -1.8252 -0.0455
 8782SOL     OW37804   4.457   2.537   2.245 -0.8664 -0.1534 -0.1369
 8782SOL    HW137805   4.521   2.484   2.197 -0.6683 -0.8294  0.8900
 8782SOL    HW237806   4.501   2.607   2.293 -0.1640 -1.3088  0.8918
 8783SOL     OW37807   1.423   1.894  13.634  0.2668  0.1336 -0.0611
 8783SOL    HW137808   1.343   1.946  13.624 -2.4150 -3.8943  0.7824
 8783SOL    HW237809   1.390   1.805  13.627 -1.4919  0.6573  1.3435
 8784SOL     OW37810   1.991   1.337  12.841 -0.5262  0.0152  0.0058
 8784SOL    HW137811   1.927   1.395  12.802 -1.0525 -1.0756 -0.7561
 8784SOL    HW237812   2.070   1.390  12.827 -1.0116  0.5959 -0.5089
 8785SOL     OW37813   4.442   1.163  14.558 -0.8493  0.7761  0.1372
 8785SOL    HW137814   4.413   1.076  14.586  1.4595 -0.4516 -1.2664
 8785SOL    HW237815   4.460   1.213  14.638  1.7206  0.2680 -0.1296
 8786SOL     OW37816   2.417   3.776   9.377 -0.0610 -0.2978  0.4807
 8786SOL    HW137817   2.454   3.713   9.439 -0.5428 -0.1980  0.8648
 8786SOL    HW237818   2.451   3.860   9.407 -0.7456  0.1189  0.0717
 8787SOL     OW37819   3.057   3.108   3.542  0.6808  0.3912 -0.0375
 8787SOL    HW137820   3.073   3.052   3.466 -0.6392 -1.3217  0.9467
 8787SOL    HW237821   2.963   3.120   3.532  0.4367  0.1440  1.9892
 8788SOL     OW37822   2.913   0.760   8.039  0.5578 -0.3392 -0.1183
 8788SOL    HW137823   2.908   0.825   8.108  1.2896 -1.3162  0.8598
 8788SOL    HW237824   2.884   0.676   8.074  2.6812  0.5316  3.6521
 8789SOL     OW37825   0.491   1.497   8.145 -0.7127 -0.1420  0.1913
 8789SOL    HW137826   0.563   1.515   8.084 -0.6411 -1.0532  0.0197
 8789SOL    HW237827   0.529   1.435   8.207  0.4414 -0.6849 -1.0671
 8790SOL     OW37828   2.616   2.599   5.748 -0.1203  0.0206  0.0155
 8790SOL    HW137829   2.620   2.677   5.802  0.6764 -2.0973  3.0192
 8790SOL    HW237830   2.694   2.615   5.694 -1.3096  0.5066 -1.5510
 8791SOL     OW37831   4.626   4.652   4.218 -0.1303 -0.4411 -0.4836
 8791SOL    HW137832   4.594   4.568   4.251  1.0636  0.0955  1.9922
 8791SOL    HW237833   4.675   4.621   4.142 -0.2298 -1.7698  0.0019
 8792SOL     OW37834   2.158   0.076   3.783 -0.4852 -0.3979 -0.1801
 8792SOL    HW137835   2.137   0.015   3.712  2.3223 -2.0784  0.4020
 8792SOL    HW237836   2.082   0.134   3.776  0.0600  0.4937  1.1792
 8793SOL     OW37837   3.940   3.175  15.574  0.2491 -0.0366  0.0964
 8793SOL    HW137838   3.963   3.265  15.550  1.1849  0.4555  2.9275
 8793SOL    HW237839   4.026   3.135  15.563  1.0185  1.6880  0.0011
 8794SOL     OW37840   3.006   2.361   5.122 -0.0298  0.2227  0.3867
 8794SOL    HW137841   3.094   2.348   5.156 -0.0113  1.5582  0.8446
 8794SOL    HW237842   3.014   2.444   5.074  0.7992 -0.0961 -0.0247
 8795SOL     OW37843   2.338   1.844   8.135  0.2645 -0.6358 -0.1052
 8795SOL    HW137844   2.255   1.858   8.089  0.3780  0.5972  0.0662
 8795SOL    HW237845   2.311   1.785   8.205  1.9320  1.7688  2.5688
 8796SOL     OW37846   2.310   3.002   1.011  0.1072  0.9529  0.2880
 8796SOL    HW137847   2.379   2.979   0.949 -0.5158  1.6714 -0.6605
 8796SOL    HW237848   2.361   2.996   1.092  1.6176  0.0594 -0.7386
 8797SOL     OW37849   0.055   2.305   7.629  0.0054  0.1719  0.6572
 8797SOL    HW137850   4.721   2.374   7.600 -0.6709 -1.5625 -2.0284
 8797SOL    HW237851   0.110   2.355   7.689  1.1276  0.8369 -0.9320
 8798SOL     OW37852   1.446   2.743   0.429 -0.2316  0.8641 -0.2542
 8798SOL    HW137853   1.455   2.810   0.361 -0.5008  0.1043 -1.0512
 8798SOL    HW237854   1.423   2.787   0.511  1.6624 -2.1608  1.8920
 8799SOL     OW37855   3.281   1.686   7.925 -0.5730 -0.0526 -0.6701
 8799SOL    HW137856   3.311   1.766   7.881  1.0211  0.3614  1.1668
 8799SOL    HW237857   3.302   1.721   8.011  1.2278 -1.6154 -0.4932
 8800SOL     OW37858   3.309   2.454  12.682 -0.5176  0.3625 -0.4642
 8800SOL    HW137859   3.238   2.486  12.627 -0.2637 -2.4638 -2.4713
 8800SOL    HW237860   3.388   2.498  12.649  0.8847 -1.6925  0.1736
 8801SOL     OW37861   3.135   2.305  16.281 -0.0533  0.1178  0.3424
 8801SOL    HW137862   3.180   2.355  16.214  1.0969  0.8375  1.6479
 8801SOL    HW237863   3.050   2.288  16.242  0.8719  0.2912 -1.7344
 8802SOL     OW37864   2.602   0.906  15.238 -0.6360 -0.2580 -0.3117
 8802SOL    HW137865   2.627   0.998  15.228  2.6847 -1.1533 -0.1984
 8802SOL    HW237866   2.644   0.873  15.159 -0.8783  0.3176 -0.6801
 8803SOL     OW37867   0.949   3.835  10.923  0.2859  0.0998  0.1519
 8803SOL    HW137868   1.037   3.868  10.938  0.0153  1.0716 -0.3752
 8803SOL    HW237869   0.917   3.890  10.851 -0.6319 -1.3331 -0.5450
 8804SOL     OW37870   1.163   0.960   3.060 -0.0507 -0.1714 -0.1912
 8804SOL    HW137871   1.206   1.021   3.120 -3.0478  1.9096 -0.1336
 8804SOL    HW237872   1.136   0.890   3.120  1.7019 -0.7462 -0.0899
 8805SOL     OW37873   1.355   0.639   2.708 -0.9955  0.2331 -0.5836
 8805SOL    HW137874   1.332   0.565   2.763 -2.0721  0.9052 -0.1294
 8805SOL    HW237875   1.404   0.682   2.778 -3.0537 -0.8519  1.5504
 8806SOL     OW37876   1.084   4.383   5.640 -0.0510 -0.1058 -0.4743
 8806SOL    HW137877   1.024   4.328   5.691  0.1356 -0.8131 -1.0150
 8806SOL    HW237878   1.062   4.358   5.550  2.5019 -1.6295 -0.6857
 8807SOL     OW37879   4.106   2.943   9.098 -0.3480  0.0281  0.0369
 8807SOL    HW137880   4.078   2.932   9.007 -0.1156 -0.0067 -0.0319
 8807SOL    HW237881   4.055   2.871   9.134 -0.2611 -0.0910 -0.0782
 8808SOL     OW37882   2.394   1.546  11.918 -0.0049  0.5309  0.2209
 8808SOL    HW137883   2.471   1.545  11.974  0.8841 -0.0667 -1.0068
 8808SOL    HW237884   2.375   1.637  11.892 -1.8609 -0.0177 -0.3933
 8809SOL     OW37885   4.050   2.528   6.979 -0.8320  0.4218  0.1513
 8809SOL    HW137886   3.993   2.452   6.993 -1.7177  0.9122 -0.7566
 8809SOL    HW237887   4.041   2.533   6.884 -2.2484  0.3028  0.2665
 8810SOL     OW37888   2.556   1.823   6.452 -0.2676 -0.4537  0.2285
 8810SOL    HW137889   2.507   1.904   6.465 -0.2640 -0.4207  0.0309
 8810SOL    HW237890   2.588   1.829   6.362  1.0420  0.4755  0.7476
 8811SOL     OW37891   3.724   0.332   7.619 -0.5060 -0.3309  0.4961
 8811SOL    HW137892   3.693   0.273   7.551 -0.0225 -1.2259  1.0480
 8811SOL    HW237893   3.646   0.385   7.632 -0.0892  0.2382  0.7120
 8812SOL     OW37894   3.816   0.942   6.759 -0.0970 -0.0432 -0.1669
 8812SOL    HW137895   3.778   1.029   6.766 -3.1948 -1.3543 -0.5750
 8812SOL    HW237896   3.758   0.891   6.815 -0.2082  0.2676 -0.0039
 8813SOL     OW37897   3.412   1.482   0.618  0.6188  0.4797  0.1046
 8813SOL    HW137898   3.465   1.443   0.687 -1.4200  0.2830  1.5585
 8813SOL    HW237899   3.477   1.538   0.575 -0.1388  1.4574  0.2320
 8814SOL     OW37900   2.194   0.205   7.383 -0.3705 -0.4595  0.3968
 8814SOL    HW137901   2.110   0.234   7.346 -0.3251  1.1445  1.5333
 8814SOL    HW237902   2.243   0.286   7.371  0.0975 -0.7103  0.6167
 8815SOL     OW37903   4.161   3.227   4.756 -0.2476  0.0577  0.4719
 8815SOL    HW137904   4.256   3.215   4.751 -0.4803 -2.5218  2.1435
 8815SOL    HW237905   4.141   3.256   4.667  0.0038 -5.0883 -1.2855
 8816SOL     OW37906   0.841   1.723  17.170  0.0802 -0.3656  0.0724
 8816SOL    HW137907   0.805   1.678  17.246  0.5095  0.7458  0.9349
 8816SOL    HW237908   0.931   1.690  17.168 -0.4002 -1.7563  2.1838
 8817SOL     OW37909   4.357   1.507   0.733  0.3763  0.1261 -0.2093
 8817SOL    HW137910   4.341   1.500   0.827  1.6239  3.0793  0.2399
 8817SOL    HW237911   4.436   1.455   0.721  0.3029 -0.0228 -0.0453
 8818SOL     OW37912   2.889   3.346   3.844  0.2969  0.0380 -0.2028
 8818SOL    HW137913   2.891   3.271   3.902 -2.2986  0.1105 -0.0193
 8818SOL    HW237914   2.818   3.399   3.881 -0.1763 -0.3430 -0.5618
 8819SOL     OW37915   3.745   3.705   2.051 -0.2927  0.4118 -0.3947
 8819SOL    HW137916   3.812   3.734   1.989  1.8362  0.6255  1.9809
 8819SOL    HW237917   3.690   3.658   1.989 -0.1079  0.8196 -0.8635
 8820SOL     OW37918   0.742   1.006   9.980 -0.2487  0.1535  0.2478
 8820SOL    HW137919   0.699   0.951  10.045  1.9052 -2.8916 -0.8763
 8820SOL    HW237920   0.791   0.937   9.935 -1.3040 -1.1790  1.1679
 8821SOL     OW37921   0.351   1.682   1.351 -0.2672  0.4769 -0.6422
 8821SOL    HW137922   0.323   1.591   1.359  0.0467  0.5944  1.9409
 8821SOL    HW237923   0.446   1.673   1.360 -0.5465 -0.7161  1.2055
 8822SOL     OW37924   4.224   2.940   1.595  0.0013 -0.3458 -0.5777
 8822SOL    HW137925   4.198   2.860   1.549  0.0886 -0.0106 -1.2260
 8822SOL    HW237926   4.275   2.912   1.670 -0.7166 -0.0987  0.0039
 8823SOL     OW37927   1.043   2.161  17.554 -0.3557 -0.2756  0.0426
 8823SOL    HW137928   1.091   2.141  17.474  2.3081  0.0572  1.5320
 8823SOL    HW237929   1.104   2.142  17.626  1.5184  0.9225 -1.2313
 8824SOL     OW37930   1.820   0.592   2.545  0.0661  0.1559  0.3045
 8824SOL    HW137931   1.768   0.551   2.476  2.5151 -0.9686 -0.8923
 8824SOL    HW237932   1.897   0.626   2.499 -0.1587 -0.5362 -0.5777
 8825SOL     OW37933   0.022   2.022  14.765 -0.3352  0.6455  0.2064
 8825SOL    HW137934   4.696   2.100  14.783 -2.7935 -1.3261  1.4718
 8825SOL    HW237935   0.104   2.057  14.800 -0.0888 -0.1738  0.4546
 8826SOL     OW37936   0.569   3.119  15.521  0.2910 -0.5607 -0.0564
 8826SOL    HW137937   0.545   3.101  15.431 -0.1806  0.4806 -0.1339
 8826SOL    HW237938   0.655   3.162  15.522  0.4107 -0.8081  1.0005
 8827SOL     OW37939   1.351   2.559  10.358  0.5709 -0.2302  0.2055
 8827SOL    HW137940   1.288   2.591  10.293 -0.0143  0.9521  1.3604
 8827SOL    HW237941   1.304   2.499  10.415  0.2984  0.3970  0.6323
 8828SOL     OW37942   0.541   3.257   4.539  0.2814 -0.4745 -0.2238
 8828SOL    HW137943   0.492   3.286   4.462  1.8531  1.1498 -0.6153
 8828SOL    HW237944   0.617   3.313   4.524  0.2843 -0.8107 -1.4331
 8829SOL     OW37945   3.144   0.144  16.793 -0.1620  0.6366 -0.1529
 8829SOL    HW137946   3.178   0.230  16.817  1.3030  0.1857 -0.6241
 8829SOL    HW237947   3.063   0.135  16.843 -0.5151  0.7704 -0.6911
 8830SOL     OW37948   3.084   0.808   5.207 -0.6360  0.3114  0.2471
 8830SOL    HW137949   3.107   0.719   5.235 -3.5506 -1.7413 -3.9474
 8830SOL    HW237950   2.990   0.807   5.226 -0.8812  0.0414 -1.0127
 8831SOL     OW37951   3.909   1.512   1.098  0.3905  0.5282 -0.3139
 8831SOL    HW137952   3.816   1.519   1.075  0.5835 -3.2369 -2.2860
 8831SOL    HW237953   3.932   1.427   1.060  0.3431  0.3604  0.0277
 8832SOL     OW37954   4.050   3.234   2.314  0.9896 -0.4793  0.1918
 8832SOL    HW137955   4.099   3.248   2.395  0.5713  1.2090  0.1346
 8832SOL    HW237956   3.963   3.259   2.344  0.4321 -1.8571 -0.2776
 8833SOL     OW37957   2.729   0.664  14.607  0.2542  0.1444  0.3456
 8833SOL    HW137958   2.634   0.665  14.616  0.1386  1.4861 -0.8396
 8833SOL    HW237959   2.759   0.709  14.686 -1.1352  0.4220  0.7244
 8834SOL     OW37960   4.605   4.256   1.641 -0.0661 -0.1164  0.0593
 8834SOL    HW137961   4.634   4.346   1.651 -0.7697 -0.0336  1.4104
 8834SOL    HW237962   4.531   4.265   1.581  1.2486  1.7678 -1.2549
 8835SOL     OW37963   3.319   2.177   1.090  0.3534 -0.0176  0.0342
 8835SOL    HW137964   3.383   2.224   1.143  0.2394  0.1124  0.0579
 8835SOL    HW237965   3.374   2.111   1.048  1.8699  1.3581 -0.1246
 8836SOL     OW37966   2.707   1.409   6.996  0.2794  0.3019  0.5839
 8836SOL    HW137967   2.751   1.481   6.949  0.5062  1.2111  2.2063
 8836SOL    HW237968   2.779   1.363   7.040  2.4285 -0.4285 -3.6584
 8837SOL     OW37969   0.159   1.733   6.618  0.5645 -0.2601 -0.7541
 8837SOL    HW137970   0.181   1.805   6.677  3.8321 -0.8601 -1.2894
 8837SOL    HW237971   0.245   1.709   6.585  0.5985 -0.0425 -0.8247
 8838SOL     OW37972   2.256   3.211   9.775  0.2560  0.3691  0.3032
 8838SOL    HW137973   2.282   3.271   9.706 -2.3210  0.0908 -0.9055
 8838SOL    HW237974   2.278   3.251   9.859 -0.4339 -0.1931  0.7521
 8839SOL     OW37975   3.680   3.291   8.178  0.3013 -0.3545 -0.2434
 8839SOL    HW137976   3.657   3.209   8.133  3.7156 -1.6733  0.3663
 8839SOL    HW237977   3.593   3.313   8.210 -0.0998 -0.6426 -1.1414
 8840SOL     OW37978   0.813   3.379   4.907 -0.6145 -1.1642 -0.5510
 8840SOL    HW137979   0.853   3.464   4.886  1.2487 -1.4846  1.7341
 8840SOL    HW237980   0.774   3.395   4.993  0.4038 -1.1181 -0.1008
 8841SOL     OW37981   0.366   0.622   2.622  0.1381 -0.1486 -0.0820
 8841SOL    HW137982   0.306   0.608   2.549 -0.7941  1.9034  0.2832
 8841SOL    HW237983   0.364   0.717   2.635  1.2071  0.1484 -1.9777
 8842SOL     OW37984   0.537   2.852   3.710 -0.4092 -0.0888  0.1568
 8842SOL    HW137985   0.560   2.934   3.667 -3.9723  0.4828 -0.6173
 8842SOL    HW237986   0.615   2.830   3.760  0.1705  0.2522 -0.5949
 8843SOL     OW37987   3.208   0.837   2.621  0.5142 -0.2702  0.6661
 8843SOL    HW137988   3.271   0.765   2.614 -0.1659 -0.8570  0.5489
 8843SOL    HW237989   3.254   0.909   2.664 -0.6075 -0.6179  2.4797
 8844SOL     OW37990   3.822   0.388   6.357 -0.0330 -0.2823 -0.3340
 8844SOL    HW137991   3.732   0.383   6.391 -0.6174 -2.9093 -2.2238
 8844SOL    HW237992   3.877   0.380   6.434  0.7046  0.9526 -0.7453
 8845SOL     OW37993   1.703   4.416   3.019  0.0303 -0.0990  0.3876
 8845SOL    HW137994   1.685   4.343   2.959 -1.8893  2.3476 -1.9843
 8845SOL    HW237995   1.794   4.400   3.044 -0.4434 -3.4950 -0.0650
 8846SOL     OW37996   3.180   0.222   6.119 -0.3593 -0.3365  0.5269
 8846SOL    HW137997   3.130   0.149   6.082  0.2219 -0.6658  0.3999
 8846SOL    HW237998   3.130   0.300   6.096  2.2551  1.9165  2.4362
 8847SOL     OW37999   1.859   0.584   0.167 -0.3530 -0.3430  0.3158
 8847SOL    HW138000   1.919   0.654   0.142 -1.9905  0.6479 -0.8957
 8847SOL    HW238001   1.801   0.589   0.091  1.3311 -0.3608 -0.9639
 8848SOL     OW38002   2.109   1.290  13.432 -0.2637 -0.1410 -0.3034
 8848SOL    HW138003   2.155   1.348  13.371  0.0981 -2.3143 -2.1064
 8848SOL    HW238004   2.019   1.319  13.418  0.2556  0.9745 -1.3914
 8849SOL     OW38005   1.072   4.726   6.641 -0.1969  0.1984  0.0795
 8849SOL    HW138006   1.074   4.709   6.547 -0.5002  1.0842 -0.0863
 8849SOL    HW238007   1.006   0.069   6.643  0.0471  0.4257  0.3410
 8850SOL     OW38008   1.760   2.578   7.050 -0.3998  0.7042  0.3072
 8850SOL    HW138009   1.709   2.583   7.131 -1.0127  1.3121 -0.1165
 8850SOL    HW238010   1.776   2.484   7.044  0.7988  0.8954  0.5023
 8851SOL     OW38011   3.494   0.758  16.862 -0.2117  0.2093  0.2105
 8851SOL    HW138012   3.411   0.772  16.909 -1.1986 -1.0239 -1.1733
 8851SOL    HW238013   3.504   0.663  16.866 -1.0417  0.1108 -0.0618
 8852SOL     OW38014   3.147   2.484  15.522 -0.3389 -0.1563 -0.0323
 8852SOL    HW138015   3.109   2.474  15.435  0.4872  1.3130 -0.5700
 8852SOL    HW238016   3.078   2.453  15.581 -0.0252 -1.7706 -0.5154
 8853SOL     OW38017   1.740   1.219  17.059  0.0348  0.1158  0.5216
 8853SOL    HW138018   1.752   1.143  17.001 -0.2377  0.6544 -0.2525
 8853SOL    HW238019   1.756   1.301  17.012 -1.3246  0.2436  0.2611
 8854SOL     OW38020   1.399   3.623   3.177  0.3676  0.2393  0.5138
 8854SOL    HW138021   1.334   3.566   3.135 -0.6363  1.4280  0.4472
 8854SOL    HW238022   1.387   3.687   3.107  0.5456 -0.3202 -0.0276
 8855SOL     OW38023   2.682   2.917   7.212  0.4948 -0.0815  0.3335
 8855SOL    HW138024   2.739   2.919   7.289  1.8483 -0.2510 -0.6612
 8855SOL    HW238025   2.664   3.008   7.188  1.5711  0.0966  0.2207
 8856SOL     OW38026   4.664   1.337   9.515  0.0106  0.0960 -0.3506
 8856SOL    HW138027   4.695   1.368   9.600 -1.0294  0.5703 -0.1447
 8856SOL    HW238028   4.708   1.404   9.461  1.4548  0.0156  0.7181
 8857SOL     OW38029   1.609   3.336   5.557  0.6744  0.1225 -0.1921
 8857SOL    HW138030   1.698   3.367   5.539  0.6283 -0.2320 -1.0366
 8857SOL    HW238031   1.611   3.249   5.518 -0.4485 -0.0725  0.2078
 8858SOL     OW38032   2.314   1.621   9.146  0.5566  0.2314  0.0182
 8858SOL    HW138033   2.265   1.702   9.131 -1.8877 -1.5047 -1.3245
 8858SOL    HW238034   2.348   1.642   9.233  0.0766  0.0072  0.2655
 8859SOL     OW38035   2.525   0.666   6.925  0.8386 -0.1570 -0.2985
 8859SOL    HW138036   2.537   0.757   6.900 -0.0732 -0.7410 -2.9078
 8859SOL    HW238037   2.616   0.637   6.919  0.1956 -2.1708 -0.3928
 8860SOL     OW38038   4.470   3.965  11.565 -0.3159 -0.4618 -0.5195
 8860SOL    HW138039   4.524   3.926  11.634 -0.6831 -0.8885 -0.4709
 8860SOL    HW238040   4.444   4.049  11.602  0.1352  0.1021 -1.5029
 8861SOL     OW38041   0.177   1.197   7.325  0.1004 -0.1486  0.3257
 8861SOL    HW138042   0.264   1.196   7.285  0.6694  0.7547  1.5703
 8861SOL    HW238043   0.199   1.208   7.417  2.0428  0.2690 -0.1813
 8862SOL     OW38044   0.736   2.278   9.065  0.2516  0.7564  0.2300
 8862SOL    HW138045   0.697   2.270   9.151 -1.1153  1.3914 -0.3243
 8862SOL    HW238046   0.730   2.373   9.051 -1.9522  0.7702  1.3852
 8863SOL     OW38047   3.405   2.060  10.587 -0.3142  0.1159  0.0142
 8863SOL    HW138048   3.314   2.083  10.607 -0.4522  0.9236 -1.5160
 8863SOL    HW238049   3.420   2.094  10.499 -1.9754 -0.1538 -0.3693
 8864SOL     OW38050   1.926   4.707  10.228  0.1579  0.2143 -0.0790
 8864SOL    HW138051   1.939   4.692  10.322 -0.6389  1.2026  0.1831
 8864SOL    HW238052   2.001   4.661  10.190  0.6569  0.8198  0.1775
 8865SOL     OW38053   2.353   2.888  11.155 -0.3172  0.0258 -0.0684
 8865SOL    HW138054   2.359   2.810  11.100 -2.1901 -1.6842  2.1626
 8865SOL    HW238055   2.272   2.866  11.200 -0.9206 -0.0460 -1.1801
 8866SOL     OW38056   2.762   4.436  10.720 -0.6809 -0.2388 -0.3580
 8866SOL    HW138057   2.844   4.387  10.725  0.3716  1.6206  0.7967
 8866SOL    HW238058   2.703   4.381  10.669  0.2268  0.8051 -2.5252
 8867SOL     OW38059   4.274   1.616   8.152  0.3145 -0.0820  0.2881
 8867SOL    HW138060   4.205   1.566   8.108 -1.6555  2.3994  0.6115
 8867SOL    HW238061   4.338   1.552   8.185 -0.8978 -1.6562 -0.3982
 8868SOL     OW38062   2.458   1.697   5.611 -0.0505  0.6699  0.4998
 8868SOL    HW138063   2.432   1.605   5.611 -0.4397  0.7808  0.9102
 8868SOL    HW238064   2.551   1.693   5.588 -0.3834 -0.3669 -0.6397
 8869SOL     OW38065   1.346   0.112  10.531  0.5363  0.0699  0.5429
 8869SOL    HW138066   1.255   0.124  10.503 -0.0932 -1.9520  1.6905
 8869SOL    HW238067   1.326   0.104  10.624 -2.0292 -1.3834 -0.1250
 8870SOL     OW38068   2.393   0.843   8.346  0.2061  0.5763 -0.0088
 8870SOL    HW138069   2.426   0.819   8.260 -0.9275 -3.9890  0.8202
 8870SOL    HW238070   2.408   0.762   8.394  0.7207 -1.4335 -3.5664
 8871SOL     OW38071   1.541   0.971   6.010  0.1736  0.5792 -0.3748
 8871SOL    HW138072   1.450   0.995   6.028  0.2927  0.6408  0.1542
 8871SOL    HW238073   1.565   1.034   5.942  0.5815  1.3519  0.4918
 8872SOL     OW38074   4.288   3.004   2.653  0.3654 -0.1545  0.0354
 8872SOL    HW138075   4.206   2.982   2.609  0.1980  0.4865  0.0194
 8872SOL    HW238076   4.333   3.056   2.586  0.0108  2.9176  2.1484
 8873SOL     OW38077   4.458   4.509   3.471  0.3180  0.8422  0.1172
 8873SOL    HW138078   4.411   4.460   3.404 -0.5994  0.2419  1.1949
 8873SOL    HW238079   4.530   4.534   3.413  1.3728  2.1541  2.0090
 8874SOL     OW38080   2.135   1.215   8.761  0.2063 -0.3825 -0.2243
 8874SOL    HW138081   2.158   1.300   8.725 -0.8490 -0.1252 -0.2813
 8874SOL    HW238082   2.138   1.235   8.854 -0.0531  0.4475 -0.3988
 8875SOL     OW38083   1.358   2.196   2.690  0.7283 -0.4721  0.2014
 8875SOL    HW138084   1.366   2.210   2.784  0.3469  1.8405 -0.1269
 8875SOL    HW238085   1.264   2.212   2.685  0.7935 -0.4352 -1.0612
 8876SOL     OW38086   0.950   4.429   5.932 -0.8639  0.5716  0.7532
 8876SOL    HW138087   0.910   4.479   6.003 -2.7247  0.6871 -0.3729
 8876SOL    HW238088   0.901   4.467   5.859 -0.2522 -1.7369 -0.8515
 8877SOL     OW38089   2.826   3.698   4.804 -0.3463  0.5570 -0.0899
 8877SOL    HW138090   2.820   3.661   4.892  3.0703 -2.8543 -1.2600
 8877SOL    HW238091   2.897   3.761   4.815  0.6881 -0.8581  1.3257
 8878SOL     OW38092   1.768   4.551   8.479  0.3514 -0.0205  0.4780
 8878SOL    HW138093   1.859   4.567   8.452  1.3042 -2.6687  2.1387
 8878SOL    HW238094   1.735   4.635   8.512  0.2985  0.4408 -0.7389
 8879SOL     OW38095   1.854   1.335   1.959  0.1131  0.0312  0.2533
 8879SOL    HW138096   1.948   1.336   1.938 -0.0773  0.2857 -0.5764
 8879SOL    HW238097   1.809   1.321   1.876 -1.2245 -1.3660  1.2235
 8880SOL     OW38098   1.897   0.262  14.601 -0.0682 -0.2150  0.5119
 8880SOL    HW138099   1.940   0.193  14.550  3.7890  2.2138  0.4855
 8880SOL    HW238100   1.945   0.338  14.567  1.5078 -0.1626  2.8844
 8881SOL     OW38101   1.682   4.617  16.550  0.6621 -0.3083 -0.0047
 8881SOL    HW138102   1.698   4.617  16.455  1.2101 -0.9199  0.0928
 8881SOL    HW238103   1.709   4.702  16.585 -2.1470 -0.5742  2.8405
 8882SOL     OW38104   3.302   2.397  13.956 -0.3714 -0.1990 -0.5589
 8882SOL    HW138105   3.350   2.366  14.032 -1.5464 -0.7865 -0.0627
 8882SOL    HW238106   3.217   2.366  13.986  0.0888  0.4719  1.4490
 8883SOL     OW38107   2.739   2.347   4.305  0.3717 -0.8966 -0.2467
 8883SOL    HW138108   2.670   2.281   4.316 -0.2910 -0.4565 -1.7421
 8883SOL    HW238109   2.716   2.421   4.361  2.4118 -0.0608 -0.5020
 8884SOL     OW38110   4.115   1.394   2.373 -0.2624 -0.5288  0.1143
 8884SOL    HW138111   4.197   1.439   2.392 -0.0143 -1.3753  1.0595
 8884SOL    HW238112   4.140   1.337   2.300  0.6485  0.6764 -0.5269
 8885SOL     OW38113   0.311   3.132   0.297  0.1522 -0.6062  0.2306
 8885SOL    HW138114   0.379   3.068   0.276  1.1727  0.5147  0.0884
 8885SOL    HW238115   0.351   3.219   0.304  0.1704 -0.6990  1.2335
 8886SOL     OW38116   4.182   0.384  12.465 -0.3404 -0.3399  0.2805
 8886SOL    HW138117   4.133   0.369  12.385  1.4497 -1.2450 -0.6583
 8886SOL    HW238118   4.223   0.463  12.430  2.2667 -1.4179  0.8356
 8887SOL     OW38119   0.942   3.143   6.250 -0.0367 -0.6395  0.0502
 8887SOL    HW138120   0.953   3.205   6.178 -0.4745  1.4072  1.7371
 8887SOL    HW238121   0.890   3.194   6.312  0.8941  2.3424 -1.6469
 8888SOL     OW38122   4.282   2.750   8.192  0.4854 -0.5422  0.2266
 8888SOL    HW138123   4.239   2.693   8.256  1.0766 -0.7384  0.4445
 8888SOL    HW238124   4.346   2.684   8.166 -0.0895 -0.5611 -1.1273
 8889SOL     OW38125   2.427   2.048   4.056  0.3100 -0.2188  0.0903
 8889SOL    HW138126   2.374   1.968   4.065  0.8023 -0.5183  0.3218
 8889SOL    HW238127   2.511   2.029   4.099 -0.1586  0.1174  1.1583
 8890SOL     OW38128   2.246   0.176   6.085  0.1592 -0.5189 -0.2667
 8890SOL    HW138129   2.278   0.143   6.169  1.2043  2.2828  0.4279
 8890SOL    HW238130   2.325   0.173   6.030  0.4847 -0.5386  0.2073
 8891SOL     OW38131   1.606   4.412   0.926  0.6226  0.4423 -0.2155
 8891SOL    HW138132   1.585   4.319   0.927 -2.5585  1.1835  2.4329
 8891SOL    HW238133   1.523   4.452   0.952 -1.0852 -2.1565 -1.8141
 8892SOL     OW38134   2.563   0.484   5.973 -0.1110 -0.0186  0.0525
 8892SOL    HW138135   2.659   0.482   5.976 -0.0080  0.9382 -2.4640
 8892SOL    HW238136   2.548   0.560   6.030 -0.0434  0.6794 -0.8725
 8893SOL     OW38137   2.735   3.569  15.515  0.5792 -0.3723 -0.3690
 8893SOL    HW138138   2.795   3.537  15.582  0.8263  0.5937 -0.1331
 8893SOL    HW238139   2.788   3.620  15.455  3.0034 -2.2854  0.1510
 8894SOL     OW38140   4.698   2.255   8.721  0.9083  0.4084  0.5663
 8894SOL    HW138141   0.040   2.273   8.785 -0.5977  1.5950  1.8692
 8894SOL    HW238142   0.019   2.279   8.642 -1.6210 -0.4216 -1.2034
 8895SOL     OW38143   0.201   1.044  11.045 -0.1725 -0.1683 -0.4616
 8895SOL    HW138144   0.155   1.068  10.964  0.7307 -0.7365 -1.1397
 8895SOL    HW238145   0.136   0.992  11.093  1.5884 -0.5746  1.4789
 8896SOL     OW38146   3.178   3.509  16.325 -0.6509  0.1870  0.7112
 8896SOL    HW138147   3.248   3.526  16.263 -2.1280 -0.9901 -1.3034
 8896SOL    HW238148   3.111   3.502  16.256  0.1814  2.1601 -0.2766
 8897SOL     OW38149   2.869   3.661   2.246  0.0554 -0.4830  0.2238
 8897SOL    HW138150   2.962   3.641   2.233  0.9488  2.1214  2.4926
 8897SOL    HW238151   2.826   3.633   2.166  0.9550 -1.1100 -0.0447
 8898SOL     OW38152   3.902   3.045   7.295 -0.0922  0.0698  0.3268
 8898SOL    HW138153   3.870   3.131   7.321  1.0047  0.8508 -0.9243
 8898SOL    HW238154   3.836   2.995   7.343  1.2331 -1.5479  0.4378
 8899SOL     OW38155   4.652   3.012   8.881 -0.3357  0.0848 -0.1351
 8899SOL    HW138156   4.620   3.102   8.870  2.1243  1.1771  1.6259
 8899SOL    HW238157   4.583   2.963   8.837 -2.4749  1.5706  1.5252
 8900SOL     OW38158   2.764   0.600  16.643 -0.8400  0.3242  0.0405
 8900SOL    HW138159   2.745   0.673  16.702 -0.1269  0.4496  0.1130
 8900SOL    HW238160   2.849   0.572  16.679 -0.8267 -0.9132 -0.9461
 8901SOL     OW38161   2.877   3.113  10.597  0.0570  0.0641 -0.0917
 8901SOL    HW138162   2.971   3.121  10.614 -0.1298  1.7988  0.2017
 8901SOL    HW238163   2.847   3.193  10.553  1.9589  0.6390 -0.3591
 8902SOL     OW38164   0.516   4.228   7.500  0.0409  0.4019 -0.1168
 8902SOL    HW138165   0.471   4.159   7.548 -1.8832  0.2026 -2.1869
 8902SOL    HW238166   0.450   4.297   7.512 -0.0553  0.2062  0.4466
 8903SOL     OW38167   1.483   1.134   5.583  0.3800 -0.3706 -0.0956
 8903SOL    HW138168   1.471   1.039   5.588  2.0237 -0.5910 -0.5622
 8903SOL    HW238169   1.532   1.141   5.501 -0.5577 -1.3128 -0.7462
 8904SOL     OW38170   0.196   1.313   4.585 -0.6407 -0.3722 -0.1946
 8904SOL    HW138171   0.202   1.406   4.604  0.6093 -0.0308 -2.3193
 8904SOL    HW238172   0.262   1.284   4.648  0.0552  0.3894 -0.5759
 8905SOL     OW38173   3.105   3.117   8.711 -0.7662 -0.4495 -0.8355
 8905SOL    HW138174   3.081   3.102   8.619 -1.3092  0.7439 -0.8853
 8905SOL    HW238175   3.124   3.028   8.741 -0.5563 -0.8224 -2.0590
 8906SOL     OW38176   1.936   2.997   3.736  0.4816  0.2356 -0.2616
 8906SOL    HW138177   2.021   3.016   3.774  1.0582  0.7082 -1.8027
 8906SOL    HW238178   1.950   2.911   3.696 -0.8064  0.2547 -0.7605
 8907SOL     OW38179   0.549   1.879   6.887 -0.0643 -0.3205 -1.5229
 8907SOL    HW138180   0.501   1.951   6.929  0.1582 -0.5146 -0.9452
 8907SOL    HW238181   0.482   1.814   6.872  0.9986 -2.1177  1.5192
 8908SOL     OW38182   2.385   1.160   2.344  0.1891  0.0725 -0.2090
 8908SOL    HW138183   2.456   1.224   2.351 -2.0937  2.7958 -1.9805
 8908SOL    HW238184   2.432   1.088   2.386 -0.1941  0.1788  0.3926
 8909SOL     OW38185   3.561   2.507  15.054 -0.2729  0.0781  0.4255
 8909SOL    HW138186   3.523   2.560  15.124  0.2497 -1.0045  1.5205
 8909SOL    HW238187   3.640   2.474  15.096  1.9375  2.8299 -1.5608
 8910SOL     OW38188   0.107   2.184   0.671  0.7830  0.3645 -0.0103
 8910SOL    HW138189   0.183   2.129   0.654  0.6812  0.7134 -1.5795
 8910SOL    HW238190   0.103   2.248   0.600  2.5271  2.1467  1.5165
 8911SOL     OW38191   3.730   0.454   9.395 -0.1485  0.6833  0.4053
 8911SOL    HW138192   3.748   0.370   9.353  2.1676  0.3589  2.0489
 8911SOL    HW238193   3.668   0.495   9.334  0.4342 -0.0600 -0.6807
 8912SOL     OW38194   3.095   0.651   7.858  0.2174 -0.0908  0.4911
 8912SOL    HW138195   3.160   0.716   7.831  0.8449 -1.3049 -0.9155
 8912SOL    HW238196   3.058   0.691   7.936 -1.0322 -0.6517  0.1799
 8913SOL     OW38197   1.287   0.066   9.198  0.7684  0.0357 -0.2140
 8913SOL    HW138198   1.301   0.025   9.283 -1.1290 -1.1032 -0.4491
 8913SOL    HW238199   1.266   0.156   9.225  0.6253 -0.0627 -0.0025
 8914SOL     OW38200   0.883   3.484   8.393 -0.6583 -0.3278 -0.7537
 8914SOL    HW138201   0.810   3.454   8.339 -0.8278 -0.4010 -0.4855
 8914SOL    HW238202   0.938   3.534   8.332 -0.9958  1.5004  0.4264
 8915SOL     OW38203   2.443   0.385   8.652 -0.1222  0.3276 -0.1526
 8915SOL    HW138204   2.450   0.301   8.607 -0.2688  0.8643 -1.1812
 8915SOL    HW238205   2.502   0.378   8.727 -0.5586  0.1627  0.1710
 8916SOL     OW38206   0.351   2.171   2.489 -0.1570  0.0543  0.2278
 8916SOL    HW138207   0.426   2.159   2.431 -0.6714 -0.0325 -0.4298
 8916SOL    HW238208   0.280   2.112   2.462  1.1455 -0.8743 -1.2018
 8917SOL     OW38209   3.380   4.421   5.666  0.4143 -0.6571  0.4141
 8917SOL    HW138210   3.447   4.357   5.685  0.5969 -0.4329  0.5175
 8917SOL    HW238211   3.374   4.397   5.573  1.7929  0.2448  0.0935
 8918SOL     OW38212   2.661   0.719  12.661 -0.1782 -0.0513  0.1781
 8918SOL    HW138213   2.650   0.757  12.749 -1.0193 -0.3141  0.1846
 8918SOL    HW238214   2.710   0.792  12.622 -1.6891  0.6968 -0.3398
 8919SOL     OW38215   4.133   2.085   8.490  0.1783  0.4024 -0.0786
 8919SOL    HW138216   4.194   2.044   8.428  1.8363  1.1888  1.0336
 8919SOL    HW238217   4.135   2.021   8.561 -1.7144 -0.4556 -0.7925
 8920SOL     OW38218   1.337   1.617  10.650 -0.1941 -0.5603  0.8421
 8920SOL    HW138219   1.335   1.630  10.555  1.6278 -2.9699  0.4917
 8920SOL    HW238220   1.365   1.702  10.684 -1.4343 -0.4414  1.5766
 8921SOL     OW38221   1.016   3.261   2.531 -0.1279 -0.1040 -0.4167
 8921SOL    HW138222   1.045   3.248   2.621 -0.7603  0.6504 -0.1001
 8921SOL    HW238223   1.104   3.260   2.494  0.1129 -3.9952  0.2220
 8922SOL     OW38224   2.538   2.046  14.861 -0.0292 -0.0794  0.5712
 8922SOL    HW138225   2.555   2.012  14.774  0.8979  0.4169  0.5554
 8922SOL    HW238226   2.452   2.007  14.876 -0.2607  0.2709  0.1695
 8923SOL     OW38227   2.446   0.743   8.056  0.3960 -1.1273  0.5733
 8923SOL    HW138228   2.508   0.705   8.118  1.0881 -0.2833  0.3937
 8923SOL    HW238229   2.511   0.787   8.002 -0.1515 -2.3584 -1.0868
 8924SOL     OW38230   0.931   2.275   4.424 -0.0753 -0.7287 -0.2409
 8924SOL    HW138231   0.952   2.230   4.343  1.5043  1.0277 -0.7932
 8924SOL    HW238232   1.011   2.277   4.476 -1.1357  0.9936  1.3461
 8925SOL     OW38233   1.459   4.663   2.099  0.0889 -0.7837  0.1274
 8925SOL    HW138234   1.467   4.700   2.012 -0.8137  1.2571  0.9183
 8925SOL    HW238235   1.379   4.702   2.134  1.1491  1.9595 -0.4876
 8926SOL     OW38236   2.930   1.149   7.111  0.4388  0.0428  0.0517
 8926SOL    HW138237   2.891   1.073   7.067  0.1976 -1.2330  2.5083
 8926SOL    HW238238   2.920   1.125   7.203  1.4648  1.4432  0.5349
 8927SOL     OW38239   4.690   2.143   6.331  0.4226  0.5496 -0.5069
 8927SOL    HW138240   4.712   2.050   6.320  0.5604  0.5601 -0.3239
 8927SOL    HW238241   4.703   2.181   6.245  1.1910  1.5389  0.0474
 8928SOL     OW38242   1.379   4.281  14.685  0.1867  0.1534 -0.4180
 8928SOL    HW138243   1.473   4.286  14.670 -0.0743  2.3022 -1.1995
 8928SOL    HW238244   1.358   4.214  14.620 -0.3870 -1.4842  1.4494
 8929SOL     OW38245   3.041   1.112   2.689 -0.0940 -0.4310 -0.2892
 8929SOL    HW138246   3.012   1.022   2.696  0.9256 -1.0040 -3.5836
 8929SOL    HW238247   3.009   1.139   2.603  1.1205 -0.1631 -0.6645
 8930SOL     OW38248   1.394   1.617  10.047  0.0780 -0.4040  0.2196
 8930SOL    HW138249   1.489   1.614  10.036 -0.0904  1.3233 -1.6928
 8930SOL    HW238250   1.363   1.585   9.962  0.4128 -0.3037  0.0571
 8931SOL     OW38251   2.747   1.027  14.043 -0.3742 -0.4127 -0.1260
 8931SOL    HW138252   2.693   1.007  14.120 -1.8054 -1.9300 -1.5232
 8931SOL    HW238253   2.772   0.935  14.038 -0.0509 -0.3051 -0.4771
 8932SOL     OW38254   2.828   4.002   6.100 -0.2158  0.1044 -0.1400
 8932SOL    HW138255   2.916   4.012   6.064 -0.1654 -0.5056 -0.1853
 8932SOL    HW238256   2.843   3.965   6.187 -1.5982  0.5601  0.2884
 8933SOL     OW38257   2.295   1.883   6.889  0.3101  0.0491  0.3744
 8933SOL    HW138258   2.308   1.790   6.867  1.6482  0.0851  0.9874
 8933SOL    HW238259   2.276   1.886   6.982 -1.7195 -0.0074 -0.0362
 8934SOL     OW38260   1.738   4.358   0.661  0.1132  0.2920  0.8581
 8934SOL    HW138261   1.693   4.395   0.737  0.7592  1.0086  0.8911
 8934SOL    HW238262   1.807   4.424   0.653  1.0574 -0.6482  1.1817
 8935SOL     OW38263   3.444   0.114   3.269  0.5330  0.0974 -0.1259
 8935SOL    HW138264   3.420   0.139   3.358  1.1123 -0.6961  0.2501
 8935SOL    HW238265   3.389   0.038   3.253  0.3234  0.3490 -0.6249
 8936SOL     OW38266   2.841   4.459  14.180 -0.3698  0.0687 -0.4452
 8936SOL    HW138267   2.856   4.486  14.271  0.6282  2.8392 -1.4350
 8936SOL    HW238268   2.931   4.441  14.153 -0.7621 -2.5036 -0.0410
 8937SOL     OW38269   0.378   3.716  10.464  0.3632 -0.1223  0.2546
 8937SOL    HW138270   0.334   3.767  10.395  0.2644  1.2709  1.3627
 8937SOL    HW238271   0.448   3.678  10.411  0.9339 -2.7253  2.8998
 8938SOL     OW38272   1.782   4.281   8.945 -0.3964  0.1377  0.7480
 8938SOL    HW138273   1.762   4.374   8.949  2.4123  0.7026  1.7998
 8938SOL    HW238274   1.698   4.236   8.956  0.2131 -1.5589 -1.4441
 8939SOL     OW38275   1.596   2.465   4.393 -0.1143  0.4937 -0.3845
 8939SOL    HW138276   1.652   2.433   4.322 -0.3899 -1.4165  0.2677
 8939SOL    HW238277   1.596   2.391   4.453 -0.7813  0.6938 -0.1323
 8940SOL     OW38278   4.047   0.190   7.752  0.3213  0.3141  0.2991
 8940SOL    HW138279   3.968   0.161   7.798 -0.3403 -1.4028 -1.9643
 8940SOL    HW238280   4.115   0.185   7.820 -0.6146  2.7229  1.4424
 8941SOL     OW38281   4.512   1.027   9.572 -0.6506  0.0485  0.0980
 8941SOL    HW138282   4.497   0.943   9.616 -0.9153  0.8045  1.4559
 8941SOL    HW238283   4.498   1.092   9.641  2.7683 -0.1564  0.9841
 8942SOL     OW38284   3.050   3.483  16.092 -0.0338  0.3983 -0.1671
 8942SOL    HW138285   2.960   3.485  16.058  0.5596 -1.8358 -1.8247
 8942SOL    HW238286   3.100   3.507  16.014  1.2660  0.3296  0.6626
 8943SOL     OW38287   0.686   2.162   7.056  0.0767  0.0097 -0.3656
 8943SOL    HW138288   0.677   2.231   7.121  1.6605  0.2758 -0.4270
 8943SOL    HW238289   0.597   2.142   7.028 -0.2773  1.8195 -0.5150
 8944SOL     OW38290   2.735   1.147   9.505  0.5119  0.2192 -0.0954
 8944SOL    HW138291   2.792   1.107   9.440  0.0280  0.9111 -0.9495
 8944SOL    HW238292   2.783   1.123   9.585  1.1382 -0.0749 -0.5538
 8945SOL     OW38293   3.649   4.644   4.764  0.3541  0.2223  0.6736
 8945SOL    HW138294   3.576   4.674   4.710 -0.4415 -4.6658 -0.8875
 8945SOL    HW238295   3.631   4.552   4.779 -0.8297  0.2427 -0.7096
 8946SOL     OW38296   3.962   1.768   6.711  0.1131 -0.4948  0.3739
 8946SOL    HW138297   4.040   1.793   6.760 -0.0748  1.4187 -0.2976
 8946SOL    HW238298   4.002   1.740   6.629  0.9025 -0.8470  0.8918
 8947SOL     OW38299   1.433   1.295  15.209 -0.0342 -0.4167  0.3776
 8947SOL    HW138300   1.479   1.366  15.254  1.2776 -1.1411  0.1972
 8947SOL    HW238301   1.357   1.284  15.265 -0.0983  1.8919  0.7212
 8948SOL     OW38302   4.163   0.605  15.989 -0.4556 -0.1171 -0.0678
 8948SOL    HW138303   4.080   0.603  16.037 -0.1181 -1.1130  0.4697
 8948SOL    HW238304   4.147   0.542  15.919 -1.4783  0.4495 -0.3481
 8949SOL     OW38305   3.005   3.179  11.973 -0.3955  0.0997  0.7059
 8949SOL    HW138306   2.966   3.266  11.970 -0.2690  0.2491  3.1455
 8949SOL    HW238307   3.071   3.191  11.904 -1.5718  1.2871 -0.1973
 8950SOL     OW38308   0.920   1.820   1.723 -0.0962 -0.1598  0.4450
 8950SOL    HW138309   0.928   1.873   1.802 -1.8565  1.0915 -0.2251
 8950SOL    HW238310   0.960   1.739   1.755  4.2393  1.4429 -0.8563
 8951SOL     OW38311   1.911   2.832  15.556 -0.2953 -0.3838  0.3465
 8951SOL    HW138312   1.907   2.916  15.601 -0.8574  0.2075 -0.8097
 8951SOL    HW238313   1.955   2.773  15.618 -0.6521 -0.4459  0.5421
 8952SOL     OW38314   4.567   2.390  16.453 -0.2145 -0.4212  0.4515
 8952SOL    HW138315   4.490   2.383  16.511 -0.6279 -1.4314 -0.2080
 8952SOL    HW238316   4.526   2.366  16.370 -0.0820  0.1896  0.2138
 8953SOL     OW38317   2.294   1.319   7.803  0.4953 -0.2804 -0.1144
 8953SOL    HW138318   2.251   1.273   7.876  1.8728  1.1132  1.5908
 8953SOL    HW238319   2.363   1.257   7.778  0.3875  0.9401 -3.3153
 8954SOL     OW38320   2.709   0.655   3.311 -0.3540 -0.8171 -0.0134
 8954SOL    HW138321   2.666   0.698   3.237  1.8636  1.5346  0.0749
 8954SOL    HW238322   2.635   0.654   3.372 -3.2752 -1.8164 -3.5997
 8955SOL     OW38323   4.359   4.717   8.460 -0.4456  0.1920 -0.5975
 8955SOL    HW138324   4.422   4.685   8.525 -0.8109 -0.1957 -0.4297
 8955SOL    HW238325   4.411   4.713   8.380  1.3165 -2.6510  0.7037
 8956SOL     OW38326   3.574   1.624   0.457 -0.2622 -0.5880  0.2004
 8956SOL    HW138327   3.667   1.615   0.476 -0.2057  1.2214  0.7718
 8956SOL    HW238328   3.586   1.667   0.372 -0.8621  1.4797  1.1574
 8957SOL     OW38329   0.809   0.246  10.432 -0.5081  0.0893  0.5121
 8957SOL    HW138330   0.749   0.259  10.505  0.6151  0.6287  1.3369
 8957SOL    HW238331   0.833   0.338  10.415 -0.6719 -0.3431 -2.0518
 8958SOL     OW38332   3.608   2.137   6.567  0.0416  0.3627  0.4673
 8958SOL    HW138333   3.612   2.041   6.568 -2.5895  0.2691  0.2842
 8958SOL    HW238334   3.515   2.149   6.582 -0.0392  0.5215 -0.1680
 8959SOL     OW38335   4.644   3.539  11.093  0.1341 -0.1119 -0.3976
 8959SOL    HW138336   4.667   3.629  11.070 -2.2032  0.2580 -1.2032
 8959SOL    HW238337   4.599   3.558  11.176  0.8600 -1.0189  0.2085
 8960SOL     OW38338   0.207   2.399  10.658 -0.5248 -0.3346 -0.1344
 8960SOL    HW138339   0.183   2.434  10.572 -1.2317  0.5253  0.4178
 8960SOL    HW238340   0.202   2.304  10.649 -1.0276 -0.4552  1.3866
 8961SOL     OW38341   2.704   3.844   6.701  0.0899  0.5289 -0.9154
 8961SOL    HW138342   2.730   3.935   6.686  0.6953  0.3571 -0.8972
 8961SOL    HW238343   2.612   3.859   6.681  0.3022 -0.1703 -2.4045
 8962SOL     OW38344   3.025   1.802   9.054 -0.0238  0.1664 -0.3633
 8962SOL    HW138345   3.103   1.765   9.096  0.8214  1.3745 -0.8706
 8962SOL    HW238346   3.019   1.883   9.105 -1.3582 -0.4183  0.3924
 8963SOL     OW38347   3.704   4.528   9.676  0.4342  0.4839 -0.2285
 8963SOL    HW138348   3.710   4.507   9.769 -0.1992  0.9351 -0.0866
 8963SOL    HW238349   3.775   4.592   9.670  0.1540  0.8250  0.0417
 8964SOL     OW38350   0.131   4.110   4.403 -0.0458 -0.3865  0.1028
 8964SOL    HW138351   0.195   4.054   4.447  2.3464  0.2629 -2.5254
 8964SOL    HW238352   0.084   4.133   4.484 -1.2782  1.5241 -1.1514
 8965SOL     OW38353   1.893   3.274   3.683  0.0679 -0.3783  0.2832
 8965SOL    HW138354   1.965   3.336   3.676  0.9360 -1.6634 -2.4047
 8965SOL    HW238355   1.928   3.187   3.702 -0.5402 -0.7848 -0.4613
 8966SOL     OW38356   0.795   0.949  12.925 -0.1709  0.4568  0.3018
 8966SOL    HW138357   0.717   0.972  12.876  1.0532  0.3089 -1.7355
 8966SOL    HW238358   0.802   1.025  12.983 -0.1703  1.3844 -0.9240
 8967SOL     OW38359   3.516   0.096   4.219 -0.2600 -0.4777  0.7372
 8967SOL    HW138360   3.444   0.151   4.188 -1.6285 -0.7867  3.3856
 8967SOL    HW238361   3.553   0.143   4.293 -0.0173  0.4457  0.0211
 8968SOL     OW38362   3.921   3.391   4.553  0.0867 -0.6696 -0.4094
 8968SOL    HW138363   3.971   3.319   4.513 -0.3698 -1.4260  0.3856
 8968SOL    HW238364   3.909   3.452   4.480 -1.3981  0.6381  0.9378
 8969SOL     OW38365   1.358   3.470  16.351 -0.1578  0.0818 -0.4220
 8969SOL    HW138366   1.424   3.449  16.285  0.3317 -0.1078  0.1336
 8969SOL    HW238367   1.357   3.565  16.338 -1.1282  0.1741  0.3715
 8970SOL     OW38368   1.903   2.828   1.095 -0.3176 -0.5617  0.8728
 8970SOL    HW138369   1.996   2.804   1.099 -0.2684 -0.6197 -0.6147
 8970SOL    HW238370   1.884   2.846   1.187 -0.0249 -1.0682  1.0338
 8971SOL     OW38371   1.264   1.290   5.271 -0.1976 -0.0780 -0.0422
 8971SOL    HW138372   1.317   1.349   5.218  1.7901 -0.6170  1.3454
 8971SOL    HW238373   1.295   1.204   5.242  0.8927  0.4351 -0.3780
 8972SOL     OW38374   3.989   1.390   6.333 -0.6705 -0.6960  0.0055
 8972SOL    HW138375   3.972   1.323   6.267  2.0864 -0.2066 -1.1868
 8972SOL    HW238376   3.902   1.420   6.360 -0.8384  1.1766 -2.6193
 8973SOL     OW38377   3.780   2.208  11.857 -0.5621 -0.2569 -0.0042
 8973SOL    HW138378   3.747   2.284  11.906 -0.3593  0.1903 -0.5607
 8973SOL    HW238379   3.872   2.222  11.882 -1.1373  1.1464  1.3618
 8974SOL     OW38380   4.178   1.396   0.156  0.1083 -0.7644  0.2945
 8974SOL    HW138381   4.224   1.313   0.170 -0.8336 -1.4600 -0.7160
 8974SOL    HW238382   4.127   1.401   0.237  0.0673 -1.5162  0.3201
 8975SOL     OW38383   0.363   4.226   9.661 -0.1897  0.1822 -0.5582
 8975SOL    HW138384   0.446   4.212   9.707  0.6867  0.7504 -1.9492
 8975SOL    HW238385   0.403   4.253   9.578 -1.9874 -0.9716 -1.8017
 8976SOL     OW38386   4.441   0.314   9.741 -0.2665 -0.1511 -0.0979
 8976SOL    HW138387   4.465   0.347   9.828 -1.0285 -0.2730  0.1538
 8976SOL    HW238388   4.425   0.221   9.756  0.4162 -0.1231  0.8439
 8977SOL     OW38389   0.123   0.100   7.233 -0.2370 -0.2362 -0.5293
 8977SOL    HW138390   0.088   0.150   7.159  0.0417 -1.3077 -1.3818
 8977SOL    HW238391   0.068   0.023   7.220  0.6374 -1.3950  2.7532
 8978SOL     OW38392   3.735   4.176   8.595 -0.4530  0.2152 -0.1646
 8978SOL    HW138393   3.710   4.089   8.563 -0.8446 -0.0952  0.9864
 8978SOL    HW238394   3.831   4.167   8.591 -0.4076 -0.0152  1.4221
 8979SOL     OW38395   2.680   1.992   4.156 -0.1125 -0.5485 -0.5757
 8979SOL    HW138396   2.760   2.015   4.203 -0.0921  1.0814 -1.3910
 8979SOL    HW238397   2.681   1.896   4.160  0.3330 -0.5551 -0.8485
 8980SOL     OW38398   3.260   0.381  11.464 -1.1798 -0.4903 -0.0451
 8980SOL    HW138399   3.281   0.359  11.374  1.6500  0.6557  0.3286
 8980SOL    HW238400   3.211   0.464  11.465 -1.6313 -0.7864  2.1032
 8981SOL     OW38401   2.783   3.944   5.670 -0.0634 -0.3174  0.1070
 8981SOL    HW138402   2.764   3.909   5.757  4.3737  1.1898  1.7112
 8981SOL    HW238403   2.878   3.950   5.686 -0.3183  0.6697  1.2102
 8982SOL     OW38404   2.009   3.755   4.395 -0.3317 -0.5415 -0.3349
 8982SOL    HW138405   2.013   3.834   4.342  0.5203 -0.1449  0.3196
 8982SOL    HW238406   2.050   3.787   4.476  1.1157 -0.5031 -1.0754
 8983SOL     OW38407   3.765   1.901  16.468 -0.3106  0.1658 -0.1091
 8983SOL    HW138408   3.798   1.848  16.396  1.0136  1.8161 -0.7258
 8983SOL    HW238409   3.708   1.958  16.417  0.9367  0.7760 -0.8270
 8984SOL     OW38410   2.218   4.518   9.830  0.3746 -0.3961 -0.1448
 8984SOL    HW138411   2.260   4.564   9.758 -0.4672  1.4896  0.5797
 8984SOL    HW238412   2.141   4.486   9.783 -0.9834  2.0963  0.3724
 8985SOL     OW38413   3.103   1.247   6.245  0.2361 -0.4270 -0.0522
 8985SOL    HW138414   3.124   1.243   6.338  2.4984 -0.3117 -0.5615
 8985SOL    HW238415   3.185   1.220   6.205  0.1782  0.0331 -0.4838
 8986SOL     OW38416   2.854   0.572   7.600 -0.0012 -0.2917 -0.2094
 8986SOL    HW138417   2.797   0.578   7.523 -0.9499 -1.0208  0.4397
 8986SOL    HW238418   2.936   0.602   7.560 -0.1319 -0.9340 -0.9403
 8987SOL     OW38419   1.909   2.309   8.007 -0.7311  0.4127 -0.5793
 8987SOL    HW138420   1.899   2.320   7.912 -0.8616  0.0459 -0.6065
 8987SOL    HW238421   1.944   2.394   8.035  2.5807 -0.8700 -0.7583
 8988SOL     OW38422   1.026   1.409   2.991  0.3681 -0.7005 -0.1568
 8988SOL    HW138423   1.119   1.426   2.976  0.5560 -1.5747  0.0363
 8988SOL    HW238424   0.990   1.478   2.935 -0.3007 -1.0882 -0.2050
 8989SOL     OW38425   1.622   1.783   7.401 -0.3235  0.0388  0.1522
 8989SOL    HW138426   1.554   1.719   7.377 -0.1382 -0.9097  2.1905
 8989SOL    HW238427   1.692   1.737   7.355 -0.8463 -1.2867  0.6587
 8990SOL     OW38428   0.908   3.228   9.274 -0.0386 -0.5748  0.1062
 8990SOL    HW138429   0.911   3.153   9.333 -1.9416 -1.2379 -0.6544
 8990SOL    HW238430   0.847   3.195   9.208  0.7802 -2.0810  0.0943
 8991SOL     OW38431   2.492   0.428   5.361 -0.1443 -0.0460  0.2008
 8991SOL    HW138432   2.499   0.336   5.385 -0.9653  0.2617  1.6509
 8991SOL    HW238433   2.411   0.414   5.311 -0.7308  0.1689  1.0888
 8992SOL     OW38434   1.525   3.081  15.069  0.2321  0.3510 -0.5210
 8992SOL    HW138435   1.539   3.007  15.128 -1.2152  0.7817  0.3694
 8992SOL    HW238436   1.561   3.050  14.986 -2.6500 -1.0672 -1.2660
 8993SOL     OW38437   2.938   0.349   2.364 -0.2185 -0.2278  0.0606
 8993SOL    HW138438   2.957   0.408   2.438 -0.5789  0.6553 -0.5459
 8993SOL    HW238439   2.941   0.411   2.291 -0.9759  1.6455  1.6119
 8994SOL     OW38440   3.323   1.084   2.705  0.2487 -0.0809  0.2988
 8994SOL    HW138441   3.372   1.136   2.768 -1.6854  2.2145 -0.0939
 8994SOL    HW238442   3.239   1.128   2.692  0.0101 -0.8654 -0.8172
 8995SOL     OW38443   0.820   3.845  10.080 -0.2442 -0.3114 -0.3386
 8995SOL    HW138444   0.793   3.846  10.171  0.3632 -4.7398 -0.0953
 8995SOL    HW238445   0.784   3.761  10.051  0.8738 -0.4140 -1.4547
 8996SOL     OW38446   4.205   2.674  11.780 -0.2992  0.1782 -0.2720
 8996SOL    HW138447   4.262   2.611  11.736  0.6783 -0.7729  2.4022
 8996SOL    HW238448   4.258   2.745  11.818  1.3297 -0.9647 -0.3946
 8997SOL     OW38449   3.617   4.323   9.150  0.1449 -0.2612  0.2112
 8997SOL    HW138450   3.691   4.308   9.209  1.3783 -1.1371 -1.5644
 8997SOL    HW238451   3.619   4.417   9.132 -0.5828 -0.3333 -0.2606
 8998SOL     OW38452   3.296   3.970   3.246 -0.0133  0.2563  0.0922
 8998SOL    HW138453   3.267   3.940   3.160  2.7127  0.3775 -0.8598
 8998SOL    HW238454   3.380   3.924   3.243 -0.0897  0.1770 -0.7249
 8999SOL     OW38455   1.442   0.637   6.226  0.4774  1.0484 -0.5881
 8999SOL    HW138456   1.465   0.675   6.142 -0.3180 -2.5495 -2.4381
 8999SOL    HW238457   1.415   0.548   6.202  2.4111 -0.4090  2.5594
 9000SOL     OW38458   3.754   3.832   9.737 -0.3924 -0.6329  0.1675
 9000SOL    HW138459   3.746   3.857   9.829  0.1694 -1.9026  0.5607
 9000SOL    HW238460   3.804   3.908   9.708 -2.8875  0.1860 -1.9475
 9001SOL     OW38461   0.311   2.752  12.407  0.0322 -0.1436 -0.1011
 9001SOL    HW138462   0.314   2.658  12.421 -1.5724 -0.1575  0.0562
 9001SOL    HW238463   0.310   2.792  12.494  1.2249 -2.0533  0.8023
 9002SOL     OW38464   0.575   0.464   2.037  0.1088  0.1914  0.3221
 9002SOL    HW138465   0.558   0.378   1.999 -0.1030 -0.1384  1.1791
 9002SOL    HW238466   0.502   0.512   1.997  0.1297 -1.0978 -1.2735
 9003SOL     OW38467   1.618   2.899  14.475 -0.1426  0.0691 -0.7468
 9003SOL    HW138468   1.626   2.900  14.380  3.3518 -0.9394 -0.4729
 9003SOL    HW238469   1.553   2.833  14.499  0.6635 -0.1148  0.9575
 9004SOL     OW38470   0.605   1.454   4.011  0.5262  0.0260  0.1247
 9004SOL    HW138471   0.601   1.546   4.039  0.6629 -0.0523  0.3962
 9004SOL    HW238472   0.559   1.413   4.084  0.3896  1.5368  0.8899
 9005SOL     OW38473   3.601   0.155   8.076 -0.1890  0.1061 -0.8079
 9005SOL    HW138474   3.644   0.175   7.993  0.1689  0.4333 -0.5441
 9005SOL    HW238475   3.608   0.060   8.083  1.5147  0.2456 -0.6201
 9006SOL     OW38476   1.264   1.686   3.171 -0.1552  0.6034  0.1650
 9006SOL    HW138477   1.302   1.683   3.083  1.0714 -2.8264  0.8049
 9006SOL    HW238478   1.299   1.768   3.208 -1.7455  0.8742  1.0437
 9007SOL     OW38479   2.920   2.643   4.548 -0.5164  0.4102 -0.4693
 9007SOL    HW138480   2.865   2.636   4.625  1.2915 -3.6781  0.4382
 9007SOL    HW238481   2.983   2.575   4.569 -1.5904  0.0672  1.5711
 9008SOL     OW38482   1.731   3.104  12.578  0.3758 -0.3166  0.1153
 9008SOL    HW138483   1.678   3.173  12.618  1.6400  0.7824 -0.1117
 9008SOL    HW238484   1.663   3.043  12.549  0.6243  0.0280 -1.1769
 9009SOL     OW38485   2.887   1.876   7.666 -0.0970  0.0840  0.3430
 9009SOL    HW138486   2.808   1.829   7.638  0.9656 -1.0739 -0.7154
 9009SOL    HW238487   2.898   1.835   7.752  0.8643 -0.9081 -0.2522
 9010SOL     OW38488   4.413   2.737   0.556  0.9296  0.2670  0.2308
 9010SOL    HW138489   4.422   2.821   0.511  0.9819 -0.8974 -1.9189
 9010SOL    HW238490   4.365   2.772   0.631 -0.9607 -2.9157  0.5088
 9011SOL     OW38491   2.306   3.919   9.069  0.0057 -0.4256  0.6502
 9011SOL    HW138492   2.289   4.002   9.114  1.2266  0.4798 -0.5717
 9011SOL    HW238493   2.217   3.884   9.061 -0.1034 -0.2973  1.2592
 9012SOL     OW38494   3.600   4.140   7.261  0.0984  0.2988 -0.3849
 9012SOL    HW138495   3.624   4.181   7.178 -0.5311 -0.6601 -1.0361
 9012SOL    HW238496   3.685   4.137   7.306  0.5303  0.0558 -1.2011
 9013SOL     OW38497   4.169   0.591  17.611  0.4679 -0.2033 -0.5284
 9013SOL    HW138498   4.090   0.554  17.571  0.1679 -0.4057  0.2511
 9013SOL    HW238499   4.121   0.623  17.687 -0.2860 -0.4393 -0.8969
 9014SOL     OW38500   1.450   0.685   1.662  0.6721  0.4920 -0.4756
 9014SOL    HW138501   1.514   0.744   1.622  1.4401  0.5295  0.8191
 9014SOL    HW238502   1.494   0.674   1.746  1.3352  0.1227 -0.8586
 9015SOL     OW38503   2.129   4.703   5.715 -0.2845 -0.1012 -0.2009
 9015SOL    HW138504   2.196   4.635   5.717  1.0211  1.2172  0.9614
 9015SOL    HW238505   2.091   4.688   5.802  2.4924 -0.1357  1.0017
 9016SOL     OW38506   2.435   1.955   2.060  0.2964 -0.4740  0.1128
 9016SOL    HW138507   2.502   1.985   2.121 -0.8452  2.2747  0.0502
 9016SOL    HW238508   2.369   1.948   2.129 -0.1123 -0.1059 -0.2331
 9017SOL     OW38509   4.143   3.826   7.925 -0.6386  0.4220 -0.4590
 9017SOL    HW138510   4.161   3.882   7.850  1.9413 -2.1206 -1.7177
 9017SOL    HW238511   4.091   3.761   7.877 -0.3272  0.7253 -1.2031
 9018SOL     OW38512   0.323   4.648   6.974 -0.3808  0.8431 -0.3454
 9018SOL    HW138513   0.330   4.601   7.058  1.3761 -0.9342 -1.4765
 9018SOL    HW238514   0.325   0.011   7.007 -0.6161  1.4776 -2.0709
 9019SOL     OW38515   2.338   4.531   5.762  0.0130 -0.1038  0.4880
 9019SOL    HW138516   2.387   4.591   5.817 -1.4594 -0.4538  2.2072
 9019SOL    HW238517   2.398   4.459   5.747 -0.0408 -0.0786  0.1634
 9020SOL     OW38518   0.964   1.734   3.183 -0.0597 -0.4395  0.3683
 9020SOL    HW138519   0.984   1.642   3.200  0.2130 -0.6557 -1.1783
 9020SOL    HW238520   1.040   1.766   3.134  0.1216 -2.3930 -0.6244
 9021SOL     OW38521   1.175   3.558   6.385  0.1159 -0.2655 -0.6553
 9021SOL    HW138522   1.209   3.490   6.443 -0.2952 -0.3460 -0.5093
 9021SOL    HW238523   1.194   3.639   6.432 -1.1104 -0.4168  0.0955
 9022SOL     OW38524   1.667   1.823   6.133  0.4745  0.3817  0.0148
 9022SOL    HW138525   1.608   1.752   6.158 -0.4398  1.5531  1.2069
 9022SOL    HW238526   1.734   1.819   6.202  2.2691  0.4148 -1.7275
 9023SOL     OW38527   3.305   3.523   2.396  0.4842 -0.1144 -0.0381
 9023SOL    HW138528   3.394   3.530   2.431  0.4102  0.6154  0.0194
 9023SOL    HW238529   3.263   3.474   2.467  1.7975 -1.1116  0.0442
 9024SOL     OW38530   1.853   1.766   7.771  0.6106  0.1413  0.3240
 9024SOL    HW138531   1.853   1.854   7.733  0.1022  0.4402  1.0054
 9024SOL    HW238532   1.948   1.760   7.775  0.6561  0.0188 -1.0878
 9025SOL     OW38533   3.950   2.742  16.108  0.1165  0.4282 -0.2041
 9025SOL    HW138534   3.922   2.668  16.161 -0.0435  0.3411 -0.4117
 9025SOL    HW238535   4.036   2.715  16.077  0.1813  0.7219 -0.2843
 9026SOL     OW38536   0.046   4.396  17.403 -0.3549 -0.2135  0.2405
 9026SOL    HW138537   0.063   4.318  17.350  0.3191  1.2975 -1.7674
 9026SOL    HW238538   0.007   4.347  17.476 -1.0471  1.3024  0.8802
 9027SOL     OW38539   0.559   3.804  15.378  0.2739  0.1310 -0.3583
 9027SOL    HW138540   0.511   3.743  15.434 -0.6216  0.7243 -0.4751
 9027SOL    HW238541   0.497   3.825  15.308  0.8525 -1.9371 -1.4881
 9028SOL     OW38542   4.381   4.251  15.388  0.2932  0.4254  0.1436
 9028SOL    HW138543   4.382   4.264  15.293  1.2841  1.5551  0.3138
 9028SOL    HW238544   4.370   4.339  15.422 -0.3321  0.5239 -0.3139
 9029SOL     OW38545   2.560   2.453   6.966  0.6388 -1.1377  0.1780
 9029SOL    HW138546   2.512   2.461   7.048  0.7424  0.9498  0.0134
 9029SOL    HW238547   2.575   2.542   6.937  0.9162 -1.1257  0.3606
 9030SOL     OW38548   3.856   1.781   8.461  0.0574  0.1514  0.0940
 9030SOL    HW138549   3.927   1.770   8.524 -0.2449  0.2447  0.4449
 9030SOL    HW238550   3.908   1.793   8.381  0.4076 -0.5369  0.2180
 9031SOL     OW38551   3.236   0.724  16.659 -0.2155  0.1252 -0.3759
 9031SOL    HW138552   3.231   0.740  16.753 -0.2889  1.0447 -0.5353
 9031SOL    HW238553   3.330   0.712  16.648 -0.2249  0.0495 -0.3735
 9032SOL     OW38554   4.217   1.895   3.662 -0.7704  0.4086 -0.7821
 9032SOL    HW138555   4.218   1.947   3.582 -0.1785  0.2453 -0.8782
 9032SOL    HW238556   4.285   1.830   3.648 -0.2587  0.4692  1.4184
 9033SOL     OW38557   2.491   1.133   7.729 -0.0883 -0.0422 -0.2831
 9033SOL    HW138558   2.540   1.074   7.672 -0.7077 -0.2906 -0.5597
 9033SOL    HW238559   2.438   1.070   7.778  0.1735 -2.7603 -3.4732
 9034SOL     OW38560   3.703   3.504   3.340 -0.0821  0.4320 -0.5324
 9034SOL    HW138561   3.618   3.541   3.317 -1.0022  0.3905  2.7945
 9034SOL    HW238562   3.748   3.509   3.256  0.3264 -1.7561 -0.4357
 9035SOL     OW38563   0.309   0.067   8.342  0.3557  0.0649 -0.2753
 9035SOL    HW138564   0.306   0.136   8.275 -3.0587  2.6964  2.5825
 9035SOL    HW238565   0.236   0.095   8.396 -0.6065  0.3483 -1.7174
 9036SOL     OW38566   3.592   4.325   4.211  0.3745 -0.1480 -0.2852
 9036SOL    HW138567   3.658   4.315   4.279 -0.5993 -0.7915  0.5725
 9036SOL    HW238568   3.513   4.299   4.259  0.7165  2.7323  1.7970
 9037SOL     OW38569   1.736   0.662   9.681  0.5392  0.1867 -0.1959
 9037SOL    HW138570   1.671   0.701   9.740 -0.7725 -1.6734 -0.4137
 9037SOL    HW238571   1.697   0.575   9.669  0.7738  0.0289  0.2000
 9038SOL     OW38572   1.149   0.641   3.894  0.4259 -0.0980  0.4677
 9038SOL    HW138573   1.192   0.669   3.813 -1.4026  0.5780 -0.2926
 9038SOL    HW238574   1.188   0.563   3.931 -1.2401  0.0471  2.5576
 9039SOL     OW38575   0.775   0.264   6.924 -0.1722 -0.3302 -0.4462
 9039SOL    HW138576   0.736   0.217   6.997  1.3487  0.8749  1.1356
 9039SOL    HW238577   0.739   0.352   6.929  0.1626 -0.2360  0.1727
 9040SOL     OW38578   4.052   3.551   4.012 -0.2609 -0.3664 -0.7289
 9040SOL    HW138579   4.099   3.579   4.090  0.8029 -1.1794 -1.0773
 9040SOL    HW238580   4.094   3.598   3.940 -1.3850 -0.2956 -1.3394
 9041SOL     OW38581   3.898   3.462   8.159  0.1498 -0.0309 -0.4143
 9041SOL    HW138582   3.820   3.407   8.155  1.3565 -1.6618 -2.0038
 9041SOL    HW238583   3.871   3.533   8.102 -0.3597  0.0538 -0.0603
 9042SOL     OW38584   3.529   3.347   2.652 -0.4826  0.2464 -0.6436
 9042SOL    HW138585   3.510   3.253   2.652  0.4101  0.0729 -0.6632
 9042SOL    HW238586   3.590   3.373   2.583  0.6275  1.5886  0.8434
 9043SOL     OW38587   4.505   0.822  12.115 -0.3977 -0.0118 -0.1674
 9043SOL    HW138588   4.474   0.731  12.122  0.2626 -0.1811  0.6006
 9043SOL    HW238589   4.483   0.838  12.023  0.8486  1.6834 -0.1637
 9044SOL     OW38590   2.211   0.251   7.044 -0.1595 -0.0844 -0.2362
 9044SOL    HW138591   2.256   0.239   7.127  0.3730  0.7273 -0.4077
 9044SOL    HW238592   2.140   0.302   7.082  0.0109 -1.9756  2.6582
 9045SOL     OW38593   0.562   2.252  13.550  0.0014  0.1714 -0.6662
 9045SOL    HW138594   0.612   2.181  13.591 -0.5994  0.2627  0.2427
 9045SOL    HW238595   0.551   2.320  13.617  0.7579 -1.0774  0.7116
 9046SOL     OW38596   0.371   0.284   7.576  0.6342  0.6895  0.3767
 9046SOL    HW138597   0.380   0.202   7.528  2.8399  0.3141  1.4284
 9046SOL    HW238598   0.294   0.315   7.528  0.0963  0.1350  0.8692
 9047SOL     OW38599   1.416   2.052   5.546 -0.2291  0.4407  0.0519
 9047SOL    HW138600   1.482   1.997   5.588 -0.1357 -1.0222 -1.9915
 9047SOL    HW238601   1.384   1.985   5.485 -0.1004  0.3059  0.1332
 9048SOL     OW38602   0.164   0.148  16.296 -0.3885 -0.3754 -0.3092
 9048SOL    HW138603   0.225   0.093  16.345 -0.2895 -0.4342 -0.4955
 9048SOL    HW238604   0.082   0.102  16.311 -1.3533  0.8036 -2.0350
 9049SOL     OW38605   0.425   2.303  10.176 -0.2800  0.1099 -0.4427
 9049SOL    HW138606   0.433   2.245  10.100  2.0844 -0.1446  0.0307
 9049SOL    HW238607   0.345   2.274  10.220  1.2518 -2.2143  0.7692
 9050SOL     OW38608   3.786   2.441   7.919 -0.4472  0.0380  0.3056
 9050SOL    HW138609   3.837   2.425   7.839  0.1036  1.4098  0.3850
 9050SOL    HW238610   3.821   2.369   7.970 -2.4384 -0.8742  0.3738
 9051SOL     OW38611   3.713   0.986  11.020  0.2063  0.7129  0.1010
 9051SOL    HW138612   3.781   1.005  10.955  1.2558 -1.7065  0.4765
 9051SOL    HW238613   3.763   1.008  11.099 -0.5952  2.3472  0.1518
 9052SOL     OW38614   0.406   2.539   8.590 -0.1223 -0.0150  0.4936
 9052SOL    HW138615   0.393   2.633   8.574  2.7148  0.4924  1.2589
 9052SOL    HW238616   0.387   2.515   8.499 -1.3525 -1.2052  1.0667
 9053SOL     OW38617   0.089   2.751   7.808  0.3397  0.5282  0.1344
 9053SOL    HW138618   0.120   2.793   7.728  0.7402 -0.7668 -0.4050
 9053SOL    HW238619   0.136   2.786   7.883 -1.3975 -1.0615  1.9517
 9054SOL     OW38620   0.977   0.323  14.501 -0.7303  0.3345  0.2582
 9054SOL    HW138621   0.883   0.305  14.500 -0.7529  0.4699  0.0454
 9054SOL    HW238622   0.976   0.416  14.480 -4.6730 -0.1593 -1.7594
 9055SOL     OW38623   1.857   3.581   0.455  0.0298 -0.0840  0.2422
 9055SOL    HW138624   1.912   3.507   0.479 -1.1107 -1.1076 -0.3006
 9055SOL    HW238625   1.905   3.650   0.501  0.4258 -0.5141  0.4830
 9056SOL     OW38626   3.092   4.233   6.323 -0.4427 -0.0719  0.1788
 9056SOL    HW138627   3.153   4.166   6.291 -1.0806 -1.1708  1.2254
 9056SOL    HW238628   3.116   4.242   6.415 -1.2449 -1.3569  0.5146
 9057SOL     OW38629   3.865   0.029   5.992 -0.2051 -0.1945  0.6399
 9057SOL    HW138630   3.772   0.044   5.976 -0.1505 -1.5423 -0.9378
 9057SOL    HW238631   3.867   0.039   6.087  2.1415 -0.5652  0.6267
 9058SOL     OW38632   3.771   3.064   7.018 -0.5507 -0.5213 -0.8738
 9058SOL    HW138633   3.678   3.074   6.998 -0.9718 -1.0222  0.8418
 9058SOL    HW238634   3.760   3.020   7.102  0.6248  0.1450 -0.3758
 9059SOL     OW38635   0.323   3.394   9.542  0.0505 -0.6190 -0.6226
 9059SOL    HW138636   0.417   3.396   9.526 -0.1709 -2.3854 -2.1741
 9059SOL    HW238637   0.310   3.300   9.531 -0.9328 -0.5991  0.3626
 9060SOL     OW38638   1.315   4.009   8.493  0.0925  0.1681  0.1023
 9060SOL    HW138639   1.349   4.075   8.553  1.5353 -1.0296  0.5857
 9060SOL    HW238640   1.327   3.927   8.542  0.3712 -0.1180 -0.4465
 9061SOL     OW38641   2.391   4.392   9.096 -0.2711  0.1205 -0.0319
 9061SOL    HW138642   2.424   4.482   9.097 -1.7642  0.6614  1.3078
 9061SOL    HW238643   2.332   4.408   9.023  3.7116  0.5087 -3.1500
 9062SOL     OW38644   3.550   0.380   8.218  0.1241  0.1383  0.2805
 9062SOL    HW138645   3.576   0.300   8.172  0.8779 -0.2020  1.3148
 9062SOL    HW238646   3.510   0.355   8.301 -1.9667  0.1182 -0.7308
 9063SOL     OW38647   1.495   0.720   6.001 -0.5406 -0.8911 -1.1048
 9063SOL    HW138648   1.573   0.684   5.961  0.6676 -0.9505  1.3160
 9063SOL    HW238649   1.520   0.812   6.002  0.6424 -1.2179 -1.4494
 9064SOL     OW38650   0.893   2.066   4.659 -0.1808 -0.0974 -0.7009
 9064SOL    HW138651   0.900   2.161   4.646 -0.8825 -0.0611 -0.7767
 9064SOL    HW238652   0.803   2.049   4.633 -0.0232 -0.3383 -1.0920
 9065SOL     OW38653   3.901   1.812  17.000  0.3436 -0.7280 -0.4208
 9065SOL    HW138654   3.959   1.758  16.946  4.0674  1.2516  1.6029
 9065SOL    HW238655   3.844   1.851  16.934  0.1911  1.5570  1.0565
 9066SOL     OW38656   3.066   2.716   6.422  0.5488 -0.8325 -0.1629
 9066SOL    HW138657   3.127   2.734   6.351  0.4856 -2.2779 -0.5689
 9066SOL    HW238658   3.111   2.748   6.500 -1.8986 -0.2387  1.0245
 9067SOL     OW38659   0.519   4.243   5.456 -0.6829  0.0438 -0.4830
 9067SOL    HW138660   0.521   4.147   5.452  0.3556  0.0778 -0.8335
 9067SOL    HW238661   0.481   4.263   5.542 -0.4610 -1.5935 -0.0003
 9068SOL     OW38662   2.120   2.721   5.688  0.6889  0.6318  0.3965
 9068SOL    HW138663   2.198   2.775   5.697  2.1047 -1.3654 -0.0329
 9068SOL    HW238664   2.150   2.638   5.724 -0.1356  0.4105  0.5806
 9069SOL     OW38665   4.231   4.581  15.138  0.1762  0.7773 -0.2544
 9069SOL    HW138666   4.214   4.652  15.076  1.3603  2.0262  0.8686
 9069SOL    HW238667   4.160   4.595  15.200  1.0650 -0.7046  1.0724
 9070SOL     OW38668   3.277   4.131   8.727 -0.4510 -0.0716 -0.6798
 9070SOL    HW138669   3.340   4.187   8.682  0.1334  0.7195  1.1284
 9070SOL    HW238670   3.199   4.187   8.727 -0.8596 -0.6480  0.1603
 9071SOL     OW38671   4.272   4.122   8.336 -0.0874 -0.6847  0.1303
 9071SOL    HW138672   4.257   4.214   8.312  0.8970 -0.5463  0.0571
 9071SOL    HW238673   4.303   4.136   8.425  0.1532  1.2491 -0.2651
 9072SOL     OW38674   1.055   1.902  10.215  0.1011 -0.0186 -0.1062
 9072SOL    HW138675   1.037   1.809  10.228  2.0222 -0.3428  0.1537
 9072SOL    HW238676   1.008   1.947  10.286  2.1574 -1.4829  2.1724
 9073SOL     OW38677   3.654   1.616   7.967 -0.0927 -0.0577 -0.3093
 9073SOL    HW138678   3.658   1.702   8.009  0.2694  1.2230 -3.0030
 9073SOL    HW238679   3.690   1.558   8.034 -2.2065 -0.2011  0.7001
 9074SOL     OW38680   1.468   3.607   6.476 -0.6267  0.6333 -0.0517
 9074SOL    HW138681   1.450   3.638   6.564  2.4272 -0.2013  0.8458
 9074SOL    HW238682   1.428   3.521   6.473 -0.0559  0.3459  0.7124
 9075SOL     OW38683   0.238   4.455   8.457 -0.7460 -0.1588  0.3003
 9075SOL    HW138684   0.219   4.363   8.439  1.1923 -0.8668  1.8705
 9075SOL    HW238685   0.177   4.499   8.398  2.3724  0.9676 -2.0946
 9076SOL     OW38686   1.698   1.407  17.658  0.3347 -0.5510 -0.3374
 9076SOL    HW138687   1.760   1.477  17.682 -0.7444  0.1746  0.3325
 9076SOL    HW238688   1.658   1.382   0.036 -1.8538 -1.5064 -1.6739
 9077SOL     OW38689   4.665   1.481   6.014 -0.5070  0.2129  0.2919
 9077SOL    HW138690   0.011   1.472   5.952 -1.3642  1.0711 -0.8160
 9077SOL    HW238691   4.647   1.390   6.040 -0.1932  0.4786  1.4088
 9078SOL     OW38692   3.683   4.415   6.761 -0.4055  0.0596 -0.2241
 9078SOL    HW138693   3.604   4.382   6.719 -1.1072 -2.3863  2.9801
 9078SOL    HW238694   3.732   4.332   6.765  0.7516  0.7518 -0.0720
 9079SOL     OW38695   4.250   0.103  15.002 -0.3312  0.2569 -0.1386
 9079SOL    HW138696   4.330   0.152  15.022  0.3000 -0.4150 -1.0162
 9079SOL    HW238697   4.189   0.176  15.008 -0.1506  0.4475 -0.6230
 9080SOL     OW38698   2.641   3.308   7.764 -0.7706  0.2995 -0.3652
 9080SOL    HW138699   2.720   3.325   7.713  0.1575 -0.0456  0.9739
 9080SOL    HW238700   2.620   3.394   7.801 -0.6984  0.4030 -0.5639
 9081SOL     OW38701   2.548   2.663  14.152  0.2057  0.5994  0.4864
 9081SOL    HW138702   2.598   2.670  14.070  2.3871 -0.5857  1.7287
 9081SOL    HW238703   2.603   2.702  14.220  0.0441 -0.6611  1.3279
 9082SOL     OW38704   3.189   2.322   2.141 -0.5657 -0.1681  0.2767
 9082SOL    HW138705   3.134   2.378   2.195 -0.5019  1.6746 -1.5523
 9082SOL    HW238706   3.148   2.316   2.055  1.7172 -1.8791 -0.6982
 9083SOL     OW38707   4.204   0.505   5.015  0.8530  0.4816 -0.2933
 9083SOL    HW138708   4.288   0.512   4.969  0.3609  2.5384 -0.8886
 9083SOL    HW238709   4.192   0.596   5.042  1.3432  0.2389  0.7357
 9084SOL     OW38710   2.160   1.433  11.853 -0.0800 -0.1781 -0.3947
 9084SOL    HW138711   2.117   1.514  11.826 -0.9343 -0.3538  0.4197
 9084SOL    HW238712   2.247   1.465  11.877 -1.0852  1.3856  1.2074
 9085SOL     OW38713   4.241   1.199  13.634  0.3917  0.1694  0.4042
 9085SOL    HW138714   4.270   1.290  13.624  2.1398 -0.2490  1.5902
 9085SOL    HW238715   4.243   1.197  13.730  2.5437  0.9400  0.3769
 9086SOL     OW38716   2.657   0.503  12.847  1.2153 -0.7636 -0.1930
 9086SOL    HW138717   2.592   0.557  12.890  1.6629 -0.7478  0.4659
 9086SOL    HW238718   2.697   0.572  12.794 -0.6968 -0.3832 -1.1183
 9087SOL     OW38719   3.726   4.724   2.870 -0.5145 -0.1612 -0.1981
 9087SOL    HW138720   3.721   0.086   2.832 -1.3359  0.8188  2.2350
 9087SOL    HW238721   3.724   0.018   2.963  0.5400  0.2103 -0.2502
 9088SOL     OW38722   4.275   2.710   2.426 -0.4892  0.0659  0.2368
 9088SOL    HW138723   4.334   2.696   2.500  0.7818 -0.6740 -0.9050
 9088SOL    HW238724   4.222   2.785   2.453 -1.4435 -0.7440  0.6006
 9089SOL     OW38725   0.681   3.177  14.595 -0.5898  0.1300 -0.0512
 9089SOL    HW138726   0.632   3.130  14.662 -0.1611  0.7118  0.6716
 9089SOL    HW238727   0.631   3.258  14.587 -0.3762  0.4303  1.5844
 9090SOL     OW38728   1.698   0.421   2.224  0.3836  0.0581  0.2819
 9090SOL    HW138729   1.785   0.459   2.242  0.2304 -0.5523  2.2530
 9090SOL    HW238730   1.720   0.329   2.236  0.9632  0.4807  2.3967
 9091SOL     OW38731   2.938   1.751  11.844 -0.1274  1.0366  0.1243
 9091SOL    HW138732   2.971   1.681  11.901 -0.7464  0.0993 -0.6815
 9091SOL    HW238733   2.977   1.718  11.763 -1.6406  1.3042 -0.7185
 9092SOL     OW38734   0.798   4.253  17.520  0.2261 -0.0243 -0.5915
 9092SOL    HW138735   0.888   4.242  17.548 -0.2371  2.1582  1.8589
 9092SOL    HW238736   0.785   4.189  17.450 -0.3267 -0.6758  0.1069
 9093SOL     OW38737   0.608   0.881   7.876 -0.0221  0.1511 -0.3523
 9093SOL    HW138738   0.635   0.798   7.837 -0.6133  0.2845 -1.0288
 9093SOL    HW238739   0.685   0.938   7.865 -0.0993  0.4687  0.7408
 9094SOL     OW38740   4.169   0.943   9.883  0.4605  0.5028  0.4596
 9094SOL    HW138741   4.105   0.874   9.901  0.4532 -0.4918 -3.1987
 9094SOL    HW238742   4.115   1.015   9.850  0.5468 -0.2134 -1.2473
 9095SOL     OW38743   0.001   0.231  12.006 -0.1722  0.1900  0.3173
 9095SOL    HW138744   0.031   0.172  12.075 -0.1606  1.0856  1.0746
 9095SOL    HW238745   4.712   0.176  11.929  0.9626  1.6220 -0.9485
 9096SOL     OW38746   4.404   4.146   8.581 -0.2007  0.5854 -0.1269
 9096SOL    HW138747   4.343   4.187   8.642 -0.7098 -0.6295  0.1841
 9096SOL    HW238748   4.432   4.068   8.629  0.9932 -0.3757 -2.3708
 9097SOL     OW38749   4.483   2.575  14.046  0.0475  0.6300  0.4327
 9097SOL    HW138750   4.572   2.539  14.050 -0.1367  0.3921  2.3781
 9097SOL    HW238751   4.505   2.668  14.054 -1.0880  0.6161  3.6948
 9098SOL     OW38752   2.527   1.525   7.161  0.6190  0.2103  0.3696
 9098SOL    HW138753   2.588   1.550   7.230  0.0955  2.9564 -0.1751
 9098SOL    HW238754   2.586   1.493   7.092 -0.4049 -1.9951  0.4981
 9099SOL     OW38755   2.340   2.402   8.498 -0.1491 -0.2289  0.3242
 9099SOL    HW138756   2.266   2.412   8.558  0.0492 -1.2162  0.7318
 9099SOL    HW238757   2.384   2.323   8.531  0.3619  0.0957  0.4187
 9100SOL     OW38758   1.989   1.540   5.666  0.1965  0.3372  0.6594
 9100SOL    HW138759   1.949   1.619   5.701 -0.3861  0.1889  0.3163
 9100SOL    HW238760   2.006   1.575   5.579  0.2703 -4.0408 -1.0697
 9101SOL     OW38761   3.187   4.534   4.276 -0.3006 -0.0742  0.1708
 9101SOL    HW138762   3.281   4.541   4.258 -0.4406 -2.7949 -1.5935
 9101SOL    HW238763   3.163   4.493   4.193 -0.3173 -1.1017  0.6900
 9102SOL     OW38764   4.318   0.612   3.724 -0.2414  0.4918 -1.1564
 9102SOL    HW138765   4.380   0.571   3.663  1.3663 -2.6528  2.5560
 9102SOL    HW238766   4.373   0.676   3.768  0.3652 -0.0322 -1.1417
 9103SOL     OW38767   3.851   0.206   8.581  1.0871 -0.1773 -0.1207
 9103SOL    HW138768   3.881   0.193   8.490 -2.4532  0.2525 -1.3368
 9103SOL    HW238769   3.933   0.183   8.625  0.0213 -0.5665  1.6244
 9104SOL     OW38770   3.991   0.560  15.737 -0.3748 -0.1654  0.0979
 9104SOL    HW138771   3.909   0.526  15.773 -1.1107  0.9357 -0.5294
 9104SOL    HW238772   4.044   0.483  15.758 -0.8983 -0.6296 -0.2803
 9105SOL     OW38773   3.096   0.474   1.020 -0.0486 -0.2572  0.0748
 9105SOL    HW138774   3.124   0.521   1.098  1.2459 -0.8292 -0.0523
 9105SOL    HW238775   3.102   0.382   1.044 -1.5692  0.4006  2.9992
 9106SOL     OW38776   4.419   0.465   9.504  0.3564 -0.0557 -0.1571
 9106SOL    HW138777   4.482   0.534   9.524 -1.2322  1.2606  0.2214
 9106SOL    HW238778   4.451   0.384   9.544 -1.7730 -0.5642  0.5027
 9107SOL     OW38779   1.399   2.075   8.289 -0.4004 -0.4675  0.0022
 9107SOL    HW138780   1.483   2.030   8.294  0.2044  0.6200 -0.3423
 9107SOL    HW238781   1.415   2.129   8.212  0.3202  2.0241  1.8854
 9108SOL     OW38782   1.349   3.330   3.356  0.2239 -0.2772 -0.2494
 9108SOL    HW138783   1.278   3.266   3.357  0.2117 -0.2563  1.4088
 9108SOL    HW238784   1.388   3.305   3.273  1.3689 -0.1183  0.2347
 9109SOL     OW38785   2.755   4.277  16.679  0.0163 -0.6259 -0.2166
 9109SOL    HW138786   2.766   4.215  16.607  0.5475 -1.0395  0.2237
 9109SOL    HW238787   2.767   4.363  16.639 -1.6436 -0.3084 -0.0312
 9110SOL     OW38788   2.121   4.593   0.951  0.7637  0.3963  0.5222
 9110SOL    HW138789   2.129   4.589   1.046 -0.8445  0.3389  0.6649
 9110SOL    HW238790   2.027   4.575   0.948  1.0474 -0.7603 -1.5281
 9111SOL     OW38791   1.712   4.515   9.782 -0.1973  0.3828 -0.6082
 9111SOL    HW138792   1.688   4.606   9.768 -0.5061  0.1845 -1.3473
 9111SOL    HW238793   1.720   4.509   9.877 -0.2046 -0.3013 -0.6489
 9112SOL     OW38794   4.271   0.709   2.779  0.0873 -0.0534 -0.1228
 9112SOL    HW138795   4.192   0.722   2.726  0.1844 -0.1656 -0.2984
 9112SOL    HW238796   4.238   0.731   2.866 -0.4076 -1.6212  0.0893
 9113SOL     OW38797   3.766   1.592   6.702 -0.2415  0.2542  0.1696
 9113SOL    HW138798   3.822   1.669   6.714 -0.6035  0.6892 -0.8801
 9113SOL    HW238799   3.828   1.530   6.742 -1.7591  0.3380  2.6636
 9114SOL     OW38800   0.266   2.191  14.799  0.2628  0.0740  0.8420
 9114SOL    HW138801   0.277   2.153  14.712 -0.6224  0.8692  0.3886
 9114SOL    HW238802   0.220   2.273  14.781  0.0619 -0.2022  0.0829
 9115SOL     OW38803   4.367   2.192  13.018  0.1014  0.0118 -0.1912
 9115SOL    HW138804   4.400   2.177  13.107  2.9491  0.4506 -1.1553
 9115SOL    HW238805   4.362   2.288  13.019 -1.0296 -0.0467 -1.8014
 9116SOL     OW38806   1.416   0.819  17.294  0.2180 -0.2850  0.3003
 9116SOL    HW138807   1.451   0.814  17.205  0.7342  2.0257  0.3630
 9116SOL    HW238808   1.324   0.840  17.279  0.1505 -1.1840 -0.5484
 9117SOL     OW38809   4.399   1.975  11.574 -0.7769 -0.1197  0.4864
 9117SOL    HW138810   4.487   1.950  11.604  0.1013  0.5426 -1.5744
 9117SOL    HW238811   4.413   1.992  11.481 -0.2077 -1.3281  0.3609
 9118SOL     OW38812   3.547   4.113   9.609 -0.3059 -0.0294 -0.5295
 9118SOL    HW138813   3.535   4.022   9.636  0.1225  0.1807  0.3822
 9118SOL    HW238814   3.482   4.122   9.539  0.7150  2.7531 -1.1000
 9119SOL     OW38815   1.955   1.467  12.118 -0.2935  0.4682 -0.1491
 9119SOL    HW138816   2.029   1.412  12.145  0.0302  0.6406 -0.6791
 9119SOL    HW238817   1.902   1.412  12.060  2.3133 -1.6400 -0.5314
 9120SOL     OW38818   2.722   3.742  13.310  0.0579 -0.0510 -0.2269
 9120SOL    HW138819   2.662   3.790  13.252  0.3076  1.9644  1.1910
 9120SOL    HW238820   2.675   3.750  13.393 -1.1158  0.5821 -0.9503
 9121SOL     OW38821   3.811   2.087   3.061  0.3635  0.0610 -0.3857
 9121SOL    HW138822   3.864   2.012   3.089  1.2082  0.3998 -1.0772
 9121SOL    HW238823   3.818   2.087   2.966  1.3410 -0.3378 -0.3213
 9122SOL     OW38824   0.003   0.446   9.557  0.0562  0.5533 -0.5832
 9122SOL    HW138825   0.010   0.513   9.625  0.8755 -1.1266  0.9789
 9122SOL    HW238826   0.035   0.375   9.612  0.7309  0.9492 -0.4658
 9123SOL     OW38827   0.927   3.002  10.674  0.8436  0.5737 -0.1472
 9123SOL    HW138828   1.022   2.987  10.667  0.3713 -1.8121 -1.1633
 9123SOL    HW238829   0.921   3.038  10.762 -0.7873  2.5782 -1.0602
 9124SOL     OW38830   0.743   2.609   2.531  0.2085  0.3593 -0.7016
 9124SOL    HW138831   0.778   2.611   2.620 -2.3378  0.6237  0.3004
 9124SOL    HW238832   0.685   2.685   2.540 -1.2314 -0.8444  0.1292
 9125SOL     OW38833   3.097   0.194   3.239  0.3101  0.0740 -0.0971
 9125SOL    HW138834   3.132   0.246   3.311  0.9790 -0.2051 -0.2264
 9125SOL    HW238835   3.127   0.248   3.167 -1.9167  1.2194 -0.1548
 9126SOL     OW38836   3.700   1.316  12.004  0.2335 -0.0824 -0.2509
 9126SOL    HW138837   3.641   1.308  11.929  0.7486  2.7577 -0.9805
 9126SOL    HW238838   3.741   1.401  11.985  1.2879 -0.4133  0.5499
 9127SOL     OW38839   0.288   3.971   3.289 -0.0221  0.5913  0.0579
 9127SOL    HW138840   0.288   4.066   3.278  2.3841  0.4316 -1.3035
 9127SOL    HW238841   0.230   3.945   3.217 -0.2490 -1.7852  1.0885
 9128SOL     OW38842   3.767   1.582   0.776 -0.2294  1.3357  0.5830
 9128SOL    HW138843   3.760   1.640   0.700  0.3643  0.7051  0.0515
 9128SOL    HW238844   3.862   1.579   0.777 -0.3327 -1.6278  0.6256
 9129SOL     OW38845   1.417   0.634   5.449  0.4508  0.2724  0.1898
 9129SOL    HW138846   1.358   0.559   5.450  2.4270 -1.2758 -0.8296
 9129SOL    HW238847   1.496   0.594   5.486 -0.3955 -0.7234  0.9253
 9130SOL     OW38848   3.478   1.407   6.597  0.1371 -0.1310 -0.2924
 9130SOL    HW138849   3.528   1.402   6.678 -0.8316 -0.7280  0.2580
 9130SOL    HW238850   3.403   1.460   6.622 -1.1620 -1.6105 -1.0678
 9131SOL     OW38851   3.101   1.096  16.346  0.5852  0.1189  0.4649
 9131SOL    HW138852   3.155   1.098  16.267  0.6904  0.1621  0.5373
 9131SOL    HW238853   3.176   1.078  16.402 -0.3212  1.1387  2.0045
 9132SOL     OW38854   3.750   2.662   2.961 -0.5596 -0.0391 -0.1003
 9132SOL    HW138855   3.712   2.738   3.004  0.2182 -0.0519  0.5952
 9132SOL    HW238856   3.785   2.699   2.879  2.5998 -0.9602  0.8340
 9133SOL     OW38857   2.549   0.733   7.255 -0.7188 -0.3113 -0.1270
 9133SOL    HW138858   2.481   0.683   7.211 -2.0024  1.4140 -0.0842
 9133SOL    HW238859   2.527   0.821   7.225  0.9150 -0.1294 -0.7855
 9134SOL     OW38860   4.441   2.033   5.106  1.0497  0.3361 -0.0879
 9134SOL    HW138861   4.444   1.955   5.051  0.7763 -0.0288  0.4176
 9134SOL    HW238862   4.357   2.079   5.092  0.5515 -0.4523  0.3243
 9135SOL     OW38863   1.958   4.206   3.651  0.0266  0.1631  0.9315
 9135SOL    HW138864   1.890   4.266   3.683 -1.0471 -1.1428  1.1081
 9135SOL    HW238865   1.969   4.157   3.733 -1.5595 -0.8034  0.5619
 9136SOL     OW38866   3.703   4.568  16.131  0.0264  0.6966  0.5231
 9136SOL    HW138867   3.695   4.633  16.060 -0.3670 -0.5736 -0.5997
 9136SOL    HW238868   3.784   4.597  16.173  0.4088 -0.5880  0.6775
 9137SOL     OW38869   0.292   2.950   4.154  0.0769 -0.0463  0.2692
 9137SOL    HW138870   0.203   2.984   4.156  0.5362  1.2068 -0.5327
 9137SOL    HW238871   0.305   2.940   4.060 -0.0927  0.6849  0.1720
 9138SOL     OW38872   1.833   0.259   5.399 -0.3008  0.1104  0.1474
 9138SOL    HW138873   1.813   0.189   5.337  0.9764 -0.3701  0.2866
 9138SOL    HW238874   1.860   0.200   5.470 -0.7671  0.2592  0.4506
 9139SOL     OW38875   0.969   2.164   4.973 -0.1542 -0.3006  0.3085
 9139SOL    HW138876   0.980   2.072   4.949 -1.1496 -0.4557  0.4723
 9139SOL    HW238877   0.942   2.206   4.892  0.7969  0.9852  0.6530
 9140SOL     OW38878   4.506   0.801   9.723  0.3842 -0.1178 -0.2033
 9140SOL    HW138879   4.539   0.773   9.638  1.5084 -0.9934  0.5232
 9140SOL    HW238880   4.411   0.788   9.718  0.1717  0.8631  1.1551
 9141SOL     OW38881   2.178   2.893  10.803 -0.2063  0.0610 -0.2697
 9141SOL    HW138882   2.141   2.854  10.882 -1.4407  2.2509  0.2374
 9141SOL    HW238883   2.273   2.892  10.818 -0.3416  1.2754  0.6780
 9142SOL     OW38884   1.112   2.276   8.279  0.0933 -0.0316 -0.1806
 9142SOL    HW138885   1.135   2.277   8.186  0.9177 -1.6234  0.0098
 9142SOL    HW238886   1.157   2.198   8.311 -0.9181 -0.0962  1.1174
 9143SOL     OW38887   0.080   2.504   8.542 -0.0918  0.0035  0.5299
 9143SOL    HW138888   0.080   2.595   8.569 -1.8493  0.4094 -0.8220
 9143SOL    HW238889   0.150   2.513   8.478 -1.3059 -1.7913 -1.0499
 9144SOL     OW38890   3.740   3.465  15.243  0.4648 -0.9128 -0.2472
 9144SOL    HW138891   3.829   3.431  15.255  1.5193  0.9993 -2.6212
 9144SOL    HW238892   3.698   3.398  15.190 -0.9906  1.0600 -1.5710
 9145SOL     OW38893   4.438   1.710   1.194 -0.1562 -0.2994  0.6347
 9145SOL    HW138894   4.425   1.780   1.130 -0.2716 -0.4308  0.5136
 9145SOL    HW238895   4.353   1.688   1.232  1.1112 -3.2404  1.7370
 9146SOL     OW38896   4.600   1.612  16.762  0.3097  0.1300  0.3433
 9146SOL    HW138897   4.692   1.620  16.787  0.1875  2.2429  0.1486
 9146SOL    HW238898   4.594   1.694  16.713  1.3508 -0.8996 -1.5201
 9147SOL     OW38899   1.285   3.630  16.013  0.3565 -0.2921  0.7262
 9147SOL    HW138900   1.370   3.602  16.047  1.0088 -1.9181 -2.1470
 9147SOL    HW238901   1.269   3.716  16.051 -0.6505 -0.4179  0.5826
 9148SOL     OW38902   1.204   2.465   3.070 -0.4803 -0.3380  0.0230
 9148SOL    HW138903   1.180   2.476   3.162 -0.4616  1.7802 -0.2086
 9148SOL    HW238904   1.223   2.556   3.046  0.1809 -0.7459 -0.9820
 9149SOL     OW38905   2.282   0.687   8.819 -0.7308  0.3301 -0.1896
 9149SOL    HW138906   2.275   0.765   8.875 -1.1062 -0.9309  1.4962
 9149SOL    HW238907   2.235   0.623   8.872 -0.4033  1.4936  1.5278
 9150SOL     OW38908   2.448   1.156   2.720 -0.2294 -0.2855  0.1384
 9150SOL    HW138909   2.488   1.241   2.706 -0.1864 -0.3761 -0.2975
 9150SOL    HW238910   2.360   1.180   2.752 -0.6343 -0.9409 -0.4885
 9151SOL     OW38911   0.800   4.214  16.107 -0.5416 -0.2268  0.3071
 9151SOL    HW138912   0.886   4.175  16.093 -0.1786  0.2008  1.3537
 9151SOL    HW238913   0.740   4.151  16.066  0.4579 -0.6659 -0.4720
 9152SOL     OW38914   2.670   3.684   8.299 -0.3821 -0.5214  0.1043
 9152SOL    HW138915   2.741   3.663   8.239 -0.7500  1.4304 -1.0367
 9152SOL    HW238916   2.608   3.616   8.276 -0.0539 -0.9960  0.6124
 9153SOL     OW38917   0.145   1.739   8.804  0.0099 -0.1238 -0.0312
 9153SOL    HW138918   0.077   1.741   8.871 -0.1250  2.9650 -0.2366
 9153SOL    HW238919   0.226   1.717   8.849 -0.2072  1.0879  0.9315
 9154SOL     OW38920   3.136   4.462   3.994  0.1717  0.2624  0.7721
 9154SOL    HW138921   3.117   4.416   3.913 -0.6936  0.7023  0.7279
 9154SOL    HW238922   3.151   4.546   3.951 -2.3383  0.0466 -0.4955
 9155SOL     OW38923   2.108   1.831   7.798 -0.3201 -0.1704  0.5544
 9155SOL    HW138924   2.087   1.897   7.863 -1.1773 -0.4267  0.5326
 9155SOL    HW238925   2.150   1.889   7.734 -1.0347 -1.0126 -0.6771
 9156SOL     OW38926   0.022   3.816  14.282 -0.2954 -0.2818 -0.7394
 9156SOL    HW138927   0.099   3.771  14.316 -0.7366 -0.0557  0.5564
 9156SOL    HW238928   0.037   3.815  14.187  2.3418  3.4163 -0.3520
 9157SOL     OW38929   1.635   0.802   2.358  0.3910 -0.6819 -0.5773
 9157SOL    HW138930   1.627   0.886   2.404  0.7029 -0.9897  0.0434
 9157SOL    HW238931   1.562   0.753   2.395  0.8419 -1.4361 -0.7001
 9158SOL     OW38932   2.780   0.766  13.972 -0.6742 -0.7580  0.0119
 9158SOL    HW138933   2.757   0.676  13.995  0.7099 -0.4381  2.6480
 9158SOL    HW238934   2.771   0.757  13.877  1.2871  1.5904 -0.4075
 9159SOL     OW38935   2.902   1.293  14.492  0.2586  0.0370 -0.6534
 9159SOL    HW138936   2.995   1.287  14.511 -0.3255 -2.7455  1.3241
 9159SOL    HW238937   2.903   1.324  14.401 -0.0714 -1.0579 -1.0381
 9160SOL     OW38938   1.475   3.836   3.033  0.2670  0.0611 -0.3905
 9160SOL    HW138939   1.568   3.817   3.048  0.2314 -0.9631 -1.4150
 9160SOL    HW238940   1.470   3.921   3.076  2.5329 -0.6422  1.2928
 9161SOL     OW38941   0.331   2.939   6.137 -0.1873 -0.5719 -0.1339
 9161SOL    HW138942   0.364   2.865   6.188  2.2050  0.9812  0.5577
 9161SOL    HW238943   0.412   2.979   6.106 -0.8024 -0.1112 -1.1733
 9162SOL     OW38944   4.024   0.014  10.202 -0.0562  0.0152 -0.0141
 9162SOL    HW138945   4.026   0.053  10.115  0.0926  1.8309  0.7940
 9162SOL    HW238946   3.944   4.688  10.210  0.3319 -0.4394  0.9225
 9163SOL     OW38947   0.731   1.334   8.586  0.1198 -0.1395 -0.3479
 9163SOL    HW138948   0.636   1.347   8.587  0.1510  0.1704 -2.5132
 9163SOL    HW238949   0.727   1.246   8.623  1.1413  1.0892  2.7326
 9164SOL     OW38950   4.494   2.294  10.830  0.5231  0.1902  0.0878
 9164SOL    HW138951   4.449   2.352  10.892 -0.0468 -0.8286  0.6341
 9164SOL    HW238952   4.580   2.333  10.844  0.5469  0.1875 -0.0528
 9165SOL     OW38953   0.255   3.987   3.840  0.6469  0.0005 -0.8178
 9165SOL    HW138954   0.260   3.920   3.908  0.8964 -0.7123 -1.5266
 9165SOL    HW238955   0.160   4.000   3.847  0.7739 -0.8216  2.5196
 9166SOL     OW38956   3.336   3.714   8.881  0.5097 -0.4105 -0.2140
 9166SOL    HW138957   3.351   3.649   8.812  1.0609  0.4198 -0.8924
 9166SOL    HW238958   3.250   3.742   8.850  0.4318 -0.3367  0.0689
 9167SOL     OW38959   2.653   0.165   3.117 -0.6558  0.1325 -0.0788
 9167SOL    HW138960   2.588   0.153   3.048  1.5604 -1.4580 -1.9156
 9167SOL    HW238961   2.678   0.257   3.109 -1.6345  0.4965  1.0689
 9168SOL     OW38962   0.989   1.534   6.337  0.2935  0.4545 -0.0437
 9168SOL    HW138963   0.988   1.474   6.412 -0.7789  0.7515  0.1776
 9168SOL    HW238964   0.925   1.600   6.363  0.4998  0.6163  0.0501
 9169SOL     OW38965   1.206   3.651   7.481  0.0443  0.3169  0.8004
 9169SOL    HW138966   1.134   3.655   7.544 -0.5960 -0.7369  0.1255
 9169SOL    HW238967   1.254   3.580   7.525  0.8745 -0.3383 -1.1980
 9170SOL     OW38968   1.712   2.214   1.770  0.3086 -0.1825 -0.1856
 9170SOL    HW138969   1.774   2.286   1.782 -2.0446  1.2264  3.6154
 9170SOL    HW238970   1.735   2.161   1.847 -0.7816 -1.0839 -0.4857
 9171SOL     OW38971   4.411   4.697   4.524 -0.2366  0.0392 -0.0790
 9171SOL    HW138972   4.335   0.028   4.535  1.1811  1.5849  1.8131
 9171SOL    HW238973   4.460   0.018   4.456  2.6393 -1.7603  0.7215
 9172SOL     OW38974   3.066   4.227   8.048  0.3571  0.4150 -0.0206
 9172SOL    HW138975   3.050   4.204   7.956  0.3374  0.3130  0.0090
 9172SOL    HW238976   3.037   4.318   8.042  1.6387  0.9322  1.7479
 9173SOL     OW38977   4.109   4.439  10.771  0.3830  0.4933 -0.9195
 9173SOL    HW138978   4.201   4.449  10.746  0.2538  1.1118 -1.1574
 9173SOL    HW238979   4.108   4.343  10.770 -2.3932  0.4813  3.1396
 9174SOL     OW38980   3.249   3.665  11.853  0.6065  0.1060  0.4884
 9174SOL    HW138981   3.338   3.686  11.879  0.4477  1.0963  0.2555
 9174SOL    HW238982   3.189   3.671  11.928 -0.2256  1.1104 -0.2517
 9175SOL     OW38983   1.491   0.129   3.342  0.0218  0.1819  0.7478
 9175SOL    HW138984   1.538   0.056   3.302  0.1811  0.5132  0.3305
 9175SOL    HW238985   1.411   0.077   3.349  0.0327 -0.3345 -3.3744
 9176SOL     OW38986   4.329   2.132   7.057 -0.2849  0.3060  0.0140
 9176SOL    HW138987   4.369   2.097   7.137  0.7223  1.6913  0.1196
 9176SOL    HW238988   4.263   2.185   7.100 -0.4546 -1.1335  1.5466
 9177SOL     OW38989   2.489   3.399  10.183  0.0838  0.1053  0.5342
 9177SOL    HW138990   2.445   3.462  10.241 -0.2863  1.0751 -0.8106
 9177SOL    HW238991   2.473   3.315  10.227 -1.5206 -0.0739 -0.3750
 9178SOL     OW38992   4.051   2.397   3.751  0.7841 -0.2833  0.1978
 9178SOL    HW138993   3.984   2.417   3.817  0.0285  2.9021 -1.5098
 9178SOL    HW238994   4.012   2.321   3.708  0.0769  0.4214 -0.4214
 9179SOL     OW38995   4.483   1.060   4.180  0.3429  0.4282  0.1514
 9179SOL    HW138996   4.431   0.980   4.180 -0.4578  0.9569 -0.2302
 9179SOL    HW238997   4.509   1.066   4.088  0.5569 -2.2025  0.0282
 9180SOL     OW38998   3.355   2.354  11.270 -0.0132  0.0661  0.5220
 9180SOL    HW138999   3.277   2.402  11.296 -0.2822  0.2897 -0.6780
 9180SOL    HW239000   3.365   2.406  11.190  0.0477 -0.0835  0.4311
 9181SOL     OW39001   0.522   3.607   7.701  0.5095  0.0354  0.1129
 9181SOL    HW139002   0.513   3.628   7.794  2.2689 -2.4320  0.8497
 9181SOL    HW239003   0.532   3.695   7.664 -3.5226  1.5801  2.7081
 9182SOL     OW39004   1.177   2.972  12.895  0.1366  0.0802 -0.4050
 9182SOL    HW139005   1.198   3.059  12.929 -0.5695 -0.2019  0.7537
 9182SOL    HW239006   1.130   2.990  12.813 -2.4233  1.5731  1.3802
 9183SOL     OW39007   4.670   0.241   7.556  0.1525 -0.5956  0.1355
 9183SOL    HW139008   4.593   0.263   7.503  0.3170  1.3013  0.6597
 9183SOL    HW239009   0.015   0.252   7.493 -0.7049  0.6988 -0.6145
 9184SOL     OW39010   1.956   1.897  16.687 -0.0832 -0.1695  0.0783
 9184SOL    HW139011   1.887   1.952  16.724 -1.4451 -0.6734 -1.7248
 9184SOL    HW239012   1.939   1.916  16.595  1.5469 -1.2224 -0.4410
 9185SOL     OW39013   1.347   1.618  13.595  0.2862  0.0841 -0.1864
 9185SOL    HW139014   1.292   1.623  13.517 -0.4445  0.9599  0.3775
 9185SOL    HW239015   1.369   1.525  13.596  1.5565  0.3768  0.0251
 9186SOL     OW39016   4.491   4.429   3.751 -0.1593  0.4944 -0.3548
 9186SOL    HW139017   4.581   4.458   3.737  0.8838 -2.1270  0.7294
 9186SOL    HW239018   4.462   4.473   3.672  1.3143 -0.3117 -1.3528
 9187SOL     OW39019   2.051   4.204   3.394 -0.2876  0.2559  0.0047
 9187SOL    HW139020   2.021   4.205   3.484 -0.2211 -0.8889  0.0369
 9187SOL    HW239021   2.058   4.111   3.375  0.4312  0.6227 -1.5559
 9188SOL     OW39022   0.360   1.318   5.111 -0.0806 -0.4814  0.7921
 9188SOL    HW139023   0.342   1.260   5.038 -1.6592  2.7832 -1.4368
 9188SOL    HW239024   0.271   1.336   5.143  0.6925  0.0468  2.6705
 9189SOL     OW39025   1.943   0.478   4.901 -0.7242  0.1150  0.3811
 9189SOL    HW139026   1.980   0.465   4.989  0.4606 -2.2849 -0.4826
 9189SOL    HW239027   1.902   0.563   4.917 -0.6143 -0.0700  1.6399
 9190SOL     OW39028   4.654   0.766   3.293 -0.0095  0.1208 -0.2980
 9190SOL    HW139029   4.721   0.832   3.311 -0.6683  0.6639  0.1466
 9190SOL    HW239030   4.624   0.789   3.205 -2.0059 -1.5226 -0.0436
 9191SOL     OW39031   1.237   3.139   9.164  0.1090  0.2029 -0.8512
 9191SOL    HW139032   1.189   3.088   9.229  0.9552 -1.5453 -1.5813
 9191SOL    HW239033   1.173   3.139   9.093 -1.3034  0.4026  0.4231
 9192SOL     OW39034   2.507   4.239   6.776  0.1123 -0.0848 -0.2643
 9192SOL    HW139035   2.451   4.226   6.699  0.6015 -2.6512 -0.1819
 9192SOL    HW239036   2.505   4.150   6.809 -3.6393  0.5328  1.1799
 9193SOL     OW39037   1.589   2.198   7.852 -0.1176 -0.4355 -0.1651
 9193SOL    HW139038   1.505   2.173   7.814 -0.4269  1.5663 -0.7870
 9193SOL    HW239039   1.617   2.280   7.811 -0.3340  0.0933  0.7353
 9194SOL     OW39040   4.006   4.118   5.764  0.0778 -0.5214 -0.3810
 9194SOL    HW139041   4.093   4.154   5.747  0.2315 -0.6504  0.1194
 9194SOL    HW239042   3.994   4.152   5.852  0.7686  2.6689 -1.5390
 9195SOL     OW39043   1.376   3.652   2.080 -0.3226  0.2893  0.3531
 9195SOL    HW139044   1.402   3.572   2.034 -0.9912  2.0501 -3.0890
 9195SOL    HW239045   1.384   3.717   2.010  0.5895  0.7769  0.8975
 9196SOL     OW39046   0.067   0.114  15.266 -0.3049 -0.0324  0.6315
 9196SOL    HW139047   0.050   0.131  15.174  0.8447  2.3092  0.8432
 9196SOL    HW239048   0.139   0.051  15.264  2.4183  3.1643 -1.3451
 9197SOL     OW39049   1.012   3.319   7.353  0.3924  0.1882  0.3511
 9197SOL    HW139050   1.054   3.235   7.334 -0.1173  0.0898 -0.3462
 9197SOL    HW239051   1.028   3.320   7.447  2.0081  0.1845  0.0753
 9198SOL     OW39052   3.546   1.864  16.152  0.3008  0.0422 -0.1633
 9198SOL    HW139053   3.532   1.886  16.059 -1.6399 -2.0911 -0.3742
 9198SOL    HW239054   3.460   1.899  16.177  1.2023  1.8364  0.4194
 9199SOL     OW39055   3.557   3.228   3.988 -0.3989 -0.5036 -0.7838
 9199SOL    HW139056   3.620   3.256   3.923  0.0153 -1.4478 -0.7912
 9199SOL    HW239057   3.478   3.246   3.937 -0.9530  1.6026  0.8235
 9200SOL     OW39058   3.323   3.271  11.085 -0.7571 -0.4195 -0.6218
 9200SOL    HW139059   3.265   3.252  11.158  0.3747  0.0781  0.4153
 9200SOL    HW239060   3.267   3.254  11.010  0.1558 -3.1976 -0.6589
 9201SOL     OW39061   2.562   2.138   4.394 -0.2558  0.2965  0.5722
 9201SOL    HW139062   2.565   2.063   4.335  2.4098  0.7787  0.0886
 9201SOL    HW239063   2.586   2.087   4.472 -0.2755 -0.0371  0.3611
 9202SOL     OW39064   4.450   1.298   9.366  0.2061 -0.1814 -0.2263
 9202SOL    HW139065   4.536   1.290   9.409  1.0749  1.3388 -1.6681
 9202SOL    HW239066   4.390   1.248   9.421  2.9843 -2.7383  0.5263
 9203SOL     OW39067   1.878   1.909  13.327  0.1397 -0.0809 -0.4127
 9203SOL    HW139068   1.924   1.963  13.391  0.0285  1.3685 -1.5532
 9203SOL    HW239069   1.787   1.909  13.358  0.0403 -0.1232 -0.7072
 9204SOL     OW39070   1.402   3.776   0.870 -0.3631 -0.0184  0.1863
 9204SOL    HW139071   1.401   3.718   0.946  0.3709 -1.1513 -0.6692
 9204SOL    HW239072   1.363   3.857   0.902  1.5080  0.3319  1.5941
 9205SOL     OW39073   3.105   3.225   8.067  0.0509  0.2111  0.4410
 9205SOL    HW139074   3.196   3.216   8.037  0.3913  1.7395  1.0440
 9205SOL    HW239075   3.077   3.134   8.079 -0.5353  0.0505 -2.1517
 9206SOL     OW39076   4.569   2.871   4.440 -0.0191  0.3058 -0.1442
 9206SOL    HW139077   4.658   2.849   4.410 -0.3243 -0.8088 -0.2282
 9206SOL    HW239078   4.513   2.832   4.373 -1.2873 -0.3402  1.3076
 9207SOL     OW39079   2.736   0.946   2.107  0.2847 -0.0949  0.4090
 9207SOL    HW139080   2.805   0.882   2.125  1.4807  0.8726 -0.7776
 9207SOL    HW239081   2.708   0.962   2.197  2.5720  1.1764  0.8842
 9208SOL     OW39082   1.125   1.800   3.865  0.2742  0.1567  0.0980
 9208SOL    HW139083   1.051   1.739   3.864 -0.4371  1.0252  0.2433
 9208SOL    HW239084   1.119   1.840   3.951  0.2621 -2.0734  1.1429
 9209SOL     OW39085   1.183   2.395   2.515 -0.5351  0.0910  0.5930
 9209SOL    HW139086   1.128   2.449   2.572  0.3171  1.0885  0.4681
 9209SOL    HW239087   1.248   2.457   2.483 -0.7639 -0.0036 -0.0539
 9210SOL     OW39088   3.290   4.095   1.900 -0.5084  0.2429 -0.3089
 9210SOL    HW139089   3.351   4.060   1.836 -0.9944  0.3808 -0.8413
 9210SOL    HW239090   3.211   4.107   1.848  0.2219 -0.2062 -1.5084
 9211SOL     OW39091   2.746   4.113   0.119 -0.2502 -0.6939  0.1445
 9211SOL    HW139092   2.770   4.132   0.029  0.0970 -1.0111  0.1690
 9211SOL    HW239093   2.657   4.147   0.127 -0.0769 -0.0105 -0.8862
 9212SOL     OW39094   1.537   2.794   6.306 -0.3744 -0.9713 -0.0078
 9212SOL    HW139095   1.537   2.811   6.401  1.9117  3.2915 -0.7711
 9212SOL    HW239096   1.607   2.854   6.283 -3.0676  2.9117  1.8830
 9213SOL     OW39097   3.466   1.071   9.902  0.5290 -0.2523 -0.4267
 9213SOL    HW139098   3.524   1.142   9.930 -0.6966  1.5150 -2.3835
 9213SOL    HW239099   3.394   1.103   9.955  0.0380 -0.3904 -1.0039
 9214SOL     OW39100   0.787   0.832  14.777 -0.1198  0.1416  0.5085
 9214SOL    HW139101   0.725   0.843  14.704 -0.5393  0.3258  0.8906
 9214SOL    HW239102   0.861   0.886  14.748  1.1755 -2.1397 -0.4614
 9215SOL     OW39103   2.126   2.559   7.431 -0.2583 -0.2700  0.4515
 9215SOL    HW139104   2.191   2.629   7.441 -1.4603  0.5224  2.8131
 9215SOL    HW239105   2.168   2.486   7.476  1.4273  0.4766  0.0785
 9216SOL     OW39106   4.178   0.858   9.455 -0.3422 -0.3382  0.3360
 9216SOL    HW139107   4.214   0.784   9.505 -2.4044  0.2531  2.6611
 9216SOL    HW239108   4.098   0.878   9.503 -1.8316 -1.1633 -1.8261
 9217SOL     OW39109   4.695   0.523   6.124  0.1981  1.0484 -0.2928
 9217SOL    HW139110   4.698   0.465   6.200  0.2026  1.1521 -0.2139
 9217SOL    HW239111   4.716   0.462   6.054  0.1434  0.3730  0.2761
 9218SOL     OW39112   2.523   2.478   3.753  0.5419 -0.4408 -0.2335
 9218SOL    HW139113   2.473   2.559   3.764  1.4965  0.5512 -3.1902
 9218SOL    HW239114   2.496   2.426   3.829 -1.2012 -0.2630 -0.7541
 9219SOL     OW39115   2.313   2.824   6.186  0.1814  0.1596 -0.5783
 9219SOL    HW139116   2.220   2.803   6.191  0.2362  0.0567 -0.0771
 9219SOL    HW239117   2.344   2.737   6.160 -2.5563 -1.7097  2.4712
 9220SOL     OW39118   1.369   0.163   3.010 -0.2258  0.6351  0.0379
 9220SOL    HW139119   1.438   0.099   2.995 -1.3056 -1.2041  3.0473
 9220SOL    HW239120   1.308   0.102   3.051 -1.2167  2.1894  0.9076
 9221SOL     OW39121   0.803   3.091  12.520 -0.1361 -0.1812  0.3152
 9221SOL    HW139122   0.767   3.178  12.503 -1.8316 -0.5909  1.7498
 9221SOL    HW239123   0.792   3.062  12.430  1.6394 -0.3203  0.1483
 9222SOL     OW39124   2.182   0.624  11.251 -0.2546 -0.2198 -0.0559
 9222SOL    HW139125   2.252   0.634  11.186 -0.2868 -1.3465 -0.2629
 9222SOL    HW239126   2.190   0.531  11.271  0.6563 -0.1047  0.1235
 9223SOL     OW39127   1.232   2.975   3.902  0.1480  0.5035  0.1024
 9223SOL    HW139128   1.277   3.043   3.952 -0.7268  2.2768 -1.5404
 9223SOL    HW239129   1.216   3.025   3.822 -0.3921  1.8457  1.0658
 9224SOL     OW39130   1.734   4.430   9.463  0.2259 -0.2107 -0.5759
 9224SOL    HW139131   1.688   4.398   9.541  1.6147 -0.4121  0.1482
 9224SOL    HW239132   1.664   4.453   9.402  1.7503 -0.6359 -2.4973
 9225SOL     OW39133   4.219   3.192   9.120  0.2138  0.3731  0.7925
 9225SOL    HW139134   4.171   3.112   9.141 -0.0502  0.7775  1.7510
 9225SOL    HW239135   4.178   3.266   9.165  0.6921  0.0079  1.8270
 9226SOL     OW39136   3.464   4.248  16.341 -0.5180  0.5662 -0.4293
 9226SOL    HW139137   3.397   4.316  16.338 -0.8119  0.2036 -2.6456
 9226SOL    HW239138   3.424   4.192  16.408 -2.1999 -0.1368 -1.9931
 9227SOL     OW39139   3.446   2.686  12.363 -0.1703 -0.3711  0.0104
 9227SOL    HW139140   3.475   2.664  12.451 -0.5579  1.4052  0.5912
 9227SOL    HW239141   3.522   2.657  12.311  0.2654 -0.8958  0.9508
 9228SOL     OW39142   2.449   3.523   6.673 -0.2088 -0.4501  0.4060
 9228SOL    HW139143   2.369   3.557   6.634 -1.2640 -2.2131  1.0745
 9228SOL    HW239144   2.461   3.567   6.757  0.7159 -2.2936  1.2452
 9229SOL     OW39145   3.325   2.582   8.023  0.0089 -0.6149 -0.5344
 9229SOL    HW139146   3.262   2.566   7.954 -2.7848  2.1645  1.3736
 9229SOL    HW239147   3.269   2.566   8.099  1.6875  1.1682  1.0848
 9230SOL     OW39148   1.005   0.682   1.930  1.1180  0.2596 -0.0437
 9230SOL    HW139149   1.062   0.673   1.854 -0.1948  1.6747 -1.2072
 9230SOL    HW239150   1.054   0.729   1.997 -0.2139  2.1732 -0.4276
 9231SOL     OW39151   4.633   2.491   6.296 -0.1196  0.8515 -0.2536
 9231SOL    HW139152   4.632   2.401   6.264  1.2903  1.0965 -1.0022
 9231SOL    HW239153   4.721   2.515   6.265 -0.6083  2.1968 -0.5797
 9232SOL     OW39154   1.899   1.481   8.544 -0.1266  0.2200  0.1169
 9232SOL    HW139155   1.902   1.511   8.634 -0.9902  1.0011 -0.1084
 9232SOL    HW239156   1.966   1.531   8.498  1.2979 -0.2275  1.7072
 9233SOL     OW39157   1.572   3.836   7.970  0.7539  0.6183  0.5295
 9233SOL    HW139158   1.560   3.837   8.065  1.7274  2.8729  0.6298
 9233SOL    HW239159   1.525   3.917   7.948 -2.0962 -1.2794 -0.3720
 9234SOL     OW39160   3.981   1.091   2.219 -0.3738  0.0169  0.2252
 9234SOL    HW139161   3.990   1.000   2.248 -0.3771 -0.2088 -0.4760
 9234SOL    HW239162   3.930   1.071   2.141  0.9554 -0.5261 -0.5005
 9235SOL     OW39163   2.305   3.124  12.593 -0.2550 -0.2395  0.1344
 9235SOL    HW139164   2.378   3.137  12.654 -0.1841 -0.8223  0.1666
 9235SOL    HW239165   2.252   3.058  12.637 -1.0469 -1.1879 -2.2809
 9236SOL     OW39166   3.761   3.319   7.621  0.0214 -0.3390  0.7468
 9236SOL    HW139167   3.803   3.338   7.705  1.5635  1.7099 -0.4741
 9236SOL    HW239168   3.704   3.395   7.608 -0.7865 -1.1440 -0.3862
 9237SOL     OW39169   2.307   0.890   6.719  0.6398  0.2758  0.0468
 9237SOL    HW139170   2.218   0.888   6.685  0.7155  0.9695 -0.1995
 9237SOL    HW239171   2.287   0.904   6.811  1.0107  0.4438  0.1042
 9238SOL     OW39172   1.204   3.053   6.846 -0.1031  0.2316 -0.1231
 9238SOL    HW139173   1.207   3.136   6.895  0.9862 -0.5250  1.0717
 9238SOL    HW239174   1.143   3.006   6.903  1.3316 -3.2906 -1.5515
 9239SOL     OW39175   4.010   1.133  10.915  0.1732  0.7332  0.3275
 9239SOL    HW139176   4.101   1.104  10.923  0.3744  1.0015 -0.8967
 9239SOL    HW239177   3.983   1.113  11.004 -1.8379  0.2626 -0.3796
 9240SOL     OW39178   4.069   4.610  14.600  0.1001 -0.0791  0.3893
 9240SOL    HW139179   4.133   4.629  14.668 -0.9367  2.5965  0.6322
 9240SOL    HW239180   4.030   4.697  14.594 -0.0166 -0.1761 -0.2705
 9241SOL     OW39181   2.143   0.635   9.057 -0.1501 -0.1954  0.0138
 9241SOL    HW139182   2.150   0.685   9.139 -1.3625  0.1125 -0.0676
 9241SOL    HW239183   2.173   0.550   9.089  0.8605 -0.1736 -0.8664
 9242SOL     OW39184   1.953   0.688  10.993 -0.2145  0.1068 -0.4811
 9242SOL    HW139185   1.859   0.706  10.987 -0.5988 -1.5318  0.6887
 9242SOL    HW239186   1.982   0.735  11.071 -2.0110  1.2942 -0.5116
 9243SOL     OW39187   1.088   3.798   3.169 -0.1492  0.2537 -0.3325
 9243SOL    HW139188   1.096   3.725   3.230 -1.7431  0.0039 -0.4200
 9243SOL    HW239189   1.127   3.867   3.223  0.3157 -0.5907  0.4070
 9244SOL     OW39190   2.810   3.754  16.389 -0.3444  0.2725  0.4540
 9244SOL    HW139191   2.881   3.718  16.442  0.6581  1.8068  0.1790
 9244SOL    HW239192   2.814   3.846  16.415  3.2812 -0.9504  4.2437
 9245SOL     OW39193   2.836   0.317   6.301  0.0876  0.3514 -0.2451
 9245SOL    HW139194   2.799   0.272   6.376  3.3256  0.8075  1.6178
 9245SOL    HW239195   2.843   0.408   6.332 -2.5141 -0.0109  1.3823
 9246SOL     OW39196   2.314   0.428   8.240  0.2657 -0.0473 -0.0708
 9246SOL    HW139197   2.310   0.493   8.309 -2.5956  1.3200 -1.4870
 9246SOL    HW239198   2.387   0.371   8.264 -0.6071 -0.7591  0.8875
 9247SOL     OW39199   2.216   4.019   5.789  0.2220  0.5217  0.0306
 9247SOL    HW139200   2.306   4.021   5.821 -0.3530 -0.8504  1.7588
 9247SOL    HW239201   2.188   4.106   5.817  1.7130  0.7317  0.8824
 9248SOL     OW39202   1.053   1.914   7.403 -0.0381  0.2640  0.2482
 9248SOL    HW139203   0.989   1.879   7.341 -2.0398  0.6593  2.0952
 9248SOL    HW239204   1.097   1.979   7.349 -0.6551  0.8527  0.4641
 9249SOL     OW39205   2.588   2.835   5.876  0.1196  0.3428 -0.3255
 9249SOL    HW139206   2.503   2.854   5.836 -0.6600  0.0627  1.1759
 9249SOL    HW239207   2.582   2.884   5.958 -1.3410 -0.1671 -0.1184
 9250SOL     OW39208   2.291   4.107   5.486 -0.5522 -0.3318 -0.4632
 9250SOL    HW139209   2.280   4.098   5.580 -0.9780 -0.9989 -0.5728
 9250SOL    HW239210   2.379   4.143   5.488 -0.4510 -0.6110  0.1353
 9251SOL     OW39211   2.348   1.369   9.606  0.0956  0.1946 -0.7432
 9251SOL    HW139212   2.354   1.456   9.567  1.8189 -0.0538 -1.0065
 9251SOL    HW239213   2.311   1.386   9.692  0.5910 -0.5307 -0.3934
 9252SOL     OW39214   2.889   3.373  10.486 -0.0102 -0.4081  0.1226
 9252SOL    HW139215   2.919   3.353  10.398  2.4927  1.0777  0.6444
 9252SOL    HW239216   2.943   3.450  10.503  2.7200 -2.2597 -0.1993
 9253SOL     OW39217   1.936   4.191  16.417 -0.6073 -0.0996  0.2618
 9253SOL    HW139218   2.005   4.149  16.365  0.6062  0.1658  1.6410
 9253SOL    HW239219   1.905   4.110  16.457 -0.1810  0.4923  1.7741
 9254SOL     OW39220   3.425   0.555   7.323 -0.4206 -0.1327 -0.0204
 9254SOL    HW139221   3.412   0.574   7.416 -0.7863 -2.0955  0.3397
 9254SOL    HW239222   3.451   0.643   7.297  2.7514 -1.1906 -0.3274
 9255SOL     OW39223   1.564   1.635   6.432 -0.2357  0.2380 -0.2197
 9255SOL    HW139224   1.552   1.710   6.491  2.4376  0.2577  0.3113
 9255SOL    HW239225   1.476   1.597   6.428 -0.2583  0.0767  2.0219
 9256SOL     OW39226   1.356   0.486   5.033 -0.2487  0.1904  0.4318
 9256SOL    HW139227   1.428   0.523   5.084 -0.2869  0.0153  0.6156
 9256SOL    HW239228   1.334   0.539   4.956  0.2369 -1.2944 -0.7351
 9257SOL     OW39229   1.436   0.970   0.514  0.0521 -0.0342 -0.1311
 9257SOL    HW139230   1.427   0.875   0.504 -0.7464  0.1480 -1.1409
 9257SOL    HW239231   1.503   0.976   0.581 -1.7545 -4.4122  2.0689
 9258SOL     OW39232   1.646   4.186   2.829  0.0982  0.1028 -0.1962
 9258SOL    HW139233   1.728   4.141   2.851 -1.0879 -1.8880  0.1648
 9258SOL    HW239234   1.667   4.192   2.736  2.7069 -0.7687  0.3247
 9259SOL     OW39235   0.876   3.387   3.609  0.3299  0.5853  0.0896
 9259SOL    HW139236   0.969   3.378   3.631  0.2502  0.6532  0.4610
 9259SOL    HW239237   0.839   3.379   3.697  1.9216 -1.0868  0.6019
 9260SOL     OW39238   3.139   1.066   9.834 -0.0635 -0.4910  0.1168
 9260SOL    HW139239   3.166   1.102   9.749  0.5713 -1.4508 -0.0903
 9260SOL    HW239240   3.187   0.984   9.829  0.4299 -0.2550  1.0794
 9261SOL     OW39241   3.779   2.633   1.108  0.0114 -0.5573 -0.5463
 9261SOL    HW139242   3.687   2.607   1.100 -0.1591 -1.0696  2.8205
 9261SOL    HW239243   3.776   2.717   1.062 -0.0164 -0.3921 -0.2463
 9262SOL     OW39244   0.799   1.339   8.982 -0.6937  0.1648  0.0157
 9262SOL    HW139245   0.705   1.326   8.988 -0.8847  1.9454  0.8696
 9262SOL    HW239246   0.820   1.248   8.959  0.4321 -0.1055  2.0396
 9263SOL     OW39247   4.587   0.033  11.136  0.6544  0.4309 -0.3303
 9263SOL    HW139248   4.562   0.120  11.106 -2.8815 -1.1365 -2.0253
 9263SOL    HW239249   4.631   0.060  11.217 -0.7691  1.9787 -0.0716
 9264SOL     OW39250   3.413   3.943   6.465 -0.3220  0.1448  0.0603
 9264SOL    HW139251   3.361   3.914   6.540 -2.2850  0.2696 -1.2609
 9264SOL    HW239252   3.441   4.030   6.494 -0.6398  1.1073 -2.5924
 9265SOL     OW39253   1.352   2.606   5.679 -0.2975  0.0393 -0.3690
 9265SOL    HW139254   1.268   2.573   5.648  0.1878 -0.3375 -1.3033
 9265SOL    HW239255   1.393   2.523   5.704 -1.0716 -0.0316  0.6626
 9266SOL     OW39256   1.439   3.499  12.600 -1.1556  0.1525  0.2708
 9266SOL    HW139257   1.370   3.460  12.653 -1.3072 -0.7154 -0.5566
 9266SOL    HW239258   1.490   3.419  12.590 -0.1623  0.9452 -1.0206
 9267SOL     OW39259   4.658   2.195   9.457 -0.5659  0.3474 -0.1824
 9267SOL    HW139260   4.691   2.147   9.533  1.3758 -0.7155 -1.6961
 9267SOL    HW239261   0.013   2.230   9.422  0.2300 -1.2799  0.0568
 9268SOL     OW39262   3.621   3.433   6.618 -0.1049  0.0856 -0.4793
 9268SOL    HW139263   3.674   3.354   6.605  2.1345  1.2452  1.6129
 9268SOL    HW239264   3.566   3.415   6.694  1.5348  1.2179  0.9749
 9269SOL     OW39265   3.698   1.261  13.794  0.4098 -0.6748 -0.2713
 9269SOL    HW139266   3.716   1.201  13.867  1.2103  0.1303  0.2046
 9269SOL    HW239267   3.608   1.281  13.819  0.9930 -0.5887  1.7724
 9270SOL     OW39268   3.224   2.792   4.695  0.5953  0.2431  0.5899
 9270SOL    HW139269   3.135   2.818   4.672  0.5467 -0.2578  0.2035
 9270SOL    HW239270   3.267   2.808   4.611  2.9949  1.0862  1.9776
 9271SOL     OW39271   1.777   1.828   6.370 -0.1061 -0.1774 -0.3238
 9271SOL    HW139272   1.804   1.738   6.391  4.0164  0.4449 -2.7315
 9271SOL    HW239273   1.734   1.858   6.450 -0.8967 -1.6873 -0.1801
 9272SOL     OW39274   0.845   1.530   3.404  0.3388 -0.2076  0.6318
 9272SOL    HW139275   0.927   1.578   3.397 -0.1017  0.3087 -0.9362
 9272SOL    HW239276   0.837   1.469   3.331  0.9801  0.2245  0.2039
 9273SOL     OW39277   3.299   0.585   8.835 -0.3055 -0.0967 -0.1167
 9273SOL    HW139278   3.304   0.646   8.762  2.0188  0.9160  0.9054
 9273SOL    HW239279   3.216   0.542   8.815  0.6879 -2.1532  0.1172
 9274SOL     OW39280   0.239   4.718   0.873 -0.3573  0.0386 -0.5602
 9274SOL    HW139281   0.314   4.703   0.816 -0.5536  0.3836 -0.9123
 9274SOL    HW239282   0.193   4.635   0.861  2.6825 -1.3168 -2.8885
 9275SOL     OW39283   3.640   1.868   9.494 -0.0670 -0.1127  0.5028
 9275SOL    HW139284   3.579   1.812   9.446 -0.1891  0.6993 -0.2911
 9275SOL    HW239285   3.581   1.943   9.482  0.3467  0.1060 -0.1501
 9276SOL     OW39286   3.044   3.822   4.839 -0.0329  0.1719 -0.1527
 9276SOL    HW139287   3.045   3.758   4.909  0.3865  1.6181  1.1647
 9276SOL    HW239288   3.118   3.797   4.783 -0.9587 -0.5248 -1.0801
 9277SOL     OW39289   2.803   3.319   2.626  0.0849  0.1888 -1.0551
 9277SOL    HW139290   2.738   3.251   2.636  0.2036  0.3569  0.8391
 9277SOL    HW239291   2.749   3.397   2.638 -2.2588 -1.5858 -0.2341
 9278SOL     OW39292   1.430   4.496   1.546  0.0181  0.6782  0.5737
 9278SOL    HW139293   1.446   4.564   1.612  0.6907  0.5451  0.5537
 9278SOL    HW239294   1.443   4.412   1.590  0.2428  0.8906  0.9120
 9279SOL     OW39295   2.791   1.701  13.154  0.0294 -0.1280  0.7552
 9279SOL    HW139296   2.798   1.750  13.235 -0.6012  0.6478  0.3402
 9279SOL    HW239297   2.752   1.772  13.103 -0.1039 -1.1934 -0.6640
 9280SOL     OW39298   1.884   4.725   5.253  0.3422 -0.0526 -0.1804
 9280SOL    HW139299   1.908   4.646   5.301 -0.3250  0.6630  1.3149
 9280SOL    HW239300   1.974   0.026   5.234 -0.2663  1.7973 -0.4470
 9281SOL     OW39301   0.424   0.166  17.124  0.0538  0.0631 -0.2451
 9281SOL    HW139302   0.480   0.173  17.201 -0.7011  1.3716  0.1875
 9281SOL    HW239303   0.344   0.162  17.176 -0.5953  3.4019 -1.0008
 9282SOL     OW39304   2.298   0.321   3.976 -0.3494  0.1009  0.8826
 9282SOL    HW139305   2.375   0.356   4.021 -0.7432  2.2563 -0.1557
 9282SOL    HW239306   2.252   0.396   3.938  1.9840  1.8502  1.4968
 9283SOL     OW39307   4.379   2.639  13.715 -0.2573  0.3517 -0.1347
 9283SOL    HW139308   4.356   2.628  13.808 -3.0242 -0.7264 -0.9417
 9283SOL    HW239309   4.472   2.620  13.722 -0.1418  1.0434  0.1935
 9284SOL     OW39310   0.951   3.007   4.125 -0.3731  0.7527  0.0644
 9284SOL    HW139311   1.000   3.012   4.208  0.4491 -1.9917 -0.2386
 9284SOL    HW239312   1.014   2.968   4.064  0.0169 -0.1482  1.0337
 9285SOL     OW39313   3.212   0.830  10.240 -0.5841 -0.0862 -0.2502
 9285SOL    HW139314   3.301   0.851  10.214 -0.6781  0.6023 -0.0089
 9285SOL    HW239315   3.183   0.916  10.270  1.9405  0.6089  0.1261
 9286SOL     OW39316   0.698   1.922   4.529  0.2189  0.1676 -0.3654
 9286SOL    HW139317   0.683   1.884   4.616  0.5657  0.5318 -0.1484
 9286SOL    HW239318   0.689   1.854   4.463 -0.1144  0.4356 -0.5994
 9287SOL     OW39319   4.289   2.997  13.672 -0.2422 -0.3413 -0.8825
 9287SOL    HW139320   4.253   2.908  13.681  1.4905 -1.1918 -2.3117
 9287SOL    HW239321   4.213   3.035  13.716 -0.8728 -0.7644 -1.5918
 9288SOL     OW39322   1.678   2.645   0.479  0.6447  0.5705  0.0216
 9288SOL    HW139323   1.583   2.651   0.482  0.5689 -0.1720 -0.8008
 9288SOL    HW239324   1.678   2.550   0.467 -0.2876  0.7850 -1.6287
 9289SOL     OW39325   2.852   1.712   9.520  0.4737  0.0576 -0.1697
 9289SOL    HW139326   2.927   1.765   9.545 -0.6617  0.0094  3.2413
 9289SOL    HW239327   2.862   1.629   9.566  1.3035  0.0745 -0.3178
 9290SOL     OW39328   3.733   0.015   4.008  0.1021 -0.3547 -0.0810
 9290SOL    HW139329   3.668   0.040   4.074  0.1864 -1.4099  0.4059
 9290SOL    HW239330   3.810   0.003   4.064 -1.2433 -1.3074  1.6011
 9291SOL     OW39331   3.343   3.421   3.009  0.4219 -0.2484  0.2140
 9291SOL    HW139332   3.273   3.485   3.020 -0.2057 -0.6940 -1.2196
 9291SOL    HW239333   3.339   3.374   3.092  1.9695  0.9750  0.9907
 9292SOL     OW39334   2.798   3.363   1.928 -0.2787 -0.8887 -0.2033
 9292SOL    HW139335   2.848   3.325   2.001 -1.9433  2.1187  2.5094
 9292SOL    HW239336   2.852   3.331   1.855 -0.7004 -0.4135 -0.7182
 9293SOL     OW39337   2.081   4.049   4.090 -0.1030  0.2509 -0.2810
 9293SOL    HW139338   2.138   4.048   4.167 -0.5155  3.2466  0.0767
 9293SOL    HW239339   1.998   4.027   4.132  0.6670 -1.9725  0.0829
 9294SOL     OW39340   2.632   2.300   2.234  0.1819  0.3054  0.0351
 9294SOL    HW139341   2.552   2.339   2.268  0.2852  0.8315 -0.3258
 9294SOL    HW239342   2.597   2.211   2.228  0.3244  0.3667 -1.6180
 9295SOL     OW39343   0.852   4.325   2.836 -0.0007  1.0079  0.6453
 9295SOL    HW139344   0.911   4.269   2.887  1.2053  2.9018  1.3341
 9295SOL    HW239345   0.912   4.385   2.792 -0.5777  0.3812 -0.9698
 9296SOL     OW39346   1.864   4.651   2.595  0.5274  0.5701 -0.3147
 9296SOL    HW139347   1.958   4.648   2.580  0.7753  0.5146  1.2481
 9296SOL    HW239348   1.836   4.581   2.536  2.0852  0.4485 -0.9158
 9297SOL     OW39349   4.524   4.060   6.455 -0.4475 -0.1082  0.3040
 9297SOL    HW139350   4.516   4.141   6.403 -0.2383 -0.3036 -0.0323
 9297SOL    HW239351   4.491   3.994   6.394  1.3750 -0.0880 -0.7182
 9298SOL     OW39352   0.861   1.073   8.909  0.7490  0.5203  0.2873
 9298SOL    HW139353   0.858   0.980   8.886  0.6011  0.7982 -0.8205
 9298SOL    HW239354   0.954   1.093   8.899  0.3759  0.5827 -2.9628
 9299SOL     OW39355   3.716   1.124   0.735  0.1234 -0.5499 -0.2078
 9299SOL    HW139356   3.750   1.061   0.798 -1.7429 -0.6488  0.7111
 9299SOL    HW239357   3.651   1.076   0.683 -0.4165  0.8841 -0.8941
 9300SOL     OW39358   1.326   4.380   5.763  0.0197 -0.6582  0.1638
 9300SOL    HW139359   1.346   4.290   5.787 -2.1779 -1.7339 -2.0413
 9300SOL    HW239360   1.246   4.367   5.712 -0.0237 -2.1225  0.6061
 9301SOL     OW39361   3.416   0.968   9.359  0.6367  0.4598  0.0369
 9301SOL    HW139362   3.349   0.978   9.291 -1.8617  1.6671  2.6723
 9301SOL    HW239363   3.478   1.035   9.331  0.8030 -0.1040 -0.9405
 9302SOL     OW39364   3.053   2.042   4.019  0.2389 -0.1825  0.0459
 9302SOL    HW139365   3.083   2.131   4.001  1.6853 -1.2328 -2.7273
 9302SOL    HW239366   3.030   2.061   4.110  1.9280  0.0502  0.4244
 9303SOL     OW39367   4.687   4.411  16.630 -0.2632  0.8706 -0.3053
 9303SOL    HW139368   4.641   4.416  16.546  0.8869  0.6200 -0.9443
 9303SOL    HW239369   4.700   4.505  16.643  1.3802  0.7276 -0.9694
 9304SOL     OW39370   1.479   0.510   3.779 -0.1081 -0.1439 -0.4828
 9304SOL    HW139371   1.424   0.587   3.797  0.8329  0.1389  1.1505
 9304SOL    HW239372   1.566   0.536   3.809  0.4705 -2.9393  0.2104
 9305SOL     OW39373   1.987   4.580   8.260 -0.3243  0.3557  0.4261
 9305SOL    HW139374   1.977   4.673   8.284  1.9942  0.6504  0.2121
 9305SOL    HW239375   2.072   4.582   8.217 -0.5295  0.7956  0.0374
 9306SOL     OW39376   4.720   4.181  14.884 -0.1880 -0.0473 -0.3806
 9306SOL    HW139377   0.059   4.138  14.939 -0.3860 -1.5010 -1.2839
 9306SOL    HW239378   0.055   4.226  14.825 -0.5351  2.7244  1.3645
 9307SOL     OW39379   2.427   0.030   1.638  0.2196  0.4473 -0.6256
 9307SOL    HW139380   2.383   0.015   1.722  2.3659  1.0799  0.6125
 9307SOL    HW239381   2.400   0.121   1.623  2.0192  1.2913  1.4364
 9308SOL     OW39382   0.120   3.550  15.556  0.1073 -0.1455  0.0745
 9308SOL    HW139383   0.200   3.594  15.586  1.2338 -1.1964 -1.3812
 9308SOL    HW239384   0.145   3.462  15.529 -0.3239  0.0071 -0.8208
 9309SOL     OW39385   2.569   2.129  15.115 -0.3114 -0.4806  0.8019
 9309SOL    HW139386   2.480   2.098  15.132 -1.1319  2.2780  1.4977
 9309SOL    HW239387   2.575   2.104  15.023 -0.4691  1.2838  0.3059
 9310SOL     OW39388   4.019   2.823  10.439  0.3266 -0.4414 -0.3039
 9310SOL    HW139389   4.087   2.756  10.435  1.0187  0.2071  0.5184
 9310SOL    HW239390   4.042   2.862  10.354 -1.9631  0.7743 -0.3723
 9311SOL     OW39391   1.844   4.549   0.262  0.2472 -0.7943 -0.7418
 9311SOL    HW139392   1.780   4.604   0.217 -0.3610  1.7149  3.1937
 9311SOL    HW239393   1.909   4.619   0.265 -1.2713  0.5899 -0.4029
 9312SOL     OW39394   1.661   4.580   6.131  0.2782 -0.3239  0.7516
 9312SOL    HW139395   1.721   4.514   6.098 -0.6709 -0.7053 -0.2096
 9312SOL    HW239396   1.669   4.642   6.059 -0.1680 -1.6509 -0.4323
 9313SOL     OW39397   0.901   4.025   9.406 -0.0472 -0.4494  0.3073
 9313SOL    HW139398   0.834   4.015   9.338  0.6450 -0.3376 -0.3922
 9313SOL    HW239399   0.941   3.939   9.418 -0.1811 -0.4224  0.9341
 9314SOL     OW39400   4.182   1.213  17.582  0.2230 -0.4031 -0.4803
 9314SOL    HW139401   4.183   1.186  17.674  1.4364  0.9012 -0.1034
 9314SOL    HW239402   4.093   1.247  17.574  0.1428 -0.7198 -0.8671
 9315SOL     OW39403   0.200   2.450   7.277 -0.0171  0.4641 -0.0038
 9315SOL    HW139404   0.134   2.380   7.286 -0.4488  0.8584 -0.1306
 9315SOL    HW239405   0.166   2.502   7.350 -0.8831 -0.6936  0.4180
 9316SOL     OW39406   3.733   3.273   3.491  0.1913 -0.2657 -0.2195
 9316SOL    HW139407   3.743   3.205   3.425 -4.8576  1.5055 -2.7488
 9316SOL    HW239408   3.722   3.349   3.434 -1.3994  1.6076  2.5197
 9317SOL     OW39409   4.347   0.613   7.278  0.4543  0.0003  0.4781
 9317SOL    HW139410   4.270   0.556   7.273 -0.0946  0.9151 -1.3532
 9317SOL    HW239411   4.358   0.630   7.372  0.6512  0.3833  0.3888
 9318SOL     OW39412   2.023   2.742   0.205 -0.0712 -0.0301  0.2477
 9318SOL    HW139413   2.056   2.796   0.133 -1.1281 -0.2473 -0.3997
 9318SOL    HW239414   1.941   2.719   0.161  0.1266  0.9759 -0.6310
 9319SOL     OW39415   4.545   1.081   8.454 -0.5237  0.3576 -0.2405
 9319SOL    HW139416   4.638   1.070   8.432 -0.6541 -0.3461 -0.4402
 9319SOL    HW239417   4.507   1.014   8.397 -2.4139 -0.1441  1.6324
 9320SOL     OW39418   0.279   0.258   9.154 -0.3233 -0.2835  0.2633
 9320SOL    HW139419   0.362   0.244   9.108 -0.4853  0.9428 -0.4075
 9320SOL    HW239420   0.304   0.336   9.202 -0.1671 -1.5171  2.1553
 9321SOL     OW39421   3.162   0.804   9.767 -0.3672  0.2042 -0.4497
 9321SOL    HW139422   3.095   0.746   9.731  0.5680 -0.2063 -1.5268
 9321SOL    HW239423   3.233   0.760   9.721  0.0296  0.1792  0.1826
 9322SOL     OW39424   2.325   0.302   1.398 -0.3628 -0.0473 -0.1262
 9322SOL    HW139425   2.353   0.285   1.488  0.2085 -2.0649 -0.6777
 9322SOL    HW239426   2.392   0.248   1.357  0.1356 -0.3397  1.0764
 9323SOL     OW39427   3.364   0.729   8.054  0.4605  0.1040 -0.1471
 9323SOL    HW139428   3.393   0.820   8.064  0.6097  0.3102 -2.5972
 9323SOL    HW239429   3.434   0.696   7.998 -0.8446 -1.7309 -0.6829
 9324SOL     OW39430   1.793   0.936   6.142  0.6729 -0.4058  0.2298
 9324SOL    HW139431   1.704   0.958   6.113  0.8427  0.3031  0.2667
 9324SOL    HW239432   1.845   0.918   6.064  2.2538 -0.7258  1.3490
 9325SOL     OW39433   1.942   4.105   5.955 -0.3911 -0.3162  0.1799
 9325SOL    HW139434   1.946   4.020   5.998 -0.7095  0.1955  1.2182
 9325SOL    HW239435   2.036   4.124   5.944 -0.0989 -0.3693  2.7067
 9326SOL     OW39436   1.508   3.255   3.812 -0.4972 -0.5553 -0.5720
 9326SOL    HW139437   1.494   3.194   3.740  0.7544  0.6669 -1.8523
 9326SOL    HW239438   1.523   3.338   3.765 -0.1876  0.1410  0.7691
 9327SOL     OW39439   1.853   0.615   4.529 -0.4572 -0.4389 -0.0840
 9327SOL    HW139440   1.809   0.546   4.479  0.7246 -1.9880  1.0288
 9327SOL    HW239441   1.780   0.656   4.577 -0.8444  0.1799 -1.1929
 9328SOL     OW39442   2.887   0.280   4.959  0.6525 -0.0960 -0.0255
 9328SOL    HW139443   2.817   0.318   5.011  0.7387 -1.5984  1.2244
 9328SOL    HW239444   2.880   0.188   4.985 -1.1295  0.9000  2.9975
 9329SOL     OW39445   4.056   0.860   6.788 -0.3761  0.4573 -0.5898
 9329SOL    HW139446   3.967   0.892   6.771 -0.8664  1.0589  3.1430
 9329SOL    HW239447   4.103   0.922   6.733  1.7844  0.3387  1.1529
 9330SOL     OW39448   1.088   0.223  10.444  0.3119 -0.5499  0.2094
 9330SOL    HW139449   1.113   0.199  10.355 -0.3315 -0.5149  0.0192
 9330SOL    HW239450   0.998   0.254  10.431  0.9010  0.8864 -0.5212
 9331SOL     OW39451   1.653   1.638   8.600  0.1663 -0.3555 -0.1657
 9331SOL    HW139452   1.695   1.636   8.687  0.6093  0.4509 -0.3521
 9331SOL    HW239453   1.714   1.591   8.543  1.0331  0.2288  0.2745
 9332SOL     OW39454   1.104   1.074   8.285 -0.1226  0.1802  0.1806
 9332SOL    HW139455   1.127   1.155   8.239  0.0302 -0.3766 -0.7328
 9332SOL    HW239456   1.176   1.063   8.347  1.4869  1.3617 -1.4574
 9333SOL     OW39457   3.914   3.129  10.291 -0.8415  0.1043  0.3782
 9333SOL    HW139458   3.984   3.082  10.337 -0.0677  1.1046  0.2187
 9333SOL    HW239459   3.966   3.188  10.237  3.4150 -1.6925  2.4811
 9334SOL     OW39460   0.333   0.277   4.845  0.0712  0.5045  0.2357
 9334SOL    HW139461   0.405   0.252   4.788 -0.5692  1.8883 -1.1871
 9334SOL    HW239462   0.347   0.365   4.879 -0.8899 -0.1281  2.2421
 9335SOL     OW39463   3.710   3.250   2.185 -0.5672  0.3764  0.1782
 9335SOL    HW139464   3.681   3.179   2.242 -0.4360  0.2652  0.1057
 9335SOL    HW239465   3.761   3.201   2.121 -0.8932 -3.2429  2.6856
 9336SOL     OW39466   1.313   3.868  16.174 -0.0008 -0.1244  0.0754
 9336SOL    HW139467   1.343   3.842  16.261  1.0100  0.6523 -0.0474
 9336SOL    HW239468   1.373   3.934  16.140 -3.0055  1.2417 -2.6597
 9337SOL     OW39469   0.446   1.918   5.706  0.1619 -0.2361  0.2109
 9337SOL    HW139470   0.424   1.912   5.614 -3.0564 -2.7642  1.1334
 9337SOL    HW239471   0.534   1.956   5.710 -0.2026  0.6551 -0.4926
 9338SOL     OW39472   0.991   1.181   2.842  0.4570 -0.0745 -0.0442
 9338SOL    HW139473   0.976   1.248   2.909  1.1642 -2.6690  2.7290
 9338SOL    HW239474   1.086   1.172   2.847  0.4739  0.8654  1.2947
 9339SOL     OW39475   1.388   1.668   6.019  0.9555 -0.2304  0.0562
 9339SOL    HW139476   1.307   1.686   6.066 -0.6418 -1.9367 -1.9926
 9339SOL    HW239477   1.409   1.586   6.063  2.8252  0.6766  0.8271
 9340SOL     OW39478   3.078   1.062   3.392  0.0529  0.1625 -0.2538
 9340SOL    HW139479   3.060   0.985   3.339  2.8456  0.0926 -1.0895
 9340SOL    HW239480   3.088   1.129   3.324 -2.0750 -0.9978 -1.7238
 9341SOL     OW39481   1.063   3.799   3.607  0.3696  0.1921  0.0373
 9341SOL    HW139482   1.036   3.865   3.671  2.3131 -0.1644  1.2301
 9341SOL    HW239483   1.050   3.726   3.667  0.4554  0.1502  0.0052
 9342SOL     OW39484   0.088   3.229   8.229 -0.0579  0.3304 -0.1324
 9342SOL    HW139485   0.037   3.149   8.241  0.7040 -0.5483 -2.8541
 9342SOL    HW239486   0.021   3.292   8.254 -1.6066  0.3620 -4.3594
 9343SOL     OW39487   4.520   0.802   2.751  0.1321  0.1419  0.2838
 9343SOL    HW139488   4.464   0.729   2.728  1.9764 -0.5752 -1.9616
 9343SOL    HW239489   4.613   0.779   2.745  0.5912  2.4551 -1.5723
 9344SOL     OW39490   2.478   2.809   2.564 -0.1832  0.7090  0.2144
 9344SOL    HW139491   2.397   2.813   2.615 -0.8133 -0.0849 -0.7366
 9344SOL    HW239492   2.453   2.777   2.478  1.5028 -0.3000  0.1093
 9345SOL     OW39493   3.111   3.722  12.094 -0.1021 -0.5802 -0.1888
 9345SOL    HW139494   3.120   3.768  12.177 -0.0721  1.1217 -1.1249
 9345SOL    HW239495   3.020   3.693  12.095 -0.4736  0.7589  2.8223
 9346SOL     OW39496   0.332   4.688   4.658  0.5033 -0.4965 -0.5953
 9346SOL    HW139497   0.303   4.689   4.567 -0.1684  2.1410 -0.3722
 9346SOL    HW239498   0.319   4.595   4.678 -1.0088  0.2074  1.6915
 9347SOL     OW39499   4.173   1.296   5.948  0.4284 -0.2338  0.4196
 9347SOL    HW139500   4.158   1.292   5.854  0.3941 -1.6114  0.4836
 9347SOL    HW239501   4.209   1.384   5.951 -2.2269  0.8180  1.2182
 9348SOL     OW39502   3.941   2.167   0.753 -0.1164 -0.1046  0.0360
 9348SOL    HW139503   3.914   2.086   0.797  1.5371  0.4518  2.0488
 9348SOL    HW239504   4.031   2.142   0.732  0.2454  2.0757 -0.9640
 9349SOL     OW39505   1.533   1.273   9.056  0.5558  0.0775  0.0849
 9349SOL    HW139506   1.607   1.332   9.073  0.8748 -0.8773  2.0852
 9349SOL    HW239507   1.502   1.263   9.146  0.8750  1.0146  0.3037
 9350SOL     OW39508   2.841   3.579  12.501  0.5806  0.4214 -0.7528
 9350SOL    HW139509   2.766   3.618  12.458 -0.3609 -1.8391 -1.1923
 9350SOL    HW239510   2.867   3.650  12.560 -2.8515  0.7719  0.3284
 9351SOL     OW39511   3.059   3.328  12.847 -0.4676  0.2965  0.0492
 9351SOL    HW139512   3.035   3.356  12.759  0.1961  1.5033  0.2531
 9351SOL    HW239513   3.155   3.326  12.842 -0.5294 -0.2206 -0.8382
 9352SOL     OW39514   1.386   0.926   7.338  0.0197 -0.2512  0.0874
 9352SOL    HW139515   1.376   0.853   7.400  1.1919 -0.5623 -0.0806
 9352SOL    HW239516   1.319   0.897   7.277 -2.3449  0.3880  2.3948
 9353SOL     OW39517   3.235   4.432   2.008 -0.3025 -0.0083 -0.2186
 9353SOL    HW139518   3.193   4.499   2.060 -3.9115 -1.1374 -1.6648
 9353SOL    HW239519   3.174   4.418   1.936  1.0092 -1.6171 -1.0430
 9354SOL     OW39520   0.097   1.318   3.797 -0.6571  0.2287  0.1857
 9354SOL    HW139521   0.091   1.308   3.892  1.7903 -3.3919 -0.0332
 9354SOL    HW239522   0.191   1.331   3.783 -0.2440 -0.4212  2.4495
 9355SOL     OW39523   2.860   3.418   3.279  0.2226  0.3164 -0.7195
 9355SOL    HW139524   2.917   3.493   3.297  0.8500 -0.0999 -0.9768
 9355SOL    HW239525   2.814   3.462   3.207  0.2083  0.2340 -0.7604
 9356SOL     OW39526   1.111   3.905   8.952 -0.5001 -0.0132  0.4600
 9356SOL    HW139527   1.187   3.937   8.904  0.0719  1.5613  2.4308
 9356SOL    HW239528   1.085   3.976   9.011 -3.2065 -2.0195  1.6732
 9357SOL     OW39529   3.362   1.617   3.522 -0.2480  0.7862  0.1876
 9357SOL    HW139530   3.273   1.638   3.492 -0.2011  0.0436 -0.4704
 9357SOL    HW239531   3.401   1.704   3.510 -0.0177  0.0785 -4.1935
 9358SOL     OW39532   1.170   2.785   5.794 -0.1726 -0.1377 -0.2656
 9358SOL    HW139533   1.239   2.720   5.780  0.3142  0.2438  0.3495
 9358SOL    HW239534   1.196   2.812   5.882 -2.3726  2.1822 -0.3456
 9359SOL     OW39535   4.273   3.040   6.812 -0.4445 -0.2410 -0.5108
 9359SOL    HW139536   4.252   3.120   6.859 -0.2233 -1.4156  1.5755
 9359SOL    HW239537   4.287   3.079   6.726  0.1799 -0.6700 -0.6047
 9360SOL     OW39538   0.815   2.392   3.324 -0.0830 -0.1862 -0.3976
 9360SOL    HW139539   0.902   2.352   3.334 -0.0662 -0.8243 -3.0279
 9360SOL    HW239540   0.766   2.322   3.281 -0.1023 -1.3681  1.5843
 9361SOL     OW39541   0.900   4.279   0.671 -0.4353  0.2031 -0.4174
 9361SOL    HW139542   0.892   4.307   0.762 -2.0504  0.5588 -0.6735
 9361SOL    HW239543   0.973   4.339   0.653  0.3950 -0.4045  0.9894
 9362SOL     OW39544   2.348   3.930  13.197 -0.0091  0.0205 -0.2740
 9362SOL    HW139545   2.288   3.973  13.137 -0.9885 -1.1184 -0.1239
 9362SOL    HW239546   2.398   4.005  13.229 -0.4276 -0.2192  0.9499
 9363SOL     OW39547   3.632   3.405  15.694  0.5524  0.1364 -0.1678
 9363SOL    HW139548   3.685   3.485  15.685 -1.7882  1.9411  2.1581
 9363SOL    HW239549   3.563   3.448  15.744 -0.3163  0.0944 -1.3327
 9364SOL     OW39550   3.750   1.178   7.528  0.5700  0.2530 -0.1739
 9364SOL    HW139551   3.789   1.250   7.479 -2.0291  1.7834  0.0091
 9364SOL    HW239552   3.693   1.227   7.587  0.4809  0.5338 -0.4951
 9365SOL     OW39553   4.707   3.972   9.830 -0.2973  0.2070  0.2287
 9365SOL    HW139554   0.011   4.040   9.770 -1.7203  0.0977 -0.6107
 9365SOL    HW239555   0.038   3.902   9.798  0.6819  0.6887  0.9088
 9366SOL     OW39556   1.515   1.659   9.186  0.5039 -0.5044  0.1774
 9366SOL    HW139557   1.533   1.618   9.271 -0.8043 -1.4180  0.0155
 9366SOL    HW239558   1.420   1.661   9.198  0.6884 -1.8757  1.9712
 9367SOL     OW39559   3.522   1.250   4.153 -0.1041 -0.2259 -0.2365
 9367SOL    HW139560   3.448   1.279   4.099 -0.1578  0.4937  0.2117
 9367SOL    HW239561   3.522   1.321   4.218 -0.6291  1.2001 -1.7771
 9368SOL     OW39562   1.900   1.555  15.210 -0.3346  0.5463  0.5873
 9368SOL    HW139563   1.981   1.588  15.172  0.0038 -0.0072  0.8364
 9368SOL    HW239564   1.944   1.491  15.266  2.0735 -0.6415 -2.6870
 9369SOL     OW39565   2.042   0.588   6.398  0.5333 -0.8402 -0.2056
 9369SOL    HW139566   2.105   0.518   6.379  2.3024 -0.2486  3.4899
 9369SOL    HW239567   1.998   0.553   6.476 -1.2315 -0.4133 -1.0065
 9370SOL     OW39568   1.314   2.566   4.942  0.2519  0.0607  0.1345
 9370SOL    HW139569   1.379   2.634   4.922 -0.2214 -0.0428 -1.7170
 9370SOL    HW239570   1.232   2.615   4.944 -1.0209 -2.0950  1.3930
 9371SOL     OW39571   2.553   3.438   3.344 -0.7685 -0.0155 -0.1211
 9371SOL    HW139572   2.642   3.401   3.342 -0.8312 -0.0945 -1.3766
 9371SOL    HW239573   2.567   3.515   3.290  1.3085 -2.0145 -2.4320
 9372SOL     OW39574   2.180   3.647  17.210  0.0124  0.3272  0.0524
 9372SOL    HW139575   2.181   3.557  17.177 -0.5224  1.4727 -3.0580
 9372SOL    HW239576   2.263   3.682  17.180 -0.6445  0.6975 -1.3382
 9373SOL     OW39577   3.062   1.552   6.408  0.2859 -0.5159 -0.2672
 9373SOL    HW139578   3.153   1.542   6.380  0.5432  2.6503 -0.5440
 9373SOL    HW239579   3.060   1.647   6.405  1.5821 -0.4096  2.1697
 9374SOL     OW39580   0.455   1.421   4.434 -0.1834 -0.1990 -0.1080
 9374SOL    HW139581   0.392   1.375   4.378  1.4719 -0.2885 -1.9122
 9374SOL    HW239582   0.400   1.452   4.506 -0.2932 -1.1587  0.2226
 9375SOL     OW39583   4.140   1.301   1.574  0.0266 -0.0187 -0.4818
 9375SOL    HW139584   4.091   1.225   1.543  0.5064 -0.2405 -0.6917
 9375SOL    HW239585   4.208   1.311   1.508  2.1230  0.8900  1.8338
 9376SOL     OW39586   0.912   0.492  10.338 -0.4695  0.3454  0.4049
 9376SOL    HW139587   0.959   0.571  10.363  1.2175 -0.8471  1.0393
 9376SOL    HW239588   0.951   0.468  10.254 -0.2160 -1.2873  0.9925
 9377SOL     OW39589   0.570   2.392   6.042 -0.0649 -0.0217 -0.1543
 9377SOL    HW139590   0.637   2.433   6.097 -2.3417  0.7216  2.0754
 9377SOL    HW239591   0.603   2.307   6.012 -1.4763 -0.1614 -1.2869
 9378SOL     OW39592   0.070   1.017   4.549 -0.2168  0.3564 -0.1463
 9378SOL    HW139593   0.063   1.092   4.490 -1.7799  0.1212 -0.2369
 9378SOL    HW239594   0.039   0.946   4.494  1.4183 -1.4371  1.2209
 9379SOL     OW39595   1.916   1.608   5.063 -0.5915  0.5907  0.1638
 9379SOL    HW139596   1.939   1.701   5.060  0.6523  0.2942  0.3421
 9379SOL    HW239597   1.988   1.571   5.013 -1.3163  0.3263 -0.6728
 9380SOL     OW39598   1.697   2.188   1.494 -0.2590  0.4421 -0.4711
 9380SOL    HW139599   1.772   2.234   1.456 -0.1017 -0.2709 -1.0271
 9380SOL    HW239600   1.702   2.222   1.583 -0.1960  0.4731 -0.4870
 9381SOL     OW39601   2.853   3.487   8.836 -0.1298 -0.0811 -0.5640
 9381SOL    HW139602   2.876   3.394   8.839 -1.4261 -0.3818  0.0149
 9381SOL    HW239603   2.903   3.537   8.901 -1.7199  0.5659  0.1875
 9382SOL     OW39604   3.879   1.162   9.257  0.0241 -0.1245 -0.0096
 9382SOL    HW139605   3.824   1.218   9.202 -0.4004  0.0034  0.5445
 9382SOL    HW239606   3.966   1.202   9.249  1.1162 -2.0540  2.3134
 9383SOL     OW39607   4.023   2.865  13.441 -0.1115  0.0691 -0.7903
 9383SOL    HW139608   4.075   2.839  13.517  0.6009  1.1876 -0.8913
 9383SOL    HW239609   3.973   2.784  13.436  2.1072 -1.1186 -3.6723
 9384SOL     OW39610   3.861   4.307   3.111  0.3518 -0.1815 -0.3603
 9384SOL    HW139611   3.873   4.264   3.195  1.1760  1.0066  0.1288
 9384SOL    HW239612   3.787   4.366   3.127  0.5346  0.3814 -1.5882
 9385SOL     OW39613   2.042   2.815  11.017  0.0702  0.6383  0.6733
 9385SOL    HW139614   2.082   2.800  11.103 -2.2060 -1.0994  1.4147
 9385SOL    HW239615   1.999   2.731  11.002 -1.6843  1.1784  2.7750
 9386SOL     OW39616   1.720   4.684   1.901 -0.8323 -0.1481 -0.0956
 9386SOL    HW139617   1.653   0.025   1.887 -0.5722  0.1175 -0.0616
 9386SOL    HW239618   1.803   4.718   1.866 -0.9838 -1.4003 -1.6817
 9387SOL     OW39619   2.052   1.628  14.699 -0.2507  1.0061 -0.1521
 9387SOL    HW139620   2.056   1.560  14.765 -0.9413 -0.5561 -1.7177
 9387SOL    HW239621   1.962   1.620  14.667  0.4821 -2.3017 -1.4053
 9388SOL     OW39622   4.704   0.890   4.328 -0.5647  0.1110  0.3017
 9388SOL    HW139623   0.001   0.798   4.337 -2.5266 -0.4566 -0.4115
 9388SOL    HW239624   4.629   0.877   4.270 -1.4729  0.5060  1.3793
 9389SOL     OW39625   3.804   3.110   9.219  0.6461  0.5481  0.3867
 9389SOL    HW139626   3.764   3.060   9.290 -0.5557  0.5365 -0.2882
 9389SOL    HW239627   3.825   3.035   9.163 -0.7067  1.1650 -0.9441
 9390SOL     OW39628   4.609   0.453   0.729 -0.1425  0.3090  0.3309
 9390SOL    HW139629   4.691   0.475   0.773 -0.9672  0.3179  1.8289
 9390SOL    HW239630   4.560   0.420   0.804 -0.0166  1.3154  0.8470
 9391SOL     OW39631   3.948   1.751   9.134  0.3423 -0.3999  0.0416
 9391SOL    HW139632   3.976   1.674   9.084 -1.0296 -0.7241 -0.2392
 9391SOL    HW239633   3.948   1.717   9.223  1.4269  0.8016  0.4938
 9392SOL     OW39634   4.108   1.554   1.544 -0.1312 -0.0767 -0.4984
 9392SOL    HW139635   4.131   1.597   1.626  1.1163 -0.0419 -0.8752
 9392SOL    HW239636   4.085   1.467   1.575 -0.4148  0.8576  1.8930
 9393SOL     OW39637   0.404   0.362   2.827  0.2684 -0.2414  0.1348
 9393SOL    HW139638   0.373   0.279   2.862  0.8257 -0.9679 -1.0632
 9393SOL    HW239639   0.453   0.396   2.901  0.2488 -0.5258  0.2769
 9394SOL     OW39640   2.795   2.892   6.112  0.5526  0.3698  0.1138
 9394SOL    HW139641   2.868   2.947   6.084  1.1140  0.2203  1.2738
 9394SOL    HW239642   2.730   2.957   6.138 -1.8827 -2.5760  1.3844
 9395SOL     OW39643   3.753   4.437  11.834 -0.1842 -0.2943 -0.5424
 9395SOL    HW139644   3.741   4.528  11.807 -1.5995  0.5097  2.7530
 9395SOL    HW239645   3.832   4.416  11.786  0.5004 -0.9140  0.8499
 9396SOL     OW39646   0.444   4.388  10.343  0.3147 -0.5253 -0.2820
 9396SOL    HW139647   0.384   4.323  10.306 -0.2342  0.0137 -0.3394
 9396SOL    HW239648   0.388   4.416  10.416  1.1598  0.7571 -0.1272
 9397SOL     OW39649   0.396   0.211   6.963 -0.5890 -0.2447 -0.1142
 9397SOL    HW139650   0.333   0.284   6.960 -1.9518 -1.4510 -0.7378
 9397SOL    HW239651   0.446   0.246   7.037 -0.9687  1.4553 -0.6618
 9398SOL     OW39652   0.106   1.354  12.717  0.1311  0.0522  0.1884
 9398SOL    HW139653   0.113   1.278  12.659  1.4311 -0.3286  0.8452
 9398SOL    HW239654   0.193   1.388  12.693 -0.8143  1.3499 -1.4353
 9399SOL     OW39655   3.076   4.186   9.162  0.4357 -0.2939 -0.0424
 9399SOL    HW139656   3.006   4.132   9.199 -1.7989  2.6159  0.0603
 9399SOL    HW239657   3.136   4.117   9.137  1.2544 -0.2291  1.7607
 9400SOL     OW39658   2.544   0.810   6.622  0.0050 -0.2873  0.6203
 9400SOL    HW139659   2.459   0.833   6.659 -0.2821  1.5703 -1.2161
 9400SOL    HW239660   2.547   0.876   6.553 -0.3442 -2.2007 -1.2226
 9401SOL     OW39661   1.651   0.013   5.907  0.2498 -0.0506 -0.6727
 9401SOL    HW139662   1.581   0.043   5.849 -1.3816 -0.7026  0.9673
 9401SOL    HW239663   1.699   4.692   5.838 -1.3395 -1.1278 -1.0563
 9402SOL     OW39664   1.781   3.284   6.188 -0.3507 -0.4142 -0.2001
 9402SOL    HW139665   1.876   3.273   6.192 -0.4562 -1.7136 -1.2008
 9402SOL    HW239666   1.749   3.271   6.277  1.0418 -1.7232  0.1160
 9403SOL     OW39667   2.648   0.842  16.263  0.0802  0.1660 -0.1979
 9403SOL    HW139668   2.730   0.792  16.260  0.8701  1.6560 -3.0380
 9403SOL    HW239669   2.619   0.844  16.172  0.0687 -0.7442 -0.2139
 9404SOL     OW39670   0.678   3.024   8.688  0.2945  0.3305 -0.1971
 9404SOL    HW139671   0.706   2.948   8.637 -0.8874 -0.2691  0.0316
 9404SOL    HW239672   0.707   3.000   8.776 -0.4822 -1.2422 -0.3651
 9405SOL     OW39673   3.942   1.513   2.906  0.5561 -0.7367  0.0579
 9405SOL    HW139674   3.949   1.421   2.933  0.7177 -0.8706 -0.4237
 9405SOL    HW239675   4.031   1.545   2.920 -0.0719  1.4386 -0.9589
 9406SOL     OW39676   1.442   4.075  10.610 -0.3065  0.0180 -0.4876
 9406SOL    HW139677   1.459   4.131  10.686  1.6418 -0.9487 -0.2052
 9406SOL    HW239678   1.516   4.103  10.555 -0.9624 -0.8563 -1.8045
 9407SOL     OW39679   3.793   2.541   4.168  0.0509  0.4746 -0.1270
 9407SOL    HW139680   3.725   2.572   4.108  1.6801  1.3543 -1.5306
 9407SOL    HW239681   3.732   2.538   4.241  1.0934 -0.0374  0.7309
 9408SOL     OW39682   1.587   4.215   8.163  0.4005 -0.1990 -0.1145
 9408SOL    HW139683   1.678   4.243   8.150  0.3112 -0.0146 -0.3559
 9408SOL    HW239684   1.574   4.168   8.081  0.9550 -2.1595  0.9300
 9409SOL     OW39685   1.527   1.408   4.250  0.0323  0.2412 -0.1357
 9409SOL    HW139686   1.444   1.432   4.289 -0.6907 -0.0083 -1.5099
 9409SOL    HW239687   1.577   1.361   4.317  1.1885  1.3543 -0.2090
 9410SOL     OW39688   1.832   2.565   2.717  0.0062  0.3485 -0.1709
 9410SOL    HW139689   1.843   2.474   2.689 -0.2463 -0.0469  1.0047
 9410SOL    HW239690   1.884   2.607   2.648 -0.0078  0.9275  0.1706
 9411SOL     OW39691   2.919   2.558   3.056  0.2607 -0.0646  0.1608
 9411SOL    HW139692   2.964   2.641   3.075  1.1205 -0.4715 -0.0864
 9411SOL    HW239693   2.902   2.525   3.144  0.2499 -0.6720 -0.0708
 9412SOL     OW39694   0.231   3.223   4.689  0.2934  0.5794 -0.3654
 9412SOL    HW139695   0.290   3.150   4.670 -1.1488 -0.6620 -0.1357
 9412SOL    HW239696   0.144   3.184   4.679  0.6192 -0.0246 -0.8035
 9413SOL     OW39697   3.477   4.503  11.938  0.2630 -0.0263  0.1130
 9413SOL    HW139698   3.510   4.589  11.961 -0.6268  0.3672 -0.0942
 9413SOL    HW239699   3.559   4.454  11.929  0.0696 -0.3808  0.2686
 9414SOL     OW39700   3.841   1.719   5.794 -0.2749 -0.5110 -0.2324
 9414SOL    HW139701   3.876   1.634   5.819 -0.2651 -0.5073 -0.2336
 9414SOL    HW239702   3.920   1.760   5.828 -2.0424  1.1269  1.9492
 9415SOL     OW39703   3.198   1.347  11.614  0.0082  0.3649  0.1471
 9415SOL    HW139704   3.191   1.346  11.518  2.0962  0.5120 -0.0037
 9415SOL    HW239705   3.108   1.334  11.644 -1.2190  1.5802 -2.9411
 9416SOL     OW39706   1.813   3.073   8.912  0.3929 -0.1135  0.1274
 9416SOL    HW139707   1.748   3.038   8.974 -1.0750 -2.0643 -2.5019
 9416SOL    HW239708   1.822   3.164   8.942 -0.0946  0.1985 -0.6702
 9417SOL     OW39709   3.639   0.609   4.251  0.7312  0.2182 -0.0852
 9417SOL    HW139710   3.671   0.623   4.340 -2.9501  0.6814  1.1829
 9417SOL    HW239711   3.567   0.673   4.249  0.8074  0.3533  1.6910
 9418SOL     OW39712   1.050   1.101  16.911  0.3243 -0.5197  0.5794
 9418SOL    HW139713   0.972   1.140  16.873  0.8647  0.2324  0.2478
 9418SOL    HW239714   1.114   1.164  16.878 -1.6036 -0.0852 -2.3146
 9419SOL     OW39715   3.606   4.595   7.541  0.3475 -0.3672  0.3245
 9419SOL    HW139716   3.595   4.604   7.635 -0.2483  0.4486  0.1770
 9419SOL    HW239717   3.527   4.553   7.508  0.2527  0.5780 -0.6375
 9420SOL     OW39718   3.135   0.262   7.529 -0.5156  0.0523 -0.0619
 9420SOL    HW139719   3.127   0.208   7.607 -0.8682 -1.4052 -1.1095
 9420SOL    HW239720   3.069   0.223   7.471 -0.4345 -2.3970  1.4682
 9421SOL     OW39721   0.596   0.999   1.970 -0.3626 -0.0204 -0.0165
 9421SOL    HW139722   0.646   0.932   1.924  0.8025 -0.0133  1.2512
 9421SOL    HW239723   0.668   1.027   2.026  1.2035 -1.0680 -1.5132
 9422SOL     OW39724   0.878   1.237  16.750 -0.2857 -1.1764 -0.0726
 9422SOL    HW139725   0.879   1.197  16.663  1.0956  2.3941 -1.6924
 9422SOL    HW239726   0.900   1.326  16.726  1.2733 -1.4930  0.2187
 9423SOL     OW39727   3.908   2.493  10.540  0.0515 -0.1563  0.0530
 9423SOL    HW139728   3.891   2.543  10.620 -0.9773  0.6220 -0.6602
 9423SOL    HW239729   4.001   2.516  10.539 -0.1023  0.2714 -2.5972
 9424SOL     OW39730   0.561   1.454   2.596 -0.2748 -1.6369  0.2703
 9424SOL    HW139731   0.603   1.500   2.668 -0.9056  0.2805 -0.5684
 9424SOL    HW239732   0.635   1.412   2.553  0.2877  1.0172 -1.3776
 9425SOL     OW39733   1.255   2.907   4.636  0.1868  0.1149  0.2300
 9425SOL    HW139734   1.175   2.894   4.585 -0.4194 -1.1144  1.4751
 9425SOL    HW239735   1.322   2.902   4.569  1.0684 -2.8544  1.3500
 9426SOL     OW39736   0.501   4.536  10.104 -0.1457  0.3031  0.4720
 9426SOL    HW139737   0.484   4.504  10.192  1.8786 -2.6797 -0.2315
 9426SOL    HW239738   0.514   4.452  10.061 -0.3310 -0.1086  1.2338
 9427SOL     OW39739   2.227   2.350   5.394  0.1578 -0.2775 -0.3263
 9427SOL    HW139740   2.198   2.440   5.404  0.1260 -0.2113 -1.0256
 9427SOL    HW239741   2.191   2.313   5.475 -1.1690  1.0763 -0.3007
 9428SOL     OW39742   2.934   2.176   6.972 -0.1059 -0.4213  0.6878
 9428SOL    HW139743   2.903   2.253   6.924  1.0723 -0.8225 -0.7355
 9428SOL    HW239744   2.856   2.140   7.012 -0.3216 -1.1616 -0.3965
 9429SOL     OW39745   4.654   1.704   2.742  0.4380 -0.2039 -0.0300
 9429SOL    HW139746   4.579   1.691   2.684 -0.2915 -1.8714  1.2856
 9429SOL    HW239747   4.674   1.797   2.730 -1.3381  0.3371  1.1942
 9430SOL     OW39748   2.104   4.180   0.300 -0.1992  0.3030 -0.4097
 9430SOL    HW139749   2.150   4.260   0.276  0.9071 -0.5923 -1.2649
 9430SOL    HW239750   2.011   4.198   0.288 -0.4927 -0.6959  0.3146
 9431SOL     OW39751   0.828   2.985   3.647  0.0409 -0.2577 -0.3483
 9431SOL    HW139752   0.805   2.962   3.737 -0.0244  0.3917 -0.1997
 9431SOL    HW239753   0.740   2.999   3.611 -0.2868 -1.2750  0.0499
 9432SOL     OW39754   1.356   2.573   2.402  0.3977  0.0073  0.2639
 9432SOL    HW139755   1.397   2.580   2.316 -1.6318  1.9614 -0.5442
 9432SOL    HW239756   1.396   2.648   2.447  0.9246 -1.1947  1.7970
 9433SOL     OW39757   1.999   2.875   9.599 -0.2322 -0.9195  0.6042
 9433SOL    HW139758   2.028   2.789   9.567  0.7128  0.8384 -3.2955
 9433SOL    HW239759   2.050   2.896   9.677  0.4117 -1.0449  0.2223
 9434SOL     OW39760   2.605   0.113   3.433  0.6240  0.2024  0.5644
 9434SOL    HW139761   2.688   0.070   3.411  1.0879  1.3064  0.1483
 9434SOL    HW239762   2.624   0.207   3.442 -0.1497  0.3009  1.1131
 9435SOL     OW39763   0.805   0.116   7.165 -0.1826 -0.2045  0.1520
 9435SOL    HW139764   0.851   0.034   7.146 -1.1585 -0.3731 -1.5134
 9435SOL    HW239765   0.794   0.106   7.259  2.4742  0.9212  0.5644
 9436SOL     OW39766   3.918   0.493   3.349  0.2926 -0.0619 -0.0131
 9436SOL    HW139767   3.941   0.539   3.268 -1.3823  1.0768  0.1634
 9436SOL    HW239768   3.825   0.473   3.338  0.2680  0.2689 -0.4617
 9437SOL     OW39769   1.728   1.137   4.873 -0.4820  0.6264 -0.2517
 9437SOL    HW139770   1.660   1.167   4.813 -1.8941 -2.4340 -0.1788
 9437SOL    HW239771   1.752   1.222   4.910  1.7582  1.1308 -2.9361
 9438SOL     OW39772   4.359   1.682  15.927 -0.1468 -0.4951 -0.1004
 9438SOL    HW139773   4.391   1.721  16.009 -1.7606 -0.1979  0.3742
 9438SOL    HW239774   4.435   1.663  15.872  0.7592  1.4534  0.4455
 9439SOL     OW39775   0.256   3.536   9.323 -0.1534  0.2191  0.0056
 9439SOL    HW139776   0.272   3.497   9.237  0.6120  0.6458 -0.0466
 9439SOL    HW239777   0.284   3.463   9.380  2.8460  1.3337 -0.0381
 9440SOL     OW39778   0.366   4.668  10.818  0.1722  0.1824  1.0234
 9440SOL    HW139779   0.419   4.702  10.890  0.8340  1.2993  0.0089
 9440SOL    HW239780   0.284   4.710  10.845 -1.5210 -0.8510 -2.5003
 9441SOL     OW39781   1.952   2.596   3.137 -0.6511  0.1625  0.3811
 9441SOL    HW139782   2.038   2.613   3.098 -1.5505  0.5026 -1.4104
 9441SOL    HW239783   1.887   2.620   3.071 -0.9910 -1.9882 -0.0625
 9442SOL     OW39784   1.295   4.417  10.137  0.4585 -0.5663  0.3564
 9442SOL    HW139785   1.362   4.397  10.071 -1.5436 -3.0610 -0.8964
 9442SOL    HW239786   1.230   4.357  10.102 -0.0835 -1.6038  3.1725
 9443SOL     OW39787   2.404   2.685   3.851  0.2906  0.1597  0.1895
 9443SOL    HW139788   2.324   2.710   3.898 -0.8784 -2.0527 -0.6353
 9443SOL    HW239789   2.463   2.677   3.926 -1.9552  1.8021  2.1699
 9444SOL     OW39790   4.046   1.571  17.436  0.3362 -0.1617 -0.2290
 9444SOL    HW139791   4.088   1.648  17.474  1.3803 -1.8155  1.9128
 9444SOL    HW239792   4.010   1.620  17.361 -0.2798  0.0556  0.2093
 9445SOL     OW39793   0.977   3.666   7.619  0.1858 -0.6680 -0.3356
 9445SOL    HW139794   0.954   3.755   7.646  3.8534 -0.5711  2.4226
 9445SOL    HW239795   0.912   3.643   7.552  2.6291 -3.2336 -1.8167
 9446SOL     OW39796   1.470   3.808   4.469  0.0080  0.1716 -0.0540
 9446SOL    HW139797   1.517   3.773   4.545 -1.2067 -0.2686  0.4994
 9446SOL    HW239798   1.458   3.728   4.420  2.1034 -0.2390  0.1060
 9447SOL     OW39799   0.702   0.462  17.288 -0.1695 -0.3356  0.1078
 9447SOL    HW139800   0.715   0.553  17.314 -1.0140 -0.5664  1.3478
 9447SOL    HW239801   0.607   0.459  17.281 -0.2303  1.6004  0.2216
 9448SOL     OW39802   0.828   1.805   2.454  0.3143  0.3447 -0.0930
 9448SOL    HW139803   0.840   1.825   2.362  0.2738 -0.3019 -0.2342
 9448SOL    HW239804   0.862   1.886   2.492  0.3134  0.0119  0.6157
 9449SOL     OW39805   0.683   3.423   7.330 -0.2172 -0.4582 -0.2335
 9449SOL    HW139806   0.754   3.359   7.318 -0.0541 -0.7947  2.5787
 9449SOL    HW239807   0.607   3.377   7.294 -0.3557 -0.4834  0.0909
 9450SOL     OW39808   0.608   3.717   5.522 -0.2634  0.5985 -0.3044
 9450SOL    HW139809   0.522   3.679   5.507  0.8580 -2.0406 -0.0885
 9450SOL    HW239810   0.656   3.643   5.559 -0.8052  0.3179 -0.1637
 9451SOL     OW39811   2.613   2.410   3.022 -0.0309  0.1541 -0.2088
 9451SOL    HW139812   2.579   2.465   3.093 -0.5529 -0.4033 -0.0280
 9451SOL    HW239813   2.633   2.486   2.967  1.2152  0.4845  0.6809
 9452SOL     OW39814   2.460   4.096   4.037 -0.0166 -0.6591 -0.2583
 9452SOL    HW139815   2.379   4.140   4.063  0.8269  0.4125  0.5582
 9452SOL    HW239816   2.431   4.024   3.981 -0.9432 -0.5117  0.0325
 9453SOL     OW39817   1.780   4.015   4.658  0.3167 -0.1226 -0.3325
 9453SOL    HW139818   1.791   3.934   4.708 -2.0269 -0.3882 -0.2601
 9453SOL    HW239819   1.860   4.014   4.604 -0.0441  1.9675 -0.9173
 9454SOL     OW39820   0.462   0.698   5.619  0.1323  0.2597 -0.0584
 9454SOL    HW139821   0.403   0.749   5.562  0.6964  1.3671  0.3446
 9454SOL    HW239822   0.540   0.752   5.628  1.2974 -1.5549  0.5839
 9455SOL     OW39823   4.085   1.473   9.292 -0.1753  0.0684  0.1447
 9455SOL    HW139824   4.128   1.389   9.304  0.3099  0.5630  1.9042
 9455SOL    HW239825   4.117   1.518   9.370  0.2844  1.0857 -0.6395
 9456SOL     OW39826   0.758   2.658   4.511 -0.3441 -0.6212  0.6004
 9456SOL    HW139827   0.820   2.660   4.438  0.9957  0.7421  1.7860
 9456SOL    HW239828   0.726   2.569   4.498  3.9350 -2.1361  0.3208
 9457SOL     OW39829   1.823   3.935  16.516 -0.8424 -0.5150 -0.9210
 9457SOL    HW139830   1.850   3.858  16.467 -0.9339 -1.2280  0.1468
 9457SOL    HW239831   1.742   3.910  16.560 -0.3290 -1.4090 -0.4869
 9458SOL     OW39832   3.191   0.879   1.593  0.3702  0.0528 -0.2456
 9458SOL    HW139833   3.133   0.952   1.571  0.0666 -0.3895 -0.8937
 9458SOL    HW239834   3.192   0.844   1.504  0.5589  1.3673 -0.7587
 9459SOL     OW39835   3.874   1.383  13.606  0.0978  0.2119 -0.1255
 9459SOL    HW139836   3.834   1.333  13.678 -2.9848 -1.3826 -2.9205
 9459SOL    HW239837   3.921   1.316  13.556 -3.1388 -2.4399  0.3556
 9460SOL     OW39838   3.076   4.545  16.956  0.9822  0.0504  0.0733
 9460SOL    HW139839   3.054   4.460  16.994 -0.3105  0.8385  1.0843
 9460SOL    HW239840   3.134   4.521  16.884  0.5521 -2.1121  0.4596
 9461SOL     OW39841   4.698   0.811   6.472 -0.8047 -0.2228 -1.1236
 9461SOL    HW139842   4.688   0.892   6.522 -2.2170 -1.9953  1.4986
 9461SOL    HW239843   4.611   0.771   6.477 -1.1962  0.7778  0.0510
 9462SOL     OW39844   3.042   0.562   8.814 -0.5003  0.5359  0.0467
 9462SOL    HW139845   3.058   0.657   8.814 -0.4385  0.5287  0.8264
 9462SOL    HW239846   2.985   0.552   8.739 -0.5702 -0.4327  0.2294
 9463SOL     OW39847   3.774   0.930   4.746 -0.2145  0.6121  0.6532
 9463SOL    HW139848   3.724   0.992   4.798  0.2804  0.8653  0.8276
 9463SOL    HW239849   3.845   0.985   4.713  1.5352 -0.7592  2.1216
 9464SOL     OW39850   1.542   1.957   7.115 -0.2243 -0.0841  0.4159
 9464SOL    HW139851   1.629   1.917   7.118  0.6271  1.5115 -2.1028
 9464SOL    HW239852   1.500   1.909   7.186 -0.5980  1.1667  1.0488
 9465SOL     OW39853   3.963   3.318  15.273 -0.0309 -0.8616  0.4669
 9465SOL    HW139854   3.996   3.332  15.362 -0.9151 -2.4146  1.0411
 9465SOL    HW239855   4.035   3.354  15.221 -0.9258  0.2472 -0.0148
 9466SOL     OW39856   3.662   3.158   5.035 -0.3322  0.6688  0.2492
 9466SOL    HW139857   3.604   3.106   4.979  0.0755 -1.2760  1.6493
 9466SOL    HW239858   3.620   3.242   5.016  1.3448  1.5509  0.5281
 9467SOL     OW39859   3.694   0.900  12.989  0.0489  0.1675  0.1079
 9467SOL    HW139860   3.779   0.910  12.946  0.4726 -1.2368  0.5964
 9467SOL    HW239861   3.651   0.983  12.967 -2.5123 -0.6121  2.1504
 9468SOL     OW39862   1.369   1.819   2.292 -0.2011 -0.2281  0.0889
 9468SOL    HW139863   1.459   1.788   2.288 -0.2857 -0.4237 -0.3246
 9468SOL    HW239864   1.343   1.769   2.370 -0.0184  1.2825  1.1122
 9469SOL     OW39865   0.975   2.987   6.976  0.0147  0.1698 -0.1247
 9469SOL    HW139866   0.966   3.082   6.983 -1.3731  0.2479 -2.6594
 9469SOL    HW239867   0.939   2.957   7.060  0.3274 -0.2844 -0.1555
 9470SOL     OW39868   0.790   4.402   5.101 -0.5851  0.4389 -0.1527
 9470SOL    HW139869   0.804   4.319   5.147  0.2469  0.5735 -0.1765
 9470SOL    HW239870   0.828   4.473   5.152 -2.1484  1.0963  0.0934
 9471SOL     OW39871   3.313   0.468  15.432  0.1879 -0.3097 -0.4253
 9471SOL    HW139872   3.375   0.537  15.407  0.2351 -1.0322 -2.3213
 9471SOL    HW239873   3.275   0.459  15.344 -0.5394  1.0178 -0.2601
 9472SOL     OW39874   0.205   2.673   8.357 -0.2263  0.1944 -0.0550
 9472SOL    HW139875   0.259   2.709   8.287  0.7451 -2.4204 -0.6163
 9472SOL    HW239876   0.251   2.723   8.426 -1.3673  0.7084  0.3271
 9473SOL     OW39877   1.665   3.023   3.163  0.3446  0.2581  0.1401
 9473SOL    HW139878   1.757   3.048   3.151  0.0724  0.7454 -0.9010
 9473SOL    HW239879   1.662   3.016   3.259 -0.9067 -1.7618 -0.0363
 9474SOL     OW39880   3.594   1.722   6.868  0.7102  0.3666 -0.0860
 9474SOL    HW139881   3.515   1.717   6.813  0.1766  0.0249  0.7066
 9474SOL    HW239882   3.650   1.671   6.809 -0.9007 -2.3275  0.6998
 9475SOL     OW39883   4.669   1.963  11.283  0.2958  0.3591 -0.2076
 9475SOL    HW139884   4.669   1.867  11.274  0.0165  0.3102  0.2666
 9475SOL    HW239885   4.600   1.990  11.223 -0.6709 -0.6735  0.4363
 9476SOL     OW39886   2.055   4.139   0.836  0.3251  0.0088 -0.2240
 9476SOL    HW139887   2.078   4.144   0.744  0.6121 -1.1061 -0.2069
 9476SOL    HW239888   1.961   4.123   0.832  0.2936 -0.3282  1.5640
 9477SOL     OW39889   4.672   1.759   8.976  0.1765  0.0336 -0.2888
 9477SOL    HW139890   4.676   1.834   9.034 -0.7531 -0.2681  0.1628
 9477SOL    HW239891   4.578   1.738   8.980  0.6090 -1.4261  1.9548
 9478SOL     OW39892   3.556   1.596  13.009 -0.3090 -0.3387  0.5618
 9478SOL    HW139893   3.508   1.514  12.991 -3.0058  1.3387  0.0676
 9478SOL    HW239894   3.530   1.647  12.932 -1.7722  1.3434  2.1656
 9479SOL     OW39895   2.362   1.652   2.753 -0.2722  0.3595 -0.3480
 9479SOL    HW139896   2.295   1.592   2.787 -2.0054  0.9266 -2.7664
 9479SOL    HW239897   2.386   1.625   2.664  0.3831 -2.7518  0.7780
 9480SOL     OW39898   0.409   3.134   1.798  0.8787  0.3331 -0.4980
 9480SOL    HW139899   0.491   3.085   1.788  1.3828  1.3282 -1.2577
 9480SOL    HW239900   0.410   3.165   1.708 -1.5664  1.5810 -0.0862
 9481SOL     OW39901   3.642   3.127  10.148 -0.2849 -0.2776 -0.3740
 9481SOL    HW139902   3.697   3.149  10.224 -0.6639  0.0882 -0.2017
 9481SOL    HW239903   3.635   3.217  10.116  1.6806 -0.9027 -2.5555
 9482SOL     OW39904   4.250   2.048   6.591 -0.2937 -0.0437  0.5688
 9482SOL    HW139905   4.166   2.081   6.624 -0.4057  0.3324 -0.0883
 9482SOL    HW239906   4.284   2.113   6.529  0.6064 -0.7403  0.3318
 9483SOL     OW39907   3.240   1.264  17.093  0.5575 -0.0985 -0.0649
 9483SOL    HW139908   3.336   1.260  17.100  0.4828 -2.0779 -0.1710
 9483SOL    HW239909   3.223   1.340  17.149  1.6673  2.1884 -2.8580
 9484SOL     OW39910   3.260   1.006   8.256 -0.4615 -0.4831 -0.3073
 9484SOL    HW139911   3.295   1.030   8.342  0.5075 -0.6013 -0.6715
 9484SOL    HW239912   3.249   0.911   8.266 -1.1189 -0.4038 -0.2422
 9485SOL     OW39913   1.494   4.275  10.768 -0.1564  0.8364 -0.3582
 9485SOL    HW139914   1.571   4.325  10.798  0.6387 -0.7376  0.2026
 9485SOL    HW239915   1.429   4.306  10.831 -1.3739 -0.1644 -1.1448
 9486SOL     OW39916   1.261   1.492  11.119  0.1340  0.2640  0.1727
 9486SOL    HW139917   1.329   1.559  11.126 -0.4032  0.9316 -0.9086
 9486SOL    HW239918   1.266   1.465  11.027  1.5989 -0.1161  0.3718
 9487SOL     OW39919   2.587   1.597   2.296 -0.5266  0.0084 -0.0520
 9487SOL    HW139920   2.660   1.598   2.234 -1.5375 -0.2362 -1.2230
 9487SOL    HW239921   2.510   1.616   2.243 -0.0517  2.1667 -0.0054
 9488SOL     OW39922   0.173   4.364   7.710 -0.4569  0.1987 -0.4929
 9488SOL    HW139923   0.213   4.316   7.782  0.2339  2.9811  0.9750
 9488SOL    HW239924   0.118   4.429   7.754 -1.2460 -0.7666 -0.0463
 9489SOL     OW39925   2.960   3.383   7.910  0.7294 -0.3318  0.0561
 9489SOL    HW139926   3.028   3.355   7.971 -2.0800 -1.0501  2.8545
 9489SOL    HW239927   3.006   3.359   7.829  1.1378  1.9404 -0.3948
 9490SOL     OW39928   1.340   0.015   8.615 -0.3773 -0.3591  0.1047
 9490SOL    HW139929   1.269   0.048   8.560 -0.2539  0.3776  0.3785
 9490SOL    HW239930   1.401   4.714   8.546  1.8099  1.3660  1.3489
 9491SOL     OW39931   3.916   1.017  10.595  0.2018  0.3393  0.2814
 9491SOL    HW139932   3.854   1.062  10.652  0.8883  0.5588  0.8583
 9491SOL    HW239933   3.972   1.094  10.586  0.7205 -0.1381 -0.5980
 9492SOL     OW39934   2.522   3.011   6.099  0.6216  0.0925 -0.2040
 9492SOL    HW139935   2.520   3.103   6.126 -1.8823 -0.0629  0.1787
 9492SOL    HW239936   2.450   2.971   6.149 -1.0997  0.8861 -2.0697
 9493SOL     OW39937   2.544   1.780   7.413  1.0569 -0.1201  0.4497
 9493SOL    HW139938   2.624   1.776   7.362 -0.6029 -0.0148 -2.1809
 9493SOL    HW239939   2.515   1.869   7.390 -1.5343 -0.4019  2.6668
 9494SOL     OW39940   3.695   1.229  14.066  0.1287 -0.2993  0.0628
 9494SOL    HW139941   3.608   1.190  14.075  0.4455 -1.0133 -0.0262
 9494SOL    HW239942   3.678   1.316  14.028  0.7307 -0.5569 -0.7834
 9495SOL     OW39943   0.836   0.731   9.233 -1.2283 -0.2157 -0.2249
 9495SOL    HW139944   0.928   0.749   9.215 -1.2040  0.2751  0.3777
 9495SOL    HW239945   0.787   0.746   9.152 -1.5356  0.7992  0.1443
 9496SOL     OW39946   3.443   3.616   1.885 -0.0080 -0.0249  0.8121
 9496SOL    HW139947   3.347   3.604   1.882  0.0999 -0.5440 -0.5860
 9496SOL    HW239948   3.473   3.593   1.974  2.8341  4.7656  1.0462
 9497SOL     OW39949   3.314   3.601   1.154 -0.3579 -0.6920  0.4105
 9497SOL    HW139950   3.288   3.584   1.063 -0.6338 -2.9477  0.9055
 9497SOL    HW239951   3.364   3.682   1.146 -1.1861 -0.0210  2.0642
 9498SOL     OW39952   2.979   4.057  11.551 -0.5434  0.2086 -0.4950
 9498SOL    HW139953   3.038   4.022  11.484 -0.4617 -3.9568  1.7768
 9498SOL    HW239954   3.020   4.141  11.570  1.2351 -1.1001  1.4843
 9499SOL     OW39955   0.424   2.260   2.103 -0.1688  0.0083 -0.0807
 9499SOL    HW139956   0.459   2.347   2.122  0.7316 -0.3081 -0.3121
 9499SOL    HW239957   0.474   2.215   2.171 -0.2488 -0.2453 -0.1882
 9500SOL     OW39958   3.069   0.373  12.158 -0.0796  0.0401 -0.0579
 9500SOL    HW139959   3.098   0.344  12.245 -2.2730 -0.8089  0.3800
 9500SOL    HW239960   3.064   0.287  12.116  0.7469 -0.8286  1.5749
 9501SOL     OW39961   0.656   4.368   3.887 -0.5438 -0.2391 -0.0738
 9501SOL    HW139962   0.583   4.374   3.825 -1.0363  2.4608  0.8033
 9501SOL    HW239963   0.697   4.285   3.864  0.1307  0.5854 -1.8062
 9502SOL     OW39964   2.531   0.956   6.946 -1.0879  0.7877  0.2118
 9502SOL    HW139965   2.586   1.028   6.913  0.9505 -1.2815 -0.9344
 9502SOL    HW239966   2.544   0.956   7.041 -1.1362  1.5862  0.2189
 9503SOL     OW39967   0.477   0.832   2.294  0.2359 -0.4930 -0.1018
 9503SOL    HW139968   0.454   0.740   2.312 -1.8603  0.2294  0.9042
 9503SOL    HW239969   0.436   0.837   2.208 -0.2533 -0.1334  0.1565
 9504SOL     OW39970   1.323   4.286   8.243 -0.2082  0.2625  0.1605
 9504SOL    HW139971   1.298   4.264   8.333 -0.4719  0.1768  0.0654
 9504SOL    HW239972   1.395   4.227   8.223 -1.4610 -1.5825  1.0584
 9505SOL     OW39973   0.730   3.537   6.682  0.1567  0.3553 -0.3396
 9505SOL    HW139974   0.809   3.590   6.688 -0.4295  1.2423 -0.4604
 9505SOL    HW239975   0.712   3.566   6.592  0.5924  2.1059  0.1361
 9506SOL     OW39976   3.228   1.481   9.366 -0.0428 -0.5466 -0.7649
 9506SOL    HW139977   3.212   1.567   9.404  1.5735 -1.0507  1.0377
 9506SOL    HW239978   3.300   1.444   9.418  1.5466  2.7212 -0.6061
 9507SOL     OW39979   3.955   1.440  11.703 -0.3503 -0.0161 -1.1440
 9507SOL    HW139980   4.000   1.362  11.735  1.4370  2.4180  2.2638
 9507SOL    HW239981   4.025   1.505  11.711 -1.0638  0.6893 -0.5890
 9508SOL     OW39982   1.429   4.081  16.007  0.0503  0.4057 -0.3234
 9508SOL    HW139983   1.374   4.127  15.943  0.0630  0.4961 -0.2694
 9508SOL    HW239984   1.494   4.149  16.024 -0.6236  1.3139 -1.3494
 9509SOL     OW39985   1.171   2.304  15.965 -0.0687  0.5913 -0.3289
 9509SOL    HW139986   1.248   2.356  15.989  0.5286 -0.7252  0.5664
 9509SOL    HW239987   1.204   2.215  15.973 -2.0145 -0.2231 -1.3826
 9510SOL     OW39988   3.437   2.474   7.772  0.4964  0.3972  0.1559
 9510SOL    HW139989   3.435   2.518   7.857 -2.4617 -1.9837  1.3219
 9510SOL    HW239990   3.476   2.534   7.709  1.7767 -2.0565 -1.3693
 9511SOL     OW39991   3.050   1.435   4.865  0.0116  0.3060  0.3268
 9511SOL    HW139992   3.034   1.341   4.861 -0.1063  0.3876 -0.9608
 9511SOL    HW239993   3.081   1.451   4.954 -2.0377  0.2746  1.0551
 9512SOL     OW39994   4.158   2.848  10.178  1.0426 -0.5354 -0.5318
 9512SOL    HW139995   4.188   2.762  10.209  1.6043 -0.8608 -1.9780
 9512SOL    HW239996   4.242   2.887  10.153  1.4054 -0.8085  0.2528
 9513SOL     OW39997   2.233   3.209   7.371  0.0592 -0.0571  1.0580
 9513SOL    HW139998   2.262   3.293   7.406  0.2332  0.6303 -0.7269
 9513SOL    HW239999   2.211   3.245   7.285 -3.6473 -0.2630  1.9438
 9514SOL     OW40000   1.574   0.236   8.176  0.0597  0.1816  0.1661
 9514SOL    HW140001   1.612   0.271   8.095  0.8041  1.7069  1.1745
 9514SOL    HW240002   1.594   0.143   8.168 -2.3022 -0.2926 -0.1537
 9515SOL     OW40003   3.537   1.273   8.927  0.1783 -0.3067 -0.1219
 9515SOL    HW140004   3.453   1.310   8.954  0.9106 -0.6043  2.6281
 9515SOL    HW240005   3.550   1.314   8.842 -0.4626  0.1028 -0.0231
 9516SOL     OW40006   3.736   0.462   9.702 -0.7990  0.5087  0.0167
 9516SOL    HW140007   3.803   0.509   9.751 -0.5292  1.4091 -1.2184
 9516SOL    HW240008   3.738   0.508   9.618 -1.0038  2.1800  0.9405
 9517SOL     OW40009   1.853   1.789   2.207 -0.6087  0.3371 -0.0739
 9517SOL    HW140010   1.891   1.721   2.151 -0.2718 -0.2887  0.9188
 9517SOL    HW240011   1.925   1.851   2.205 -0.0763 -0.2603  0.5038
 9518SOL     OW40012   2.384   1.925   5.891  0.0023  0.5638 -0.1074
 9518SOL    HW140013   2.341   1.843   5.867  0.7011  0.2503 -0.3031
 9518SOL    HW240014   2.326   1.955   5.961 -0.5344 -0.0265 -0.3037
 9519SOL     OW40015   2.782   4.372   4.848 -0.1597 -0.8454 -0.0395
 9519SOL    HW140016   2.711   4.432   4.825 -0.5716 -0.9683  0.9085
 9519SOL    HW240017   2.753   4.286   4.817 -1.4124 -0.4655  0.0611
 9520SOL     OW40018   3.553   1.616   7.409 -0.1567  0.1591  0.3673
 9520SOL    HW140019   3.493   1.625   7.483  0.8490  1.1067  1.0787
 9520SOL    HW240020   3.596   1.535   7.435 -0.6088  0.5627  2.3757
 9521SOL     OW40021   1.667   0.034   9.496 -0.3243  0.6383  0.4187
 9521SOL    HW140022   1.656   0.083   9.577 -2.3888  0.9815 -0.0568
 9521SOL    HW240023   1.747   4.707   9.495 -1.6502 -1.3570 -0.6383
 9522SOL     OW40024   4.009   2.423   2.672  0.3209  0.0247  0.1156
 9522SOL    HW140025   4.051   2.457   2.751  1.0031 -4.0447  1.4700
 9522SOL    HW240026   3.919   2.395   2.688  0.1826  0.9216  0.9406
 9523SOL     OW40027   1.380   1.156   3.710  0.3247  0.3974  0.4056
 9523SOL    HW140028   1.367   1.251   3.718  1.6288  0.6608 -0.6021
 9523SOL    HW240029   1.473   1.159   3.689  0.0817 -0.1164 -0.7023
 9524SOL     OW40030   2.411   3.569   7.453 -0.0796 -0.3040  0.0669
 9524SOL    HW140031   2.331   3.575   7.505 -1.0696 -0.7575 -1.4081
 9524SOL    HW240032   2.470   3.633   7.494  0.3018 -0.6579  0.0668
 9525SOL     OW40033   4.096   2.585  13.365  0.3020 -0.4779 -0.1858
 9525SOL    HW140034   4.101   2.575  13.270  0.5540  1.2006 -0.3341
 9525SOL    HW240035   4.185   2.617  13.376 -0.8081  1.5566  2.7897
 9526SOL     OW40036   4.030   4.005   0.559  0.1996  0.0812  0.5388
 9526SOL    HW140037   3.955   3.986   0.502 -0.6059 -1.1120  2.0110
 9526SOL    HW240038   4.060   4.092   0.532 -0.7937  1.4679  3.9439
 9527SOL     OW40039   2.550   2.711   0.268  0.8311 -0.1658 -0.0464
 9527SOL    HW140040   2.462   2.715   0.305  1.6213 -0.4179  1.8287
 9527SOL    HW240041   2.532   2.716   0.174 -1.4185  2.8725  0.5683
 9528SOL     OW40042   2.542   1.477   6.717 -0.1408  0.1760 -0.4991
 9528SOL    HW140043   2.589   1.559   6.734 -0.1392 -0.1121  0.9202
 9528SOL    HW240044   2.486   1.474   6.794  2.8698  1.7052  1.7650
 9529SOL     OW40045   2.702   3.055   8.879  0.5826 -0.4762  0.2841
 9529SOL    HW140046   2.699   3.151   8.882  2.3562 -0.4328  0.5440
 9529SOL    HW240047   2.793   3.042   8.853  0.3861 -2.7038  0.7222
 9530SOL     OW40048   3.523   2.595   4.756  0.6847 -0.1432  0.0984
 9530SOL    HW140049   3.549   2.684   4.733  0.4215 -0.4582 -1.4033
 9530SOL    HW240050   3.599   2.565   4.806  0.8998  0.1258 -0.0645
 9531SOL     OW40051   0.971   3.753   9.419  0.0037 -0.3911 -0.6586
 9531SOL    HW140052   1.056   3.721   9.451  0.2255  0.7664 -0.0816
 9531SOL    HW240053   0.951   3.700   9.342 -1.1144 -1.4166  0.3675
 9532SOL     OW40054   2.655   1.488   8.049 -0.2802 -0.1807 -0.5397
 9532SOL    HW140055   2.563   1.513   8.034 -0.3362 -0.1169 -0.0952
 9532SOL    HW240056   2.676   1.444   7.967 -1.4316 -1.7369 -0.0167
 9533SOL     OW40057   0.737   4.683   3.132 -0.0451  0.0169 -0.3919
 9533SOL    HW140058   0.661   0.002   3.096  0.5045 -0.3652 -2.0273
 9533SOL    HW240059   0.799   4.664   3.061 -0.8074 -1.0199 -0.7797
 9534SOL     OW40060   4.108   2.956   5.831 -0.8221 -0.3223 -0.1617
 9534SOL    HW140061   4.144   2.959   5.743 -0.7975  0.5617 -0.1223
 9534SOL    HW240062   4.028   3.007   5.823  0.4128  1.7621  0.5978
 9535SOL     OW40063   0.209   3.016   6.411 -0.2656  0.5997  0.1963
 9535SOL    HW140064   0.202   2.960   6.334 -1.0517  0.6896  0.2063
 9535SOL    HW240065   0.120   3.048   6.422  0.2403  2.4425 -1.1653
 9536SOL     OW40066   1.517   2.033   3.499  0.4311 -0.0185 -0.5337
 9536SOL    HW140067   1.465   2.114   3.506  0.5082  0.0725 -0.9994
 9536SOL    HW240068   1.608   2.064   3.503  0.6954 -0.7515 -0.9434
 9537SOL     OW40069   2.188   3.668   5.003  0.2831  0.3986  0.3020
 9537SOL    HW140070   2.182   3.688   4.910  0.5267 -1.1930 -0.0545
 9537SOL    HW240071   2.191   3.754   5.043 -2.1241 -0.3237  2.0317
 9538SOL     OW40072   1.014   3.117   1.793 -0.0911 -1.0610  0.1692
 9538SOL    HW140073   1.028   3.151   1.882 -2.1880 -1.9959  0.8548
 9538SOL    HW240074   0.939   3.170   1.766  1.0761  0.5903  0.1321
 9539SOL     OW40075   1.414   4.626   1.780  0.0861 -0.1290  0.2730
 9539SOL    HW140076   1.320   4.613   1.790 -0.4755  2.7251 -1.0994
 9539SOL    HW240077   1.432   4.720   1.792  3.1578 -1.1042  3.3847
 9540SOL     OW40078   2.678   1.011  17.116  0.3408 -0.4771  0.1849
 9540SOL    HW140079   2.650   1.076  17.052  1.4478 -0.6236 -0.4644
 9540SOL    HW240080   2.601   1.010  17.172  1.4814 -2.7952  1.6778
 9541SOL     OW40081   1.449   2.674   5.372 -0.1312  0.1600 -0.0178
 9541SOL    HW140082   1.508   2.653   5.444 -0.3410 -2.2479 -0.5379
 9541SOL    HW240083   1.473   2.601   5.315 -2.4337 -0.1278 -0.6319
 9542SOL     OW40084   3.461   2.675  14.064 -0.2085  0.2875  0.5666
 9542SOL    HW140085   3.522   2.709  14.129  2.5861 -0.7936 -1.4798
 9542SOL    HW240086   3.373   2.697  14.095 -0.3576  1.5258 -0.7334
 9543SOL     OW40087   3.157   1.280   6.503 -0.2272  0.1995  0.1921
 9543SOL    HW140088   3.196   1.260   6.588 -0.4615 -2.4035 -0.3002
 9543SOL    HW240089   3.062   1.270   6.510 -0.2316  0.1214  0.0242
 9544SOL     OW40090   1.371   3.984   8.228 -0.3046 -0.3695  0.2495
 9544SOL    HW140091   1.448   3.929   8.241  1.5073  1.2642 -3.5655
 9544SOL    HW240092   1.349   3.997   8.320  1.7650 -0.6601  0.7920
 9545SOL     OW40093   2.148   2.228   4.745 -0.1206  0.4016 -0.4244
 9545SOL    HW140094   2.107   2.143   4.760 -0.2005  0.5597  0.2185
 9545SOL    HW240095   2.181   2.218   4.655  0.6150 -2.0127  0.0962
 9546SOL     OW40096   4.302   0.079  10.203 -0.2347 -0.1575  0.3552
 9546SOL    HW140097   4.210   0.055  10.212  0.6291 -2.4963  2.7197
 9546SOL    HW240098   4.339   0.012  10.260 -0.3429 -0.7711 -0.2958
 9547SOL     OW40099   1.647   3.928   6.253 -0.4754 -0.6251 -0.4050
 9547SOL    HW140100   1.552   3.921   6.244 -0.3796 -0.2258 -1.7789
 9547SOL    HW240101   1.670   3.838   6.278 -5.0300 -1.2345  1.4628
 9548SOL     OW40102   1.420   2.696   7.455 -0.4476  0.0470 -0.4168
 9548SOL    HW140103   1.396   2.641   7.530  1.3558  1.3672  1.1104
 9548SOL    HW240104   1.491   2.641   7.421  0.0112 -0.1523  0.8552
 9549SOL     OW40105   3.750   3.390   1.876 -0.1523  0.4537  0.3185
 9549SOL    HW140106   3.838   3.428   1.874  1.1368 -2.7108 -2.5230
 9549SOL    HW240107   3.755   3.309   1.825  0.0003  0.2705  0.6250
 9550SOL     OW40108   3.190   1.663   4.770  0.4215 -0.7860  0.5482
 9550SOL    HW140109   3.155   1.582   4.805  0.7618 -1.0302  0.3187
 9550SOL    HW240110   3.241   1.630   4.697  0.7664  0.3034  0.2882
 9551SOL     OW40111   1.867   0.283  15.105  0.1260  0.1180  0.4110
 9551SOL    HW140112   1.786   0.232  15.111  0.6113 -0.5220  1.4654
 9551SOL    HW240113   1.871   0.316  15.015 -1.6313 -1.5332 -0.2840
 9552SOL     OW40114   2.491   3.842  11.045 -0.4023 -0.2383 -0.0034
 9552SOL    HW140115   2.549   3.915  11.022 -0.9586  0.6654  1.5028
 9552SOL    HW240116   2.499   3.839  11.140 -1.8017  0.4261  0.1265
 9553SOL     OW40117   2.088   2.015  17.033  0.2953  0.0619  0.2276
 9553SOL    HW140118   2.177   2.037  17.058  0.5173 -0.8664  0.2798
 9553SOL    HW240119   2.035   2.057  17.100 -0.4357 -0.6317  0.0880
 9554SOL     OW40120   0.875   3.905   6.027  0.2594 -0.3760 -0.1205
 9554SOL    HW140121   0.875   3.976   5.963 -2.5849  2.1786  2.6661
 9554SOL    HW240122   0.786   3.875   6.042 -0.4441  1.4734 -0.5434
 9555SOL     OW40123   1.061   3.716   2.026  0.5365 -0.0593 -0.1759
 9555SOL    HW140124   1.043   3.644   1.965 -1.2702 -1.1113  1.5763
 9555SOL    HW240125   1.128   3.679   2.083  0.0602 -0.3446  0.2029
 9556SOL     OW40126   4.181   3.279   2.564  0.3515  0.4221  0.9044
 9556SOL    HW140127   4.196   3.289   2.658 -1.2478  0.4915  1.1509
 9556SOL    HW240128   4.271   3.292   2.535 -0.2587 -0.8273 -1.5370
 9557SOL     OW40129   1.794   0.522   0.485  0.4618 -0.2124 -0.0909
 9557SOL    HW140130   1.702   0.499   0.474  0.3437 -0.3766  1.1991
 9557SOL    HW240131   1.800   0.558   0.574  1.1340  0.9687 -0.6154
 9558SOL     OW40132   4.061   3.607   2.093 -0.3022 -0.1164 -0.0314
 9558SOL    HW140133   4.068   3.701   2.114 -1.8701  0.3399 -1.5490
 9558SOL    HW240134   3.993   3.596   2.161 -1.3836  0.4668 -1.0177
 9559SOL     OW40135   0.329   3.894   6.125 -0.1681  0.3085 -0.2856
 9559SOL    HW140136   0.241   3.858   6.136 -0.3039  1.1035  1.1955
 9559SOL    HW240137   0.312   3.942   6.044  0.5742  1.7466  0.4275
 9560SOL     OW40138   3.787   4.302   9.401  0.0737  0.3430  0.1307
 9560SOL    HW140139   3.772   4.231   9.463  0.7004 -0.4838 -0.6563
 9560SOL    HW240140   3.861   4.349   9.439  1.9146 -0.4706 -2.3951
 9561SOL     OW40141   0.632   3.859   0.386  0.1709 -0.1594  0.5067
 9561SOL    HW140142   0.723   3.867   0.356 -0.2018 -0.0322 -0.5744
 9561SOL    HW240143   0.641   3.825   0.476  1.6449  2.1468  1.2329
 9562SOL     OW40144   2.792   2.410  16.404  0.4464  0.6817 -0.0532
 9562SOL    HW140145   2.761   2.332  16.451  1.4047 -0.6282 -1.5993
 9562SOL    HW240146   2.806   2.395  16.311  2.2974 -0.1507  0.3613
 9563SOL     OW40147   2.358   2.285   4.262 -0.3189 -0.2613 -0.0633
 9563SOL    HW140148   2.327   2.238   4.184  0.5030 -0.9545  0.0349
 9563SOL    HW240149   2.435   2.236   4.290 -0.0315  0.9448  1.2272
 9564SOL     OW40150   2.227   0.841   2.421 -0.2778 -0.0555 -0.3324
 9564SOL    HW140151   2.319   0.818   2.428 -0.4015 -1.0325 -1.9020
 9564SOL    HW240152   2.214   0.903   2.349  1.3591  1.4727  0.7048
 9565SOL     OW40153   4.400   2.834   1.021 -0.1957 -0.0919  0.2266
 9565SOL    HW140154   4.422   2.779   1.097  0.6178 -0.4002 -0.2211
 9565SOL    HW240155   4.326   2.885   1.053 -0.0660  0.4014 -0.2593
   4.72624   4.72624  17.70605
