Membrane in water
40155
    1TCq1    O1    1   2.086   1.157  11.436  0.6141  0.1073 -0.0112
    1TCq1    C1    2   2.118   1.069  11.534  0.9838 -0.7449 -0.3075
    1TCq1    O2    3   2.052   1.059  11.636 -0.4699 -0.1307 -0.2390
    1TCq1    C2    4   2.264   1.053  11.531 -0.2897 -0.2455  0.0726
    1TCq1    C3    5   2.337   1.069  11.414  0.3598  0.3887  0.1451
    1TCq1    C4    6   2.466   1.027  11.408  0.4026 -0.1619  0.2587
    1TCq1    C5    7   2.532   0.984  11.523  0.3114  0.8671  0.2158
    1TCq1    C6    8   2.458   0.962  11.634 -0.3700 -0.0725 -0.2461
    1TCq1    C7    9   2.323   1.000  11.639 -0.1120  0.1171  0.1467
    1TCq1    C8   10   2.513   0.895  11.752 -0.1186 -0.5162 -0.4427
    1TCq1    O4   11   2.439   0.896  11.851 -0.1164 -0.4714  0.7065
    1TCq1    C9   12   2.541   1.057  11.285  0.6374  0.4497  0.0139
    1TCq1    O5   13   2.661   1.024  11.290 -0.5066  0.0119  0.3196
    1TCq1    O6   14   2.488   1.119  11.192  0.2592  0.3925 -0.1741
    1TCq1    H1   15   2.144   1.158  11.356 -1.2760  1.2721 -1.3528
    1TCq1    H2   16   2.290   1.098  11.321 -1.0662 -0.4618  0.6039
    1TCq1    H3   17   2.638   0.967  11.511  0.1399  0.1797 -0.3070
    1TCq1    H4   18   2.262   0.984  11.727 -0.4441  0.0778 -0.0926
    2MPD2     C   19   2.834   0.574  11.975  0.7350  0.5990  0.0870
    2MPD2    C1   20   2.738   0.653  12.033  0.8867  0.0605  0.3041
    2MPD2    C2   21   2.650   0.727  11.953 -0.0901 -0.3525  0.4795
    2MPD2    C3   22   2.678   0.724  11.815  0.4338 -0.2793  0.0747
    2MPD2    C4   23   2.781   0.646  11.765  0.3322 -0.0665  0.1098
    2MPD2    C5   24   2.864   0.573  11.845 -0.4658 -0.2435 -0.3881
    2MPD2     H   25   2.568   0.784  11.995 -1.9959 -2.0488 -0.8886
    2MPD2    H1   26   2.805   0.647  11.659 -0.2881  1.8670 -0.0156
    2MPD2    H2   27   2.901   0.520  12.040 -0.3663 -1.0745 -0.1560
    2MPD2    H3   28   2.951   0.522  11.806  0.7339 -0.3148  2.3894
    2MPD2     N   29   2.606   0.802  11.715  0.4394 -0.1659  0.0699
    2MPD2    H5   30   2.628   0.795  11.616 -1.0803 -0.4462 -0.2554
    2MPD2    N1   31   2.722   0.680  12.170  0.2375 -0.2092  0.0568
    2MPD2    H7   32   2.645   0.744  12.187  1.3368  2.1417 -3.9538
    3TCq1    O1   33   1.581   1.407   9.934  0.3204 -0.0057 -0.0390
    3TCq1    C1   34   1.532   1.408  10.059 -0.4194 -0.3830  0.0772
    3TCq1    O2   35   1.438   1.339  10.097  0.4367 -0.4831 -0.2389
    3TCq1    C2   36   1.531   1.545  10.098 -0.0608 -0.1100 -0.5552
    3TCq1    C3   37   1.653   1.587  10.142  0.3816 -0.8638 -0.1793
    3TCq1    C4   38   1.662   1.710  10.198 -0.0148 -0.2945  0.1259
    3TCq1    C5   39   1.551   1.790  10.203  0.5640 -0.5715  0.4550
    3TCq1    C6   40   1.423   1.739  10.169 -0.0700 -0.9887 -1.0412
    3TCq1    C7   41   1.414   1.606  10.132  0.3505 -0.2176  0.3075
    3TCq1    C8   42   1.298   1.796  10.219  0.2023 -0.1511 -0.4689
    3TCq1    O4   43   1.194   1.747  10.178  0.8222 -0.3716 -0.1311
    3TCq1    C9   44   1.796   1.759  10.224  0.2859  0.4316  1.3718
    3TCq1    O5   45   1.896   1.698  10.179 -0.6298 -0.1753  0.1260
    3TCq1    O6   46   1.800   1.867  10.292  0.3299  0.1931 -0.5181
    3TCq1    H1   47   1.658   1.467   9.935 -0.6201  1.1902  2.1625
    3TCq1    H2   48   1.738   1.520  10.134  0.6360 -0.7240  1.3472
    3TCq1    H3   49   1.566   1.893  10.234 -1.1994 -0.0079 -0.5836
    3TCq1    H4   50   1.318   1.569  10.097  0.3365  0.5658 -0.4937
    4MPD2     C   51   1.068   2.204  10.435  0.6535  0.2177 -0.3532
    4MPD2    C1   52   1.208   2.213  10.453  0.0312  0.3397 -0.1794
    4MPD2    C2   53   1.284   2.109  10.416  0.3643 -0.7209  0.6267
    4MPD2    C3   54   1.225   2.004  10.341  0.3448  0.5843 -0.1447
    4MPD2    C4   55   1.091   1.999  10.314  0.2389 -0.1749  0.2210
    4MPD2    C5   56   1.015   2.101  10.367 -0.1982 -0.1849 -0.4080
    4MPD2     H   57   1.392   2.108  10.427  0.3303  1.9320  1.0753
    4MPD2    H1   58   1.041   1.925  10.253  0.7783 -1.2887  1.1262
    4MPD2    H2   59   1.000   2.276  10.480 -0.8457 -0.4146 -1.5837
    4MPD2    H3   60   0.906   2.096  10.361 -0.1124 -1.2224 -1.1603
    4MPD2     N   61   1.321   1.904  10.299 -0.3453  0.2873  0.9600
    4MPD2    H5   62   1.416   1.932  10.319 -0.2291  1.4763 -1.2535
    4MPD2    N1   63   1.269   2.319  10.512  0.2656  1.0753  0.0594
    4MPD2    H7   64   1.369   2.321  10.530  0.3673 -0.4171 -0.3669
    5TCq1    O1   65   2.851   3.398  12.076 -0.2350  0.8141  0.3985
    5TCq1    C1   66   2.843   3.425  11.945  0.5426 -0.6732  0.3042
    5TCq1    O2   67   2.917   3.374  11.862 -0.4431 -0.3612 -0.0902
    5TCq1    C2   68   2.717   3.483  11.906 -0.5024  1.2349 -0.1324
    5TCq1    C3   69   2.633   3.544  11.995 -0.8745  0.2894  0.2154
    5TCq1    C4   70   2.512   3.591  11.947 -0.1971  0.3636 -0.5378
    5TCq1    C5   71   2.479   3.587  11.816 -0.0536 -0.9821  0.3061
    5TCq1    C6   72   2.563   3.527  11.731  1.5106 -0.0347  0.8611
    5TCq1    C7   73   2.680   3.469  11.774 -0.0401 -0.2277 -0.0988
    5TCq1    C8   74   2.544   3.536  11.591  0.2150 -0.1731 -0.1459
    5TCq1    O4   75   2.602   3.460  11.519  0.3524 -0.3603 -0.1387
    5TCq1    C9   76   2.411   3.642  12.032  0.4751 -0.2855 -0.1423
    5TCq1    O5   77   2.428   3.614  12.152  0.0393 -0.0319  0.0670
    5TCq1    O6   78   2.302   3.678  11.984  0.9854 -0.1808 -0.4192
    5TCq1    H1   79   2.763   3.415  12.115 -0.5931  0.1259 -0.1033
    5TCq1    H2   80   2.665   3.574  12.095  2.2064  1.5735 -1.1729
    5TCq1    H3   81   2.379   3.610  11.782  0.1736  0.6971  0.7719
    5TCq1    H4   82   2.741   3.415  11.703  2.0471  0.3133  1.2870
    6MPD2     C   83   2.326   3.769  11.408 -0.5377 -0.2160 -0.2700
    6MPD2    C1   84   2.416   3.672  11.419 -0.4120  0.2252 -0.2670
    6MPD2    C2   85   2.462   3.613  11.305 -0.5852 -0.7136 -0.1401
    6MPD2    C3   86   2.417   3.656  11.182  0.5025  0.8519 -0.4908
    6MPD2    C4   87   2.329   3.757  11.176  0.6072 -0.1025 -0.2384
    6MPD2    C5   88   2.290   3.815  11.292 -0.7461 -0.0812  0.2127
    6MPD2     H   89   2.524   3.525  11.316  1.5870  0.9907  1.0213
    6MPD2    H1   90   2.292   3.794  11.081  0.7658 -0.3799 -0.4082
    6MPD2    H2   91   2.308   3.834  11.493 -0.0617 -0.8251  0.2888
    6MPD2    H3   92   2.219   3.898  11.289 -1.4562 -0.6487  1.3789
    6MPD2     N   93   2.473   3.591  11.068  0.1484 -0.1137 -0.3414
    6MPD2    H5   94   2.551   3.527  11.083 -1.4908 -2.0631 -0.0378
    6MPD2    N1   95   2.444   3.629  11.555  0.2330  0.3931  0.1409
    6MPD2    H7   96   2.407   3.689  11.628 -3.3368  1.5543 -2.6001
    7TCq1    O1   97   4.402   3.306  13.280  0.2521 -0.0101  0.1049
    7TCq1    C1   98   4.534   3.331  13.254 -0.5261  0.0249 -0.2740
    7TCq1    O2   99   4.606   3.391  13.332 -0.3665 -0.8197  0.0104
    7TCq1    C2  100   4.569   3.232  13.153  0.1802 -0.1903 -0.1092
    7TCq1    C3  101   4.471   3.201  13.065 -0.6355 -0.4413  0.3013
    7TCq1    C4  102   4.471   3.071  13.011 -0.5582  0.1285  0.6782
    7TCq1    C5  103   4.547   2.971  13.055 -0.3212  0.1236  0.4030
    7TCq1    C6  104   4.639   3.008  13.148 -0.3781  0.1049 -0.3719
    7TCq1    C7  105   4.658   3.139  13.194  0.1383 -1.4001  0.0605
    7TCq1    C8  106   4.705   2.899  13.221 -0.2238 -0.3670  0.1447
    7TCq1    O4  107   4.714   2.787  13.170  0.5435 -0.5839 -0.2210
    7TCq1    C9  108   4.389   3.038  12.902  0.0099 -0.5423  0.2596
    7TCq1    O5  109   4.328   3.127  12.839  0.6641  0.0483 -0.0703
    7TCq1    O6  110   4.357   2.917  12.887 -0.7032 -0.1435  0.0722
    7TCq1    H1  111   4.355   3.245  13.219  3.1331  0.7285 -2.8763
    7TCq1    H2  112   4.389   3.262  13.030  0.9334 -0.0259 -2.6256
    7TCq1    H3  113   4.546   2.870  13.016  0.7774  0.1474  0.3368
    7TCq1    H4  114   0.016   3.166  13.261 -0.7681  2.2592 -0.3455
    8MPD2     C  115   0.268   2.727  13.614  0.7903  0.1508  0.4167
    8MPD2    C1  116   0.225   2.667  13.501  0.1627  0.0014 -0.2262
    8MPD2    C2  117   0.141   2.736  13.417 -0.3333  0.1714  0.2280
    8MPD2    C3  118   0.106   2.867  13.434 -0.0920 -0.0407 -0.2971
    8MPD2    C4  119   0.168   2.931  13.530 -0.3907 -0.4363  0.0729
    8MPD2    C5  120   0.240   2.861  13.626 -0.1711 -0.2230  0.1630
    8MPD2     H  121   0.103   2.677  13.335 -0.5434 -0.0417  0.4812
    8MPD2    H1  122   0.153   3.035  13.555  0.0118 -0.1017 -1.0900
    8MPD2    H2  123   0.320   2.680  13.696  0.9351  1.0208  0.8236
    8MPD2    H3  124   0.265   2.925  13.710  1.1864  0.1282 -0.5059
    8MPD2     N  125   0.025   2.942  13.347 -0.1352 -0.3992  0.0365
    8MPD2    H5  126   4.722   3.034  13.381 -0.5120 -1.0355  1.4616
    8MPD2    N1  127   0.273   2.534  13.480 -0.3921  0.1092  0.3341
    8MPD2    H7  128   0.347   2.504  13.544  0.8632 -1.8548 -2.0534
    9TCq1    O1  129   1.625   1.932  10.462 -0.3783  0.0433 -0.2781
    9TCq1    C1  130   1.609   1.929  10.592  0.3058  0.7736  0.4026
    9TCq1    O2  131   1.507   1.954  10.649 -0.4470 -0.1420  0.3583
    9TCq1    C2  132   1.716   1.853  10.664 -0.4766 -0.1276  0.1884
    9TCq1    C3  133   1.795   1.752  10.608  0.9638 -0.0964 -0.4257
    9TCq1    C4  134   1.881   1.680  10.695  0.0836 -0.0744  0.6004
    9TCq1    C5  135   1.875   1.700  10.830  0.4941  0.6209  0.5104
    9TCq1    C6  136   1.782   1.794  10.882 -0.3964  0.1577  0.3101
    9TCq1    C7  137   1.707   1.880  10.801  0.1406  0.1789  0.2369
    9TCq1    C8  138   1.723   1.768  11.012 -0.6378 -0.1440 -0.1245
    9TCq1    O4  139   1.605   1.801  11.020 -0.2750 -0.1493 -0.3019
    9TCq1    C9  140   1.971   1.576  10.657  0.3729  0.1220  0.5265
    9TCq1    O5  141   1.983   1.549  10.536 -0.1520  0.3682  0.3047
    9TCq1    O6  142   2.048   1.534  10.748 -0.4383 -0.6416  0.0175
    9TCq1    H1  143   1.709   1.897  10.425 -0.1646  2.6091 -2.2575
    9TCq1    H2  144   1.807   1.733  10.502 -0.1363 -1.3385 -0.3322
    9TCq1    H3  145   1.939   1.645  10.897 -3.8824 -0.8281  3.5472
    9TCq1    H4  146   1.637   1.954  10.838 -0.8132 -0.7395  0.2697
   10MPD2     C  147   1.631   1.623  11.258  0.3217  0.9499  0.2064
   10MPD2    C1  148   1.759   1.636  11.211  0.8691  0.5251 -0.2942
   10MPD2    C2  149   1.862   1.591  11.289  0.2052 -0.1934  0.3101
   10MPD2    C3  150   1.842   1.533  11.407  0.2166 -0.5448  0.5492
   10MPD2    C4  151   1.709   1.521  11.453 -0.4211  0.0420 -0.6412
   10MPD2    C5  152   1.605   1.566  11.377 -0.4106 -0.1219 -0.7146
   10MPD2     H  153   1.960   1.600  11.243 -1.2628  0.8197 -2.6034
   10MPD2    H1  154   1.682   1.477  11.549 -1.8598 -0.8272 -1.4495
   10MPD2    H2  155   1.542   1.659  11.207  1.4397  1.9771 -1.0587
   10MPD2    H3  156   1.503   1.574  11.413 -0.3397 -1.1068 -0.2624
   10MPD2     N  157   1.955   1.492  11.489  0.5325  0.6812 -0.6113
   10MPD2    H5  158   1.934   1.482  11.587 -0.9013  2.3695 -0.7567
   10MPD2    N1  159   1.801   1.689  11.087  0.2850  0.2693 -0.2261
   10MPD2    H7  160   1.896   1.668  11.057  0.9302  1.0053  1.2707
   11TCq1    O1  161   4.052   1.378  14.190 -0.2302 -0.4049  0.1433
   11TCq1    C1  162   3.918   1.375  14.179  0.7383  0.7550 -0.1652
   11TCq1    O2  163   3.861   1.338  14.079  0.0018  0.2052  0.3333
   11TCq1    C2  164   3.842   1.407  14.301  0.0117  0.8547  0.5799
   11TCq1    C3  165   3.909   1.466  14.401 -0.3217 -0.1339 -1.1278
   11TCq1    C4  166   3.840   1.491  14.518 -1.0720  0.5124  0.1387
   11TCq1    C5  167   3.711   1.460  14.530 -0.7337  0.7128  0.2770
   11TCq1    C6  168   3.642   1.400  14.427  0.4319  0.6387  0.3473
   11TCq1    C7  169   3.710   1.371  14.308  0.6554  0.1194 -0.3457
   11TCq1    C8  170   3.491   1.393  14.436  0.1901 -0.2955  0.0525
   11TCq1    O4  171   3.427   1.473  14.504  0.2429  0.0388  0.3203
   11TCq1    C9  172   3.900   1.559  14.636 -0.6218 -0.1645  0.2320
   11TCq1    O5  173   3.840   1.555  14.747  0.0568  0.8391  0.1964
   11TCq1    O6  174   4.017   1.600  14.620 -0.2297 -0.0688  0.4141
   11TCq1    H1  175   4.107   1.420  14.259 -0.9339 -2.1660  1.7594
   11TCq1    H2  176   4.012   1.494  14.384  0.5456 -2.0337  1.0365
   11TCq1    H3  177   3.660   1.487  14.622 -0.5603 -0.7150  0.7939
   11TCq1    H4  178   3.653   1.336  14.223  1.6681  1.5407 -1.6021
   12MPD2     C  179   3.194   1.359  14.365 -0.3353 -0.2868  0.4116
   12MPD2    C1  180   3.304   1.312  14.292  0.2824  0.5173  0.2748
   12MPD2    C2  181   3.290   1.246  14.172  0.4120 -0.2674  0.6796
   12MPD2    C3  182   3.165   1.241  14.110  0.8809  0.3159  0.0748
   12MPD2    C4  183   3.056   1.291  14.178  0.1519 -0.0698 -0.0729
   12MPD2    C5  184   3.073   1.352  14.298 -0.3675  0.3586 -0.7643
   12MPD2     H  185   3.380   1.207  14.126  1.4284 -0.9595  3.3045
   12MPD2    H1  186   2.954   1.290  14.141  0.6464  0.6065 -1.4376
   12MPD2    H2  187   3.203   1.416  14.456 -0.9147  0.2982  0.1013
   12MPD2    H3  188   2.986   1.393  14.349 -0.4750 -2.9625  1.6756
   12MPD2     N  189   3.141   1.175  13.993 -0.3797  0.1855  0.0438
   12MPD2    H5  190   3.045   1.181  13.959  0.0837 -0.4704 -1.3719
   12MPD2    N1  191   3.440   1.315  14.332 -0.2396 -0.7058 -0.4117
   12MPD2    H7  192   3.509   1.268  14.275 -3.2298  0.0802 -4.5997
   13TCq1    O1  193   1.756   1.213  11.456 -0.1173  1.0327 -0.1006
   13TCq1    C1  194   1.675   1.163  11.364 -0.0858 -0.1787  0.0940
   13TCq1    O2  195   1.555   1.142  11.374 -0.0664 -0.0767  0.2553
   13TCq1    C2  196   1.729   1.208  11.235  0.4674  0.1078  0.0741
   13TCq1    C3  197   1.863   1.190  11.217  0.2989  0.1566 -0.0323
   13TCq1    C4  198   1.921   1.244  11.108 -0.3439  0.0207 -0.6087
   13TCq1    C5  199   1.846   1.322  11.023 -0.1714 -1.1117  0.9340
   13TCq1    C6  200   1.715   1.339  11.050  0.2550  0.0609  0.2237
   13TCq1    C7  201   1.652   1.285  11.159  0.2689  0.1437  0.2505
   13TCq1    C8  202   1.637   1.423  10.966  0.3541  0.6608 -0.1908
   13TCq1    O4  203   1.541   1.483  11.015 -0.0309 -0.6888 -0.2232
   13TCq1    C9  204   2.065   1.231  11.091  0.5387  0.0727  0.5128
   13TCq1    O5  205   2.116   1.288  10.990 -0.3633  0.0389 -0.2303
   13TCq1    O6  206   2.133   1.170  11.185  0.0420  0.3743 -0.7552
   13TCq1    H1  207   1.839   1.245  11.415  0.8964 -1.5254 -0.0256
   13TCq1    H2  208   1.925   1.128  11.281 -0.9392 -1.9164 -0.8237
   13TCq1    H3  209   1.898   1.374  10.944 -0.5155 -1.0617  0.7406
   13TCq1    H4  210   1.548   1.306  11.178  0.6503  1.3880  0.9028
   14MPD2     C  211   1.626   1.393  10.604 -0.6785  0.4386 -1.2139
   14MPD2    C1  212   1.588   1.434  10.729 -0.6121  0.5271 -0.7979
   14MPD2    C2  213   1.480   1.518  10.740 -0.9940  1.1805 -0.1230
   14MPD2    C3  214   1.398   1.551  10.633 -0.3000 -0.0480 -0.0243
   14MPD2    C4  215   1.434   1.504  10.507 -0.4815 -0.6902 -0.3590
   14MPD2    C5  216   1.553   1.435  10.495 -0.1189 -0.2733 -0.2766
   14MPD2     H  217   1.445   1.552  10.837  0.3075  1.9204  0.0887
   14MPD2    H1  218   1.366   1.505  10.423 -0.7563 -1.2171 -0.1437
   14MPD2    H2  219   1.713   1.331  10.586 -1.3601 -1.4532  1.9946
   14MPD2    H3  220   1.594   1.403  10.400  0.7773  1.3844 -0.4421
   14MPD2     N  221   1.292   1.639  10.652 -0.4137 -0.0985 -0.9845
   14MPD2    H5  222   1.286   1.687  10.741  2.3723 -1.1010 -0.2674
   14MPD2    N1  223   1.669   1.395  10.835 -0.2300 -0.0878  0.2625
   14MPD2    H7  224   1.738   1.324  10.813  0.0144  0.1760  0.1786
   15TCq1    O1  225   4.075   0.926   1.787  0.3223 -0.4973 -0.2103
   15TCq1    C1  226   4.148   1.031   1.814 -0.6293 -0.5387 -0.3655
   15TCq1    O2  227   4.187   1.117   1.733 -0.2525 -0.3483 -0.1621
   15TCq1    C2  228   4.253   0.965   1.893  0.3026 -0.2910  0.2617
   15TCq1    C3  229   4.329   1.054   1.969  0.1792  0.1775 -0.8183
   15TCq1    C4  230   4.465   1.032   1.973 -0.0481 -0.0792  0.5189
   15TCq1    C5  231   4.520   0.916   1.928 -0.1215 -0.4730  0.6196
   15TCq1    C6  232   4.441   0.836   1.851  0.6316 -0.3351  1.0163
   15TCq1    C7  233   4.306   0.861   1.831  0.1290 -0.2743 -0.7766
   15TCq1    C8  234   4.513   0.726   1.787  0.1104  0.4494 -0.2810
   15TCq1    O4  235   4.618   0.688   1.832 -0.3170 -0.2398  0.0215
   15TCq1    C9  236   4.546   1.137   2.048  0.1843 -0.2139  0.7073
   15TCq1    O5  237   4.493   1.244   2.074  0.0426 -0.1076 -0.4452
   15TCq1    O6  238   4.657   1.085   2.083 -0.2664  0.0912  0.0635
   15TCq1    H1  239   4.079   0.863   1.862 -0.2311 -1.8287 -1.3047
   15TCq1    H2  240   4.289   1.149   2.003 -1.0629 -0.2619 -1.0328
   15TCq1    H3  241   4.626   0.898   1.943  0.2371  1.3472  0.2200
   15TCq1    H4  242   4.246   0.801   1.763  0.1567 -0.7403 -0.3849
   16MPD2     C  243   4.461   0.633   1.443  0.2348 -0.4234 -0.3070
   16MPD2    C1  244   4.517   0.622   1.560  0.3378  0.0114 -0.1547
   16MPD2    C2  245   4.618   0.533   1.581  0.4614 -0.3630  0.0274
   16MPD2    C3  246   4.664   0.449   1.481  0.8724  0.4694 -0.5475
   16MPD2    C4  247   4.604   0.448   1.358 -0.4550  0.7621 -0.0677
   16MPD2    C5  248   4.500   0.541   1.349 -0.6564  1.2814 -0.2508
   16MPD2     H  249   4.647   0.517   1.684  0.6597  0.2305  0.0671
   16MPD2    H1  250   4.642   0.396   1.271 -2.8505  1.7308 -1.7025
   16MPD2    H2  251   4.390   0.709   1.412  0.5152  0.3855  1.0101
   16MPD2    H3  252   4.459   0.539   1.249  1.8465  0.1524 -1.2556
   16MPD2     N  253   0.044   0.360   1.519  0.6357 -0.0550  0.1024
   16MPD2    H5  254   0.083   0.378   1.611 -2.5596 -0.2446  1.4807
   16MPD2    N1  255   4.464   0.706   1.660 -0.2071  0.2599 -0.5965
   16MPD2    H7  256   4.380   0.759   1.641 -2.0957 -1.1190  3.7909
   17TCq1    O1  257   1.597   0.369  10.743  0.2729  0.5234 -0.0339
   17TCq1    C1  258   1.706   0.323  10.813 -0.2223  0.4242 -0.0573
   17TCq1    O2  259   1.708   0.223  10.876 -0.0994 -0.3059  0.0468
   17TCq1    C2  260   1.815   0.416  10.810 -0.5663  0.1032 -0.5474
   17TCq1    C3  261   1.848   0.472  10.692 -0.8689  0.5727 -0.6393
   17TCq1    C4  262   1.973   0.525  10.682 -0.4049  0.7152 -0.0484
   17TCq1    C5  263   2.052   0.531  10.789  0.2121  0.4900 -0.2815
   17TCq1    C6  264   2.012   0.478  10.903 -0.3550 -0.4221 -0.4857
   17TCq1    C7  265   1.891   0.417  10.914 -0.7897 -0.5392 -0.3327
   17TCq1    C8  266   2.106   0.450  11.013 -0.4947 -0.6591  0.1256
   17TCq1    O4  267   2.051   0.431  11.121  0.1887  0.4941  0.4148
   17TCq1    C9  268   2.027   0.576  10.564  0.6574  0.0141 -0.3319
   17TCq1    O5  269   2.149   0.611  10.578 -0.3731  0.1670 -0.0801
   17TCq1    O6  270   1.966   0.558  10.458  0.0229  0.1596 -0.7609
   17TCq1    H1  271   1.605   0.466  10.730 -1.7094  0.5101 -1.3275
   17TCq1    H2  272   1.787   0.466  10.603 -1.8038 -0.1233  0.0546
   17TCq1    H3  273   2.151   0.574  10.788 -0.3397  1.7410 -1.1073
   17TCq1    H4  274   1.867   0.346  10.992 -0.0917 -2.6349 -2.0090
   18MPD2     C  275   2.322   0.365  11.178  0.3512  0.7973 -0.0171
   18MPD2    C1  276   2.338   0.436  11.062  0.0216  0.9012 -0.1271
   18MPD2    C2  277   2.464   0.470  11.025  0.3039 -0.1084  0.3802
   18MPD2    C3  278   2.568   0.447  11.106 -0.6467  1.0815  0.4839
   18MPD2    C4  279   2.549   0.375  11.223  0.1651  0.9321 -0.2414
   18MPD2    C5  280   2.427   0.332  11.259  0.2764  0.3019  1.0669
   18MPD2     H  281   2.482   0.526  10.934  0.1948  0.0438  0.4525
   18MPD2    H1  282   2.634   0.350  11.286  1.3440 -0.9542 -2.5843
   18MPD2    H2  283   2.228   0.325  11.212 -0.5500  2.4580 -0.5422
   18MPD2    H3  284   2.409   0.278  11.351 -1.3269  0.6745  0.9753
   18MPD2     N  285   2.702   0.475  11.054 -0.2928  0.1930 -0.0145
   18MPD2    H5  286   2.777   0.416  11.088 -0.3067  0.1478 -0.0614
   18MPD2    N1  287   2.236   0.469  10.978  0.0202  0.4331 -0.5469
   18MPD2    H7  288   2.250   0.497  10.882 -1.4665  2.0113 -0.3139
   19TMC2    C1  289   4.072   1.093  13.887 -0.1946  0.4838 -0.2556
   19TMC2    C2  290   3.983   1.193  13.851 -0.1182 -0.0421  0.2773
   19TMC2    C3  291   3.863   1.144  13.812  0.0500 -0.6029  0.0353
   19TMC2    C4  292   4.050   0.960  13.885 -0.1082  0.4835  0.1225
   19TMC2    C5  293   3.918   0.922  13.851 -0.1216  0.0345 -0.1778
   19TMC2    C6  294   3.825   1.010  13.807 -0.0544  0.0668  0.4739
   19TMC2     C  295   4.206   1.136  13.901 -0.7656 -0.1151 -0.0434
   19TMC2     O  296   4.238   1.227  13.824  0.6261  0.4394 -0.5687
   19TMC2     H  297   4.009   1.298  13.860  0.6213 -0.1548 -0.5057
   19TMC2    H1  298   4.123   0.885  13.913 -0.1908  0.8637  1.3259
   19TMC2    H2  299   3.722   0.984  13.785  0.5409 -0.7395 -1.4066
   19TMC2    C7  300   3.866   0.789  13.875 -0.0355 -0.0555  0.4361
   19TMC2    C8  301   3.755   1.239  13.783  0.8290  0.5854 -0.6577
   19TMC2    O1  302   3.748   0.764  13.839 -0.1511  0.5387  0.4215
   19TMC2    O2  303   3.677   1.233  13.687  0.6494  0.3190  0.1365
   19TMC2    O5  304   3.776   1.359  13.847 -0.2115 -0.0696 -0.4219
   19TMC2    H5  305   3.805   1.344  13.939  1.8027 -1.2875 -1.2613
   20MPD2     C  306   4.446   1.234  14.028 -0.5529  0.1712 -0.5033
   20MPD2    C1  307   4.365   1.145  14.086 -0.4847  0.0164 -0.1882
   20MPD2    C2  308   4.382   1.105  14.215 -0.2843 -0.5916 -0.8472
   20MPD2    C3  309   4.483   1.156  14.290 -0.9023  0.2569  0.6531
   20MPD2    C4  310   4.563   1.245  14.228 -0.2353 -0.4907  0.0337
   20MPD2    C5  311   4.543   1.284  14.098  0.2501 -0.5599  0.5532
   20MPD2     H  312   4.306   1.038  14.252 -0.7157 -0.4012 -1.3809
   20MPD2    H1  313   4.648   1.283  14.283  0.1159  0.0911 -0.9087
   20MPD2    H2  314   4.446   1.276  13.928  1.4655  4.4453  1.2853
   20MPD2    H3  315   4.610   1.359  14.056 -1.3723  0.4523 -0.1949
   20MPD2     N  316   4.500   1.131  14.424  0.4034 -0.8772  0.0817
   20MPD2    H5  317   4.578   1.173  14.473 -1.4254  3.6965 -0.8764
   20MPD2    N1  318   4.255   1.091  14.020  0.0725 -0.4739 -0.0922
   20MPD2    H7  319   4.205   1.025  14.079 -1.0883  1.3277  0.8972
   21MPD2     C  320   1.673   1.128  14.014  0.4903  0.1944 -0.8002
   21MPD2    C1  321   1.766   1.191  14.090  0.1538 -0.4333 -0.6822
   21MPD2    C2  322   1.738   1.226  14.216  0.7118  0.0830  0.0940
   21MPD2    C3  323   1.610   1.226  14.259  0.6210  0.6545 -0.4349
   21MPD2    C4  324   1.509   1.183  14.174  0.4929 -0.4849 -0.0992
   21MPD2    C5  325   1.543   1.117  14.055 -0.1572  0.1664 -0.0844
   21MPD2     H  326   1.817   1.269  14.278  0.2991  1.0905 -0.0798
   21MPD2    H1  327   1.408   1.184  14.212 -0.1920  1.9918 -1.9554
   21MPD2    H2  328   1.692   1.079  13.918  1.6941  1.8959 -1.4229
   21MPD2    H3  329   1.466   1.069  13.995 -0.1705  0.7791 -0.5605
   21MPD2     N  330   1.572   1.277  14.387 -0.5274  0.0772 -0.0012
   21MPD2    H5  331   1.475   1.260  14.410 -0.5989 -0.1556 -0.4780
   21MPD2    N1  332   1.894   1.221  14.044 -0.6194 -0.4406 -0.0703
   21MPD2    H7  333   1.957   1.248  14.118  0.8425  0.0999 -1.5232
   22TCq2    C1  334   1.656   1.317  14.487  0.0832  0.1978 -0.0518
   22TCq2    O2  335   1.776   1.329  14.479  0.2618 -0.4867  0.2449
   22TCq2    C2  336   1.582   1.334  14.614 -0.3900 -0.5925 -0.1126
   22TCq2    C3  337   1.648   1.324  14.734 -0.4064 -0.2750  0.1768
   22TCq2    C4  338   1.587   1.330  14.852  0.2673  0.8388 -0.2084
   22TCq2    C5  339   1.448   1.340  14.850  0.4973 -0.2928 -0.2860
   22TCq2    C6  340   1.382   1.369  14.734  0.5734  0.3591  0.2753
   22TCq2    C7  341   1.445   1.359  14.611 -0.0392  0.1903  0.2343
   22TCq2    C8  342   1.243   1.424  14.745 -0.2096 -0.1493  0.5928
   22TCq2    O4  343   1.176   1.387  14.839 -0.4560 -0.2766 -0.1975
   22TCq2    C9  344   1.659   1.306  14.976 -1.1040  0.7893 -0.4014
   22TCq2    O5  345   1.758   1.228  14.971 -0.4555  0.3111  0.6891
   22TCq2    O6  346   1.624   1.373  15.078 -0.0622 -0.6919  0.0607
   22TCq2    H2  347   1.756   1.312  14.733 -0.4016 -0.4135  1.7966
   22TCq2    H3  348   1.389   1.339  14.941 -0.8922  1.2619 -1.1570
   22TCq2    H4  349   1.402   1.383  14.515  2.4268  2.7636 -0.2414
   23MPD2     C  350   3.477   2.204  14.886  0.0674 -0.0634 -1.2453
   23MPD2    C1  351   3.382   2.225  14.977 -0.4388 -0.5675  0.9188
   23MPD2    C2  352   3.273   2.304  14.952  0.0110 -0.6231  0.1184
   23MPD2    C3  353   3.251   2.341  14.821  0.7703 -0.1513  0.0976
   23MPD2    C4  354   3.353   2.322  14.727  0.0999 -0.1254  0.1608
   23MPD2    C5  355   3.468   2.257  14.762  1.1993 -0.3753  0.1137
   23MPD2     H  356   3.209   2.318  15.038 -1.1038  2.0394 -1.1410
   23MPD2    H1  357   3.332   2.355  14.626  0.6894 -2.2740 -0.6604
   23MPD2    H2  358   3.569   2.155  14.915 -1.2698 -0.8053  1.8160
   23MPD2    H3  359   3.549   2.234  14.694  1.0140 -1.6944  0.3387
   23MPD2     N  360   3.134   2.412  14.786 -0.0849  0.0341  0.2084
   23MPD2    H5  361   3.115   2.439  14.690 -0.1149 -1.2634 -0.1391
   23MPD2    N1  362   3.403   2.175  15.106 -0.2419  0.4189 -0.1860
   23MPD2    H7  363   3.345   2.204  15.183 -0.4540 -0.5971  0.0375
   24TCq2    C1  364   3.016   2.408  14.863  0.8673  0.0514  0.2614
   24TCq2    O2  365   2.991   2.333  14.955 -0.5919 -0.2796  0.3020
   24TCq2    C2  366   2.911   2.461  14.778 -0.5687  0.2024 -0.4462
   24TCq2    C3  367   2.934   2.568  14.698 -0.0936 -0.0261 -1.0807
   24TCq2    C4  368   2.833   2.615  14.617  0.7902  0.1305 -0.3819
   24TCq2    C5  369   2.701   2.572  14.646 -0.2623 -0.5682  1.5416
   24TCq2    C6  370   2.681   2.470  14.726 -0.4628  0.0282 -0.7311
   24TCq2    C7  371   2.787   2.408  14.794  0.1380 -0.1436  0.9707
   24TCq2    C8  372   2.548   2.403  14.725 -0.5152  0.1384 -1.4059
   24TCq2    O4  373   2.531   2.328  14.820  0.0828  0.0595  0.5962
   24TCq2    C9  374   2.872   2.720  14.529 -1.0242 -1.5040 -0.5990
   24TCq2    O5  375   2.995   2.735  14.516 -0.3670  0.0835  0.8939
   24TCq2    O6  376   2.779   2.775  14.465  0.1782  0.0401 -0.0647
   24TCq2    H2  377   3.030   2.617  14.699 -0.6045  0.9487  0.6793
   24TCq2    H3  378   2.627   2.630  14.593 -0.6975 -0.8879  1.7999
   24TCq2    H4  379   2.776   2.318  14.854 -0.0142 -1.6474 -1.3230
   25TMC2    C1  380   1.943   4.374  11.642 -0.0307 -0.3109 -0.0394
   25TMC2    C2  381   2.047   4.459  11.632 -0.0826  1.3850  0.2595
   25TMC2    C3  382   2.062   4.548  11.729 -0.3074  0.3544 -0.3911
   25TMC2    C4  383   1.862   4.366  11.752  0.0976 -0.0893 -0.5014
   25TMC2    C5  384   1.893   4.446  11.855  0.8126  0.4501  0.0450
   25TMC2    C6  385   1.992   4.536  11.844 -0.0714  0.1103  0.5790
   25TMC2     C  386   1.962   4.256  11.563  0.5818  0.0278 -0.2111
   25TMC2     O  387   2.078   4.236  11.528  0.5394  0.0365  0.1133
   25TMC2     H  388   2.117   4.452  11.550 -1.3050  2.7580 -0.9003
   25TMC2    H1  389   1.790   4.288  11.769  0.6714 -0.7679 -1.1485
   25TMC2    H2  390   2.014   4.600  11.929  0.1139  0.4367  0.2864
   25TMC2    C7  391   1.801   4.462  11.967  0.0300  0.1318 -1.3827
   25TMC2    C8  392   2.167   4.645  11.724  0.0144 -0.6193  0.3351
   25TMC2    O1  393   1.842   4.524  12.063 -0.5742  0.1082  0.4509
   25TMC2    O2  394   2.209   4.696  11.827 -0.0525  0.6877  0.5135
   25TMC2    O5  395   2.149   4.708  11.613 -0.2050  0.4620 -0.3389
   25TMC2    H5  396   2.112   4.662  11.534  2.5807 -2.6845  0.1978
   26MPD2     C  397   1.786   3.887  11.262 -0.1731  0.2545 -0.1160
   26MPD2    C1  398   1.690   3.903  11.356 -0.5614  0.4707  0.2062
   26MPD2    C2  399   1.712   4.009  11.441 -0.8019  0.5379  0.1373
   26MPD2    C3  400   1.833   4.072  11.454 -0.8025  0.5186  0.4268
   26MPD2    C4  401   1.938   4.028  11.381  0.6660  0.1817  0.2271
   26MPD2    C5  402   1.913   3.936  11.282  0.1536  0.6471 -0.4418
   26MPD2     H  403   1.632   4.049  11.502  0.6963  0.7037  2.0184
   26MPD2    H1  404   2.034   4.079  11.379  1.5449 -1.3750  3.1383
   26MPD2    H2  405   1.774   3.827  11.173 -1.0281 -0.1522  0.2689
   26MPD2    H3  406   1.982   3.919  11.200  3.1920 -0.5798  2.3681
   26MPD2     N  407   1.848   4.186  11.537 -0.0293 -0.6069 -0.5031
   26MPD2    H5  408   1.764   4.226  11.578  0.2218  0.6222 -1.2156
   26MPD2    N1  409   1.565   3.848  11.321  0.2677 -0.4661 -0.2438
   26MPD2    H7  410   1.563   3.801  11.231  1.0297  2.1765 -1.6496
   27TMC2    C1  411   0.546   1.898  11.604  0.2552 -0.5406  0.0901
   27TMC2    C2  412   0.658   1.915  11.531 -0.3031  0.2919 -0.2643
   27TMC2    C3  413   0.705   2.036  11.510 -0.0972  0.6148  0.2721
   27TMC2    C4  414   0.478   2.009  11.664  0.1815 -0.8267  0.6838
   27TMC2    C5  415   0.537   2.126  11.653  0.8872  0.2929  0.9114
   27TMC2    C6  416   0.646   2.140  11.582 -0.2931  0.3904 -0.1679
   27TMC2     C  417   0.548   1.780  11.688 -0.0080  0.2932  0.1158
   27TMC2     O  418   0.616   1.685  11.656 -0.0537  0.1742 -0.0217
   27TMC2     H  419   0.710   1.825  11.500 -1.6164 -0.1330 -1.2434
   27TMC2    H1  420   0.382   1.999  11.712 -0.9150  0.0760 -1.3116
   27TMC2    H2  421   0.698   2.231  11.556  0.4286  0.1569  0.4754
   27TMC2    C7  422   0.534   2.195  11.779  0.2569 -0.7730 -0.0610
   27TMC2    C8  423   0.838   2.051  11.453 -0.0078 -0.1689 -0.6036
   27TMC2    O1  424   0.505   2.123  11.875 -0.1111  0.5047 -0.2122
   27TMC2    O2  425   0.919   1.958  11.451  0.2213 -0.2887 -0.2646
   27TMC2    O5  426   0.809   2.114  11.342 -0.1977 -0.0760 -0.1155
   27TMC2    H5  427   0.720   2.155  11.337 -0.8725 -1.4254  1.0211
   28MPD2     C  428   0.512   1.580  12.160 -0.4232  0.0576 -0.3293
   28MPD2    C1  429   0.454   1.703  12.170  0.1121  0.6853 -0.4159
   28MPD2    C2  430   0.461   1.785  12.059  0.1087 -0.7658 -0.9330
   28MPD2    C3  431   0.510   1.736  11.936 -0.1494  0.3688 -0.5280
   28MPD2    C4  432   0.558   1.606  11.927  0.0827 -0.2533  0.2316
   28MPD2    C5  433   0.561   1.531  12.039  1.0814 -0.4694 -0.2381
   28MPD2     H  434   0.419   1.884  12.067  1.3610 -0.2158 -1.1905
   28MPD2    H1  435   0.590   1.562  11.834  0.2388  1.2352 -0.4231
   28MPD2    H2  436   0.509   1.502  12.235  0.8280 -0.0654 -0.4086
   28MPD2    H3  437   0.596   1.429  12.024 -0.4926 -1.6792  4.1326
   28MPD2     N  438   0.507   1.820  11.816 -0.6147 -0.7375  0.3446
   28MPD2    H5  439   0.474   1.915  11.830  4.2030  0.8890  0.8241
   28MPD2    N1  440   0.406   1.741  12.297 -0.0558 -0.6822 -0.0598
   28MPD2    H7  441   0.413   1.672  12.371 -2.3380 -2.5814 -1.6391
   29MPD2     C  442   0.487   4.348  14.030  0.4598  0.5873 -0.4318
   29MPD2    C1  443   0.623   4.336  14.069 -0.6212 -0.3869 -0.1303
   29MPD2    C2  444   0.686   4.439  14.136  0.4650 -0.2376 -0.6490
   29MPD2    C3  445   0.617   4.554  14.167  0.9905 -0.4265 -0.0098
   29MPD2    C4  446   0.482   4.559  14.136  0.2017 -0.0239  0.8763
   29MPD2    C5  447   0.421   4.460  14.069  0.0514  0.0559 -0.3742
   29MPD2     H  448   0.790   4.426  14.164  0.3639  1.2424  0.4573
   29MPD2    H1  449   0.428   4.651  14.153 -0.3119 -0.3119  0.8002
   29MPD2    H2  450   0.426   4.283  13.968 -2.3977 -0.2223  3.2869
   29MPD2    H3  451   0.320   4.475  14.032  0.8161 -0.3361 -2.6277
   29MPD2     N  452   0.674   4.667  14.229  0.0046 -0.2054  0.2558
   29MPD2    H5  453   0.614   0.024  14.250 -0.5827  0.0460 -2.3905
   29MPD2    N1  454   0.700   4.221  14.036  0.0015  0.2414 -0.0554
   29MPD2    H7  455   0.793   4.223  14.077  1.0054  0.3713 -2.3416
   30TCq2    C1  456   0.806   4.695  14.249  0.2273 -0.3131 -0.0879
   30TCq2    O2  457   0.903   4.631  14.212  0.2145 -0.5169 -0.5112
   30TCq2    C2  458   0.819   0.088  14.339  0.0834 -0.2676 -0.2190
   30TCq2    C3  459   0.729   0.115  14.436 -0.5424  0.2464 -0.2562
   30TCq2    C4  460   0.757   0.213  14.526  0.2543 -0.5197 -0.1422
   30TCq2    C5  461   0.872   0.284  14.504  0.0375 -0.0654  0.1269
   30TCq2    C6  462   0.961   0.248  14.407  0.1846  0.4886  0.0535
   30TCq2    C7  463   0.936   0.154  14.318  0.1664  0.2296  0.1112
   30TCq2    C8  464   1.086   0.325  14.384 -0.2081  0.6741 -0.1567
   30TCq2    O4  465   1.163   0.292  14.295  0.2992 -0.1077 -0.7156
   30TCq2    C9  466   0.676   0.241  14.645  0.5969  0.4019 -0.0179
   30TCq2    O5  467   0.563   0.196  14.644 -0.1032  0.5937 -0.6552
   30TCq2    O6  468   0.724   0.320  14.727 -0.0299  0.2065 -0.3556
   30TCq2    H2  469   0.639   0.056  14.446  0.1611 -0.6527  0.8347
   30TCq2    H3  470   0.905   0.363  14.572  1.7133  0.0797 -0.8559
   30TCq2    H4  471   1.013   0.114  14.253  1.0983  0.3531  1.1391
   31MPD2     C  472   3.203   2.817  14.789 -0.1755  0.0036  0.3842
   31MPD2    C1  473   3.108   2.918  14.793  0.2387 -0.4103 -0.2602
   31MPD2    C2  474   3.014   2.924  14.893 -0.1029  0.0581  0.1063
   31MPD2    C3  475   3.021   2.826  14.991  0.0809 -1.0136  1.3250
   31MPD2    C4  476   3.122   2.733  14.989 -0.9040 -0.4005 -0.0888
   31MPD2    C5  477   3.207   2.723  14.889  0.4894 -0.0826  0.4084
   31MPD2     H  478   2.936   2.999  14.898  0.8068  0.7663  3.4233
   31MPD2    H1  479   3.138   2.659  15.067 -0.4758 -0.6112 -0.3774
   31MPD2    H2  480   3.270   2.809  14.705  1.8515  2.3412  1.7903
   31MPD2    H3  481   3.276   2.639  14.886 -0.0758 -0.5422  0.0290
   31MPD2     N  482   2.948   2.822  15.114 -0.5034 -0.1172  0.0718
   31MPD2    H5  483   2.970   2.747  15.179  0.8088 -1.4129 -1.8448
   31MPD2    N1  484   3.102   3.023  14.697 -0.0606 -0.1437 -0.4503
   31MPD2    H7  485   3.021   3.084  14.695  1.3203  1.6329 -1.2886
   32TCq2    C1  486   2.840   2.903  15.149 -0.1178  1.1877  0.0246
   32TCq2    O2  487   2.796   2.995  15.082 -0.2506  0.5396 -0.3836
   32TCq2    C2  488   2.774   2.867  15.275  0.2212  0.3099 -0.6328
   32TCq2    C3  489   2.655   2.935  15.301 -0.1850 -0.0237  0.7327
   32TCq2    C4  490   2.596   2.909  15.422  0.1385  0.2833  0.5726
   32TCq2    C5  491   2.659   2.831  15.509 -0.3423  0.2858 -0.4132
   32TCq2    C6  492   2.778   2.768  15.479  0.8170  0.1737  0.6595
   32TCq2    C7  493   2.840   2.785  15.360 -0.3199 -0.0748  0.1416
   32TCq2    C8  494   2.853   2.703  15.582 -0.5474  0.7727 -0.0294
   32TCq2    O4  495   2.960   2.653  15.541 -0.9248  0.0175 -0.4670
   32TCq2    C9  496   2.487   2.989  15.468  0.7075 -0.4316 -0.0280
   32TCq2    O5  497   2.467   3.010  15.591  0.1735  0.6649 -0.1304
   32TCq2    O6  498   2.440   3.065  15.377  0.3678  0.5227  0.2625
   32TCq2    H2  499   2.613   3.006  15.231  0.0851 -0.2295  0.3602
   32TCq2    H3  500   2.612   2.828  15.606  1.3158 -1.9773  0.3252
   32TCq2    H4  501   2.939   2.749  15.334  0.4882  2.9652 -0.9502
   33MPD2     C  502   3.159   1.190  10.944 -0.0263 -0.0183  0.3364
   33MPD2    C1  503   3.044   1.121  10.914 -0.6330 -0.7950 -0.1473
   33MPD2    C2  504   2.934   1.186  10.861 -0.4803 -0.2434 -0.4270
   33MPD2    C3  505   2.937   1.322  10.824 -0.8619  0.9387 -0.1845
   33MPD2    C4  506   3.053   1.386  10.862 -0.4985 -0.6129 -0.6141
   33MPD2    C5  507   3.158   1.327  10.917 -0.0722  0.3392 -0.0841
   33MPD2     H  508   2.853   1.117  10.840  0.8739 -0.8050 -3.8535
   33MPD2    H1  509   3.069   1.487  10.826 -1.5351 -0.3071 -0.1970
   33MPD2    H2  510   3.247   1.143  10.988  0.8269  1.2685 -0.0035
   33MPD2    H3  511   3.238   1.392  10.950  1.9445 -1.9377 -0.4708
   33MPD2     N  512   2.836   1.391  10.758  0.3405  0.9036 -0.4619
   33MPD2    H5  513   2.875   1.485  10.751 -0.2382  0.9572 -2.9801
   33MPD2    N1  514   3.035   0.986  10.926  0.2482  0.4067 -0.1802
   33MPD2    H7  515   2.944   0.949  10.900  0.3915 -1.0676  1.3726
   34TCq2    C1  516   2.713   1.344  10.718 -0.0840 -0.6970 -0.5449
   34TCq2    O2  517   2.663   1.235  10.737 -0.2285  0.0324  0.5166
   34TCq2    C2  518   2.634   1.430  10.625  0.1093  0.6677 -0.1743
   34TCq2    C3  519   2.513   1.384  10.585 -0.5616 -0.3788 -0.6426
   34TCq2    C4  520   2.434   1.457  10.504  0.9284 -0.0928 -0.8409
   34TCq2    C5  521   2.481   1.572  10.447 -0.2021 -0.1952 -0.1286
   34TCq2    C6  522   2.609   1.614  10.490  0.9276 -0.0312  0.0283
   34TCq2    C7  523   2.692   1.548  10.575  0.2029  0.0607 -0.0891
   34TCq2    C8  524   2.677   1.718  10.414  0.5898 -0.0137  0.2543
   34TCq2    O4  525   2.773   1.775  10.462  0.1146 -0.2795  0.3964
   34TCq2    C9  526   2.297   1.414  10.485  0.3053 -0.2436 -0.4140
   34TCq2    O5  527   2.233   1.451  10.382 -0.2290 -0.2254  0.3936
   34TCq2    O6  528   2.242   1.339  10.576  0.3960 -0.4191  0.5080
   34TCq2    H2  529   2.477   1.284  10.607  0.8429 -1.1983 -2.0879
   34TCq2    H3  530   2.419   1.643  10.393  1.5337  1.1204 -0.3853
   34TCq2    H4  531   2.790   1.584  10.606 -0.0084 -0.8058  1.5748
   35MPD2     C  532   4.647   2.325  11.582 -0.6817 -0.1452 -0.7711
   35MPD2    C1  533   4.597   2.272  11.696  0.3375 -0.2636 -0.1408
   35MPD2    C2  534   4.465   2.290  11.730 -0.2528 -0.9663  0.0324
   35MPD2    C3  535   4.375   2.359  11.653  0.4026  0.0431  0.2154
   35MPD2    C4  536   4.416   2.410  11.533 -0.2746 -0.1440 -0.1133
   35MPD2    C5  537   4.559   2.394  11.506  0.5009  0.3005  0.7001
   35MPD2     H  538   4.432   2.250  11.826 -0.6614 -0.6766  0.0117
   35MPD2    H1  539   4.350   2.462  11.464 -0.8376 -0.1544  0.4229
   35MPD2    H2  540   0.022   2.316  11.536 -0.4336 -0.7388 -0.1095
   35MPD2    H3  541   4.590   2.427  11.407 -3.2187  1.5270 -0.0550
   35MPD2     N  542   4.241   2.372  11.696  0.0796  0.2673  0.0319
   35MPD2    H5  543   4.224   2.323  11.784 -0.4342  0.2169 -0.0913
   35MPD2    N1  544   4.679   2.198  11.788  0.4065  0.0836  0.4940
   35MPD2    H7  545   4.622   2.136  11.845  0.9147 -1.4947 -0.6981
   36TCq2    C1  546   4.133   2.413  11.627 -0.2959  0.8508 -0.9073
   36TCq2    O2  547   4.127   2.481  11.524 -0.2714  0.2126 -0.4082
   36TCq2    C2  548   4.008   2.387  11.700  0.3569 -0.0518  0.2972
   36TCq2    C3  549   3.911   2.481  11.669  0.1858 -0.6840  0.4419
   36TCq2    C4  550   3.781   2.439  11.671 -0.1424 -0.4169  0.1263
   36TCq2    C5  551   3.742   2.309  11.698 -0.6882 -0.0118  0.0569
   36TCq2    C6  552   3.840   2.217  11.725  0.4844 -0.0306  0.3630
   36TCq2    C7  553   3.976   2.259  11.731 -0.4300 -0.8617 -0.3750
   36TCq2    C8  554   3.805   2.089  11.769 -0.4202  0.1884  0.6270
   36TCq2    O4  555   3.893   2.021  11.822 -0.2768  0.0249  0.1567
   36TCq2    C9  556   3.668   2.527  11.631 -0.6589  0.1884  0.4547
   36TCq2    O5  557   3.709   2.650  11.626 -0.0451  0.3535  0.1958
   36TCq2    O6  558   3.555   2.476  11.612  0.2373  0.2607  0.3777
   36TCq2    H2  559   3.937   2.572  11.617 -0.4120 -0.8420 -0.1228
   36TCq2    H3  560   3.635   2.293  11.698 -0.4440 -1.5707  0.2795
   36TCq2    H4  561   4.052   2.185  11.755 -0.1797 -0.8016 -0.9771
   37TMC2    C1  562   1.960   2.744  11.450  0.0567  0.7473  0.2767
   37TMC2    C2  563   1.970   2.869  11.403  0.3861 -0.3264 -0.4326
   37TMC2    C3  564   2.088   2.929  11.397  0.3575  0.3848 -0.8168
   37TMC2    C4  565   2.070   2.683  11.509 -0.3007 -0.7508 -0.1607
   37TMC2    C5  566   2.189   2.748  11.503 -0.1131 -0.0798 -0.5918
   37TMC2    C6  567   2.200   2.872  11.456 -0.4799  0.0553 -0.2131
   37TMC2     C  568   1.832   2.715  11.508 -0.5458  0.0383 -0.1714
   37TMC2     O  569   1.741   2.795  11.478 -0.0301  0.2700 -0.3443
   37TMC2     H  570   1.881   2.913  11.359 -0.6243  0.0060  1.9136
   37TMC2    H1  571   2.072   2.583  11.550  0.7799 -0.5358  0.2991
   37TMC2    H2  572   2.285   2.938  11.466 -1.5419  1.4772 -0.5557
   37TMC2    C7  573   2.287   2.701  11.603 -0.2776  0.8234  0.3065
   37TMC2    C8  574   2.092   3.069  11.360 -0.5486  0.7799  0.1935
   37TMC2    O1  575   2.236   2.652  11.702  0.0813 -0.5878 -0.1623
   37TMC2    O2  576   1.991   3.140  11.380 -0.2288  0.0589 -0.1064
   37TMC2    O5  577   2.166   3.078  11.250 -0.4091  0.3855  0.1043
   37TMC2    H5  578   2.234   3.008  11.245 -2.7958 -1.9610  0.2803
   38MPD2     C  579   1.524   2.474  11.847  0.5478  0.4327 -0.1913
   38MPD2    C1  580   1.655   2.472  11.897  0.0126 -0.7466  0.3780
   38MPD2    C2  581   1.754   2.527  11.818 -0.2906 -0.0419 -0.3839
   38MPD2    C3  582   1.726   2.576  11.693  0.0304 -0.2411  0.4545
   38MPD2    C4  583   1.599   2.594  11.658  0.4778  0.5990  0.0531
   38MPD2    C5  584   1.496   2.534  11.725 -0.3764  0.0750 -0.0608
   38MPD2     H  585   1.858   2.524  11.850 -1.2154  2.5697  2.8941
   38MPD2    H1  586   1.586   2.655  11.570 -1.1828 -1.0435 -0.8351
   38MPD2    H2  587   1.436   2.435  11.897  1.6381  0.4443  1.7234
   38MPD2    H3  588   1.392   2.537  11.692  0.3643  2.6907 -2.1899
   38MPD2     N  589   1.835   2.626  11.617  0.1528  0.5664  0.8670
   38MPD2    H5  590   1.928   2.594  11.643  1.2673  2.0775 -1.3230
   38MPD2    N1  591   1.694   2.419  12.020 -0.2327  0.0842 -0.4786
   38MPD2    H7  592   1.786   2.441  12.055 -1.2719  0.7213  1.8690
   39MPD2     C  593   0.725   4.367   1.733  0.2746 -0.0261  0.4411
   39MPD2    C1  594   0.632   4.451   1.786 -0.8378 -0.3228 -0.3114
   39MPD2    C2  595   0.505   4.446   1.736 -0.7612 -0.1387  0.2327
   39MPD2    C3  596   0.475   4.360   1.629  0.1284 -0.1551  0.9176
   39MPD2    C4  597   0.574   4.287   1.570  0.6792  0.2224  0.1596
   39MPD2    C5  598   0.693   4.274   1.636 -0.4802 -0.2095 -0.7603
   39MPD2     H  599   0.438   4.526   1.768 -0.6288 -0.5561  1.5704
   39MPD2    H1  600   0.554   4.217   1.489 -0.6121  0.7495  0.0172
   39MPD2    H2  601   0.821   4.359   1.783  0.0680 -0.7924  0.7156
   39MPD2    H3  602   0.767   4.203   1.602 -0.3212 -0.7386  0.6517
   39MPD2     N  603   0.345   4.344   1.573 -0.1962 -0.4383 -0.0568
   39MPD2    H5  604   0.332   4.303   1.481 -0.0531  0.1015 -0.3174
   39MPD2    N1  605   0.672   4.548   1.884 -0.4339 -0.8041 -0.5820
   39MPD2    H7  606   0.769   4.540   1.915 -0.8666 -0.4850  0.8760
   40TCq2    C1  607   0.590   4.636   1.952 -0.7562  0.1602  0.4191
   40TCq2    O2  608   0.471   4.644   1.964  0.7850  0.1620  0.5387
   40TCq2    C2  609   0.672   4.721   2.044 -0.2060 -0.5099  0.5587
   40TCq2    C3  610   0.609   0.059   2.149  0.1554  0.6005  0.2614
   40TCq2    C4  611   0.686   0.130   2.242  0.5610 -0.2061  0.2818
   40TCq2    C5  612   0.818   0.145   2.227 -0.0638 -0.7270  0.8224
   40TCq2    C6  613   0.882   0.077   2.126  0.6128 -0.4944  0.4533
   40TCq2    C7  614   0.808   0.009   2.030 -0.0432  0.7359 -0.1960
   40TCq2    C8  615   1.028   0.070   2.114  0.6917 -0.1787  0.5409
   40TCq2    O4  616   1.076   4.691   2.071  0.2886  0.0598  0.2550
   40TCq2    C9  617   0.632   0.215   2.346 -0.6750  0.1696 -0.1945
   40TCq2    O5  618   0.510   0.253   2.323  0.0250  0.1315  0.6513
   40TCq2    O6  619   0.702   0.266   2.442  0.4097 -0.2465 -0.1980
   40TCq2    H2  620   0.501   0.064   2.162 -0.3509 -2.0898 -2.7736
   40TCq2    H3  621   0.866   0.222   2.286 -0.0064 -0.0507 -0.0969
   40TCq2    H4  622   0.860   0.005   1.936 -0.7461  0.1513 -0.5590
   41TMC2    C1  623   4.113   2.059  13.652 -0.6662 -0.6302  0.1560
   41TMC2    C2  624   4.234   2.125  13.646 -0.2065 -0.7028  0.0662
   41TMC2    C3  625   4.258   2.212  13.544  0.4482  0.0611  0.1056
   41TMC2    C4  626   4.016   2.086  13.566  0.3457  0.2403  1.4000
   41TMC2    C5  627   4.044   2.166  13.463  0.2233  0.1521  0.3352
   41TMC2    C6  628   4.164   2.237  13.450 -0.7560  0.1018 -0.1306
   41TMC2     C  629   4.076   1.982  13.768  0.0184  0.2820  0.0856
   41TMC2     O  630   3.962   1.940  13.764  0.4156  0.0805  0.6079
   41TMC2     H  631   4.318   2.109  13.713  0.5973  1.2855 -0.4489
   41TMC2    H1  632   3.914   2.057  13.588 -0.0409  0.6025  0.0906
   41TMC2    H2  633   4.186   2.310  13.372  1.6409 -0.8395 -0.3338
   41TMC2    C7  634   3.936   2.186  13.368 -0.5972 -0.5775 -0.4508
   41TMC2    C8  635   4.370   2.308  13.564 -0.1467 -0.0680 -0.0746
   41TMC2    O1  636   3.821   2.172  13.408 -0.0513  0.5446  0.6935
   41TMC2    O2  637   4.470   2.275  13.625 -0.2270 -0.3810 -0.0670
   41TMC2    O5  638   4.315   2.431  13.572  0.3164  0.0129  0.2865
   41TMC2    H5  639   4.229   2.450  13.529  0.8806 -0.4538 -1.0298
   42MPD2     C  640   4.056   1.808  14.006  0.0649 -0.6244  0.1122
   42MPD2    C1  641   4.154   1.903  13.992 -1.4167  0.7730  0.9554
   42MPD2    C2  642   4.243   1.923  14.098  0.3275  0.1618  0.6087
   42MPD2    C3  643   4.218   1.864  14.218 -0.1179  0.3581 -0.5920
   42MPD2    C4  644   4.120   1.778  14.233 -0.3248 -0.1245 -0.5293
   42MPD2    C5  645   4.038   1.747  14.126  0.3748 -0.7469  0.0584
   42MPD2     H  646   4.320   1.999  14.096 -0.8501  1.3680  0.9060
   42MPD2    H1  647   4.115   1.713  14.319  0.4890 -0.0620 -0.4336
   42MPD2    H2  648   3.989   1.778  13.926  0.5477 -1.9548  0.2075
   42MPD2    H3  649   3.959   1.673  14.135 -0.3885 -0.0520 -0.9359
   42MPD2     N  650   4.293   1.894  14.336 -0.5593  0.5587  0.3199
   42MPD2    H5  651   4.245   1.852  14.415 -0.2327  0.0593  0.2505
   42MPD2    N1  652   4.171   1.972  13.870  0.3389  0.2616 -0.4196
   42MPD2    H7  653   4.257   2.025  13.869 -0.7941  2.1585  1.9124
   43MPD2     C  654   0.947   0.624   0.752 -0.5913 -0.6529  0.2886
   43MPD2    C1  655   1.033   0.681   0.844  0.2219  0.5865  1.1351
   43MPD2    C2  656   0.985   0.779   0.929  0.0319 -0.1035 -0.9128
   43MPD2    C3  657   0.855   0.826   0.920 -0.6006  0.5503  0.6067
   43MPD2    C4  658   0.768   0.767   0.829  0.5392 -0.6018 -0.0125
   43MPD2    C5  659   0.814   0.664   0.751  0.5009  0.0958  0.1591
   43MPD2     H  660   1.058   0.829   0.991  0.3875 -0.8416 -0.7291
   43MPD2    H1  661   0.661   0.784   0.826  0.0633 -2.8789  3.3034
   43MPD2    H2  662   0.965   0.546   0.679 -2.3576  0.1181 -0.9791
   43MPD2    H3  663   0.748   0.621   0.676 -0.0368 -1.5121  1.5329
   43MPD2     N  664   0.813   0.939   1.000  0.3915 -0.0600  0.6265
   43MPD2    H5  665   0.723   0.972   0.967  0.4009 -1.8660 -1.1769
   43MPD2    N1  666   1.173   0.648   0.858 -0.2772 -0.5950  0.0749
   43MPD2    H7  667   1.206   0.666   0.953 -2.3521  1.3171  0.4433
   44TCq2    C1  668   0.856   1.384   1.403 -0.1371 -0.1017  0.2531
   44TCq2    O2  669   0.962   1.334   1.429 -0.2494 -0.6895  0.2294
   44TCq2    C2  670   0.798   1.310   1.287  0.5504 -0.6417 -0.1374
   44TCq2    C3  671   0.705   1.376   1.211 -0.0685  0.0936 -0.3054
   44TCq2    C4  672   0.659   1.304   1.101  0.7643 -0.1944 -0.4787
   44TCq2    C5  673   0.713   1.184   1.062  0.1050 -0.1161  1.4037
   44TCq2    C6  674   0.800   1.125   1.142 -0.3558 -0.1018  0.3653
   44TCq2    C7  675   0.839   1.183   1.258  0.0312  0.3151  0.4595
   44TCq2    C8  676   0.886   1.018   1.100 -0.4188 -0.1781 -0.0593
   44TCq2    O4  677   0.994   1.001   1.154  0.5470  0.2905 -0.2835
   44TCq2    C9  678   0.567   1.367   1.014  0.3659  0.9978 -0.1252
   44TCq2    O5  679   0.495   1.455   1.063  0.6809  0.9599 -0.2354
   44TCq2    O6  680   0.549   1.306   0.904 -0.3208 -0.0704  0.6432
   44TCq2    H2  681   0.662   1.473   1.229  1.9155  0.6967  1.0887
   44TCq2    H3  682   0.687   1.144   0.964 -0.5254 -2.5516  2.5844
   44TCq2    H4  683   0.912   1.128   1.316  0.0103 -0.0046  0.1865
   45TMC2    C1  684   1.022   2.931   9.501  0.1384  0.3320  0.3300
   45TMC2    C2  685   0.932   3.000   9.424  0.1227  0.0002 -0.3675
   45TMC2    C3  686   0.970   3.124   9.380  0.3892  0.0010  0.6944
   45TMC2    C4  687   1.133   2.987   9.557  0.3134  0.2664  0.1784
   45TMC2    C5  688   1.149   3.119   9.538  0.7400  0.2176  0.8773
   45TMC2    C6  689   1.074   3.186   9.443 -0.3347  0.2543 -0.7164
   45TMC2     C  690   0.988   2.799   9.550  0.5641  0.4253 -0.0651
   45TMC2     O  691   1.034   2.763   9.657  0.7392 -0.1436 -0.0344
   45TMC2     H  692   0.848   2.952   9.375  0.6418 -1.8127  0.5072
   45TMC2    H1  693   1.206   2.930   9.614  0.2543 -0.1612 -0.1714
   45TMC2    H2  694   1.097   3.289   9.421  1.0792 -0.1218 -0.9878
   45TMC2    C7  695   1.282   3.172   9.553  0.1495  0.7847 -0.2527
   45TMC2    C8  696   0.876   3.202   9.308 -0.5273  0.3860 -0.6446
   45TMC2    O1  697   1.316   3.235   9.453 -0.3863  0.9083  0.0500
   45TMC2    O2  698   0.864   3.321   9.318  0.0615 -0.4941  0.1132
   45TMC2    O5  699   0.833   3.125   9.212 -0.4655  0.1974  0.4081
   45TMC2    H5  700   0.888   3.044   9.211  1.8041  1.7323  1.4799
   46MPD2     C  701   0.862   2.535   9.604 -0.1969 -0.3672  0.5032
   46MPD2    C1  702   0.826   2.615   9.506  0.3003 -0.1568  0.2027
   46MPD2    C2  703   0.716   2.586   9.427 -0.7695 -0.2399  0.2524
   46MPD2    C3  704   0.647   2.470   9.445  0.6442 -0.5698  0.4326
   46MPD2    C4  705   0.698   2.375   9.534  0.3139  0.2260 -0.8789
   46MPD2    C5  706   0.810   2.412   9.610 -0.4850  0.2380  0.2127
   46MPD2     H  707   0.682   2.647   9.344  0.6430  1.3824  0.8727
   46MPD2    H1  708   0.653   2.278   9.551 -1.7365  1.9478  3.5130
   46MPD2    H2  709   0.937   2.556   9.679 -1.3382  0.0725  1.5243
   46MPD2    H3  710   0.851   2.343   9.683  2.0601  3.1749  1.5577
   46MPD2     N  711   0.529   2.452   9.370  1.1793  0.1889 -0.3448
   46MPD2    H5  712   0.490   2.528   9.315 -0.9152 -0.5799  0.0415
   46MPD2    N1  713   0.882   2.743   9.477 -0.2351 -0.3155 -0.3924
   46MPD2    H7  714   0.863   2.791   9.389 -0.5099 -1.0598 -0.7377
   47TMC2    C1  715   2.920   3.507   9.112  0.2126 -0.4386  0.3308
   47TMC2    C2  716   2.992   3.456   9.003  0.3494  0.2413  0.0859
   47TMC2    C3  717   2.933   3.473   8.881  0.1955  0.5244 -0.2742
   47TMC2    C4  718   2.805   3.576   9.096  0.1212 -0.2814  0.0138
   47TMC2    C5  719   2.747   3.588   8.973  0.6958  0.6380 -0.0112
   47TMC2    C6  720   2.809   3.528   8.857  0.1547  0.1258 -0.2371
   47TMC2     C  721   2.984   3.512   9.246  0.3944 -0.2803  0.6945
   47TMC2     O  722   2.954   3.609   9.314  0.3043  0.0787  0.2448
   47TMC2     H  723   3.094   3.426   9.026  0.2996 -0.3745 -0.5100
   47TMC2    H1  724   2.757   3.623   9.181 -0.5990  0.6386 -0.9036
   47TMC2    H2  725   2.753   3.521   8.764  1.2562 -3.2445 -0.6311
   47TMC2    C7  726   2.614   3.652   8.973 -0.3472  0.8988  1.4044
   47TMC2    C8  727   2.999   3.431   8.765  0.0269  0.0953  0.1998
   47TMC2    O1  728   2.554   3.640   9.078 -0.3643  0.2969 -0.2726
   47TMC2    O2  729   3.111   3.379   8.761 -1.1618  0.4818 -0.0930
   47TMC2    O5  730   2.955   3.503   8.661 -0.1066  0.3031  0.3479
   47TMC2    H5  731   2.888   3.573   8.677 -0.3484  0.1747 -0.1067
   48MPD2     C  732   3.103   3.446   9.517  0.2356 -0.1319  0.4170
   48MPD2    C1  733   3.140   3.390   9.396 -0.1599 -0.7536 -0.7456
   48MPD2    C2  734   3.246   3.300   9.389  0.3363 -0.3260 -0.5978
   48MPD2    C3  735   3.317   3.283   9.507  0.0599 -0.5996  0.4624
   48MPD2    C4  736   3.285   3.340   9.624 -0.1776 -0.0787  0.2536
   48MPD2    C5  737   3.176   3.421   9.630  0.3885 -0.1843 -0.1959
   48MPD2     H  738   3.280   3.246   9.302  2.1288  1.8311 -1.2256
   48MPD2    H1  739   3.338   3.317   9.716 -0.0922 -0.1989  0.1746
   48MPD2    H2  740   3.022   3.517   9.523 -1.3171 -1.7140 -1.6499
   48MPD2    H3  741   3.146   3.466   9.724 -0.0583  0.7456 -0.7941
   48MPD2     N  742   3.427   3.195   9.494 -0.1682 -0.0757  0.0819
   48MPD2    H5  743   3.430   3.148   9.405  1.4189 -0.8137  0.5190
   48MPD2    N1  744   3.071   3.415   9.273 -0.0371  0.3899  0.0386
   48MPD2    H7  745   3.074   3.338   9.208  1.0858 -1.1456  1.8965
   49MPD2     C  746   1.386   0.542  10.222  0.2697 -0.0810  0.2464
   49MPD2    C1  747   1.363   0.507  10.356  0.8751  0.3855  0.5293
   49MPD2    C2  748   1.445   0.555  10.458  0.1917  0.0501  0.5171
   49MPD2    C3  749   1.551   0.641  10.424 -0.1325  0.0338 -0.0497
   49MPD2    C4  750   1.565   0.677  10.289 -0.4151  0.0287 -0.1799
   49MPD2    C5  751   1.486   0.625  10.192 -0.8123  0.2683  0.1929
   49MPD2     H  752   1.433   0.528  10.562  0.2769  0.1947  0.5643
   49MPD2    H1  753   1.647   0.738  10.252 -1.4479  1.4096 -0.1952
   49MPD2    H2  754   1.331   0.511  10.134  0.8565 -0.7431  0.1129
   49MPD2    H3  755   1.511   0.650  10.089  0.3375 -2.4108 -0.1899
   49MPD2     N  756   1.636   0.723  10.513 -0.1222 -0.3849  0.2699
   49MPD2    H5  757   1.704   0.782  10.466 -0.5022 -1.7161 -1.9949
   49MPD2    N1  758   1.262   0.409  10.380  0.3393 -0.1389  0.2917
   49MPD2    H7  759   1.261   0.361  10.469  0.3431  0.1113  0.4280
   50TCq2    C1  760   1.170   0.355  10.289 -1.3020  0.4946 -0.2880
   50TCq2    O2  761   1.144   0.395  10.174 -0.1027  0.2766 -0.0754
   50TCq2    C2  762   1.095   0.244  10.339 -0.2123  0.4185  0.1582
   50TCq2    C3  763   0.987   0.209  10.256  0.7542 -0.3630  0.3433
   50TCq2    C4  764   0.939   0.080  10.252 -0.6154  0.3492 -0.1754
   50TCq2    C5  765   0.985   4.712  10.347  0.0272 -0.3811  0.2293
   50TCq2    C6  766   1.092   0.019  10.423 -0.0068 -0.5737  0.3988
   50TCq2    C7  767   1.149   0.146  10.419  0.9476  0.8465  0.8893
   50TCq2    C8  768   1.159   4.642  10.503 -0.4424  0.3351  0.5251
   50TCq2    O4  769   1.097   4.534  10.493 -0.0035  0.3013 -0.0036
   50TCq2    C9  770   0.838   0.039  10.156 -0.2773 -1.0968  0.2866
   50TCq2    O5  771   0.796   4.638  10.160  0.2537  0.5428 -0.2049
   50TCq2    O6  772   0.794   0.126  10.070  0.5609 -0.2120  0.0334
   50TCq2    H2  773   0.949   0.285  10.190  0.7413 -1.6724 -1.1648
   50TCq2    H3  774   0.950   4.610  10.342 -1.2887  0.1957 -2.2747
   50TCq2    H4  775   1.239   0.174  10.474  0.6921  2.0506  0.6858
   51MPD2     C  776   2.668   4.248   1.629 -0.2622 -0.0255 -0.2133
   51MPD2    C1  777   2.690   4.118   1.662 -0.5674  0.2883 -1.0068
   51MPD2    C2  778   2.732   4.084   1.787 -1.4534 -0.1550  0.1591
   51MPD2    C3  779   2.758   4.177   1.887  0.2704  0.5649  0.0358
   51MPD2    C4  780   2.739   4.308   1.849  0.7572 -0.4525  1.0825
   51MPD2    C5  781   2.697   4.341   1.723 -0.4660  0.1846  0.1234
   51MPD2     H  782   2.758   3.979   1.793 -0.7093  0.0571  0.6516
   51MPD2    H1  783   2.760   4.393   1.914  1.0517  1.8464 -2.0159
   51MPD2    H2  784   2.649   4.274   1.525 -4.5975 -1.7313  0.1845
   51MPD2    H3  785   2.692   4.448   1.703  2.3476  0.1612 -0.7554
   51MPD2     N  786   2.824   4.156   2.013  0.5855  0.7772 -0.0171
   51MPD2    H5  787   2.838   4.235   2.075  1.9359  0.1612  0.4753
   51MPD2    N1  788   2.661   4.014   1.566 -0.1876 -0.2327  0.1755
   51MPD2    H7  789   2.633   3.923   1.601  0.1930  0.0419  1.2043
   52TCq2    C1  790   2.869   4.029   2.052  0.5411 -0.5281  0.5101
   52TCq2    O2  791   2.826   3.922   2.014 -0.1789  0.1445 -0.0668
   52TCq2    C2  792   2.961   4.033   2.156  0.6301 -0.3485  0.3495
   52TCq2    C3  793   2.951   3.923   2.237  0.6536 -0.1920  0.0093
   52TCq2    C4  794   3.018   3.941   2.356  0.2116  0.0256  0.2722
   52TCq2    C5  795   3.095   4.053   2.394 -0.2562 -0.0054 -0.1451
   52TCq2    C6  796   3.098   4.153   2.306 -0.2093  0.1185  1.1581
   52TCq2    C7  797   3.027   4.147   2.192 -0.2717 -0.3269 -0.9738
   52TCq2    C8  798   3.165   4.278   2.339 -0.2095 -0.5793  0.0602
   52TCq2    O4  799   3.116   4.386   2.306 -0.4500  0.5544  0.1011
   52TCq2    C9  800   3.028   3.823   2.437 -0.2198 -0.7001  0.2031
   52TCq2    O5  801   3.090   3.829   2.540  0.2323 -0.3902  0.1147
   52TCq2    O6  802   2.964   3.721   2.396  0.0688  0.4895  0.5944
   52TCq2    H2  803   2.892   3.836   2.213  0.5076  0.6084 -2.5560
   52TCq2    H3  804   3.133   4.065   2.495 -0.8287  2.1861 -0.1950
   52TCq2    H4  805   3.047   4.223   2.118  1.4564  0.1415 -0.0283
   53TMC2    C1  806   2.603   2.666  12.264 -0.4637 -0.6461  0.3173
   53TMC2    C2  807   2.680   2.653  12.373 -0.3610  0.5200  1.3085
   53TMC2    C3  808   2.617   2.651  12.497  0.0099 -0.6620 -1.3348
   53TMC2    C4  809   2.469   2.692  12.271  0.1345  0.1997 -0.9974
   53TMC2    C5  810   2.413   2.678  12.395  0.1925  0.4054  0.2209
   53TMC2    C6  811   2.482   2.667  12.513 -0.0892 -0.2341 -0.5997
   53TMC2     C  812   2.665   2.675  12.131  0.1004  0.1638 -0.8331
   53TMC2     O  813   2.788   2.685  12.135 -0.0922 -0.0013 -0.1175
   53TMC2     H  814   2.787   2.635  12.366 -0.2181  2.3122 -1.2363
   53TMC2    H1  815   2.399   2.690  12.188  0.2841  0.3345 -1.1272
   53TMC2    H2  816   2.441   2.670  12.613  1.7181 -1.0481  0.1639
   53TMC2    C7  817   2.268   2.678  12.393  0.2470 -0.4694 -0.6077
   53TMC2    C8  818   2.703   2.690  12.607  0.1762  0.5537  0.6595
   53TMC2    O1  819   2.199   2.724  12.302 -0.5620 -0.0111  0.4470
   53TMC2    O2  820   2.820   2.652  12.610 -0.5894  0.0517 -0.2913
   53TMC2    O5  821   2.658   2.806  12.648 -0.0745 -0.4390 -0.1051
   53TMC2    H5  822   2.571   2.846  12.628 -1.0252 -2.9035 -0.7830
   54MPD2     C  823   2.736   2.768  11.845  0.7176 -0.3025 -0.2033
   54MPD2    C1  824   2.604   2.746  11.897 -0.1119 -0.2540  0.0089
   54MPD2    C2  825   2.497   2.756  11.815 -0.7957  0.3767  0.1303
   54MPD2    C3  826   2.516   2.769  11.678 -0.1222  0.3007  0.3168
   54MPD2    C4  827   2.642   2.805  11.632 -0.2899 -0.4866  0.7178
   54MPD2    C5  828   2.748   2.801  11.718 -0.2581  0.2966 -0.2650
   54MPD2     H  829   2.399   2.733  11.856 -0.2364 -2.1718  0.0316
   54MPD2    H1  830   2.659   2.831  11.529  0.0009 -0.6309  0.7291
   54MPD2    H2  831   2.825   2.766  11.906  1.1474 -0.0164 -0.8207
   54MPD2    H3  832   2.848   2.821  11.680  1.2765 -2.2337  2.5052
   54MPD2     N  833   2.412   2.751  11.586  0.1097  0.0354 -0.3657
   54MPD2    H5  834   2.434   2.770  11.489 -0.5559  0.3605 -0.4531
   54MPD2    N1  835   2.574   2.712  12.031 -0.1795  0.0601 -0.0401
   54MPD2    H7  836   2.474   2.720  12.050 -0.3900 -1.9134 -0.3001
   55MPD2     C  837   3.614   0.957  17.586 -0.1955  0.0896 -0.3118
   55MPD2    C1  838   3.622   0.849  17.672  0.3941  0.7468  0.5406
   55MPD2    C2  839   3.567   0.854   0.106 -0.8218  0.1908  0.8430
   55MPD2    C3  840   3.503   0.966   0.147  0.1801 -0.2893 -0.3701
   55MPD2    C4  841   3.491   1.073   0.059 -0.7460 -0.3321  0.4114
   55MPD2    C5  842   3.543   1.067  17.628  0.4808  0.2205  0.8220
   55MPD2     H  843   3.591   0.779   0.180  1.9979  1.3913  1.1511
   55MPD2    H1  844   3.429   1.160   0.077 -2.2257 -1.0382 -1.2527
   55MPD2    H2  845   3.637   0.950  17.480  1.0909  2.5469 -0.1994
   55MPD2    H3  846   3.526   1.146  17.556  0.7910  0.1311  0.6491
   55MPD2     N  847   3.462   0.964   0.283  0.1698 -0.0193  0.0213
   55MPD2    H5  848   3.477   0.875   0.329  0.5335 -0.0223 -0.1052
   55MPD2    N1  849   3.698   0.743  17.619  0.7495  0.1153 -0.8835
   55MPD2    H7  850   3.716   0.742  17.519 -0.4907 -0.1544 -1.1091
   56TCq2    C1  851   3.718   0.621  17.690 -0.6609  0.3193  0.7414
   56TCq2    O2  852   3.678   0.582   0.101  0.7274 -0.3599  0.5752
   56TCq2    C2  853   3.797   0.529  17.610 -0.1459  0.5099  0.3543
   56TCq2    C3  854   3.802   0.546  17.476 -0.0225 -0.5191  0.6291
   56TCq2    C4  855   3.862   0.436  17.418  0.0188 -0.8504  0.6063
   56TCq2    C5  856   3.908   0.323  17.474 -0.1401 -1.2369 -0.6501
   56TCq2    C6  857   3.914   0.322  17.609 -0.3853  0.2601 -0.1279
   56TCq2    C7  858   3.845   0.422  17.682  0.3227  0.1494  0.2514
   56TCq2    C8  859   3.978   0.211  17.675 -0.6751 -0.5402 -0.3757
   56TCq2    O4  860   4.019   0.116  17.611 -0.0067  0.3099 -0.4141
   56TCq2    C9  861   3.864   0.445  17.271 -0.0667  0.8325  0.4191
   56TCq2    O5  862   3.868   0.559  17.214 -0.2304 -0.3086  0.2830
   56TCq2    O6  863   3.825   0.337  17.219  0.0676 -0.3141  0.1376
   56TCq2    H2  864   3.774   0.635  17.421 -1.4131 -1.7244 -0.6466
   56TCq2    H3  865   3.942   0.240  17.415  1.3274  0.2348 -1.8794
   56TCq2    H4  866   3.855   0.431   0.095 -1.1653 -0.2813  0.4263
   57TMC2    C1  867   2.557   1.625  13.749  0.0265 -0.4299 -0.1171
   57TMC2    C2  868   2.612   1.518  13.816  0.5639  0.0987  0.2945
   57TMC2    C3  869   2.718   1.448  13.763  0.0639 -0.2289  0.5290
   57TMC2    C4  870   2.587   1.651  13.614  0.1710  0.2501  0.5992
   57TMC2    C5  871   2.685   1.569  13.567 -0.0352  0.0385  0.1405
   57TMC2    C6  872   2.755   1.470  13.636  0.2772 -0.0392 -0.1223
   57TMC2     C  873   2.423   1.660  13.804 -0.8881 -0.3669 -0.2289
   57TMC2     O  874   2.409   1.705  13.917 -0.3074 -0.7141  0.1951
   57TMC2     H  875   2.586   1.504  13.920 -2.4947 -1.6500 -0.7027
   57TMC2    H1  876   2.544   1.727  13.550 -1.6300 -0.0380  1.4603
   57TMC2    H2  877   2.829   1.404  13.590 -0.3932 -0.5072 -0.5338
   57TMC2    C7  878   2.693   1.558  13.421  0.6373 -0.0978 -0.0382
   57TMC2    C8  879   2.759   1.320  13.822  0.3412 -0.2355  0.3354
   57TMC2    O1  880   2.628   1.640  13.361  0.0291  0.1127 -0.0147
   57TMC2    O2  881   2.671   1.246  13.866 -0.1400  0.9409 -0.3004
   57TMC2    O5  882   2.863   1.356  13.890 -0.0176 -0.4428 -0.6233
   57TMC2    H5  883   2.916   1.422  13.840 -0.5834 -1.5687 -2.7082
   58MPD2     C  884   1.923   1.553  13.758  0.8213 -0.1503  0.5206
   58MPD2    C1  885   1.995   1.621  13.860  0.1360 -0.3118 -0.8029
   58MPD2    C2  886   2.122   1.660  13.834 -0.0605 -0.2501  0.7541
   58MPD2    C3  887   2.191   1.609  13.727  0.0158 -0.1778 -0.0091
   58MPD2    C4  888   2.122   1.540  13.627 -0.2182  0.1725  0.5229
   58MPD2    C5  889   1.987   1.523  13.641  0.0232 -0.0600  0.2216
   58MPD2     H  890   2.171   1.721  13.909  1.1795  1.3345 -1.3416
   58MPD2    H1  891   2.162   1.502  13.533 -2.4621  1.5800 -1.0033
   58MPD2    H2  892   1.827   1.508  13.781 -0.6869  3.0343  0.4425
   58MPD2    H3  893   1.936   1.459  13.570 -0.8367 -0.5146  1.2390
   58MPD2     N  894   2.332   1.615  13.715 -0.2549  0.6473 -0.0279
   58MPD2    H5  895   2.379   1.573  13.635  0.5436  0.4992  0.5105
   58MPD2    N1  896   1.929   1.662  13.981  0.1291  0.8149  0.1600
   58MPD2    H7  897   1.977   1.731  14.038  1.0625  0.2854  0.0068
   59MPD2     C  898   0.516   1.218  13.122 -0.8780  0.1942 -0.2922
   59MPD2    C1  899   0.486   1.305  13.019  0.4397  0.1626 -0.0492
   59MPD2    C2  900   0.526   1.436  13.013  0.2314 -0.7333  0.8491
   59MPD2    C3  901   0.612   1.477  13.119 -0.5527 -0.4311  0.5159
   59MPD2    C4  902   0.639   1.391  13.224  0.2335 -0.2577  1.1177
   59MPD2    C5  903   0.582   1.264  13.234  0.4421  1.1123  0.2107
   59MPD2     H  904   0.489   1.500  12.935  0.8881 -1.2813  0.0863
   59MPD2    H1  905   0.693   1.433  13.308 -0.9168  0.6111  1.4247
   59MPD2    H2  906   0.474   1.118  13.126 -0.4715  0.0199 -0.3585
   59MPD2    H3  907   0.596   1.209  13.326 -1.3910 -1.3986 -1.0026
   59MPD2     N  908   0.658   1.611  13.138  0.0290  0.1396 -0.3014
   59MPD2    H5  909   0.708   1.634  13.223  0.3699 -2.6331  0.2278
   59MPD2    N1  910   0.390   1.256  12.926 -0.0656  0.4291 -0.2420
   59MPD2    H7  911   0.342   1.168  12.942 -1.6423  1.2877 -0.2134
   60TCq2    C1  912   0.357   1.309  12.804  0.7341  1.3573 -0.0436
   60TCq2    O2  913   0.394   1.415  12.754  0.4133 -0.0602 -0.0060
   60TCq2    C2  914   0.250   1.248  12.735 -0.3510  0.5611  0.3509
   60TCq2    C3  915   0.176   1.141  12.780 -0.0474  0.5423  0.9112
   60TCq2    C4  916   0.100   1.076  12.692 -0.0613  0.1952 -0.7465
   60TCq2    C5  917   0.095   1.110  12.562  0.2189  0.3687  0.4274
   60TCq2    C6  918   0.149   1.233  12.524 -0.4692 -0.4377 -0.4902
   60TCq2    C7  919   0.237   1.291  12.606 -0.1888  0.1084  0.2913
   60TCq2    C8  920   0.161   1.252  12.378 -0.4073  0.5330 -0.1602
   60TCq2    O4  921   0.201   1.151  12.317  0.2754 -0.2407  0.0324
   60TCq2    C9  922   0.018   0.959  12.726 -0.7045 -0.2800  0.6235
   60TCq2    O5  923   4.687   0.900  12.629  0.3542  0.3033 -0.3454
   60TCq2    O6  924   0.003   0.943  12.847  0.2935 -0.1950 -0.3681
   60TCq2    H2  925   0.180   1.110  12.883  1.0428  1.0700  1.0297
   60TCq2    H3  926   0.032   1.056  12.492  2.7468 -0.6133 -1.0581
   60TCq2    H4  927   0.295   1.371  12.560 -0.6326 -0.1465 -0.7134
   61MPD2     C  928   4.597   2.436  14.363 -0.3092 -0.5069 -0.0730
   61MPD2    C1  929   4.595   2.574  14.387 -0.1774  0.4789  0.0842
   61MPD2    C2  930   4.574   2.662  14.279 -0.3911 -0.2632  0.6207
   61MPD2    C3  931   4.558   2.611  14.150  0.1150  0.0378 -0.7545
   61MPD2    C4  932   4.568   2.477  14.135 -0.2229 -0.1581  0.7283
   61MPD2    C5  933   4.579   2.388  14.238  0.1107 -0.2667 -0.5045
   61MPD2     H  934   4.569   2.770  14.292 -0.9893 -0.5048  2.4396
   61MPD2    H1  935   4.560   2.428  14.039  0.3758 -0.2755  0.7383
   61MPD2    H2  936   4.614   2.375  14.452 -1.3988  0.5277  0.8455
   61MPD2    H3  937   4.573   2.281  14.222 -1.8516 -0.0730 -1.0750
   61MPD2     N  938   4.557   2.692  14.028 -1.0400 -0.3623  0.1186
   61MPD2    H5  939   4.592   2.647  13.944 -2.3459  0.7843 -1.0390
   61MPD2    N1  940   4.608   2.634  14.515  0.1763 -0.0708  0.1082
   61MPD2    H7  941   4.582   2.731  14.528 -1.7474 -0.5684 -0.0733
   62TCq2    C1  942   4.646   2.568  14.631 -0.4641  0.1922  0.0374
   62TCq2    O2  943   4.677   2.451  14.650  0.2202 -0.0378  0.8527
   62TCq2    C2  944   4.681   2.662  14.739  0.1269  0.3553  0.4802
   62TCq2    C3  945   0.088   2.667  14.788  0.1021  0.1819 -0.6008
   62TCq2    C4  946   0.124   2.779  14.848 -0.4644 -0.0806 -0.4506
   62TCq2    C5  947   0.040   2.883  14.868 -0.2381  0.4204 -0.2449
   62TCq2    C6  948   4.635   2.872  14.826 -0.1477  0.1366  0.1089
   62TCq2    C7  949   4.595   2.768  14.756  0.4089  0.3359  0.7066
   62TCq2    C8  950   4.554   2.993  14.807  0.7497 -0.2590  0.8927
   62TCq2    O4  951   4.614   3.101  14.793 -0.4178 -0.2611  0.0760
   62TCq2    C9  952   0.261   2.793  14.890 -0.2852 -0.4715 -0.0482
   62TCq2    O5  953   0.298   2.906  14.930 -0.6707 -0.0680 -0.2885
   62TCq2    O6  954   0.338   2.692  14.880 -0.6943 -0.2609 -0.2433
   62TCq2    H2  955   0.157   2.585  14.772  2.5009  2.4721 -1.8925
   62TCq2    H3  956   0.068   2.981  14.906  0.5661  0.1545 -0.1606
   62TCq2    H4  957   4.503   2.774  14.699 -0.5008  1.8159  2.2871
   63TMC2    C1  958   3.709   3.075  11.162 -0.0451  0.3298  0.0239
   63TMC2    C2  959   3.843   3.092  11.190 -0.0506  0.2842 -0.0432
   63TMC2    C3  960   3.913   3.154  11.089 -0.1141 -0.4626  0.0455
   63TMC2    C4  961   3.641   3.148  11.071  0.6783 -0.1976  0.1861
   63TMC2    C5  962   3.717   3.226  10.984 -0.3720 -0.3093 -0.4413
   63TMC2    C6  963   3.857   3.227  10.987  0.4905 -0.2494  0.8076
   63TMC2     C  964   3.636   3.007  11.260 -0.3519 -0.4119  0.2145
   63TMC2     O  965   3.686   3.010  11.372 -0.0766 -0.0426  0.1498
   63TMC2     H  966   3.896   3.033  11.264  1.5809  1.6024 -0.1652
   63TMC2    H1  967   3.533   3.157  11.065  0.7443 -0.8485 -1.9750
   63TMC2    H2  968   3.915   3.271  10.907 -2.3582  1.2856 -0.4347
   63TMC2    C7  969   3.632   3.286  10.881  0.6144 -0.1253  0.3168
   63TMC2    C8  970   4.052   3.128  11.090 -0.0938  0.2646 -0.8850
   63TMC2    O1  971   3.516   3.242  10.865 -0.3143 -0.3046  0.6621
   63TMC2    O2  972   4.109   3.113  11.201  0.2287  0.9639  0.2444
   63TMC2    O5  973   4.115   3.184  10.984  0.2454  0.1931  0.8258
   63TMC2    H5  974   4.059   3.179  10.903  1.1148 -0.8649  0.2891
   64MPD2     C  975   3.208   2.765  11.400 -0.3636  0.2568 -0.0230
   64MPD2    C1  976   3.214   2.780  11.261 -0.2023 -0.6706  0.3995
   64MPD2    C2  977   3.306   2.862  11.204  0.2782 -0.1760 -0.6121
   64MPD2    C3  978   3.405   2.921  11.281  0.8262  0.1961  0.0992
   64MPD2    C4  979   3.398   2.914  11.419  0.1963 -0.1153  0.1746
   64MPD2    C5  980   3.302   2.839  11.477  0.0255 -0.9162  0.3508
   64MPD2     H  981   3.319   2.874  11.097 -0.5413  1.0152 -0.5691
   64MPD2    H1  982   3.469   2.964  11.483  1.4160 -1.5813 -0.0447
   64MPD2    H2  983   3.138   2.709  11.462 -0.9147  0.9190 -0.0498
   64MPD2    H3  984   3.297   2.835  11.585  0.4544  0.9952  0.4372
   64MPD2     N  985   3.512   2.973  11.213 -0.7031  0.3927  0.1490
   64MPD2    H5  986   3.505   2.970  11.112  3.8009 -0.5771 -0.1323
   64MPD2    N1  987   3.147   2.696  11.170  0.7697  0.5328 -0.5143
   64MPD2    H7  988   3.168   2.713  11.072 -0.1830  0.8796 -0.6549
   65MPD2     C  989   0.675   2.761  15.832 -0.5073 -0.0777 -0.0217
   65MPD2    C1  990   0.634   2.748  15.704 -0.1229  0.2578 -0.2693
   65MPD2    C2  991   0.575   2.628  15.671 -0.4199 -0.0198  0.4729
   65MPD2    C3  992   0.554   2.524  15.756 -0.0872  0.5401  0.9352
   65MPD2    C4  993   0.591   2.537  15.885 -0.5707 -0.3798 -0.1213
   65MPD2    C5  994   0.644   2.660  15.927  1.2203  0.7691 -0.1034
   65MPD2     H  995   0.543   2.621  15.568 -1.1989 -2.2726  0.8656
   65MPD2    H1  996   0.567   2.465  15.962  0.5091 -2.5295 -1.7904
   65MPD2    H2  997   0.726   2.851  15.864 -2.7049  1.0119  0.4130
   65MPD2    H3  998   0.643   2.683  16.033 -2.6283 -0.7541  0.2050
   65MPD2     N  999   0.490   2.397  15.714  0.1473 -0.4005 -0.9601
   65MPD2    H5 1000   0.452   2.340  15.789 -0.7804  1.2635 -0.1648
   65MPD2    N1 1001   0.655   2.843  15.601 -0.6936 -0.0943 -0.3984
   65MPD2    H7 1002   0.638   2.813  15.506 -0.7619 -2.1140  0.2661
   66TCq2    C1 1003   0.706   2.969  15.611 -0.4396  0.7680 -0.0588
   66TCq2    O2 1004   0.735   3.026  15.713 -0.6744  0.0502  0.6681
   66TCq2    C2 1005   0.715   3.047  15.489 -0.6266 -0.0202 -0.5404
   66TCq2    C3 1006   0.729   2.990  15.365  0.1254  0.0493  0.4054
   66TCq2    C4 1007   0.668   3.052  15.261  0.6231 -0.0657  0.1210
   66TCq2    C5 1008   0.614   3.180  15.274 -0.3183 -0.2162 -0.0077
   66TCq2    C6 1009   0.623   3.236  15.399 -1.1884  0.2188  0.7675
   66TCq2    C7 1010   0.674   3.176  15.508 -0.1920  0.1026  0.4797
   66TCq2    C8 1011   0.569   3.369  15.420 -0.0547 -0.1822  0.1830
   66TCq2    O4 1012   0.598   3.456  15.341  0.4338  0.3989  0.6161
   66TCq2    C9 1013   0.654   2.979  15.130 -0.3334  0.4275 -0.0046
   66TCq2    O5 1014   0.685   2.857  15.126  0.4022  0.0001  0.5029
   66TCq2    O6 1015   0.565   3.028  15.057 -0.2446 -0.2994 -0.0415
   66TCq2    H2 1016   0.770   2.891  15.347  0.5190  0.1963  0.4986
   66TCq2    H3 1017   0.567   3.232  15.192 -0.1151  1.9645  1.2603
   66TCq2    H4 1018   0.674   3.227  15.605 -1.5433 -0.3291  0.6969
   67MPD2     C 1019   0.548   1.757  14.232 -0.0101  0.3599  0.2803
   67MPD2    C1 1020   0.458   1.823  14.317  0.1459  0.3690 -0.5112
   67MPD2    C2 1021   0.324   1.786  14.304 -0.4054 -0.4061  0.4056
   67MPD2    C3 1022   0.287   1.714  14.191  0.5798 -0.0288 -0.0318
   67MPD2    C4 1023   0.379   1.674  14.091  0.2120 -0.2685 -1.0010
   67MPD2    C5 1024   0.511   1.686  14.120 -0.2960 -0.1680  0.0906
   67MPD2     H 1025   0.255   1.824  14.378 -1.5706  0.1610 -0.9689
   67MPD2    H1 1026   0.345   1.621  14.003 -1.5519 -0.1447 -0.3910
   67MPD2    H2 1027   0.655   1.774  14.243  0.0008 -0.4513  1.4408
   67MPD2    H3 1028   0.587   1.659  14.048  0.3315  1.0526  0.3074
   67MPD2     N 1029   0.157   1.665  14.165  0.4065 -0.4603  0.3982
   67MPD2    H5 1030   0.134   1.639  14.070  0.7956  1.1313 -0.1350
   67MPD2    N1 1031   0.504   1.913  14.413  0.0014 -0.2319  0.5564
   67MPD2    H7 1032   0.441   1.919  14.493 -1.3585  0.8089 -0.5986
   68TCq2    C1 1033   0.634   1.960  14.431  0.9231 -0.2853  0.1152
   68TCq2    O2 1034   0.733   1.951  14.360 -0.3757  0.1301  0.2872
   68TCq2    C2 1035   0.656   2.044  14.545  0.3479  0.0068  0.2213
   68TCq2    C3 1036   0.556   2.120  14.596 -0.8211 -0.3415 -0.4988
   68TCq2    C4 1037   0.579   2.187  14.718  0.2831 -0.0828  0.1704
   68TCq2    C5 1038   0.700   2.203  14.773  0.0960  0.0070 -0.6981
   68TCq2    C6 1039   0.796   2.123  14.712  0.7233 -0.0862  0.7453
   68TCq2    C7 1040   0.777   2.048  14.602 -0.3188 -0.3801 -0.1397
   68TCq2    C8 1041   0.933   2.117  14.778  0.3033 -0.5750  0.2097
   68TCq2    O4 1042   1.031   2.075  14.715  0.3124 -0.1368  0.6019
   68TCq2    C9 1043   0.470   2.273  14.773  0.5088  0.6648 -0.4065
   68TCq2    O5 1044   0.361   2.277  14.706 -0.3845  0.4138  0.3448
   68TCq2    O6 1045   0.496   2.332  14.880  0.8548  0.3980  0.1805
   68TCq2    H2 1046   0.463   2.130  14.541 -1.5870 -1.6450  0.5196
   68TCq2    H3 1047   0.718   2.279  14.849 -0.6069 -2.2038  1.6859
   68TCq2    H4 1048   0.864   1.996  14.564 -1.0258 -0.6236 -1.4508
   69TMC2    C1 1049   1.482   3.449  12.199 -0.0865  0.8745 -0.8087
   69TMC2    C2 1050   1.469   3.574  12.258 -0.2067 -0.2391 -0.3866
   69TMC2    C3 1051   1.512   3.679  12.183  0.3007 -0.2778  0.1478
   69TMC2    C4 1052   1.533   3.441  12.072  0.0848  0.5170 -0.1508
   69TMC2    C5 1053   1.561   3.547  11.995 -0.4550  0.1281  0.9385
   69TMC2    C6 1054   1.548   3.670  12.052 -0.7986  0.6100 -0.4278
   69TMC2     C 1055   1.561   3.362  12.282 -0.3777 -0.2368 -0.7398
   69TMC2     O 1056   1.521   3.334  12.394  0.4345 -0.3111 -0.4076
   69TMC2     H 1057   1.452   3.584  12.364 -0.4949  2.2516 -0.6657
   69TMC2    H1 1058   1.529   3.343  12.026  0.0006  0.3646  0.1831
   69TMC2    H2 1059   1.568   3.763  12.000  1.6173  0.9978  1.2013
   69TMC2    C7 1060   1.667   3.510  11.903 -0.5871 -0.5242 -0.1615
   69TMC2    C8 1061   1.529   3.803  12.252  0.4934  0.1043 -0.1490
   69TMC2    O1 1062   1.726   3.413  11.947 -0.2594 -0.1449  0.3403
   69TMC2    O2 1063   1.451   3.847  12.337 -0.0956 -0.2012  0.9610
   69TMC2    O5 1064   1.664   3.828  12.251  0.0690  0.0881  0.0049
   69TMC2    H5 1065   1.720   3.764  12.201  0.6189  0.6784 -0.1418
   70MPD2     C 1066   1.885   3.208  12.190  1.1814  0.7704 -0.0428
   70MPD2    C1 1067   1.777   3.230  12.274 -0.0118  0.9258 -0.3393
   70MPD2    C2 1068   1.760   3.154  12.390  0.2016  1.1754 -0.5853
   70MPD2    C3 1069   1.856   3.059  12.420  0.1648  0.1354  0.7650
   70MPD2    C4 1070   1.972   3.050  12.342 -0.2529 -0.4537 -0.5119
   70MPD2    C5 1071   1.977   3.111  12.222  0.3623  0.6892  0.2707
   70MPD2     H 1072   1.675   3.167  12.455 -1.0353 -2.6548 -1.4284
   70MPD2    H1 1073   2.050   2.981  12.372 -0.4637 -0.9317 -1.0525
   70MPD2    H2 1074   1.893   3.258  12.094  0.3256  1.5938  0.3179
   70MPD2    H3 1075   2.061   3.099  12.155  1.7854 -1.6397  2.5203
   70MPD2     N 1076   1.851   2.984  12.541  0.8019  0.0196  0.4257
   70MPD2    H5 1077   1.934   2.928  12.556 -0.5034 -2.7114 -2.6656
   70MPD2    N1 1078   1.677   3.312  12.222 -0.7786 -0.0366  0.0055
   70MPD2    H7 1079   1.695   3.341  12.126  1.5759  1.8093  1.0110
   71TMC2    C1 1080   0.197   4.233   2.063 -0.4256 -0.5100  1.1603
   71TMC2    C2 1081   0.256   4.343   2.110 -0.6157  0.4374  0.1707
   71TMC2    C3 1082   0.203   4.397   2.221 -0.2673  0.0920  0.4734
   71TMC2    C4 1083   0.080   4.175   2.107  0.3132 -0.4449 -0.2425
   71TMC2    C5 1084   0.023   4.242   2.212  0.3056  0.1197  0.0825
   71TMC2    C6 1085   0.093   4.342   2.275 -0.2797  0.2094 -0.7867
   71TMC2     C 1086   0.279   4.148   1.976  0.1332 -0.0816 -0.3980
   71TMC2     O 1087   0.223   4.053   1.925 -0.6889 -0.2982 -0.4640
   71TMC2     H 1088   0.333   4.386   2.047  0.1930  0.2423  1.0343
   71TMC2    H1 1089   0.038   4.083   2.067 -1.4742 -0.3918  1.5190
   71TMC2    H2 1090   0.044   4.389   2.360  0.6237  0.2395 -0.2869
   71TMC2    C7 1091   4.612   4.197   2.270  0.8262  0.4413 -0.4308
   71TMC2    C8 1092   0.245   4.522   2.270  0.2680 -0.0832 -0.4097
   71TMC2    O1 1093   4.586   4.259   2.372  0.1335 -0.0811  0.0114
   71TMC2    O2 1094   0.171   4.585   2.346 -0.0500 -0.3405 -0.2706
   71TMC2    O5 1095   0.376   4.528   2.256 -0.1391 -0.5229 -0.2077
   71TMC2    H5 1096   0.412   4.466   2.190 -0.1096  0.2762 -0.9323
   72MPD2     C 1097   0.727   3.979   1.795  0.2028 -0.0490  0.4883
   72MPD2    C1 1098   0.602   3.988   1.733  0.3777 -0.6397 -0.2034
   72MPD2    C2 1099   0.492   4.033   1.806  0.5033  0.1944 -0.0240
   72MPD2    C3 1100   0.512   4.094   1.930  0.2111  0.2443  0.1682
   72MPD2    C4 1101   0.644   4.093   1.982  0.7045 -1.0176  0.2075
   72MPD2    C5 1102   0.740   4.030   1.920  0.4960  0.1112  1.0236
   72MPD2     H 1103   0.396   4.025   1.755  0.9781 -0.1066 -0.8690
   72MPD2    H1 1104   0.668   4.151   2.071 -1.6485  1.2539 -0.6283
   72MPD2    H2 1105   0.813   3.927   1.754 -0.7943 -0.9236 -0.4960
   72MPD2    H3 1106   0.839   4.036   1.963  0.8039  0.8207  0.2229
   72MPD2     N 1107   0.413   4.167   1.995  0.0171  1.2977  0.3092
   72MPD2    H5 1108   0.441   4.236   2.064  2.2980 -0.3670  1.0278
   72MPD2    N1 1109   0.563   3.932   1.611 -0.2508  0.1924 -0.3619
   72MPD2    H7 1110   0.467   3.950   1.584 -0.0122  1.8829 -0.1055
   73TMC2    C1 1111   4.326   0.541  14.236 -0.2779 -0.5161 -0.0960
   73TMC2    C2 1112   4.379   0.414  14.251  0.4006  0.6246 -0.0675
   73TMC2    C3 1113   4.502   0.409  14.299  0.4282 -0.5295 -0.2672
   73TMC2    C4 1114   4.390   0.656  14.287 -0.0168 -0.0213  0.2814
   73TMC2    C5 1115   4.514   0.642  14.343 -0.6488  0.0520  0.9572
   73TMC2    C6 1116   4.565   0.517  14.354  0.5509  0.1056  0.4518
   73TMC2     C 1117   4.299   0.580  14.100  0.1255 -0.1067  0.3017
   73TMC2     O 1118   4.308   0.705  14.082  0.0354 -0.2171  0.1622
   73TMC2     H 1119   4.322   0.323  14.231 -0.5312  0.6218  2.5389
   73TMC2    H1 1120   4.348   0.755  14.298 -0.4332 -0.1274 -0.3625
   73TMC2    H2 1121   4.669   0.502  14.380  0.0933 -3.4950  0.2892
   73TMC2    C7 1122   4.598   0.747  14.295 -0.7982  0.0033 -0.9216
   73TMC2    C8 1123   4.537   0.286  14.370 -0.7830 -0.5260  0.2870
   73TMC2    O1 1124   4.706   0.751  14.354  0.1118 -0.1150  0.0545
   73TMC2    O2 1125   4.595   0.294  14.480 -0.2174 -0.5559 -0.1386
   73TMC2    O5 1126   4.477   0.173  14.323 -0.3464  0.1060 -0.3627
   73TMC2    H5 1127   4.453   0.158  14.229  2.0331  0.9903 -1.1269
   74MPD2     C 1128   4.151   0.479  13.616  0.5987  0.2829  0.2081
   74MPD2    C1 1129   4.194   0.597  13.677 -0.2485 -0.0931 -0.3786
   74MPD2    C2 1130   4.217   0.592  13.813 -0.1122 -0.1109 -0.4480
   74MPD2    C3 1131   4.227   0.477  13.883  0.7427 -0.0304  0.0641
   74MPD2    C4 1132   4.196   0.359  13.819 -0.5400 -0.6180 -0.1413
   74MPD2    C5 1133   4.141   0.366  13.694  0.3627 -0.1344 -0.3426
   74MPD2     H 1134   4.238   0.689  13.858  2.4279 -0.7754 -0.2339
   74MPD2    H1 1135   4.193   0.266  13.875  1.2091  0.2022  1.3288
   74MPD2    H2 1136   4.129   0.479  13.510  0.4237 -1.1898  0.2455
   74MPD2    H3 1137   4.090   0.276  13.661  1.2484 -0.6293 -0.3943
   74MPD2     N 1138   4.268   0.472  14.018 -0.2295  0.2756  0.4642
   74MPD2    H5 1139   4.287   0.384  14.065 -0.9396 -0.0510  0.1505
   74MPD2    N1 1140   4.223   0.712  13.589 -0.1537  0.0240 -0.0509
   74MPD2    H7 1141   4.183   0.704  13.497 -0.9956  0.7650  0.2505
   75TCq2    C1 1142   0.065   1.652  14.268 -0.6327  0.3967  0.4072
   75TCq2    O2 1143   0.085   1.644  14.390 -0.1405  0.3494  0.0598
   75TCq2    C2 1144   4.660   1.618  14.218 -0.7010  0.1709  0.0354
   75TCq2    C3 1145   4.572   1.557  14.306  0.0809 -0.7188 -0.6449
   75TCq2    C4 1146   4.442   1.529  14.268  0.3339  0.0344 -0.0797
   75TCq2    C5 1147   4.397   1.560  14.152 -0.3579 -0.2681  0.1742
   75TCq2    C6 1148   4.483   1.630  14.067  0.3466 -0.0016 -0.3162
   75TCq2    C7 1149   4.609   1.666  14.100  0.6811 -0.4295  0.3394
   75TCq2    C8 1150   4.428   1.648  13.930 -0.2795  0.3013 -0.5017
   75TCq2    O4 1151   4.366   1.553  13.891  0.0369 -0.0301  0.0223
   75TCq2    C9 1152   4.359   1.466  14.364  0.0351  0.8481 -0.1694
   75TCq2    O5 1153   4.407   1.447  14.480 -0.0870  0.3923  0.1741
   75TCq2    O6 1154   4.227   1.475  14.345  0.5562 -0.3064  0.1145
   75TCq2    H2 1155   4.610   1.508  14.395 -3.3758 -1.4186  0.4693
   75TCq2    H3 1156   4.293   1.555  14.124 -0.2503 -1.0621 -0.0818
   75TCq2    H4 1157   4.671   1.728  14.036 -0.4715 -1.6462 -1.9534
   76MPD2     C 1158   2.700   3.056  12.232  0.1402 -0.8148 -0.0315
   76MPD2    C1 1159   2.755   3.058  12.106  0.0200 -0.3605  0.2054
   76MPD2    C2 1160   2.879   3.013  12.069 -0.3800  0.9041  0.1604
   76MPD2    C3 1161   2.952   2.956  12.171  0.0342 -0.1708 -0.1276
   76MPD2    C4 1162   2.896   2.944  12.294  0.3721 -0.3395  0.0767
   76MPD2    C5 1163   2.773   2.995  12.328 -0.4100  0.8276  0.2463
   76MPD2     H 1164   2.913   3.015  11.966  2.5320 -0.1478  1.0986
   76MPD2    H1 1165   2.937   2.885  12.375 -1.6291  0.2758  1.5469
   76MPD2    H2 1166   2.602   3.090  12.263  0.3594  0.8634 -1.1739
   76MPD2    H3 1167   2.737   2.975  12.428  0.9331 -1.4872  0.2752
   76MPD2     N 1168   3.080   2.897  12.156 -0.5571 -0.6298 -0.4755
   76MPD2    H5 1169   3.136   2.841  12.220 -0.0101 -2.0175 -2.1425
   76MPD2    N1 1170   2.682   3.119  11.994 -0.4750  0.2849 -0.5833
   76MPD2    H7 1171   2.722   3.132  11.902  1.0066 -1.7948 -0.2437
   77TCq2    C1 1172   3.154   2.913  12.044  0.5176 -0.0944  0.2905
   77TCq2    O2 1173   3.145   3.006  11.964 -0.2524 -0.1409 -0.3581
   77TCq2    C2 1174   3.279   2.844  12.038 -0.3337  0.4412 -0.3999
   77TCq2    C3 1175   3.393   2.912  12.009 -0.2258  0.0863  0.1896
   77TCq2    C4 1176   3.508   2.842  12.000 -0.5963 -0.5874  0.3342
   77TCq2    C5 1177   3.509   2.704  12.013  0.6577  0.3170  0.0602
   77TCq2    C6 1178   3.389   2.638  12.040  0.3347  1.0091 -0.5119
   77TCq2    C7 1179   3.271   2.713  12.052 -0.5766 -0.6852  0.7265
   77TCq2    C8 1180   3.386   2.498  12.030  0.6783  0.0589 -0.3842
   77TCq2    O4 1181   3.281   2.446  11.991  0.0250 -0.2113 -1.3258
   77TCq2    C9 1182   3.633   2.914  11.983 -0.4144 -0.3252 -0.0911
   77TCq2    O5 1183   3.623   3.037  11.955 -0.0996  0.2040 -0.0237
   77TCq2    O6 1184   3.736   2.845  11.990  0.2081  1.0574 -0.4656
   77TCq2    H2 1185   3.397   3.020  12.006 -0.1995  0.0721 -0.3450
   77TCq2    H3 1186   3.600   2.652  11.988 -0.0911 -0.4264 -1.1853
   77TCq2    H4 1187   3.176   2.661  12.056 -1.5765  0.8983 -2.4850
   78MPD1     C 1188   4.397   3.594   2.303 -0.0055  0.0886  1.0965
   78MPD1    C1 1189   4.415   3.715   2.372  0.1749 -0.3120  0.1074
   78MPD1    C2 1190   4.536   3.779   2.364  0.7344 -0.5676  0.5869
   78MPD1    C3 1191   4.645   3.713   2.304 -0.2788  0.2066  1.0300
   78MPD1    C4 1192   4.627   3.590   2.248 -0.2463 -0.9638  0.1513
   78MPD1    C5 1193   4.506   3.529   2.252  0.0324  0.0969 -0.5215
   78MPD1     H 1194   4.553   3.872   2.416  1.0852 -0.1845 -0.2100
   78MPD1    H1 1195   4.710   3.542   2.196  1.1699  2.2720 -0.5334
   78MPD1    H2 1196   4.299   3.549   2.293  0.5915 -0.4626 -2.1429
   78MPD1    H3 1197   4.492   3.434   2.201  2.0147 -0.4966  0.0475
   78MPD1     N 1198   0.054   3.764   2.302  0.0465  0.4904 -0.4131
   78MPD1    H5 1199   0.120   3.712   2.246 -0.3377 -1.6186  1.0847
   78MPD1    N1 1200   4.308   3.764   2.441  0.4921  0.0865  0.6750
   78MPD1    H6 1201   4.291   3.859   2.408 -2.2633 -1.2298 -1.6869
   78MPD1    H7 1202   4.223   3.712   2.419  0.8095 -0.2708  0.2827
   79TCq2    C1 1203   0.093   3.883   2.353 -0.6253  0.6704  0.0850
   79TCq2    O2 1204   0.039   3.933   2.453 -0.1551  0.2526 -0.0586
   79TCq2    C2 1205   0.230   3.917   2.324  0.1593  0.0769  0.8555
   79TCq2    C3 1206   0.288   4.008   2.411  0.3112  0.1726 -0.4251
   79TCq2    C4 1207   0.420   4.035   2.393  0.0938 -0.0107  0.5470
   79TCq2    C5 1208   0.492   3.971   2.295  0.0157  0.4326  0.4632
   79TCq2    C6 1209   0.427   3.896   2.209 -0.5184 -0.3255 -0.2326
   79TCq2    C7 1210   0.292   3.868   2.214 -1.1471  0.7991  0.8247
   79TCq2    C8 1211   0.517   3.813   2.132 -0.3910  0.0373 -0.3442
   79TCq2    O4 1212   0.625   3.773   2.183  0.5950 -0.2909 -0.1113
   79TCq2    C9 1213   0.486   4.131   2.478 -0.4309 -0.7694 -0.3303
   79TCq2    O5 1214   0.596   4.183   2.434 -0.4489  0.3947  0.1821
   79TCq2    O6 1215   0.430   4.166   2.586  0.3322 -0.1122 -0.2312
   79TCq2    H2 1216   0.237   4.052   2.496 -1.7986 -0.4684 -1.3663
   79TCq2    H3 1217   0.596   3.998   2.284  0.0183 -0.5842 -1.9993
   79TCq2    H4 1218   0.247   3.812   2.133 -1.6430  2.7230 -0.2482
   80MPD2     C 1219   2.518   2.257  12.280  0.0142  0.5196  0.4623
   80MPD2    C1 1220   2.432   2.334  12.209 -0.3538  0.1862 -0.3393
   80MPD2    C2 1221   2.300   2.351  12.241 -0.5576  0.1300  0.2993
   80MPD2    C3 1222   2.240   2.268  12.341  0.4834 -0.0659 -0.0908
   80MPD2    C4 1223   2.323   2.196  12.426  0.3632 -0.0744 -0.2955
   80MPD2    C5 1224   2.461   2.193  12.389  0.5772 -0.2782  0.5423
   80MPD2     H 1225   2.241   2.433  12.201  0.3882  0.4980 -0.3365
   80MPD2    H1 1226   2.286   2.145  12.514 -0.1414  1.0136  0.1198
   80MPD2    H2 1227   2.622   2.241  12.256  0.5277  3.6750  0.5774
   80MPD2    H3 1228   2.530   2.138  12.453  1.7784  0.4067 -0.1597
   80MPD2     N 1229   2.103   2.286  12.372  0.4349 -0.4770  0.4577
   80MPD2    H5 1230   2.073   2.256  12.465 -0.1511 -0.3934  0.2917
   80MPD2    N1 1231   2.464   2.391  12.082  0.9804  0.2862 -0.5041
   80MPD2    H7 1232   2.386   2.430  12.031  0.1402 -1.8086 -0.8113
   81TCq2    C1 1233   2.585   2.364  12.018  0.3236 -0.1220 -0.6326
   81TCq2    O2 1234   2.695   2.333  12.058  0.0291  0.2156 -0.4960
   81TCq2    C2 1235   2.580   2.402  11.877  0.9925 -0.0186 -0.5801
   81TCq2    C3 1236   2.694   2.441  11.815 -0.0669  0.7812 -0.4155
   81TCq2    C4 1237   2.703   2.430  11.681 -0.3871 -0.4884 -0.0203
   81TCq2    C5 1238   2.594   2.395  11.606  0.6576 -0.0239 -0.3476
   81TCq2    C6 1239   2.484   2.361  11.673 -0.4240 -0.6210 -0.1611
   81TCq2    C7 1240   2.473   2.366  11.806  0.8998  0.3678  0.1278
   81TCq2    C8 1241   2.399   2.268  11.599 -0.3331 -0.6378  0.2122
   81TCq2    O4 1242   2.362   2.298  11.485 -0.1363 -0.2522  0.1855
   81TCq2    C9 1243   2.829   2.450  11.615  0.0976  0.8535 -0.5443
   81TCq2    O5 1244   2.839   2.427  11.489  0.2439  0.5128  0.0743
   81TCq2    O6 1245   2.935   2.473  11.682  0.0128  0.1239  0.3179
   81TCq2    H2 1246   2.783   2.474  11.866  0.5959 -0.7046 -0.6176
   81TCq2    H3 1247   2.604   2.384  11.498 -1.6314 -0.1944 -0.5369
   81TCq2    H4 1248   2.377   2.341  11.849  0.7115 -0.0608 -0.5399
   82MPD2     C 1249   0.455   2.015  10.506 -0.2278 -0.0219  0.0022
   82MPD2    C1 1250   0.356   1.916  10.519  0.0798 -0.3456  0.0937
   82MPD2    C2 1251   0.396   1.787  10.536  0.2543 -0.7328  0.3213
   82MPD2    C3 1252   0.532   1.749  10.522  0.9060  0.3518  0.8745
   82MPD2    C4 1253   0.627   1.852  10.513  0.7308  0.1590 -0.7058
   82MPD2    C5 1254   0.594   1.982  10.498  0.9604 -0.7252 -0.3322
   82MPD2     H 1255   0.325   1.708  10.559 -0.9804  0.3844  0.3802
   82MPD2    H1 1256   0.732   1.824  10.517  1.0866  1.3854 -1.2699
   82MPD2    H2 1257   0.429   2.120  10.509  0.0857  0.0943 -1.2951
   82MPD2    H3 1258   0.671   2.057  10.492 -0.0024  0.4475  1.6606
   82MPD2     N 1259   0.580   1.616  10.529 -0.3554 -0.5863 -0.2950
   82MPD2    H5 1260   0.680   1.606  10.511 -0.5759 -1.2150 -1.1472
   82MPD2    N1 1261   0.222   1.957  10.515  0.4587  0.1440 -0.1309
   82MPD2    H7 1262   0.211   2.056  10.498  0.1822 -0.3104 -2.6160
   83TCq2    C1 1263   0.506   1.508  10.564  0.0523  0.1544  0.0023
   83TCq2    O2 1264   0.384   1.498  10.579  0.0950 -0.0172 -0.2799
   83TCq2    C2 1265   0.583   1.386  10.584 -0.1347 -0.8042 -0.0879
   83TCq2    C3 1266   0.714   1.399  10.615  0.2192  0.1962  0.5904
   83TCq2    C4 1267   0.767   1.295  10.689  0.0411 -1.3761  0.3883
   83TCq2    C5 1268   0.700   1.191  10.741 -0.4152  0.0554  0.3720
   83TCq2    C6 1269   0.574   1.179  10.699 -0.0288 -0.5114  0.2554
   83TCq2    C7 1270   0.514   1.276  10.621  0.3429 -0.2099  0.1951
   83TCq2    C8 1271   0.489   1.091  10.768 -1.0856 -0.1546 -0.5991
   83TCq2    O4 1272   0.540   1.025  10.854  0.0496  0.1022  0.1821
   83TCq2    C9 1273   0.908   1.324  10.733 -0.2128  0.9545 -0.2448
   83TCq2    O5 1274   0.981   1.399  10.665 -0.4239 -0.9210  0.2112
   83TCq2    O6 1275   0.952   1.263  10.833 -0.0563 -0.0398  0.3922
   83TCq2    H2 1276   0.776   1.484  10.589  1.5438 -0.1666  2.6112
   83TCq2    H3 1277   0.743   1.125  10.815  1.3987  2.0264  1.0663
   83TCq2    H4 1278   0.411   1.270  10.591 -0.3127 -0.2402  2.4161
   84TCq2    C1 1279   1.642   0.715  10.648 -0.2722  0.0265 -0.8192
   84TCq2    O2 1280   1.599   0.623  10.716  0.1867 -0.1805 -0.4346
   84TCq2    C2 1281   1.738   0.817  10.706 -0.3192 -0.5857  1.0731
   84TCq2    C3 1282   1.787   0.922  10.639 -0.1946 -0.3058 -0.3676
   84TCq2    C4 1283   1.869   1.013  10.702  0.2372 -0.1609 -0.8902
   84TCq2    C5 1284   1.929   0.985  10.821 -0.7485 -0.1237  0.4149
   84TCq2    C6 1285   1.872   0.880  10.892 -0.4550 -0.0139  0.1348
   84TCq2    C7 1286   1.781   0.793  10.833 -0.1391 -0.3968 -0.3554
   84TCq2    C8 1287   1.939   0.833  11.006  0.5455 -0.7626  0.1581
   84TCq2    O4 1288   1.868   0.773  11.083 -0.5900 -0.6015 -0.2157
   84TCq2    C9 1289   1.909   1.140  10.638 -0.3596 -0.4736 -0.7164
   84TCq2    O5 1290   1.849   1.157  10.529  0.3749 -0.7409 -0.1782
   84TCq2    O6 1291   1.993   1.218  10.691 -0.0316  0.0003  0.4699
   84TCq2    H2 1292   1.735   0.951  10.548 -0.2821 -0.2222 -0.2913
   84TCq2    H3 1293   1.998   1.056  10.863  0.1371  0.6246 -2.3249
   84TCq2    H4 1294   1.722   0.720  10.888  0.6525 -0.2698  0.6489
   85MPD2     C 1295   2.430   3.106  16.664  0.5560  0.6049 -1.2088
   85MPD2    C1 1296   2.351   3.127  16.552 -0.5540 -0.2841  0.0165
   85MPD2    C2 1297   2.356   3.247  16.488  0.4342 -0.4933 -0.0482
   85MPD2    C3 1298   2.448   3.347  16.528 -0.3988 -0.2822 -0.5389
   85MPD2    C4 1299   2.533   3.326  16.634 -0.0455  0.3951  1.3214
   85MPD2    C5 1300   2.517   3.211  16.704  0.1334 -0.4326 -0.8521
   85MPD2     H 1301   2.298   3.279  16.403 -0.3960 -1.8179  0.0284
   85MPD2    H1 1302   2.600   3.404  16.668  2.6112 -1.0872 -0.5796
   85MPD2    H2 1303   2.438   3.013  16.719 -2.7122 -0.4925 -2.6036
   85MPD2    H3 1304   2.564   3.202  16.802  1.2718  1.6307 -1.1864
   85MPD2     N 1305   2.468   3.473  16.461 -0.3289 -0.0369 -0.1588
   85MPD2    H5 1306   2.513   3.540  16.522 -1.4002  0.5601 -0.0254
   85MPD2    N1 1307   2.264   3.026  16.501  0.8030 -0.0510 -0.0694
   85MPD2    H7 1308   2.208   3.060  16.423 -0.0655 -0.2798  0.4613
   86TCq2    C1 1309   2.451   3.501  16.327  0.6242 -0.5606 -0.0877
   86TCq2    O2 1310   2.427   3.438  16.226  0.3565 -0.1079 -0.0169
   86TCq2    C2 1311   2.483   3.639  16.297 -0.2953 -0.1336 -0.2280
   86TCq2    C3 1312   2.449   3.739  16.387  0.2159 -0.1476 -0.5523
   86TCq2    C4 1313   2.483   3.869  16.363  0.7014 -0.8717  0.3346
   86TCq2    C5 1314   2.540   3.895  16.250  0.1845 -0.0856  0.2504
   86TCq2    C6 1315   2.590   3.801  16.168  0.1171  0.7440  0.6407
   86TCq2    C7 1316   2.551   3.669  16.180 -0.0807 -0.2935  0.1521
   86TCq2    C8 1317   2.688   3.840  16.066 -0.3021  0.6162  0.0524
   86TCq2    O4 1318   2.719   3.753  15.986  0.7030 -0.3206 -0.4200
   86TCq2    C9 1319   2.459   3.972  16.459 -0.4834  0.4738  0.2059
   86TCq2    O5 1320   2.366   3.966  16.543 -0.2508  0.3451 -0.5914
   86TCq2    O6 1321   2.537   4.069  16.445  0.1937 -0.6426  0.0703
   86TCq2    H2 1322   2.402   3.715  16.481  0.7469 -0.9362 -0.4838
   86TCq2    H3 1323   2.541   4.003  16.234  2.0898 -0.5008 -2.2900
   86TCq2    H4 1324   2.595   3.595  16.115  1.0321 -0.0031  0.5724
   87MPD2     C 1325   0.285   2.958   1.788  0.3673  0.4004 -0.3732
   87MPD2    C1 1326   0.365   2.929   1.681 -0.2862  0.0706 -0.2018
   87MPD2    C2 1327   0.385   3.024   1.594 -0.2207  0.9205  0.1828
   87MPD2    C3 1328   0.320   3.142   1.590 -0.1774  0.3564 -0.0216
   87MPD2    C4 1329   0.227   3.170   1.683  0.3309 -0.1420  0.6564
   87MPD2    C5 1330   0.215   3.078   1.782  0.6794  0.0906 -0.6197
   87MPD2     H 1331   0.457   3.006   1.515  0.3315  0.9029  0.6896
   87MPD2    H1 1332   0.172   3.263   1.696 -1.7102 -0.8513 -2.8940
   87MPD2    H2 1333   0.289   2.903   1.882 -1.6253  0.4794 -0.2451
   87MPD2    H3 1334   0.154   3.095   1.869 -1.2488  1.9533 -2.3201
   87MPD2     N 1335   0.347   3.238   1.491  0.1426  0.3864 -0.4400
   87MPD2    H5 1336   0.278   3.313   1.492 -0.3179 -0.0391  0.5117
   87MPD2    N1 1337   0.435   2.804   1.678  0.3147  0.2340  0.3233
   87MPD2    H7 1338   0.440   2.752   1.765 -1.3583 -3.0200 -1.5464
   88TCq2    C1 1339   0.502   2.753   1.573  0.3265  0.2132  0.0752
   88TCq2    O2 1340   0.470   2.781   1.454 -0.5143 -0.0421  0.4405
   88TCq2    C2 1341   0.585   2.639   1.591 -0.0051  0.3044 -0.2042
   88TCq2    C3 1342   0.668   2.635   1.701  0.5445  0.0236 -0.4652
   88TCq2    C4 1343   0.770   2.543   1.708 -0.0494 -1.2172  0.0563
   88TCq2    C5 1344   0.802   2.474   1.592 -0.3496  0.5689  0.1838
   88TCq2    C6 1345   0.722   2.487   1.483  0.6217 -0.6645  0.7420
   88TCq2    C7 1346   0.615   2.570   1.482  0.1199  0.0354 -0.0973
   88TCq2    C8 1347   0.721   2.380   1.382  0.1827  0.0263  0.0229
   88TCq2    O4 1348   0.825   2.364   1.323 -0.4741 -0.0298  0.0113
   88TCq2    C9 1349   0.837   2.525   1.836 -0.1424 -0.2330 -0.4119
   88TCq2    O5 1350   0.910   2.424   1.850 -0.0610 -0.1699  0.2287
   88TCq2    O6 1351   0.807   2.603   1.931 -0.1199  0.0666 -0.2908
   88TCq2    H2 1352   0.650   2.687   1.794 -0.8593 -2.5130  0.6872
   88TCq2    H3 1353   0.883   2.403   1.591  0.2993  1.2917  1.8006
   88TCq2    H4 1354   0.555   2.577   1.392  0.8311 -0.6425 -0.6338
   89MPD2     C 1355   1.322   0.090   2.132 -0.3393 -0.4066  0.2982
   89MPD2    C1 1356   1.237   0.199   2.134 -0.0055 -0.4598 -0.3789
   89MPD2    C2 1357   1.293   0.323   2.119 -0.2063  0.5575  0.1799
   89MPD2    C3 1358   1.431   0.345   2.118  0.6556  0.5569 -0.4346
   89MPD2    C4 1359   1.517   0.241   2.123  0.0876  0.2454 -0.4390
   89MPD2    C5 1360   1.459   0.114   2.129  0.3852 -0.0948  0.0996
   89MPD2     H 1361   1.230   0.410   2.109  0.8216  1.1159 -1.3871
   89MPD2    H1 1362   1.625   0.245   2.120  0.0964  0.8013  0.6777
   89MPD2    H2 1363   1.294   4.710   2.150 -0.4629 -0.1911  1.3539
   89MPD2    H3 1364   1.525   0.028   2.124  1.0721  0.5116 -1.1430
   89MPD2     N 1365   1.476   0.475   2.131 -0.3715 -0.2667  1.1416
   89MPD2    H5 1366   1.412   0.554   2.138 -1.8358 -1.3472 -0.1733
   89MPD2    N1 1367   1.096   0.185   2.144 -0.1182  0.5213  0.0528
   89MPD2    H7 1368   1.039   0.267   2.164  0.0890  0.3666  1.2297
   90TCq2    C1 1369   1.609   0.516   2.142  0.1153  0.7370 -0.6699
   90TCq2    O2 1370   1.707   0.449   2.107 -0.2729  0.1833  0.9691
   90TCq2    C2 1371   1.624   0.657   2.172  0.2232 -0.2968  0.4652
   90TCq2    C3 1372   1.526   0.730   2.230  0.7619  0.4543  0.8257
   90TCq2    C4 1373   1.550   0.856   2.267  0.0449  0.0357 -0.2638
   90TCq2    C5 1374   1.661   0.925   2.240  0.6258  0.4834 -0.7927
   90TCq2    C6 1375   1.755   0.843   2.170 -0.2085  0.3940  0.3995
   90TCq2    C7 1376   1.738   0.718   2.128  0.3570 -0.1963  0.7990
   90TCq2    C8 1377   1.885   0.894   2.160  0.1173  0.1783 -0.6706
   90TCq2    O4 1378   1.920   0.972   2.249  0.3658  0.7906 -0.0079
   90TCq2    C9 1379   1.443   0.916   2.341 -0.2266  0.1211  0.1149
   90TCq2    O5 1380   1.466   1.025   2.401  0.4519  0.3578 -0.3934
   90TCq2    O6 1381   1.328   0.861   2.333 -0.0485 -0.1015 -0.7821
   90TCq2    H2 1382   1.438   0.679   2.268  0.5292 -0.1609 -0.5492
   90TCq2    H3 1383   1.677   1.022   2.285 -2.0330  0.0202  1.1485
   90TCq2    H4 1384   1.829   0.660   2.113  0.6931  0.5641 -0.1302
   91TMC2    C1 1385   2.664   3.808  16.791  0.2030  0.0088 -0.0218
   91TMC2    C2 1386   2.763   3.843  16.874 -0.7775  0.0021 -0.9472
   91TMC2    C3 1387   2.735   3.928  16.975 -0.0927  0.0051  0.2597
   91TMC2    C4 1388   2.537   3.859  16.805 -1.1331 -0.6408  0.1309
   91TMC2    C5 1389   2.509   3.926  16.922  0.7130  0.4608 -1.1061
   91TMC2    C6 1390   2.608   3.964  17.010  0.0127  0.4154  0.5498
   91TMC2     C 1391   2.698   3.728  16.674  0.1525 -0.5484 -0.8051
   91TMC2     O 1392   2.608   3.657  16.625 -0.0567  0.5273  0.4884
   91TMC2     H 1393   2.864   3.808  16.861 -0.7551 -0.7149  1.0360
   91TMC2    H1 1394   2.458   3.841  16.733 -2.2216  2.1577  0.6025
   91TMC2    H2 1395   2.590   4.025  17.097  0.2391 -0.0576  0.9284
   91TMC2    C7 1396   2.379   3.976  16.953  0.6106 -0.3212 -0.2218
   91TMC2    C8 1397   2.839   4.002  17.043 -0.3267 -0.7234 -0.2415
   91TMC2    O1 1398   2.353   4.024  17.061  0.4337 -0.3356  0.4424
   91TMC2    O2 1399   2.824   4.052  17.156 -0.0368  0.1228 -0.0477
   91TMC2    O5 1400   2.932   4.045  16.960 -0.1309 -0.0161  0.0063
   91TMC2    H5 1401   2.935   4.015  16.867  0.3039  1.5894 -0.4891
   92MPD2     C 1402   2.822   3.601  16.438 -0.1860  0.0064 -0.1695
   92MPD2    C1 1403   2.868   3.716  16.502  0.2272  0.0751 -0.3308
   92MPD2    C2 1404   2.970   3.784  16.446 -0.1060  0.7295 -0.2303
   92MPD2    C3 1405   3.014   3.759  16.314  0.2255 -0.3576  0.2896
   92MPD2    C4 1406   2.963   3.650  16.252 -0.7801  0.4782 -0.2120
   92MPD2    C5 1407   2.865   3.574  16.308 -0.0544  0.0186 -1.1741
   92MPD2     H 1408   3.017   3.863  16.503  2.3182 -2.5064  2.2668
   92MPD2    H1 1409   2.988   3.630  16.149  1.2323  1.9388 -0.0107
   92MPD2    H2 1410   2.744   3.540  16.483 -0.8492 -1.0061 -2.6983
   92MPD2    H3 1411   2.831   3.488  16.252  0.4560  0.0442 -1.5198
   92MPD2     N 1412   3.114   3.837  16.257  0.4435  0.3107 -0.4346
   92MPD2    H5 1413   3.152   3.913  16.313 -1.0417 -1.2242  2.6574
   92MPD2    N1 1414   2.821   3.766  16.618 -0.0959  0.6896  0.1067
   92MPD2    H7 1415   2.873   3.845  16.655 -0.4716  1.1224 -0.2835
   93MPD2     C 1416   4.219   4.124  13.708  0.3315  0.2971 -0.3922
   93MPD2    C1 1417   4.171   4.231  13.784 -0.3404  0.0907 -0.0509
   93MPD2    C2 1418   4.055   4.222  13.864  0.5952 -0.0668  0.0263
   93MPD2    C3 1419   3.973   4.108  13.856  0.1658 -0.0475  0.1709
   93MPD2    C4 1420   4.029   4.002  13.787  0.6189  0.6806 -0.5701
   93MPD2    C5 1421   4.147   4.007  13.712  0.0181  0.1821 -0.0376
   93MPD2     H 1422   4.021   4.310  13.918  3.1609  1.6159 -1.0689
   93MPD2    H1 1423   3.974   3.909  13.773 -0.8400  1.3120  1.0210
   93MPD2    H2 1424   4.315   4.120  13.658  0.4802 -1.4307  0.0426
   93MPD2    H3 1425   4.179   3.931  13.642 -0.9567 -1.4787  1.3193
   93MPD2     N 1426   3.840   4.082  13.901 -0.7183  0.1280  0.7677
   93MPD2    H5 1427   3.797   3.992  13.880 -0.0764 -0.4534  1.9615
   93MPD2    N1 1428   4.248   4.343  13.811 -0.0886  1.1762 -0.3475
   93MPD2    H7 1429   4.215   4.403  13.886  0.9735 -0.9035  1.7710
   94TCq2    C1 1430   4.374   4.364  13.755 -0.6841  0.7397 -0.6607
   94TCq2    O2 1431   4.430   4.303  13.666 -0.2769  0.3123 -0.0377
   94TCq2    C2 1432   4.436   4.488  13.806  0.3291  0.3058  0.2424
   94TCq2    C3 1433   4.356   4.570  13.885  0.5006 -0.4651  0.1534
   94TCq2    C4 1434   4.418   4.687  13.930  0.0214 -0.0378 -0.2247
   94TCq2    C5 1435   4.541   4.722  13.888 -0.2043 -0.2562  0.2134
   94TCq2    C6 1436   4.605   4.639  13.799 -0.1989 -0.6616 -0.1142
   94TCq2    C7 1437   4.555   4.518  13.759 -0.6940 -1.0510  0.0497
   94TCq2    C8 1438   0.026   4.655  13.763 -0.5923 -0.0750  0.4501
   94TCq2    O4 1439   0.086   4.567  13.715 -0.4763 -0.3601  0.4493
   94TCq2    C9 1440   4.344   0.057  14.020 -0.1349 -0.4568  0.1447
   94TCq2    O5 1441   4.220   0.042  14.032 -0.0054  0.5988 -0.0595
   94TCq2    O6 1442   4.409   0.153  14.078  0.1258  0.2603 -0.7287
   94TCq2    H2 1443   4.253   4.562  13.918  0.4672 -0.4580  0.0488
   94TCq2    H3 1444   4.587   0.091  13.922 -0.9831 -0.0994  0.8428
   94TCq2    H4 1445   4.616   4.455  13.695  1.3902  0.1869  0.8158
   95TMC2    C1 1446   0.088   1.663  16.318  0.8233 -0.0583 -0.3790
   95TMC2    C2 1447   0.176   1.561  16.291 -0.3782 -0.2165  0.1811
   95TMC2    C3 1448   0.149   1.437  16.349 -0.2185  0.3581 -0.5141
   95TMC2    C4 1449   4.700   1.649  16.397  0.5207 -0.3291 -0.1128
   95TMC2    C5 1450   4.682   1.525  16.451 -0.0098 -0.2629 -0.4795
   95TMC2    C6 1451   0.034   1.417  16.418 -0.4531 -0.1804 -0.1708
   95TMC2     C 1452   0.095   1.785  16.242 -0.3286 -0.0397  0.0146
   95TMC2     O 1453   0.164   1.786  16.139 -0.2276  0.5759  0.0602
   95TMC2     H 1454   0.253   1.568  16.215 -0.6802 -0.1001 -0.1137
   95TMC2    H1 1455   4.633   1.733  16.413 -0.2967 -0.6282 -2.0011
   95TMC2    H2 1456   0.024   1.326  16.476  0.8088 -0.2475 -0.0783
   95TMC2    C7 1457   4.594   1.502  16.570 -0.5511  0.4681 -0.0888
   95TMC2    C8 1458   0.265   1.365  16.395 -0.1545 -0.3847 -0.5702
   95TMC2    O1 1459   4.564   1.389  16.601  0.2655  0.0690  0.5928
   95TMC2    O2 1460   0.256   1.252  16.448  0.2114 -0.1156 -0.0500
   95TMC2    O5 1461   0.354   1.462  16.442 -0.1419  0.3792  0.2509
   95TMC2    H5 1462   0.318   1.550  16.416  1.3202  0.5988 -0.9876
   96MPD2     C 1463   4.723   2.278  16.100  0.4225  0.1715  0.4290
   96MPD2    C1 1464   0.036   2.171  16.023  0.4066  0.4439 -0.6075
   96MPD2    C2 1465   0.043   2.041  16.084  0.7182 -0.8762 -0.0977
   96MPD2    C3 1466   0.015   2.023  16.218  0.5994 -0.0566  0.2965
   96MPD2    C4 1467   4.694   2.129  16.291 -0.1329 -0.5365  0.3302
   96MPD2    C5 1468   4.697   2.257  16.232 -0.2943  0.2723 -0.1886
   96MPD2     H 1469   0.094   1.966  16.025  1.3502 -1.1432  0.7913
   96MPD2    H1 1470   4.672   2.130  16.397 -0.2013  0.9000  0.3060
   96MPD2    H2 1471   4.720   2.377  16.056 -2.9089 -0.5635 -1.0024
   96MPD2    H3 1472   4.660   2.341  16.290  0.1528  0.5345 -0.2791
   96MPD2     N 1473   0.030   1.898  16.290  0.6786  0.3180 -0.6022
   96MPD2    H5 1474   0.007   1.900  16.389  0.5948  1.4604 -0.6501
   96MPD2    N1 1475   0.083   2.195  15.895  0.2876  0.2078  0.3199
   96MPD2    H7 1476   0.100   2.291  15.865  1.3288 -0.7474 -2.1243
   97MPD2     C 1477   2.403   4.261   1.311 -0.4336 -0.5143 -0.5304
   97MPD2    C1 1478   2.278   4.217   1.274 -0.0173  0.3844  0.4253
   97MPD2    C2 1479   2.260   4.182   1.141  0.6325 -0.4493 -0.4617
   97MPD2    C3 1480   2.371   4.178   1.056 -0.3324  0.0649  0.6515
   97MPD2    C4 1481   2.499   4.216   1.094  0.1527 -0.2604 -0.2138
   97MPD2    C5 1482   2.509   4.263   1.223 -0.6628 -0.3751 -1.1985
   97MPD2     H 1483   2.164   4.147   1.107  1.3274 -3.9409  1.1606
   97MPD2    H1 1484   2.587   4.218   1.031  1.6741  1.1397  1.9596
   97MPD2    H2 1485   2.423   4.295   1.411 -1.2400  0.5408 -0.7222
   97MPD2    H3 1486   2.604   4.309   1.249 -1.8910  1.2344  0.4957
   97MPD2     N 1487   2.338   4.135   0.921 -0.6622 -0.1305  0.0542
   97MPD2    H5 1488   2.241   4.106   0.909 -0.3915 -1.3667  0.8529
   97MPD2    N1 1489   2.178   4.198   1.364 -0.5903 -0.1642  0.9268
   97MPD2    H7 1490   2.206   4.209   1.461  0.4268 -0.2276  0.6408
   98TCq2    C1 1491   2.424   4.116   0.815  0.3921  0.1348 -0.2467
   98TCq2    O2 1492   2.540   4.147   0.811 -0.4401 -0.2968  0.3181
   98TCq2    C2 1493   2.365   4.077   0.685  0.4037 -0.0846  0.0944
   98TCq2    C3 1494   2.233   4.043   0.683 -0.1505 -0.3636 -0.0760
   98TCq2    C4 1495   2.161   4.067   0.569 -0.0272  0.3688 -0.0108
   98TCq2    C5 1496   2.208   4.135   0.455 -0.4024  0.0729  0.6989
   98TCq2    C6 1497   2.336   4.172   0.468 -0.4793 -0.5502 -0.7735
   98TCq2    C7 1498   2.417   4.135   0.575 -0.1856 -0.3253 -0.3717
   98TCq2    C8 1499   2.399   4.254   0.373 -0.3061  0.7540  0.2683
   98TCq2    O4 1500   2.521   4.273   0.391  0.1687 -0.0120  0.3596
   98TCq2    C9 1501   2.031   4.009   0.556  0.3540  0.2799 -0.3541
   98TCq2    O5 1502   1.965   3.983   0.662 -0.0885  0.8376  0.3500
   98TCq2    O6 1503   1.977   4.018   0.442 -0.0044 -0.7348 -0.0439
   98TCq2    H2 1504   2.185   3.992   0.767 -0.9343  1.5789  0.6592
   98TCq2    H3 1505   2.137   4.158   0.377  0.9713 -0.1071 -0.5932
   98TCq2    H4 1506   2.512   4.181   0.598 -1.0352  1.3443 -0.1315
   99MPD2     C 1507   0.882   1.712   1.794 -0.4144 -0.4051 -0.3171
   99MPD2    C1 1508   0.757   1.715   1.743 -0.4743  0.2404  0.8466
   99MPD2    C2 1509   0.717   1.641   1.633 -0.3358  0.1178  0.6082
   99MPD2    C3 1510   0.817   1.566   1.568 -0.6808 -0.7362 -0.7594
   99MPD2    C4 1511   0.946   1.563   1.617  0.8265  0.0867 -0.0838
   99MPD2    C5 1512   0.973   1.632   1.736 -0.5630  0.1128  0.7518
   99MPD2     H 1513   0.616   1.623   1.595  0.1124 -0.1378 -0.4676
   99MPD2    H1 1514   1.025   1.500   1.577  1.0057  0.9462 -1.0738
   99MPD2    H2 1515   0.913   1.760   1.886  0.0559  0.0833 -0.7366
   99MPD2    H3 1516   1.062   1.618   1.797 -0.0372 -2.6632 -0.6383
   99MPD2     N 1517   0.775   1.488   1.458 -0.3248 -0.6424 -0.2191
   99MPD2    H5 1518   0.677   1.491   1.434 -0.8536  0.1030  2.0306
   99MPD2    N1 1519   0.653   1.778   1.819  0.3385 -0.2333 -0.9170
   99MPD2    H7 1520   0.559   1.777   1.781 -0.1473  1.5835  0.2827
  100TCq2    C1 1521   0.678   1.867   1.927 -0.5769 -0.9798 -0.4923
  100TCq2    O2 1522   0.785   1.893   1.981 -0.3151  0.5277  0.1663
  100TCq2    C2 1523   0.554   1.923   1.981  0.5198  0.2931  0.0499
  100TCq2    C3 1524   0.575   2.023   2.072 -0.5176  0.3480 -0.1224
  100TCq2    C4 1525   0.468   2.062   2.138 -0.3305  1.0512  0.0910
  100TCq2    C5 1526   0.340   2.028   2.102  0.2251  0.4906 -0.5647
  100TCq2    C6 1527   0.327   1.942   1.998  0.8546  0.7619 -0.4466
  100TCq2    C7 1528   0.431   1.880   1.945  0.4104 -0.1408 -0.2456
  100TCq2    C8 1529   0.187   1.897   1.990  0.2147 -0.3923 -0.2352
  100TCq2    O4 1530   0.112   1.989   2.021  0.3070 -0.3898  0.1524
  100TCq2    C9 1531   0.479   2.167   2.239 -0.0774 -0.1270 -0.4488
  100TCq2    O5 1532   0.375   2.230   2.268 -0.3488  0.6428  0.4856
  100TCq2    O6 1533   0.591   2.170   2.305 -0.0248 -0.1223  0.3148
  100TCq2    H2 1534   0.672   2.068   2.092 -0.6348 -0.2141  1.7269
  100TCq2    H3 1535   0.260   2.072   2.160 -0.5094 -2.5691  0.7475
  100TCq2    H4 1536   0.417   1.806   1.866  1.0388 -1.1109  0.5526
  101MPD2     C 1537   0.916   2.538  12.616  0.2974 -0.1617 -0.5841
  101MPD2    C1 1538   0.815   2.563  12.711 -0.1639 -0.2220  0.2931
  101MPD2    C2 1539   0.789   2.468  12.803 -0.3992  1.0030 -0.0650
  101MPD2    C3 1540   0.841   2.345  12.797  0.0726 -0.6594 -0.6713
  101MPD2    C4 1541   0.937   2.313  12.696 -0.3044 -0.0547 -0.9789
  101MPD2    C5 1542   0.974   2.411  12.609 -0.0191 -0.5641 -0.2795
  101MPD2     H 1543   0.709   2.489  12.873 -0.4195 -2.1545  0.8654
  101MPD2    H1 1544   0.985   2.216  12.689 -1.5798 -0.7834  0.4280
  101MPD2    H2 1545   0.947   2.613  12.545  0.1260  0.8998  0.4694
  101MPD2    H3 1546   1.053   2.399  12.536 -0.5801 -2.0033 -0.6560
  101MPD2     N 1547   0.805   2.246  12.897  0.5134 -0.3501 -0.3180
  101MPD2    H5 1548   0.733   2.263  12.967  0.0856  1.2342 -1.1337
  101MPD2    N1 1549   0.757   2.692  12.703 -0.1186  0.2588  0.7477
  101MPD2    H7 1550   0.786   2.754  12.628 -1.3828  0.3527  0.3396
  102TCq2    C1 1551   0.767   2.994  12.449 -1.0703 -0.4692  0.5261
  102TCq2    O2 1552   0.874   2.968  12.495  0.0796  0.1291 -0.3187
  102TCq2    C2 1553   0.651   2.991  12.542 -0.5179 -0.5453 -0.3992
  102TCq2    C3 1554   0.525   2.975  12.490 -0.6316 -0.9333  0.5309
  102TCq2    C4 1555   0.442   2.893  12.561 -0.2365  0.0602  0.0816
  102TCq2    C5 1556   0.469   2.845  12.682  0.2878 -0.2942  0.2310
  102TCq2    C6 1557   0.597   2.859  12.726  0.2123  1.0431  0.4127
  102TCq2    C7 1558   0.687   2.931  12.657  0.4899 -0.2681  0.3807
  102TCq2    C8 1559   0.651   2.735  12.781 -0.1710  0.1424 -0.3992
  102TCq2    O4 1560   0.585   2.684  12.870  0.1019 -0.3397 -0.0805
  102TCq2    C9 1561   0.331   2.830  12.500  0.3983 -0.1178 -0.9136
  102TCq2    O5 1562   0.300   2.868  12.386  0.6267  0.4943 -0.4457
  102TCq2    O6 1563   0.312   2.713  12.532  0.0835 -0.2783 -0.0997
  102TCq2    H2 1564   0.492   3.010  12.393 -1.6977 -0.7664  0.9531
  102TCq2    H3 1565   0.401   2.779  12.734 -0.2220 -0.0196 -0.0858
  102TCq2    H4 1566   0.786   2.950  12.698  0.2621 -1.0228  1.2947
  103TMC2    C1 1567   3.961   2.107  12.389 -0.1455 -0.0728  0.7458
  103TMC2    C2 1568   4.036   2.004  12.350  0.9482 -0.0157 -1.0103
  103TMC2    C3 1569   4.131   1.957  12.442 -0.0110 -0.8455  0.6106
  103TMC2    C4 1570   3.981   2.165  12.512 -0.0409  0.6678  0.3687
  103TMC2    C5 1571   4.064   2.108  12.605 -0.1837 -1.0600  0.1877
  103TMC2    C6 1572   4.141   1.997  12.570  0.1589 -0.0532  0.1526
  103TMC2     C 1573   3.880   2.177  12.293  0.0399  0.6775 -0.5136
  103TMC2     O 1574   3.881   2.298  12.289  0.6584 -0.3814  0.3322
  103TMC2     H 1575   4.032   1.963  12.250 -0.1189  0.1046 -1.0187
  103TMC2    H1 1576   3.913   2.249  12.519 -2.8191 -1.5574 -0.0309
  103TMC2    H2 1577   4.233   1.970  12.620 -1.5164 -0.6605  2.8760
  103TMC2    C7 1578   4.027   2.111  12.746 -0.0799 -0.0152 -0.3072
  103TMC2    C8 1579   4.242   1.880  12.389  0.0622 -0.3720  1.0781
  103TMC2    O1 1580   4.092   2.035  12.817 -0.8069  0.1688  0.3441
  103TMC2    O2 1581   4.311   1.811  12.461  0.0966  0.0564 -0.0729
  103TMC2    O5 1582   4.277   1.913  12.262  0.3016  0.4647 -0.0655
  103TMC2    H5 1583   4.227   1.985  12.219 -1.1727 -0.9092 -0.6670
  104MPD2     C 1584   3.602   2.036  12.088  0.4804 -0.1947 -0.4377
  104MPD2    C1 1585   3.688   2.125  12.146 -0.5104  0.4637  0.0117
  104MPD2    C2 1586   3.659   2.260  12.115  0.2346 -0.5986  0.5195
  104MPD2    C3 1587   3.539   2.294  12.060  0.5625 -0.0336 -0.5729
  104MPD2    C4 1588   3.448   2.199  12.005  0.6055  0.0163  0.3920
  104MPD2    C5 1589   3.493   2.072  12.018  0.4455 -0.4412 -0.3191
  104MPD2     H 1590   3.723   2.342  12.143  0.2497  0.0240 -1.3635
  104MPD2    H1 1591   3.352   2.218  11.958  0.3261 -1.9870  0.1564
  104MPD2    H2 1592   3.626   1.931  12.097  0.5227 -0.1493 -0.0438
  104MPD2    H3 1593   3.434   1.993  11.974  3.5845  0.1032 -5.6118
  104MPD2     N 1594   3.506   2.441  12.068  0.3757  0.4255 -0.3667
  104MPD2    H5 1595   3.572   2.505  12.111 -1.6006  1.5426  0.9958
  104MPD2    N1 1596   3.799   2.086  12.225  0.3692  0.3328 -0.1202
  104MPD2    H7 1597   3.804   1.991  12.262 -2.9221 -0.5687 -2.0470
  105MPD2     C 1598   1.188   1.509   0.188  0.2379  0.0435  0.3310
  105MPD2    C1 1599   1.168   1.638   0.135 -0.4923 -0.2461 -0.0427
  105MPD2    C2 1600   1.109   1.724   0.215  0.1546  0.3058  0.5441
  105MPD2    C3 1601   1.053   1.688   0.338 -0.0468  0.0052 -0.5898
  105MPD2    C4 1602   1.077   1.562   0.382  1.0555 -0.1662  0.5157
  105MPD2    C5 1603   1.132   1.469   0.304 -0.1914 -0.3685  0.7439
  105MPD2     H 1604   1.106   1.829   0.187  0.1241 -0.0479 -0.7853
  105MPD2    H1 1605   1.035   1.510   0.467  0.3749 -3.2784 -1.7101
  105MPD2    H2 1606   1.262   1.446   0.140  0.6995  1.8463 -1.3234
  105MPD2    H3 1607   1.144   1.365   0.331 -3.2289 -1.0005 -0.4417
  105MPD2     N 1608   1.000   1.787   0.422  0.3302  0.1934  0.4887
  105MPD2    H5 1609   1.008   1.881   0.386 -0.8208 -0.5977 -1.8173
  105MPD2    N1 1610   1.227   1.680   0.010  0.2705 -0.2047 -0.0734
  105MPD2    H7 1611   1.236   1.780   0.002 -0.8819 -0.0567  0.3718
  106TCq2    C1 1612   0.947   1.760   0.551 -0.1086  0.9349 -0.1982
  106TCq2    O2 1613   0.940   1.657   0.615 -0.2162  0.5805 -0.1896
  106TCq2    C2 1614   0.876   1.877   0.604  0.0032  0.2449  0.6085
  106TCq2    C3 1615   0.898   2.001   0.553  0.1075 -0.2807  0.3131
  106TCq2    C4 1616   0.831   2.109   0.614  0.1338 -0.0494 -0.2169
  106TCq2    C5 1617   0.746   2.100   0.722 -0.0006 -0.0430 -0.1847
  106TCq2    C6 1618   0.733   1.971   0.765  0.0433 -0.0610  0.1436
  106TCq2    C7 1619   0.798   1.866   0.713 -0.5556 -0.1321 -0.5970
  106TCq2    C8 1620   0.656   1.953   0.886 -0.2057 -0.3344  0.4269
  106TCq2    O4 1621   0.623   1.841   0.930  0.0409  0.0749  0.4334
  106TCq2    C9 1622   0.872   2.234   0.564 -0.1444 -0.1431 -0.3941
  106TCq2    O5 1623   0.907   2.239   0.441 -0.1944 -0.1003 -0.0922
  106TCq2    O6 1624   0.869   2.337   0.641 -0.5191 -0.1060  0.0626
  106TCq2    H2 1625   0.965   2.015   0.469 -2.7243 -0.0792 -1.9212
  106TCq2    H3 1626   0.692   2.187   0.758  0.0415 -0.7702  1.6373
  106TCq2    H4 1627   0.787   1.772   0.765  1.9335 -0.0682  0.0466
  107TMC2    C1 1628   2.077   0.759  11.852 -0.0397 -0.4525  0.0225
  107TMC2    C2 1629   2.128   0.684  11.952 -0.0111  0.2857 -0.5292
  107TMC2    C3 1630   2.236   0.609  11.923  0.0338 -0.0916  0.5763
  107TMC2    C4 1631   2.118   0.755  11.722  0.3811  0.5843 -0.0574
  107TMC2    C5 1632   2.229   0.673  11.695 -0.3687  0.1265  0.8196
  107TMC2    C6 1633   2.294   0.600  11.795 -0.0350  0.2242 -0.3476
  107TMC2     C 1634   1.938   0.786  11.890 -0.2032  0.2480  0.4913
  107TMC2     O 1635   1.873   0.710  11.965  0.4249  0.2080 -0.4995
  107TMC2     H 1636   2.097   0.700  12.055  0.1525  0.1655 -0.4623
  107TMC2    H1 1637   2.068   0.820  11.650  0.4221  3.1971  2.2379
  107TMC2    H2 1638   2.371   0.530  11.768 -0.0891 -0.6230  1.7233
  107TMC2    C7 1639   2.290   0.670  11.561 -0.3812 -0.1892 -0.0053
  107TMC2    C8 1640   2.295   0.535  12.030  0.8162  0.0170 -0.4349
  107TMC2    O1 1641   2.406   0.626  11.556 -0.1156 -0.2030  1.1109
  107TMC2    O2 1642   2.232   0.539  12.137 -0.4899  0.7179  0.3392
  107TMC2    O5 1643   2.426   0.507  12.010 -0.0897 -0.7262  0.1936
  107TMC2    H5 1644   2.450   0.512  11.915  1.0560  2.3354  0.6369
  108MPD2     C 1645   1.726   1.041  11.745 -0.3325 -0.5429 -0.9636
  108MPD2    C1 1646   1.742   0.927  11.819 -0.0447  0.0604 -0.5711
  108MPD2    C2 1647   1.638   0.870  11.891  0.3480  0.0055 -0.1916
  108MPD2    C3 1648   1.512   0.922  11.864  0.8522  0.3628  0.7047
  108MPD2    C4 1649   1.491   1.033  11.782 -0.3137 -0.8650 -0.3961
  108MPD2    C5 1650   1.602   1.088  11.721 -0.1162 -0.4308  0.2945
  108MPD2     H 1651   1.644   0.780  11.951 -0.1105  0.6467  0.8049
  108MPD2    H1 1652   1.391   1.070  11.765 -0.1786 -0.6179 -0.6504
  108MPD2    H2 1653   1.805   1.093  11.692 -2.2782  1.1071 -2.2820
  108MPD2    H3 1654   1.586   1.163  11.645  2.0309  0.4199  0.6941
  108MPD2     N 1655   1.400   0.876  11.932  0.1733  0.4253 -0.4245
  108MPD2    H5 1656   1.316   0.932  11.921  0.0009  0.5295  1.3959
  108MPD2    N1 1657   1.878   0.888  11.819 -0.4508 -0.1912  0.2278
  108MPD2    H7 1658   1.932   0.943  11.753 -1.8326  0.1465 -0.6197
  109MPD2     C 1659   1.339   3.191   2.364  0.7092  0.2845  0.1805
  109MPD2    C1 1660   1.387   3.236   2.243 -1.0105 -0.4521 -0.0615
  109MPD2    C2 1661   1.525   3.267   2.229  0.6167  0.1848  0.0775
  109MPD2    C3 1662   1.604   3.250   2.341 -0.1935  0.4875 -0.0052
  109MPD2    C4 1663   1.547   3.211   2.457  0.3597  0.3378 -0.8429
  109MPD2    C5 1664   1.414   3.183   2.476 -0.7171  0.9367  0.3384
  109MPD2     H 1665   1.579   3.302   2.142 -1.0071  1.3552 -0.4428
  109MPD2    H1 1666   1.596   3.205   2.553 -0.4045  1.5244 -0.3817
  109MPD2    H2 1667   1.237   3.155   2.372 -0.2980  2.7375 -2.1058
  109MPD2    H3 1668   1.368   3.151   2.569  1.9032 -0.2528  1.2333
  109MPD2     N 1669   1.737   3.290   2.316  0.3326  0.4337  0.5445
  109MPD2    H5 1670   1.753   3.339   2.228 -0.3745  0.0869  0.2301
  109MPD2    N1 1671   1.294   3.242   2.138  0.2914 -0.3518 -1.0722
  109MPD2    H7 1672   1.203   3.201   2.156  0.5587  0.1619  1.4591
  110TCq2    C1 1673   1.843   3.272   2.403  0.7736  0.0685  0.1432
  110TCq2    O2 1674   1.840   3.212   2.506 -0.1766  0.2863  0.1941
  110TCq2    C2 1675   1.965   3.341   2.374 -0.2375 -0.1264 -0.6019
  110TCq2    C3 1676   2.077   3.305   2.446  0.3396 -0.5062 -0.4717
  110TCq2    C4 1677   2.181   3.387   2.457  0.0426  0.1183 -0.4706
  110TCq2    C5 1678   2.185   3.496   2.378  0.1071 -0.2316  0.3251
  110TCq2    C6 1679   2.081   3.530   2.295 -0.0821  0.3317 -0.2727
  110TCq2    C7 1680   1.963   3.460   2.302  0.2156 -0.5553  0.3079
  110TCq2    C8 1681   2.090   3.643   2.205  0.0571 -0.4754  0.3418
  110TCq2    O4 1682   1.993   3.663   2.134  0.4283 -0.0822  0.1082
  110TCq2    C9 1683   2.286   3.370   2.555  0.2384  0.2223 -0.7079
  110TCq2    O5 1684   2.297   3.255   2.606  0.4953 -0.0773 -0.2948
  110TCq2    O6 1685   2.368   3.466   2.565  0.1855  0.9682  0.3209
  110TCq2    H2 1686   2.084   3.207   2.492 -2.6809 -0.3030  0.4198
  110TCq2    H3 1687   2.272   3.558   2.393 -1.2561  1.6015  0.6894
  110TCq2    H4 1688   1.871   3.487   2.251 -2.1988 -2.6294  3.5141
  111TMC2    C1 1689   1.534   3.446  11.384 -0.6364 -0.4370 -0.1652
  111TMC2    C2 1690   1.643   3.492  11.315 -0.4293 -0.2469  0.2001
  111TMC2    C3 1691   1.768   3.468  11.355 -0.1618 -0.3513  0.3789
  111TMC2    C4 1692   1.554   3.375  11.505 -0.3506  0.5596 -0.3508
  111TMC2    C5 1693   1.689   3.341  11.531 -0.3927 -0.0322  0.7077
  111TMC2    C6 1694   1.797   3.382  11.463  0.1102  0.0270 -0.0180
  111TMC2     C 1695   1.415   3.421  11.305  0.2799 -0.2598  0.3134
  111TMC2     O 1696   1.423   3.443  11.184 -0.0640 -0.0456 -0.1072
  111TMC2     H 1697   1.634   3.544  11.221 -2.7162 -2.6435 -0.9017
  111TMC2    H1 1698   1.470   3.339  11.563 -0.8134  0.4942 -1.0749
  111TMC2    H2 1699   1.898   3.353  11.489  0.1493 -0.5113 -0.7799
  111TMC2    C7 1700   1.702   3.231  11.621 -0.2817  1.0098  0.5288
  111TMC2    C8 1701   1.881   3.489  11.255 -0.2238 -2.0138  0.0863
  111TMC2    O1 1702   1.596   3.204  11.674 -0.2778 -0.9562 -0.1866
  111TMC2    O2 1703   1.971   3.571  11.263  0.4262  0.4517 -0.6819
  111TMC2    O5 1704   1.853   3.418  11.146  0.6113 -0.0541  0.3104
  111TMC2    H5 1705   1.783   3.352  11.164 -1.4832  2.4976  1.4764
  112MPD2     C 1706   0.897   3.342  11.245  0.4275  0.2311  1.0069
  112MPD2    C1 1707   0.993   3.373  11.149 -1.3767 -0.6021 -0.2334
  112MPD2    C2 1708   1.129   3.370  11.187  0.1317  0.7126 -0.7242
  112MPD2    C3 1709   1.168   3.353  11.322 -0.0586 -0.2529  0.5749
  112MPD2    C4 1710   1.076   3.316  11.410  0.4388  0.4961  0.4861
  112MPD2    C5 1711   0.943   3.309  11.374  0.4133 -0.5537 -0.5009
  112MPD2     H 1712   1.208   3.400  11.120  1.2606  0.0666  0.3099
  112MPD2    H1 1713   1.105   3.292  11.511 -0.7134  0.6797  0.8578
  112MPD2    H2 1714   0.792   3.327  11.226  0.3382 -0.6650  2.1888
  112MPD2    H3 1715   0.874   3.274  11.449  0.6923  1.6693  0.7997
  112MPD2     N 1716   1.301   3.371  11.372 -0.1652 -0.2851  0.0018
  112MPD2    H5 1717   1.303   3.388  11.472 -1.5125  1.2827 -0.2341
  112MPD2    N1 1718   0.958   3.400  11.019 -0.0691 -0.1554 -0.5724
  112MPD2    H7 1719   1.028   3.434  10.954  0.2586 -2.1409 -1.2583
  113MPD2     C 1720   4.721   1.379   1.385 -0.0294  0.2166  0.0772
  113MPD2    C1 1721   4.622   1.475   1.366  0.6488 -0.6935  0.9101
  113MPD2    C2 1722   4.521   1.449   1.275 -0.2389  0.4800 -0.0366
  113MPD2    C3 1723   4.515   1.323   1.216 -0.7961 -0.3572 -0.7463
  113MPD2    C4 1724   4.609   1.228   1.246  0.3287  0.2148 -0.0033
  113MPD2    C5 1725   4.718   1.265   1.318  0.2659  0.8264 -1.1716
  113MPD2     H 1726   4.442   1.520   1.254 -1.4272 -0.7210  0.3808
  113MPD2    H1 1727   4.608   1.129   1.202  0.4571  0.9838 -1.7267
  113MPD2    H2 1728   0.085   1.386   1.449 -1.3364  2.7508  1.5367
  113MPD2    H3 1729   0.085   1.204   1.322 -0.5331 -0.3864 -1.3950
  113MPD2     N 1730   4.413   1.295   1.133 -0.3991 -0.3232  0.2713
  113MPD2    H5 1731   4.401   1.198   1.105 -2.0372  0.4283 -1.6302
  113MPD2    N1 1732   4.633   1.609   1.413 -0.3673 -0.3557 -0.1629
  113MPD2    H7 1733   4.556   1.674   1.400 -0.9499 -0.6568  1.7689
  114TCq2    C1 1734   4.320   1.384   1.072  0.0294 -0.0415 -0.4498
  114TCq2    O2 1735   4.315   1.503   1.072 -0.1039 -0.4670  0.1204
  114TCq2    C2 1736   4.235   1.320   0.976  0.2656 -0.2434 -0.1263
  114TCq2    C3 1737   4.125   1.399   0.944  0.0293  1.0769 -0.4416
  114TCq2    C4 1738   4.032   1.345   0.862 -0.3155 -0.0454 -1.2223
  114TCq2    C5 1739   4.048   1.220   0.812 -0.6003  0.2663  0.0253
  114TCq2    C6 1740   4.167   1.147   0.840 -0.3398 -0.2891  0.2294
  114TCq2    C7 1741   4.250   1.190   0.940 -0.0282  0.1007  0.4381
  114TCq2    C8 1742   4.169   1.005   0.811 -0.1034  0.2596 -0.4564
  114TCq2    O4 1743   4.112   0.977   0.709  0.3114  0.3041 -0.3393
  114TCq2    C9 1744   3.921   1.429   0.813 -0.2728  0.5580  0.5163
  114TCq2    O5 1745   3.936   1.554   0.830 -0.3093  0.0938 -0.1174
  114TCq2    O6 1746   3.827   1.368   0.752 -0.1669  0.4647  0.1099
  114TCq2    H2 1747   4.119   1.495   0.993 -2.6286  0.9421 -0.5321
  114TCq2    H3 1748   3.979   1.175   0.741 -0.7880 -1.5419  1.3414
  114TCq2    H4 1749   4.343   1.136   0.953  0.5048  1.0430  0.5077
  115TMC2    C1 1750   0.430   3.727   0.217 -0.2215 -0.3640  0.0446
  115TMC2    C2 1751   0.528   3.806   0.277  0.4666 -0.4590 -0.0279
  115TMC2    C3 1752   0.495   3.942   0.298 -0.0184  0.1809 -0.3022
  115TMC2    C4 1753   0.317   3.783   0.165 -0.4020 -0.0997  0.7471
  115TMC2    C5 1754   0.292   3.920   0.189  0.2081  0.3635 -0.0854
  115TMC2    C6 1755   0.381   4.001   0.255  0.1332 -0.1942  0.4198
  115TMC2     C 1756   0.458   3.580   0.199  0.2026  0.1261 -0.0813
  115TMC2     O 1757   0.361   3.503   0.189  0.0650  0.3295  0.1147
  115TMC2     H 1758   0.617   3.770   0.328 -0.1309 -2.8646 -0.6908
  115TMC2    H1 1759   0.244   3.724   0.112 -0.4698  1.5138 -0.9647
  115TMC2    H2 1760   0.373   4.105   0.284  0.3599 -0.6981  2.3230
  115TMC2    C7 1761   0.188   3.988   0.110 -1.2542  0.0100  0.1534
  115TMC2    C8 1762   0.586   4.025   0.369 -0.0922  0.0443  0.2230
  115TMC2    O1 1763   0.084   3.926   0.097  0.6372  0.2556 -0.3267
  115TMC2    O2 1764   0.669   3.975   0.443 -0.6015  0.0925 -0.4541
  115TMC2    O5 1765   0.596   4.148   0.313  0.2635  0.3472  0.1119
  115TMC2    H5 1766   0.529   4.152   0.241  1.1188 -3.2746 -0.8505
  116MPD2     C 1767   0.788   3.220   0.060 -0.4393 -1.2957  0.2494
  116MPD2    C1 1768   0.653   3.213   0.067  0.2054  0.0994  0.3822
  116MPD2    C2 1769   0.588   3.314   0.136 -0.0128 -0.5313  0.0721
  116MPD2    C3 1770   0.656   3.427   0.180 -0.1698 -0.0671  0.7101
  116MPD2    C4 1771   0.793   3.426   0.170 -0.0791 -0.3857 -0.7945
  116MPD2    C5 1772   0.860   3.325   0.109 -0.1425  0.3480  0.5089
  116MPD2     H 1773   0.481   3.312   0.146  0.0537  0.1778  0.8515
  116MPD2    H1 1774   0.852   3.511   0.204  1.9299 -1.3739 -1.8154
  116MPD2    H2 1775   0.850   3.139   0.024 -0.9192 -0.6273 -2.0755
  116MPD2    H3 1776   0.967   3.328   0.094  0.0321 -1.5954  1.3510
  116MPD2     N 1777   0.597   3.550   0.205 -0.2378 -0.0817  0.3690
  116MPD2    H5 1778   0.654   3.634   0.213  0.5415 -0.2860 -3.0067
  116MPD2    N1 1779   0.595   3.101   0.016  0.0821 -0.5804  0.4513
  116MPD2    H7 1780   0.659   3.043  17.656  1.5725  0.8296  0.7058
  117TMC2    C1 1781   3.558   0.060  13.661  0.1410  0.3249 -0.0177
  117TMC2    C2 1782   3.552   4.647  13.666 -0.2722  0.2721  0.5806
  117TMC2    C3 1783   3.611   4.590  13.783  0.1346  0.3085  0.1861
  117TMC2    C4 1784   3.610   0.137  13.758 -0.1034  0.1388 -0.3444
  117TMC2    C5 1785   3.672   0.074  13.866 -0.2719  0.7134  0.3914
  117TMC2    C6 1786   3.665   4.663  13.883  0.1992 -0.2763  0.0326
  117TMC2     C 1787   3.467   0.113  13.559  0.7235 -0.0655  0.3535
  117TMC2     O 1788   3.444   0.036  13.467  0.0760 -0.3191  0.0155
  117TMC2     H 1789   3.493   4.577  13.608 -0.1550 -0.3852  1.2504
  117TMC2    H1 1790   3.611   0.246  13.751  3.4111 -0.0279 -2.5174
  117TMC2    H2 1791   3.714   4.607  13.962  0.1807  1.1654  1.0647
  117TMC2    C7 1792   3.744   0.148  13.965  0.3879  0.1648  0.0194
  117TMC2    C8 1793   3.614   4.441  13.791 -0.6330 -0.3052 -0.0849
  117TMC2    O1 1794   3.783   0.096  14.067 -0.7887  0.1648  0.1658
  117TMC2    O2 1795   3.508   4.376  13.790 -0.1279 -0.1168 -0.3765
  117TMC2    O5 1796   3.741   4.404  13.768 -0.2519 -0.1958 -0.7471
  117TMC2    H5 1797   3.810   4.473  13.774 -0.1943 -0.1867 -1.5036
  118MPD2     C 1798   3.900   0.342  14.129  0.4560 -0.6528 -0.5414
  118MPD2    C1 1799   3.849   0.366  14.003 -0.1013 -0.8526 -0.0174
  118MPD2    C2 1800   3.863   0.490  13.951 -0.0430  0.1120  0.3265
  118MPD2    C3 1801   3.928   0.592  14.022 -0.7193 -0.2288 -0.0893
  118MPD2    C4 1802   3.974   0.569  14.151  0.1240  0.4399  0.3068
  118MPD2    C5 1803   3.963   0.440  14.201 -0.1275 -0.5979 -0.1169
  118MPD2     H 1804   3.843   0.520  13.849  2.4836  0.4305 -0.0709
  118MPD2    H1 1805   4.001   0.644  14.225  1.9446 -0.1262  0.2044
  118MPD2    H2 1806   3.885   0.251  14.186  0.2856 -0.8165 -0.8456
  118MPD2    H3 1807   4.000   0.420  14.301  1.0429 -0.0555 -0.4388
  118MPD2     N 1808   3.944   0.724  13.969 -0.3751 -0.1571 -0.3231
  118MPD2    H5 1809   4.015   0.778  14.017 -0.2678  0.5247 -1.2380
  118MPD2    N1 1810   3.782   0.268  13.924 -0.0455  0.1785  0.3049
  118MPD2    H7 1811   3.759   0.290  13.827  0.2012  1.1901  0.4753
  119MPD2     C 1812   1.956   2.108  13.948 -0.0216  0.3719  0.6438
  119MPD2    C1 1813   1.841   2.063  13.992 -0.4500 -0.6082  0.0477
  119MPD2    C2 1814   1.749   2.005  13.898 -0.2449 -0.3001 -0.1781
  119MPD2    C3 1815   1.807   1.948  13.782  0.2146  0.3949  0.2763
  119MPD2    C4 1816   1.925   1.995  13.739  0.0435  0.1936  1.0344
  119MPD2    C5 1817   1.996   2.085  13.821 -0.0716 -0.1682 -0.6972
  119MPD2     H 1818   1.645   1.988  13.922 -0.5025  1.7011  0.1061
  119MPD2    H1 1819   1.968   1.972  13.642 -0.7259  0.3099  0.6611
  119MPD2    H2 1820   2.013   2.178  14.008  1.4184 -1.4021  1.3323
  119MPD2    H3 1821   2.088   2.130  13.785 -0.5937  0.5665 -1.1223
  119MPD2     N 1822   1.735   1.856  13.711 -0.4366 -0.1862 -0.6264
  119MPD2    H5 1823   1.784   1.814  13.633  2.4263  1.2662  0.4045
  119MPD2    N1 1824   1.803   2.096  14.131  0.6805  0.6875 -0.5361
  119MPD2    H7 1825   1.859   2.159  14.188  0.2132  1.0244 -0.4498
  120TCq2    C1 1826   1.623   1.789  13.757  1.1660 -0.5227  1.0710
  120TCq2    O2 1827   1.561   1.797  13.861  0.1177 -0.5209 -0.0736
  120TCq2    C2 1828   1.580   1.687  13.667  0.0174 -0.5263 -0.6246
  120TCq2    C3 1829   1.641   1.664  13.552  0.0702 -0.7476  0.6018
  120TCq2    C4 1830   1.599   1.551  13.474  0.6293  0.3708  0.4144
  120TCq2    C5 1831   1.495   1.475  13.510 -0.0018 -0.2437  0.3988
  120TCq2    C6 1832   1.433   1.502  13.628  0.0855  1.3614  0.4997
  120TCq2    C7 1833   1.469   1.608  13.706 -0.8262  0.3964 -0.1966
  120TCq2    C8 1834   1.301   1.453  13.637  0.1305  0.5247  0.1837
  120TCq2    O4 1835   1.238   1.440  13.532  0.3653 -0.2481 -0.0524
  120TCq2    C9 1836   1.669   1.509  13.360 -0.2885 -0.3709  0.1231
  120TCq2    O5 1837   1.720   1.599  13.293  0.4978  0.1881 -0.0861
  120TCq2    O6 1838   1.665   1.393  13.316 -0.5909 -0.0971  0.5848
  120TCq2    H2 1839   1.719   1.722  13.505 -0.0094 -2.5400 -1.7575
  120TCq2    H3 1840   1.453   1.401  13.443  0.9230  0.4258 -0.9218
  120TCq2    H4 1841   1.418   1.635  13.797 -1.3899  0.6220 -0.5789
  121TMC2    C1 1842   3.247   2.794  13.816 -0.7351 -0.4212  0.5231
  121TMC2    C2 1843   3.319   2.672  13.835  0.1768  0.1793 -0.2564
  121TMC2    C3 1844   3.249   2.553  13.815  0.0631  0.0786  0.5741
  121TMC2    C4 1845   3.109   2.795  13.794 -0.0638  0.3356  0.4545
  121TMC2    C5 1846   3.045   2.676  13.771 -0.0271  0.2404 -0.2917
  121TMC2    C6 1847   3.117   2.559  13.783  0.1942  0.2401 -0.2325
  121TMC2     C 1848   3.310   2.913  13.880  0.2652  0.9881  0.4906
  121TMC2     O 1849   3.360   2.899  13.989  0.1638 -0.1834 -0.4871
  121TMC2     H 1850   3.420   2.673  13.873  0.5359  0.0629 -1.2151
  121TMC2    H1 1851   3.056   2.888  13.776  1.3751  1.0240 -0.1837
  121TMC2    H2 1852   3.080   2.465  13.743  0.8800 -0.0832 -0.1164
  121TMC2    C7 1853   2.905   2.666  13.738  0.4984 -0.1377 -0.1938
  121TMC2    C8 1854   3.304   2.431  13.847 -0.0457 -0.0493  0.5836
  121TMC2    O1 1855   2.870   2.549  13.738 -0.7258  0.0512  0.6865
  121TMC2    O2 1856   3.411   2.397  13.802 -0.6484  0.6138  0.0657
  121TMC2    O5 1857   3.276   2.430  13.978  0.2905 -0.5978 -0.8094
  121TMC2    H5 1858   3.229   2.509  14.012  0.0324  0.1201 -2.8873
  122MPD2     C 1859   3.525   3.121  13.913 -0.1544  0.2808  0.0336
  122MPD2    C1 1860   3.431   3.121  13.807  0.2377  0.7249  0.1699
  122MPD2    C2 1861   3.435   3.223  13.715 -0.0160  0.2508 -0.3187
  122MPD2    C3 1862   3.508   3.340  13.738  0.4698 -0.1008 -0.0133
  122MPD2    C4 1863   3.589   3.345  13.847 -0.1508 -0.2703  0.5947
  122MPD2    C5 1864   3.604   3.229  13.928 -0.2503  0.3819  0.0315
  122MPD2     H 1865   3.367   3.208  13.632 -1.0247 -2.3614  0.9751
  122MPD2    H1 1866   3.669   3.419  13.855 -0.1849 -0.6172  3.9531
  122MPD2    H2 1867   3.534   3.040  13.985  1.0522  1.4389  1.1746
  122MPD2    H3 1868   3.695   3.224  13.986  0.4790  0.5676 -1.0950
  122MPD2     N 1869   3.504   3.454  13.658 -0.7570 -0.6047 -0.1526
  122MPD2    H5 1870   3.569   3.523  13.693 -2.7491  1.4662 -0.5330
  122MPD2    N1 1871   3.337   3.012  13.789  0.1540  0.4312 -0.5039
  122MPD2    H7 1872   3.304   2.996  13.694  1.4620 -2.9762 -0.3914
  123MPD2     C 1873   0.602   0.941   9.480 -0.0593  0.0043 -0.2211
  123MPD2    C1 1874   0.610   1.053   9.397 -0.6886  0.8028 -0.0968
  123MPD2    C2 1875   0.735   1.080   9.340  0.6595  0.3804 -0.1437
  123MPD2    C3 1876   0.848   0.996   9.356  0.0306  1.0697  0.3234
  123MPD2    C4 1877   0.834   0.883   9.436 -0.0289 -0.7467 -0.2206
  123MPD2    C5 1878   0.714   0.859   9.496 -0.7285 -0.6141 -0.9891
  123MPD2     H 1879   0.754   1.172   9.287 -1.8682  0.3886 -1.0075
  123MPD2    H1 1880   0.918   0.816   9.453  0.2346  0.1945  2.2288
  123MPD2    H2 1881   0.509   0.910   9.526  2.1979 -2.5716  2.5337
  123MPD2    H3 1882   0.710   0.772   9.561  1.4635  0.0012 -0.0180
  123MPD2     N 1883   0.968   1.027   9.295 -0.7179  0.3676  1.0026
  123MPD2    H5 1884   1.045   0.966   9.318 -1.4474 -0.5283  1.0542
  123MPD2    N1 1885   0.504   1.146   9.389  0.3073 -0.4111 -0.0240
  123MPD2    H7 1886   0.422   1.109   9.436  0.8985 -0.8171  0.6834
  124TCq2    C1 1887   0.984   1.114   9.189  0.3619 -0.1991 -0.6858
  124TCq2    O2 1888   0.904   1.144   9.105 -0.3117 -0.3524  1.0203
  124TCq2    C2 1889   1.123   1.117   9.152 -0.0268 -0.2805 -0.0076
  124TCq2    C3 1890   1.158   1.157   9.025  0.3365  0.1460  0.3282
  124TCq2    C4 1891   1.286   1.185   8.988 -0.2175  0.1283  0.3645
  124TCq2    C5 1892   1.383   1.199   9.092  0.5634  0.0300  0.2449
  124TCq2    C6 1893   1.346   1.163   9.224  0.4424  0.7081 -0.1531
  124TCq2    C7 1894   1.218   1.114   9.250  0.3900 -0.0838 -0.9234
  124TCq2    C8 1895   1.436   1.184   9.336  0.2183  0.4977 -0.1613
  124TCq2    O4 1896   1.416   1.118   9.435  0.1522  0.4652 -0.6106
  124TCq2    C9 1897   1.306   1.242   8.853  0.0757  0.4028 -0.9252
  124TCq2    O5 1898   1.209   1.272   8.782 -0.1950  0.5628 -0.1829
  124TCq2    O6 1899   1.421   1.288   8.824 -0.4125 -0.0468 -0.0850
  124TCq2    H2 1900   1.084   1.146   8.946  1.6195 -0.3805 -0.8139
  124TCq2    H3 1901   1.484   1.231   9.068  0.2760  1.8940  1.4836
  124TCq2    H4 1902   1.198   1.104   9.356 -0.3135  1.7339 -0.8790
  125TMC2    C1 1903   1.812   3.684   9.211  0.5934 -0.6349  0.5925
  125TMC2    C2 1904   1.683   3.733   9.213 -0.3729  0.7897  0.4619
  125TMC2    C3 1905   1.656   3.812   9.106 -0.5476 -0.2958  0.0643
  125TMC2    C4 1906   1.910   3.724   9.121  0.1101 -0.3150  0.5253
  125TMC2    C5 1907   1.877   3.812   9.019  0.3087 -0.8686 -0.2914
  125TMC2    C6 1908   1.743   3.844   9.005  0.0727  0.0425  0.4541
  125TMC2     C 1909   1.839   3.615   9.329 -0.7619  0.1702  0.5406
  125TMC2     O 1910   1.742   3.576   9.390  0.3927  0.2715  0.2395
  125TMC2     H 1911   1.607   3.715   9.288 -0.6843 -0.6494 -0.1916
  125TMC2    H1 1912   2.007   3.681   9.144 -0.1145 -0.4343  1.2422
  125TMC2    H2 1913   1.707   3.914   8.931  0.8532 -0.7124 -0.6506
  125TMC2    C7 1914   1.970   3.848   8.913  0.5214  0.1422  0.0500
  125TMC2    C8 1915   1.520   3.858   9.080 -0.1272 -0.5535 -0.1286
  125TMC2    O1 1916   1.926   3.885   8.803  0.3051 -0.0429 -0.4852
  125TMC2    O2 1917   1.464   3.878   8.976  0.0521 -0.3302  0.5509
  125TMC2    O5 1918   1.520   3.938   9.189 -0.0224 -0.5733  0.3116
  125TMC2    H5 1919   1.586   3.918   9.258  0.8608  0.2989 -0.2950
  126MPD1     C 1920   2.171   3.420   9.674 -0.9278  0.2331  0.1137
  126MPD1    C1 1921   2.233   3.523   9.604  0.2596 -0.9168 -0.8452
  126MPD1    C2 1922   2.163   3.587   9.506 -0.7316  0.0207  0.1395
  126MPD1    C3 1923   2.035   3.552   9.473  0.3619  0.1258  0.4939
  126MPD1    C4 1924   1.976   3.464   9.560 -0.2108  0.4025 -0.1411
  126MPD1    C5 1925   2.036   3.399   9.664 -0.0767 -1.1742  0.3367
  126MPD1     H 1926   2.211   3.660   9.442 -2.3922  1.2015  0.2429
  126MPD1    H1 1927   1.871   3.451   9.534  0.0392 -2.0067  0.0252
  126MPD1    H2 1928   2.227   3.355   9.740  2.3487  0.5624 -2.3438
  126MPD1    H3 1929   1.982   3.326   9.724 -2.0061 -0.0860 -0.0652
  126MPD1     N 1930   1.971   3.627   9.366  0.9595 -0.0849 -0.6089
  126MPD1    H5 1931   2.030   3.680   9.303 -1.3511  1.5881 -1.3894
  126MPD1    N1 1932   2.373   3.533   9.618  0.0581 -0.0420 -0.1417
  126MPD1    H6 1933   2.416   3.622   9.592  1.6704 -1.7472 -3.2941
  126MPD1    H7 1934   2.400   3.504   9.712  2.4568  1.4558 -0.3822
  127MPD2     C 1935   3.359   2.366   9.596  0.2027 -0.6753 -0.5299
  127MPD2    C1 1936   3.342   2.464   9.689  0.0452  0.3907 -0.1700
  127MPD2    C2 1937   3.391   2.589   9.667  0.1170 -0.3306  0.2939
  127MPD2    C3 1938   3.480   2.606   9.569  0.1137 -0.5600 -0.0230
  127MPD2    C4 1939   3.507   2.500   9.478  0.1849  0.1782 -0.1237
  127MPD2    C5 1940   3.449   2.379   9.496 -0.3974  0.5162  0.1853
  127MPD2     H 1941   3.373   2.667   9.740 -0.1796 -0.4144  0.3111
  127MPD2    H1 1942   3.586   2.514   9.406  0.9036 -1.6094  0.3432
  127MPD2    H2 1943   3.321   2.265   9.608 -0.1832 -0.4375  0.2712
  127MPD2    H3 1944   3.476   2.293   9.435  0.2184 -1.0700  2.6993
  127MPD2     N 1945   3.549   2.734   9.560  0.3324 -0.0777  0.1625
  127MPD2    H5 1946   3.508   2.812   9.610 -1.6121 -0.4206 -0.8979
  127MPD2    N1 1947   3.274   2.424   9.806  0.5214  0.0890 -0.0257
  127MPD2    H7 1948   3.225   2.335   9.808  0.7230 -0.1016 -2.6102
  128TCq2    C1 1949   3.266   2.507   9.918 -0.2756 -0.2934 -0.1618
  128TCq2    O2 1950   3.339   2.604   9.949  0.4989  0.3473 -0.0739
  128TCq2    C2 1951   3.174   2.463  10.016  0.2251  0.2874  0.0598
  128TCq2    C3 1952   3.196   2.509  10.143 -0.1504 -0.5488  0.3853
  128TCq2    C4 1953   3.136   2.443  10.246  0.0529 -0.0681  0.2925
  128TCq2    C5 1954   3.039   2.347  10.217 -0.0819 -0.0799  0.4278
  128TCq2    C6 1955   3.008   2.312  10.084 -0.3848 -0.3455 -0.1137
  128TCq2    C7 1956   3.076   2.372   9.983  0.1724 -0.4100 -0.3097
  128TCq2    C8 1957   2.888   2.238  10.049  0.0609 -0.0131 -0.2440
  128TCq2    O4 1958   2.822   2.287   9.954  0.0670 -0.5301 -0.3915
  128TCq2    C9 1959   3.151   2.496  10.383  0.2193  0.4304 -0.0752
  128TCq2    O5 1960   3.068   2.465  10.470 -0.1578  0.3268 -0.4962
  128TCq2    O6 1961   3.227   2.599  10.399 -0.5315 -0.1937 -0.0464
  128TCq2    H2 1962   3.282   2.570  10.170 -0.2288 -0.5704  0.6854
  128TCq2    H3 1963   2.978   2.310  10.299  0.1030  3.9231  2.3966
  128TCq2    H4 1964   3.061   2.339   9.881 -1.4312 -2.1617  0.5090
  129MPD2     C 1965   1.999   3.533   1.761 -0.2949 -0.0918 -0.0015
  129MPD2    C1 1966   2.126   3.556   1.807  0.2956  0.1256  0.0966
  129MPD2    C2 1967   2.206   3.636   1.738 -0.3102 -0.2896 -0.0835
  129MPD2    C3 1968   2.166   3.696   1.618 -0.9206  0.2791  0.3947
  129MPD2    C4 1969   2.034   3.690   1.581 -0.2061 -0.5009 -0.1826
  129MPD2    C5 1970   1.950   3.606   1.657  0.1874 -0.4228  1.1018
  129MPD2     H 1971   2.305   3.648   1.782 -0.7785  1.1953  0.5358
  129MPD2    H1 1972   1.988   3.726   1.490  0.7131  0.0193 -0.4353
  129MPD2    H2 1973   1.917   3.489   1.816  1.3501 -3.3690 -0.1657
  129MPD2    H3 1974   1.844   3.608   1.634  0.6963  1.1934 -1.1140
  129MPD2     N 1975   2.260   3.762   1.534  0.5719 -0.0845  0.5519
  129MPD2    H5 1976   2.358   3.760   1.560  1.0102 -2.3579 -1.2252
  129MPD2    N1 1977   2.185   3.478   1.912 -0.6673  0.5530 -0.2254
  129MPD2    H7 1978   2.284   3.490   1.927 -0.3885  3.6260 -4.3197
  130TCq2    C1 1979   2.118   3.375   1.975 -0.2011 -0.1889  0.8674
  130TCq2    O2 1980   2.003   3.335   1.962 -0.2755 -0.0211 -0.4852
  130TCq2    C2 1981   2.205   3.299   2.064 -0.3785  0.2257  0.3250
  130TCq2    C3 1982   2.320   3.351   2.105 -0.4299 -0.3983 -0.2118
  130TCq2    C4 1983   2.404   3.273   2.184  0.2988  0.0996  1.2181
  130TCq2    C5 1984   2.368   3.148   2.220  0.5054 -0.4206  0.0385
  130TCq2    C6 1985   2.245   3.087   2.169 -0.4659  0.1101 -0.0850
  130TCq2    C7 1986   2.162   3.174   2.097 -0.0178 -0.7276 -0.1284
  130TCq2    C8 1987   2.205   2.948   2.198 -0.4925 -0.3255 -0.0938
  130TCq2    O4 1988   2.090   2.920   2.170  0.1628  0.0961  0.1288
  130TCq2    C9 1989   2.515   3.333   2.245 -0.6418  0.1977  0.2578
  130TCq2    O5 1990   2.528   3.455   2.222 -0.2291  0.5237  0.8888
  130TCq2    O6 1991   2.578   3.262   2.328  0.2628  0.4347 -0.0176
  130TCq2    H2 1992   2.338   3.456   2.086 -0.6311 -0.3710 -0.2424
  130TCq2    H3 1993   2.430   3.083   2.281  1.1787 -1.1166 -1.3942
  130TCq2    H4 1994   2.076   3.137   2.042 -0.1099  2.4723 -2.1135
  131MPD2     C 1995   0.279   2.082   9.035  0.4284  0.6615  1.1918
  131MPD2    C1 1996   0.396   2.038   9.099 -0.5030 -0.4002  0.2466
  131MPD2    C2 1997   0.396   1.907   9.146 -0.1007  0.5307 -0.2425
  131MPD2    C3 1998   0.282   1.831   9.147  0.8707 -0.5273 -0.1816
  131MPD2    C4 1999   0.165   1.885   9.102 -0.4340  0.3028  0.3058
  131MPD2    C5 2000   0.160   2.010   9.037  0.5199  0.4839  0.4071
  131MPD2     H 2001   0.489   1.856   9.169 -0.2998  0.1100 -0.3674
  131MPD2    H1 2002   0.083   1.814   9.097  0.0370 -0.0647 -2.0276
  131MPD2    H2 2003   0.282   2.175   8.981 -0.9136 -1.0361 -1.7941
  131MPD2    H3 2004   0.068   2.044   8.991  0.1052 -0.3148  0.6456
  131MPD2     N 2005   0.289   1.705   9.221  0.4194  0.1338  1.1978
  131MPD2    H5 2006   0.372   1.687   9.276  1.0978 -1.9112 -0.4835
  131MPD2    N1 2007   0.514   2.115   9.089 -0.1505  0.7292 -0.3844
  131MPD2    H7 2008   0.500   2.205   9.043  0.2751  0.2554 -1.4460
  132TCq2    C1 2009   1.007   2.302   9.370  0.8575 -0.4610 -0.2062
  132TCq2    O2 2010   1.015   2.199   9.430  0.9842 -0.6195 -0.3619
  132TCq2    C2 2011   0.915   2.294   9.257  0.1093  1.1438  0.0448
  132TCq2    C3 2012   0.890   2.414   9.195  0.0467  0.1896  0.6592
  132TCq2    C4 2013   0.797   2.422   9.097 -0.6268 -0.6588 -1.0647
  132TCq2    C5 2014   0.725   2.308   9.069 -0.4473  0.0001 -0.0976
  132TCq2    C6 2015   0.736   2.196   9.147  0.2840 -0.5462 -0.5960
  132TCq2    C7 2016   0.834   2.187   9.243  0.5275 -0.4355 -0.2008
  132TCq2    C8 2017   0.633   2.093   9.159  0.0234 -0.0530  0.0943
  132TCq2    O4 2018   0.666   1.994   9.220 -0.3752  0.0134 -0.0202
  132TCq2    C9 2019   0.769   2.542   9.024 -0.3479  0.2630  0.0935
  132TCq2    O5 2020   0.662   2.547   8.952 -0.1008 -0.2847 -0.2049
  132TCq2    O6 2021   0.852   2.632   9.020  0.7320 -0.2283 -0.4122
  132TCq2    H2 2022   0.941   2.507   9.215 -0.2976  0.8484 -1.4841
  132TCq2    H3 2023   0.656   2.312   8.985  0.8310 -1.1068 -1.1905
  132TCq2    H4 2024   0.830   2.097   9.302 -2.5952 -0.5122 -0.4951
  133MPD2     C 2025   0.156   3.170   9.404 -0.9840 -0.2035  0.4709
  133MPD2    C1 2026   0.268   3.094   9.424 -0.2221  0.0460  0.0895
  133MPD2    C2 2027   0.262   2.959   9.394  0.7561 -0.9984 -0.6490
  133MPD2    C3 2028   0.149   2.908   9.320 -0.4040  0.3707 -0.2732
  133MPD2    C4 2029   0.043   2.992   9.289  0.4446  0.1081  0.7729
  133MPD2    C5 2030   0.044   3.118   9.343 -0.0088  0.0746  0.3376
  133MPD2     H 2031   0.347   2.893   9.409  1.8526 -0.2942 -3.7245
  133MPD2    H1 2032   4.682   2.967   9.225 -0.6065  0.0236  2.1898
  133MPD2    H2 2033   0.149   3.271   9.445 -0.2046  0.4314 -0.9585
  133MPD2    H3 2034   4.678   3.179   9.328 -1.9235 -1.6895  4.3228
  133MPD2     N 2035   0.150   2.779   9.268  0.0393  0.4004  0.3179
  133MPD2    H5 2036   0.060   2.754   9.228 -0.4462 -0.4487  1.9251
  133MPD2    N1 2037   0.375   3.154   9.498 -0.6314 -0.6029  0.1625
  133MPD2    H7 2038   0.368   3.248   9.534 -0.1390  0.0638 -1.4761
  134TCq2    C1 2039   0.488   3.088   9.542 -0.6484 -0.8992  0.2818
  134TCq2    O2 2040   0.513   2.968   9.543  0.0771 -0.6613  0.2844
  134TCq2    C2 2041   0.577   3.187   9.598 -0.0656  0.2719  0.2519
  134TCq2    C3 2042   0.583   3.312   9.551  0.0077  0.3151 -0.1936
  134TCq2    C4 2043   0.697   3.387   9.576  0.9256  0.2768 -0.7268
  134TCq2    C5 2044   0.795   3.345   9.665  0.1885  0.3701  0.5253
  134TCq2    C6 2045   0.779   3.215   9.714 -0.0107 -0.3360  0.1170
  134TCq2    C7 2046   0.677   3.133   9.679  0.2107 -0.1493 -0.2271
  134TCq2    C8 2047   0.850   3.164   9.827  0.0913  1.1058 -0.1419
  134TCq2    O4 2048   0.795   3.078   9.892 -0.3642  0.7398 -0.2458
  134TCq2    C9 2049   0.710   3.516   9.511  0.2302 -0.4220  0.4165
  134TCq2    O5 2050   0.794   3.597   9.562 -0.4924 -0.0460  0.8995
  134TCq2    O6 2051   0.626   3.545   9.422 -0.5577  0.0374 -0.1917
  134TCq2    H2 2052   0.516   3.351   9.475  2.0337  1.4726 -1.3869
  134TCq2    H3 2053   0.886   3.403   9.666  0.0316  0.6600 -0.9408
  134TCq2    H4 2054   0.663   3.034   9.719  1.1261  0.3215  1.2656
  135MPD2     C 2055   1.837   4.104   9.167 -0.2181  0.0169 -1.3572
  135MPD2    C1 2056   1.949   4.069   9.245  1.0618  0.2773 -0.3411
  135MPD2    C2 2057   2.076   4.094   9.202  0.3562 -0.6350  1.2126
  135MPD2    C3 2058   2.097   4.154   9.082 -0.2881  0.3372 -0.1485
  135MPD2    C4 2059   1.987   4.205   9.015  0.0692  0.2391 -0.3143
  135MPD2    C5 2060   1.859   4.171   9.052 -0.2117  0.0395  0.3046
  135MPD2     H 2061   2.160   4.055   9.259  0.5989 -2.0847 -0.1389
  135MPD2    H1 2062   2.004   4.265   8.926 -1.2132 -0.5943 -1.1154
  135MPD2    H2 2063   1.734   4.079   9.192  0.5328 -3.7529 -1.9204
  135MPD2    H3 2064   1.777   4.213   8.994 -1.8574  1.5528  3.6942
  135MPD2     N 2065   2.226   4.184   9.033 -0.5976 -0.2133  0.1551
  135MPD2    H5 2066   2.234   4.241   8.950  0.5936 -1.1540 -0.3655
  135MPD2    N1 2067   1.945   3.997   9.364 -0.2945  0.0046  0.7363
  135MPD2    H7 2068   2.039   3.976   9.396  0.2816  0.0995 -0.8500
  136TCq2    C1 2069   1.831   3.956   9.429  0.0909 -0.4192 -0.5704
  136TCq2    O2 2070   1.718   3.948   9.384 -0.7950  0.1450 -0.9290
  136TCq2    C2 2071   1.848   3.919   9.568  0.2480  0.6612 -0.0963
  136TCq2    C3 2072   1.754   3.840   9.619  0.0214  0.4633  0.2761
  136TCq2    C4 2073   1.780   3.766   9.735  0.8001  0.1295 -0.5213
  136TCq2    C5 2074   1.903   3.769   9.797 -0.9679 -0.0629 -0.1279
  136TCq2    C6 2075   2.001   3.846   9.735 -0.4524  0.2001 -0.1939
  136TCq2    C7 2076   1.972   3.915   9.621  0.2327 -0.1296  0.2401
  136TCq2    C8 2077   2.141   3.849   9.786 -0.0857 -0.1076  0.4336
  136TCq2    O4 2078   2.216   3.938   9.756 -0.1650 -0.4015  0.0226
  136TCq2    C9 2079   1.670   3.699   9.805 -0.3535  0.8192  0.8894
  136TCq2    O5 2080   1.699   3.656   9.920 -0.3466  0.0606  0.1898
  136TCq2    O6 2081   1.557   3.699   9.749  0.0543  0.4291 -0.1008
  136TCq2    H2 2082   1.653   3.841   9.580 -0.2738 -1.5848  1.0070
  136TCq2    H3 2083   1.919   3.725   9.895  1.2296  1.2916  0.1349
  136TCq2    H4 2084   2.050   3.970   9.569  0.5345 -0.4049  0.3957
  137MPD2     C 2085   2.543   3.308   8.594  0.2212  0.4100 -0.6364
  137MPD2    C1 2086   2.453   3.337   8.694  0.3377 -0.3068 -0.4489
  137MPD2    C2 2087   2.489   3.303   8.828  0.0037  0.4132  0.4600
  137MPD2    C3 2088   2.607   3.243   8.858  0.4853  0.0875 -0.3873
  137MPD2    C4 2089   2.692   3.209   8.753 -0.4249  0.2751  0.3536
  137MPD2    C5 2090   2.667   3.254   8.625  0.0976 -0.4819  0.3033
  137MPD2     H 2091   2.425   3.337   8.909  0.1618  2.3652 -0.2271
  137MPD2    H1 2092   2.788   3.165   8.775 -0.2440 -0.2999 -1.6623
  137MPD2    H2 2093   2.522   3.326   8.490 -0.3902  0.0476 -0.5778
  137MPD2    H3 2094   2.740   3.236   8.546  1.1853  3.7551  0.3562
  137MPD2     N 2095   2.630   3.224   8.994  0.3385  0.3312 -0.2284
  137MPD2    H5 2096   2.556   3.245   9.061 -0.2809 -0.0644 -0.7854
  137MPD2    N1 2097   2.341   3.408   8.657 -0.1906 -0.4376  0.3032
  137MPD2    H7 2098   2.340   3.439   8.561  0.1018 -0.5231  0.2732
  138TCq2    C1 2099   2.240   3.439   8.744 -0.4861 -0.4738 -0.3158
  138TCq2    O2 2100   2.215   3.389   8.856  0.4624 -0.2224  0.1722
  138TCq2    C2 2101   2.130   3.510   8.680  0.1202  0.4903  0.3381
  138TCq2    C3 2102   2.138   3.568   8.553 -0.5978 -0.0988  0.5517
  138TCq2    C4 2103   2.025   3.612   8.494  0.5148  0.1369 -0.6209
  138TCq2    C5 2104   1.910   3.620   8.562 -0.0179  0.2864  0.3653
  138TCq2    C6 2105   1.899   3.566   8.687  1.1278  0.1516  0.0676
  138TCq2    C7 2106   2.009   3.514   8.745  0.1374  0.1876 -0.3096
  138TCq2    C8 2107   1.767   3.575   8.752 -0.0038  0.3212 -0.2333
  138TCq2    O4 2108   1.691   3.660   8.701  0.1395  0.1717 -0.0798
  138TCq2    C9 2109   2.032   3.657   8.361 -0.3952  0.4272 -0.5257
  138TCq2    O5 2110   2.147   3.650   8.307 -0.8984  0.1550 -0.3486
  138TCq2    O6 2111   1.933   3.716   8.312  0.3142  0.2194  0.6502
  138TCq2    H2 2112   2.233   3.580   8.502  0.2614 -0.0768  2.1556
  138TCq2    H3 2113   1.814   3.647   8.519 -0.3773 -0.4407  0.7157
  138TCq2    H4 2114   2.000   3.483   8.849 -2.3810  0.1962 -0.5106
  139TMC2    C1 2115   3.451   0.951  13.459  0.5472 -0.3759  0.6282
  139TMC2    C2 2116   3.343   0.913  13.393 -0.2137  0.2019  0.1787
  139TMC2    C3 2117   3.231   0.996  13.385  0.2482 -0.1326  0.2825
  139TMC2    C4 2118   3.459   1.081  13.509 -0.6442 -0.3033 -0.3662
  139TMC2    C5 2119   3.346   1.158  13.505 -0.5890 -0.1374 -0.6960
  139TMC2    C6 2120   3.220   1.112  13.456  0.3295 -1.0192  0.2194
  139TMC2     C 2121   3.560   0.853  13.481 -0.1549 -0.0156 -0.0582
  139TMC2     O 2122   3.652   0.887  13.553  0.4291 -0.4756  0.3725
  139TMC2     H 2123   3.325   0.815  13.350 -2.0708  1.4597 -1.8950
  139TMC2    H1 2124   3.552   1.112  13.556 -0.5955 -3.5387  1.6956
  139TMC2    H2 2125   3.125   1.163  13.462 -0.2673 -2.0017 -0.8268
  139TMC2    C7 2126   3.331   1.291  13.573  0.0280 -0.1085 -0.6483
  139TMC2    C8 2127   3.107   0.931  13.336  0.0276 -0.5558  0.0543
  139TMC2    O1 2128   3.219   1.325  13.597 -0.2104 -0.2430  0.2024
  139TMC2    O2 2129   3.085   0.811  13.343 -0.0992  0.1032 -0.2707
  139TMC2    O5 2130   3.023   1.029  13.308 -0.4999 -0.4051 -0.1946
  139TMC2    H5 2131   3.072   1.113  13.298 -0.4995 -0.0891  2.4189
  140MPD2     C 2132   3.700   0.604  13.529 -0.3068  1.3454 -0.1037
  140MPD2    C1 2133   3.624   0.627  13.415  0.1997  0.4859  0.4504
  140MPD2    C2 2134   3.603   0.518  13.324 -0.2581 -0.1167 -0.4338
  140MPD2    C3 2135   3.670   0.396  13.343  0.0064  0.3510 -0.2831
  140MPD2    C4 2136   3.745   0.377  13.459 -0.3072 -0.0651 -0.2587
  140MPD2    C5 2137   3.761   0.486  13.549  0.6302  1.0956  0.0939
  140MPD2     H 2138   3.543   0.534  13.235  1.0656  0.4207 -1.2217
  140MPD2    H1 2139   3.799   0.284  13.472 -2.6821 -1.0268  2.7408
  140MPD2    H2 2140   3.709   0.686  13.599 -0.8978  0.4531  1.0117
  140MPD2    H3 2141   3.807   0.465  13.645 -0.2976 -0.5636  0.1767
  140MPD2     N 2142   3.646   0.291  13.246 -0.3043 -0.1986 -0.8639
  140MPD2    H5 2143   3.581   0.316  13.172 -0.2357  3.0508  0.1449
  140MPD2    N1 2144   3.547   0.745  13.396  0.4055 -0.3995  0.1755
  140MPD2    H7 2145   3.477   0.754  13.323 -0.0711  0.2248  0.7134
  141TCq2    C1 2146   4.410   1.968  14.345  0.2134 -0.5970  0.4710
  141TCq2    O2 2147   4.465   2.041  14.263  0.1329 -0.4158 -0.7373
  141TCq2    C2 2148   4.455   1.949  14.482  0.2866 -0.6437  0.2012
  141TCq2    C3 2149   4.402   1.840  14.550  0.1630  0.1424  0.1249
  141TCq2    C4 2150   4.380   1.848  14.682 -1.4195  0.5053 -0.6670
  141TCq2    C5 2151   4.366   1.970  14.740  0.2846 -0.1670  0.4037
  141TCq2    C6 2152   4.420   2.081  14.671 -0.5443 -0.1387  0.1608
  141TCq2    C7 2153   4.465   2.069  14.545 -0.8801 -0.5211 -0.5440
  141TCq2    C8 2154   4.394   2.217  14.715 -0.1533  0.1343 -0.2538
  141TCq2    O4 2155   4.396   2.244  14.833  0.5646  0.3117  0.5825
  141TCq2    C9 2156   4.321   1.734  14.748  0.6018  0.3487 -0.1035
  141TCq2    O5 2157   4.281   1.752  14.862  0.1358  0.2139  0.1353
  141TCq2    O6 2158   4.350   1.622  14.700 -0.0276  0.2399  0.1786
  141TCq2    H2 2159   4.386   1.745  14.500  1.8680  0.3314 -0.7704
  141TCq2    H3 2160   4.319   1.977  14.837 -0.0641  1.4526  0.1109
  141TCq2    H4 2161   4.489   2.153  14.482 -1.0633  0.7727  1.1101
  142MPD2     C 2162   1.322   0.944  10.608 -0.3766  0.2094  0.4711
  142MPD2    C1 2163   1.303   0.907  10.478  0.3950 -0.0779 -0.4442
  142MPD2    C2 2164   1.394   0.944  10.384  0.0232 -0.2341  0.8609
  142MPD2    C3 2165   1.502   1.023  10.416  0.4470 -0.1209  0.2995
  142MPD2    C4 2166   1.514   1.074  10.546  0.5069  0.7582 -0.2018
  142MPD2    C5 2167   1.429   1.030  10.642 -0.7579  0.7516 -0.2992
  142MPD2     H 2168   1.393   0.883  10.294  0.9057  1.6873 -0.4431
  142MPD2    H1 2169   1.596   1.140  10.573  0.5503  0.6563 -0.0868
  142MPD2    H2 2170   1.248   0.908  10.679  0.3634  1.9043  2.1141
  142MPD2    H3 2171   1.449   1.069  10.742  0.3137 -0.1520 -0.1649
  142MPD2     N 2172   1.606   1.055  10.332 -0.6511  0.6893  0.2595
  142MPD2    H5 2173   1.686   1.104  10.371  0.5980 -0.6951 -0.5323
  142MPD2    N1 2174   1.199   0.817  10.458  0.4072  0.3310 -0.4380
  142MPD2    H7 2175   1.133   0.808  10.534  1.2889  1.3470  0.4388
  143TCq2    C1 2176   1.609   1.032  10.202  0.1165 -0.7214 -0.6454
  143TCq2    O2 2177   1.530   0.976  10.130  0.6465 -0.6729 -0.8720
  143TCq2    C2 2178   1.720   1.093  10.136 -0.2642  0.6162 -0.0190
  143TCq2    C3 2179   1.799   1.185  10.200  0.6688 -0.3368  0.3320
  143TCq2    C4 2180   1.880   1.268  10.120  0.5475 -0.8777  0.0038
  143TCq2    C5 2181   1.875   1.263   9.986  0.3540  0.4438 -0.7018
  143TCq2    C6 2182   1.784   1.181   9.930  0.4175  0.1157 -0.1031
  143TCq2    C7 2183   1.716   1.085  10.002 -0.7622 -0.3864  0.2562
  143TCq2    C8 2184   1.752   1.186   9.793  0.0990  0.2707 -0.4821
  143TCq2    O4 2185   1.695   1.090   9.743 -0.0739  0.1618  0.0934
  143TCq2    C9 2186   1.966   1.362  10.185  0.0556  0.0948 -0.1357
  143TCq2    O5 2187   1.960   1.374  10.307 -0.3943 -0.7451  0.0258
  143TCq2    O6 2188   2.035   1.439  10.111  0.0477 -0.3114  0.0565
  143TCq2    H2 2189   1.802   1.204  10.307 -1.8665  0.6437  0.2236
  143TCq2    H3 2190   1.929   1.347   9.943 -1.8830  1.8651 -0.6807
  143TCq2    H4 2191   1.645   1.019   9.953 -1.2126  0.2238  0.0965
  144MPD2     C 2192   4.511   0.584   0.862  0.0324 -0.5987  0.0423
  144MPD2    C1 2193   4.571   0.468   0.807 -0.3578  0.3429  0.3573
  144MPD2    C2 2194   4.676   0.410   0.877  0.2594  0.1126 -0.3299
  144MPD2    C3 2195   4.717   0.461   1.003  0.2680  0.4815  0.0074
  144MPD2    C4 2196   4.656   0.578   1.057 -0.2540 -0.1107  0.2264
  144MPD2    C5 2197   4.545   0.631   0.986 -0.5686  0.0506  0.3271
  144MPD2     H 2198   0.005   0.323   0.838  0.0981 -0.1369  0.0085
  144MPD2    H1 2199   4.696   0.619   1.149  1.7698 -2.5799  0.4420
  144MPD2    H2 2200   4.431   0.636   0.810  1.1539 -1.0217 -2.0929
  144MPD2    H3 2201   4.493   0.715   1.031  0.4157  0.1934  1.2223
  144MPD2     N 2202   0.103   0.412   1.077 -0.2821  0.2598  0.0892
  144MPD2    H5 2203   0.134   0.455   1.163 -0.3875 -0.2703  0.3934
  144MPD2    N1 2204   4.538   0.403   0.686  0.4522 -0.3105 -0.1335
  144MPD2    H7 2205   4.584   0.315   0.666 -0.3145 -0.2229 -2.3504
  145TCq2    C1 2206   0.183   0.308   1.037 -0.6741  0.6359 -1.0590
  145TCq2    O2 2207   0.157   0.217   0.963  0.3311  0.1627 -0.1480
  145TCq2    C2 2208   0.312   0.303   1.107 -0.0108  0.3401  0.3677
  145TCq2    C3 2209   0.406   0.227   1.041  0.5770 -0.1491  0.8614
  145TCq2    C4 2210   0.533   0.224   1.092  0.1806 -0.4659  0.6359
  145TCq2    C5 2211   0.573   0.309   1.197 -0.3342  0.6377 -0.6156
  145TCq2    C6 2212   0.470   0.368   1.268 -0.0872  0.4267  0.5926
  145TCq2    C7 2213   0.339   0.368   1.226 -0.2844 -0.5188  0.9935
  145TCq2    C8 2214   0.509   0.434   1.401 -0.3688  0.0411  0.4240
  145TCq2    O4 2215   0.610   0.394   1.456 -0.2857 -0.6909 -0.1835
  145TCq2    C9 2216   0.637   0.162   1.017  0.0286 -0.4635 -1.0520
  145TCq2    O5 2217   0.611   0.069   0.938 -0.0151  0.6018  0.2611
  145TCq2    O6 2218   0.754   0.201   1.044 -0.1137 -0.2536  0.2731
  145TCq2    H2 2219   0.381   0.184   0.944 -1.3165 -0.2537  1.4053
  145TCq2    H3 2220   0.675   0.324   1.229  0.4452 -0.6398 -2.4798
  145TCq2    H4 2221   0.261   0.426   1.273  0.8931  1.2199  0.8102
  146TMC2    C1 2222   0.726   3.523  12.256 -0.1240  0.0797  0.5193
  146TMC2    C2 2223   0.623   3.473  12.184 -0.0206 -0.4357 -0.4542
  146TMC2    C3 2224   0.652   3.380  12.085 -0.4478 -0.3800  0.4095
  146TMC2    C4 2225   0.854   3.479  12.243  0.2590 -0.2271  0.3909
  146TMC2    C5 2226   0.876   3.384  12.148 -0.3893  0.3081 -0.0232
  146TMC2    C6 2227   0.782   3.337  12.058 -0.0196 -0.4697 -0.0352
  146TMC2     C 2228   0.687   3.592  12.376  0.7804 -0.1985  0.2279
  146TMC2     O 2229   0.582   3.656  12.374  0.2445  0.5154 -0.1860
  146TMC2     H 2230   0.524   3.514  12.194  0.0851 -0.3014  0.0176
  146TMC2    H1 2231   0.941   3.530  12.282  1.7012 -1.7426 -0.7839
  146TMC2    H2 2232   0.808   3.261  11.985  0.2578  0.3680 -0.8203
  146TMC2    C7 2233   1.006   3.312  12.142 -0.3067 -0.1305 -0.2220
  146TMC2    C8 2234   0.550   3.281  12.068 -0.0649  0.5000 -0.5225
  146TMC2    O1 2235   1.060   3.314  12.034 -0.0970  0.8073 -0.4959
  146TMC2    O2 2236   0.445   3.289  12.130 -0.2453  0.1887  0.1793
  146TMC2    O5 2237   0.563   3.221  11.952  0.0586 -0.3678  0.3299
  146TMC2    H5 2238   0.641   3.249  11.901 -0.8297 -0.6777 -1.1989
  147MPD2     C 2239   1.397   3.055  12.358 -0.1116  0.3835 -0.3983
  147MPD2    C1 2240   1.316   3.112  12.459  0.0696 -0.3738  0.2156
  147MPD2    C2 2241   1.202   3.184  12.424  0.4637 -0.4059 -0.3938
  147MPD2    C3 2242   1.169   3.199  12.288  0.2940  0.4757  0.3123
  147MPD2    C4 2243   1.247   3.140  12.188 -0.3502 -0.4604 -0.1510
  147MPD2    C5 2244   1.356   3.068  12.226  0.3621  0.8095  0.1566
  147MPD2     H 2245   1.131   3.231  12.492 -0.7773  1.3558 -2.8857
  147MPD2    H1 2246   1.233   3.144  12.080  0.6677 -1.7082 -0.3279
  147MPD2    H2 2247   1.495   3.010  12.371  1.0166  3.1388  0.7207
  147MPD2    H3 2248   1.424   3.032  12.150  2.0596  3.7068  0.2987
  147MPD2     N 2249   1.042   3.259  12.263 -0.2296 -0.1424  0.1197
  147MPD2    H5 2250   0.988   3.276  12.346  1.5114 -0.5452  1.3446
  147MPD2    N1 2251   1.351   3.092  12.600  0.1966 -0.3334  0.5036
  147MPD2    H7 2252   1.431   3.031  12.615  1.7490  1.4028 -0.7483
  148MPD2     C 2253   1.173   2.178   9.962 -0.5355 -0.2925 -0.7279
  148MPD2    C1 2254   1.157   2.038   9.962  0.1107 -0.4583  0.3584
  148MPD2    C2 2255   1.027   1.989   9.992 -0.6175 -0.3360 -0.6461
  148MPD2    C3 2256   0.920   2.073  10.019  0.0142  0.2218 -0.1690
  148MPD2    C4 2257   0.943   2.205  10.035 -0.8919  0.5961  0.3493
  148MPD2    C5 2258   1.065   2.257  10.002 -0.4367  0.2050 -0.1254
  148MPD2     H 2259   1.006   1.887   9.964  0.1719 -0.6164 -0.2138
  148MPD2    H1 2260   0.870   2.273  10.077 -1.0538  1.7059 -1.7415
  148MPD2    H2 2261   1.270   2.213   9.927 -0.4720  1.7997  1.5424
  148MPD2    H3 2262   1.063   2.365  10.009  0.0337  0.1959  0.1559
  148MPD2     N 2263   0.785   2.030  10.051  0.7206  0.5771 -0.4966
  148MPD2    H5 2264   0.715   2.101  10.067  2.2081  1.3405  2.5786
  148MPD2    N1 2265   1.257   1.955   9.903 -0.2052  0.1247  0.4963
  148MPD2    H7 2266   1.237   1.856   9.889  0.0729  0.6333 -3.2890
  149TCq2    C1 2267   1.386   1.994   9.865 -0.6187  0.1587  0.4298
  149TCq2    O2 2268   1.449   2.098   9.884  0.0306  0.5550  0.4388
  149TCq2    C2 2269   1.463   1.878   9.807 -0.3451  0.8248  0.8149
  149TCq2    C3 2270   1.592   1.855   9.844 -0.3850  0.7133  0.7317
  149TCq2    C4 2271   1.641   1.745   9.789 -0.1631  0.5210 -0.0621
  149TCq2    C5 2272   1.562   1.647   9.734 -0.6190  0.2872 -0.4188
  149TCq2    C6 2273   1.435   1.678   9.698  0.2570  0.7258  0.2624
  149TCq2    C7 2274   1.382   1.796   9.732 -0.7529  0.1952  0.4259
  149TCq2    C8 2275   1.342   1.578   9.646  0.0061  0.1378  0.1569
  149TCq2    O4 2276   1.233   1.604   9.602  0.5697 -0.2655 -0.7367
  149TCq2    C9 2277   1.771   1.697   9.839  1.3602  0.0016 -0.4980
  149TCq2    O5 2278   1.778   1.576   9.879  0.0849  0.4865 -0.1273
  149TCq2    O6 2279   1.852   1.783   9.888  0.4271 -0.0765  0.2890
  149TCq2    H2 2280   1.647   1.916   9.916  0.6411  0.9645 -0.2547
  149TCq2    H3 2281   1.608   1.554   9.700  0.5409  0.5421  0.4862
  149TCq2    H4 2282   1.284   1.825   9.697 -0.4943 -2.0093 -2.1247
  150MPD2     C 2283   2.615   1.816  11.682  0.2290  0.6151 -0.1255
  150MPD2    C1 2284   2.630   1.688  11.718  0.9814  0.4281 -0.4431
  150MPD2    C2 2285   2.742   1.647  11.785  0.5652  0.7531 -0.3502
  150MPD2    C3 2286   2.839   1.739  11.806  0.5433  0.4202 -0.6921
  150MPD2    C4 2287   2.832   1.869  11.753 -0.6367 -0.3717  0.3642
  150MPD2    C5 2288   2.720   1.905  11.689  0.3706  0.7510  0.2161
  150MPD2     H 2289   2.760   1.547  11.823  0.1805  0.9369  0.3102
  150MPD2    H1 2290   2.908   1.946  11.754 -0.4750 -0.5013 -2.0445
  150MPD2    H2 2291   2.522   1.858  11.647  0.2703  0.3550 -0.5484
  150MPD2    H3 2292   2.712   1.999  11.637 -2.2996  0.3400 -0.1223
  150MPD2     N 2293   2.949   1.708  11.889 -0.0530 -0.1099 -0.3138
  150MPD2    H5 2294   2.958   1.615  11.928 -1.1215 -0.4841 -0.9724
  150MPD2    N1 2295   2.510   1.612  11.706 -0.0537 -0.4115 -0.2381
  150MPD2    H7 2296   2.432   1.660  11.663 -0.5422 -0.6893  0.3384
  151TCq2    C1 2297   3.048   1.805  11.919  0.1943  0.4677 -0.6388
  151TCq2    O2 2298   3.047   1.926  11.935 -0.1330 -0.0581 -0.0291
  151TCq2    C2 2299   3.171   1.732  11.974 -0.3445  0.3677  0.3057
  151TCq2    C3 2300   3.191   1.600  11.949 -0.1287  0.0812  0.4373
  151TCq2    C4 2301   3.289   1.530  12.017 -0.7444  0.3183 -0.5679
  151TCq2    C5 2302   3.371   1.594  12.106 -0.2881  0.5688  0.0652
  151TCq2    C6 2303   3.344   1.724  12.144 -0.1536 -0.1187 -0.3368
  151TCq2    C7 2304   3.242   1.791  12.084  0.3941 -0.1702  0.4470
  151TCq2    C8 2305   3.413   1.802  12.247 -0.0526  0.8718 -0.7910
  151TCq2    O4 2306   3.368   1.909  12.277 -0.3693  0.4195  0.4567
  151TCq2    C9 2307   3.319   1.388  11.995 -0.1001 -0.2913  0.6008
  151TCq2    O5 2308   3.241   1.320  11.931 -0.2758 -0.4835 -0.5353
  151TCq2    O6 2309   3.426   1.337  12.039  0.1547  0.7171 -0.9342
  151TCq2    H2 2310   3.138   1.539  11.877 -0.6318  0.0294  0.8448
  151TCq2    H3 2311   3.453   1.537  12.149 -0.1411  0.8475  0.1524
  151TCq2    H4 2312   3.211   1.892  12.111 -0.4040 -0.2192 -0.3021
  152MPD2     C 2313   2.657   1.563  12.656  0.1106  0.3523  0.4306
  152MPD2    C1 2314   2.720   1.553  12.530  0.3898 -0.2469 -0.2779
  152MPD2    C2 2315   2.648   1.531  12.412  0.0504 -0.4260 -0.0396
  152MPD2    C3 2316   2.509   1.522  12.426 -0.2341  0.3710  0.2809
  152MPD2    C4 2317   2.450   1.528  12.552  0.0098 -0.2439 -0.3849
  152MPD2    C5 2318   2.526   1.544  12.668 -0.5281  0.4001 -0.3763
  152MPD2     H 2319   2.699   1.536  12.317  0.6791 -0.7341  0.2807
  152MPD2    H1 2320   2.345   1.528  12.575  0.2869  0.2976  0.8759
  152MPD2    H2 2321   2.716   1.571  12.746  2.1272 -0.1217 -0.8626
  152MPD2    H3 2322   2.475   1.549  12.764  0.8003 -2.3161  0.4705
  152MPD2     N 2323   2.436   1.498  12.309 -0.0849  0.7188  0.0304
  152MPD2    H5 2324   2.488   1.491  12.222  1.1078 -1.9321  0.9588
  152MPD2    N1 2325   2.858   1.561  12.533 -0.1355 -0.6087 -0.5962
  152MPD2    H7 2326   2.903   1.579  12.622  1.1283 -0.3618 -1.2870
  153TCq2    C1 2327   2.941   1.543  12.428 -0.6101  0.4123  0.0294
  153TCq2    O2 2328   2.915   1.497  12.320  0.1448  0.0065  0.2181
  153TCq2    C2 2329   3.088   1.564  12.458  0.2322 -0.1351 -0.8379
  153TCq2    C3 2330   3.178   1.479  12.405  0.1265 -0.1981  0.0375
  153TCq2    C4 2331   3.308   1.502  12.439 -0.1163 -0.0795  0.3200
  153TCq2    C5 2332   3.346   1.607  12.515 -0.2635  0.2979 -0.6155
  153TCq2    C6 2333   3.255   1.682  12.579 -0.3770 -0.6564  0.2917
  153TCq2    C7 2334   3.120   1.658  12.549  0.3164 -0.9603 -0.5127
  153TCq2    C8 2335   3.291   1.781  12.680  0.3076 -0.4761  0.4632
  153TCq2    O4 2336   3.214   1.867  12.713  0.4228  0.5884  0.2448
  153TCq2    C9 2337   3.417   1.405  12.399  0.3667 -0.1111  0.1426
  153TCq2    O5 2338   3.388   1.306  12.329 -0.3993  0.0728  0.1690
  153TCq2    O6 2339   3.529   1.459  12.381  0.0634 -0.0811  0.2812
  153TCq2    H2 2340   3.150   1.388  12.354 -0.2862  0.6085 -1.1727
  153TCq2    H3 2341   3.453   1.621  12.525 -0.1408 -1.8651  1.0656
  153TCq2    H4 2342   3.045   1.723  12.594  2.3596 -0.5166  2.2859
  154MPD2     C 2343   0.528   2.380   0.457 -0.6380  0.6053 -0.2639
  154MPD2    C1 2344   0.435   2.285   0.495  0.1032 -0.3139 -0.4023
  154MPD2    C2 2345   0.311   2.329   0.534  0.4217  1.3562 -0.1171
  154MPD2    C3 2346   0.284   2.463   0.553 -0.4675  0.2505  0.1698
  154MPD2    C4 2347   0.383   2.557   0.523  0.2803 -0.4437  0.7266
  154MPD2    C5 2348   0.505   2.512   0.474  0.3542  0.1040 -0.2907
  154MPD2     H 2349   0.233   2.263   0.570  1.6381  1.1707  2.1827
  154MPD2    H1 2350   0.363   2.662   0.544 -1.5353 -0.7457  0.5817
  154MPD2    H2 2351   0.631   2.357   0.432 -0.8441  0.8917 -1.3776
  154MPD2    H3 2352   0.589   2.576   0.451  0.2511  1.1027  2.1322
  154MPD2     N 2353   0.161   2.492   0.606  0.0172  0.0608  0.3981
  154MPD2    H5 2354   0.111   2.414   0.649 -1.5838  0.9603  0.1761
  154MPD2    N1 2355   0.470   2.151   0.502 -0.8887 -0.0769  0.5618
  154MPD2    H7 2356   0.553   2.134   0.447 -0.3360 -3.1470  2.3089
  155TCq2    C1 2357   0.405   2.055   0.577 -0.1229 -0.1137  0.1201
  155TCq2    O2 2358   0.320   2.072   0.659  0.1939  0.2736  0.3780
  155TCq2    C2 2359   0.454   1.918   0.557 -0.4923  0.1436 -1.5590
  155TCq2    C3 2360   0.435   1.830   0.660 -0.0118  0.2218  0.1786
  155TCq2    C4 2361   0.483   1.706   0.643 -0.4503  0.0239  0.1879
  155TCq2    C5 2362   0.559   1.681   0.531  0.5338 -0.0445  0.0624
  155TCq2    C6 2363   0.592   1.781   0.439 -0.2409 -0.1161 -0.3454
  155TCq2    C7 2364   0.522   1.899   0.448 -0.3775  0.5296  0.4898
  155TCq2    C8 2365   0.645   1.735   0.308  1.1660  0.2514  0.2395
  155TCq2    O4 2366   0.646   1.615   0.286  0.0587 -0.4043 -0.8200
  155TCq2    C9 2367   0.439   1.592   0.719 -0.2885  0.2973 -0.2656
  155TCq2    O5 2368   0.439   1.473   0.676  0.2512  0.7692 -0.0877
  155TCq2    O6 2369   0.409   1.618   0.837 -0.0771  0.2209 -0.0349
  155TCq2    H2 2370   0.367   1.862   0.739  1.4692 -0.6439  1.8078
  155TCq2    H3 2371   0.597   1.581   0.513  3.3692  0.9619  0.4655
  155TCq2    H4 2372   0.527   1.953   0.354  0.5119  1.0169  0.8179
  156MPD2     C 2373   3.218   3.773  12.926 -0.2000  0.1156  0.2270
  156MPD2    C1 2374   3.248   3.863  12.826  0.1618  0.0592 -0.4109
  156MPD2    C2 2375   3.206   3.993  12.829 -0.0255 -0.0661  0.2468
  156MPD2    C3 2376   3.130   4.041  12.938 -0.0227  0.3839  0.0987
  156MPD2    C4 2377   3.094   3.947  13.041 -0.0091 -1.3401  0.0370
  156MPD2    C5 2378   3.138   3.816  13.037  0.8226  0.1793 -0.2526
  156MPD2     H 2379   3.241   4.069  12.759 -2.9420  0.0672 -1.0596
  156MPD2    H1 2380   3.023   3.971  13.118 -1.0965  0.9590 -1.6970
  156MPD2    H2 2381   3.249   3.670  12.920  0.1464  0.3328 -1.4820
  156MPD2    H3 2382   3.104   3.740  13.106 -0.1752  1.1424  0.3040
  156MPD2     N 2383   3.092   4.179  12.929  0.1618 -0.0741  0.1694
  156MPD2    H5 2384   3.113   4.229  12.843  0.9177 -1.9043 -0.7104
  156MPD2    N1 2385   3.321   3.818  12.719 -0.4556  0.4642 -0.4973
  156MPD2    H7 2386   3.313   3.719  12.696 -0.0222 -0.3680  3.0168
  157TCq2    C1 2387   3.390   3.892  12.628 -0.0750  0.7224  0.4589
  157TCq2    O2 2388   3.428   4.010  12.641 -0.3897 -0.4442 -0.9006
  157TCq2    C2 2389   3.402   3.828  12.497 -0.0829 -0.2434  0.4822
  157TCq2    C3 2390   3.502   3.867  12.413 -0.5760  0.3185  0.1579
  157TCq2    C4 2391   3.487   3.882  12.278 -0.1273  0.1860 -0.3944
  157TCq2    C5 2392   3.368   3.865  12.214 -0.2616 -0.0156 -0.1404
  157TCq2    C6 2393   3.265   3.829  12.295 -0.5585  0.1217 -0.8978
  157TCq2    C7 2394   3.280   3.810  12.431 -0.0803 -0.0691 -0.1051
  157TCq2    C8 2395   3.130   3.841  12.240 -0.5819 -0.7133 -0.3543
  157TCq2    O4 2396   3.118   3.891  12.129  0.2135 -0.4984  0.1375
  157TCq2    C9 2397   3.598   3.942  12.208  0.0852  0.1312  0.4018
  157TCq2    O5 2398   3.708   3.962  12.267  0.0735  0.7858 -0.8549
  157TCq2    O6 2399   3.567   3.962  12.088 -0.6393 -0.4895  0.1656
  157TCq2    H2 2400   3.601   3.872  12.459 -0.1776 -0.5355 -0.6113
  157TCq2    H3 2401   3.348   3.888  12.109 -2.3852  3.6842  1.0438
  157TCq2    H4 2402   3.187   3.807  12.486  1.2154  0.4816  2.1041
  158TMC2    C1 2403   3.898   2.549  13.384 -0.5522  0.1888  0.5140
  158TMC2    C2 2404   3.972   2.567  13.273 -0.0330  0.4396  0.9761
  158TMC2    C3 2405   3.903   2.608  13.162 -0.3208  0.1746  0.3962
  158TMC2    C4 2406   3.766   2.584  13.398 -0.0899 -0.1060  0.7937
  158TMC2    C5 2407   3.703   2.625  13.291  0.7749 -0.1999  0.4724
  158TMC2    C6 2408   3.771   2.644  13.172  0.1132  0.4480  0.0892
  158TMC2     C 2409   3.964   2.515  13.505 -0.3542  0.6899  0.2695
  158TMC2     O 2410   4.089   2.534  13.508 -0.1926  0.2546  0.0568
  158TMC2     H 2411   4.074   2.532  13.264 -0.2890  0.1025 -0.5925
  158TMC2    H1 2412   3.719   2.590  13.496  1.1299 -0.2013  1.3906
  158TMC2    H2 2413   3.721   2.668  13.079 -1.7000  0.1150  0.9688
  158TMC2    C7 2414   3.555   2.618  13.282 -0.5691 -0.4415 -0.5335
  158TMC2    C8 2415   3.960   2.629  13.033  0.0421  0.1515 -0.0736
  158TMC2    O1 2416   3.516   2.686  13.187 -0.9545 -0.2712 -0.3299
  158TMC2    O2 2417   3.912   2.698  12.942  0.2019  0.0092 -0.4582
  158TMC2    O5 2418   4.068   2.553  13.021 -0.5068  0.1072  0.0492
  158TMC2    H5 2419   4.081   2.497  13.100 -0.3516  0.9582  0.6251
  159MPD2     C 2420   3.969   2.257  13.952  0.2901  0.5309 -0.2068
  159MPD2    C1 2421   3.852   2.246  13.893  0.9805 -0.0714 -0.7351
  159MPD2    C2 2422   3.820   2.321  13.779  0.0150  0.0918 -0.2041
  159MPD2    C3 2423   3.912   2.409  13.725 -0.6010  0.1452 -0.1055
  159MPD2    C4 2424   4.030   2.425  13.790 -0.2164  0.3589  1.3844
  159MPD2    C5 2425   4.058   2.348  13.901 -0.4468 -0.1049 -0.3307
  159MPD2     H 2426   3.729   2.291  13.728  0.4135  0.4964 -1.1411
  159MPD2    H1 2427   4.111   2.478  13.741 -0.8879  1.3671  1.3651
  159MPD2    H2 2428   4.006   2.187  14.027  0.8199  1.1404  0.0983
  159MPD2    H3 2429   4.152   2.365  13.953 -0.4477  1.3227 -0.8097
  159MPD2     N 2430   3.878   2.462  13.601  0.5125 -0.0887 -0.3388
  159MPD2    H5 2431   3.782   2.445  13.572  0.7580 -2.2817  0.1321
  159MPD2    N1 2432   3.767   2.145  13.939 -0.4033 -0.3999 -0.6436
  159MPD2    H7 2433   3.799   2.090  14.018  1.2311 -0.4619 -1.3443
  160TMC2    C1 2434   3.331   0.558   1.946  0.0225 -0.2680 -0.8021
  160TMC2    C2 2435   3.274   0.460   2.020 -0.4568  0.0987 -0.0110
  160TMC2    C3 2436   3.304   0.337   1.989  0.5345 -0.3400  0.5160
  160TMC2    C4 2437   3.421   0.537   1.846 -0.1668  0.0513 -0.6738
  160TMC2    C5 2438   3.453   0.400   1.824 -0.1067 -0.3870 -0.1760
  160TMC2    C6 2439   3.402   0.302   1.901 -0.2699  0.0628  0.8974
  160TMC2     C 2440   3.308   0.690   1.978  0.7192  0.6626 -0.4151
  160TMC2     O 2441   3.297   0.724   2.095  0.4728  0.4594 -0.2994
  160TMC2     H 2442   3.202   0.487   2.096 -0.5934  1.7813 -0.7423
  160TMC2    H1 2443   3.470   0.616   1.791 -0.0748 -0.2948 -1.0885
  160TMC2    H2 2444   3.443   0.202   1.893 -0.8641  0.0202 -1.5992
  160TMC2    C7 2445   3.582   0.369   1.757 -0.1696  0.2930  0.6220
  160TMC2    C8 2446   3.275   0.238   2.095  0.1632  0.4564  0.4186
  160TMC2    O1 2447   3.634   0.267   1.804  0.3281 -0.0845 -0.5203
  160TMC2    O2 2448   3.354   0.148   2.117 -0.1649  0.1065  0.3089
  160TMC2    O5 2449   3.144   0.206   2.087  0.0906  0.3321 -0.0451
  160TMC2    H5 2450   3.081   0.270   2.048 -0.6080 -0.3206  0.0229
  161MPD2     C 2451   3.318   0.990   1.959 -0.2614 -0.8062 -0.0543
  161MPD2    C1 2452   3.267   0.904   1.862 -0.4318  0.1284 -0.0553
  161MPD2    C2 2453   3.201   0.958   1.750  0.8016 -0.1756 -0.3214
  161MPD2    C3 2454   3.159   1.090   1.763 -0.3025  0.5973 -0.2096
  161MPD2    C4 2455   3.200   1.172   1.871 -0.8495 -0.1989  0.4346
  161MPD2    C5 2456   3.286   1.118   1.964 -0.2003  0.8128  0.1633
  161MPD2     H 2457   3.162   0.896   1.670 -2.3859  0.0786  1.0475
  161MPD2    H1 2458   3.161   1.272   1.886 -1.5205 -0.5331  0.9525
  161MPD2    H2 2459   3.363   0.944   2.047  0.9191  1.3901  0.4657
  161MPD2    H3 2460   3.317   1.184   2.045 -1.3270  0.7067  0.6774
  161MPD2     N 2461   3.065   1.151   1.676 -0.1852  0.3969 -1.1549
  161MPD2    H5 2462   3.038   1.246   1.703 -2.2196 -0.6337  0.4582
  161MPD2    N1 2463   3.291   0.765   1.867  0.4480  0.0369  0.1359
  161MPD2    H7 2464   3.248   0.712   1.792  3.4140 -1.3904 -0.5726
  162TMC2    C1 2465   1.003   2.769   1.581  0.2838 -0.2170 -0.4658
  162TMC2    C2 2466   0.886   2.839   1.597 -0.1612 -0.5764 -0.1465
  162TMC2    C3 2467   0.870   2.902   1.715 -0.4463 -0.4305  0.1694
  162TMC2    C4 2468   1.096   2.763   1.679 -0.1986  0.0045 -0.4650
  162TMC2    C5 2469   1.069   2.824   1.792  0.2456 -0.2050 -0.8292
  162TMC2    C6 2470   0.972   2.907   1.807  0.1372 -0.1442 -0.0547
  162TMC2     C 2471   1.037   2.701   1.462 -0.5662 -0.2709  0.4873
  162TMC2     O 2472   1.131   2.625   1.460  0.6164 -0.2441 -0.0033
  162TMC2     H 2473   0.798   2.819   1.536  0.7891 -0.5619 -1.5055
  162TMC2    H1 2474   1.182   2.699   1.662  2.2719  2.8064  1.5540
  162TMC2    H2 2475   0.951   2.953   1.902 -0.0097 -2.1007  0.8628
  162TMC2    C7 2476   1.183   2.869   1.866 -0.3367 -0.4024 -0.1302
  162TMC2    C8 2477   0.746   2.969   1.751  0.2560 -0.0180 -0.1213
  162TMC2    O1 2478   1.180   2.987   1.905  0.7688  0.0778 -0.5214
  162TMC2    O2 2479   0.693   2.958   1.866  0.1035 -0.3993 -0.3285
  162TMC2    O5 2480   0.736   3.077   1.673  0.4070 -0.3753  0.7249
  162TMC2    H5 2481   0.780   3.063   1.587  1.2791 -1.6336  1.3778
  163MPD2     C 2482   0.982   2.634   0.960  0.4660 -0.4436 -0.0722
  163MPD2    C1 2483   1.066   2.574   1.048  0.4789 -0.4541  0.0761
  163MPD2    C2 2484   1.055   2.606   1.183 -0.5310 -0.2962  0.1455
  163MPD2    C3 2485   0.960   2.707   1.229 -0.1967 -0.0728  0.4525
  163MPD2    C4 2486   0.866   2.757   1.139 -0.0783 -0.9716 -0.3624
  163MPD2    C5 2487   0.885   2.719   1.008 -0.0057  0.1185  0.0402
  163MPD2     H 2488   1.123   2.557   1.252 -0.4655 -1.2046 -0.5645
  163MPD2    H1 2489   0.783   2.822   1.165  0.5271 -0.4058  0.1708
  163MPD2    H2 2490   0.984   2.608   0.855 -0.6402 -1.6833  0.2083
  163MPD2    H3 2491   0.811   2.752   0.936  0.7934 -1.7238 -1.6297
  163MPD2     N 2492   0.952   2.735   1.363  0.0503  0.2181  0.5043
  163MPD2    H5 2493   0.887   2.810   1.384 -1.8552 -1.9736  2.4666
  163MPD2    N1 2494   1.148   2.476   0.989  0.3949 -0.0010 -0.0711
  163MPD2    H7 2495   1.159   2.466   0.889  0.3392 -0.4074 -0.0353
  164TCq2    C1 2496   1.206   2.431  10.556  0.4556 -0.4940 -0.3563
  164TCq2    O2 2497   1.085   2.464  10.553 -0.0866  0.0910  0.4945
  164TCq2    C2 2498   1.286   2.516  10.631  1.4785  0.0389 -0.1845
  164TCq2    C3 2499   1.422   2.526  10.596  0.0373  0.2014 -0.2032
  164TCq2    C4 2500   1.510   2.614  10.665 -0.2478 -0.2511 -0.3901
  164TCq2    C5 2501   1.456   2.688  10.763 -0.5850 -0.0663  0.0839
  164TCq2    C6 2502   1.322   2.685  10.794 -0.4516  0.5163 -0.2291
  164TCq2    C7 2503   1.235   2.596  10.732  0.0620  0.2112 -0.5306
  164TCq2    C8 2504   1.282   2.773  10.897 -0.9110  1.1545  0.4973
  164TCq2    O4 2505   1.363   2.847  10.951  0.2347 -0.4336  0.4143
  164TCq2    C9 2506   1.653   2.609  10.640  0.5954 -0.0071  0.8052
  164TCq2    O5 2507   1.717   2.695  10.705  0.3154 -0.1539 -0.8964
  164TCq2    O6 2508   1.695   2.541  10.540  0.7866 -0.2719  0.3630
  164TCq2    H2 2509   1.471   2.458  10.527  1.9697  1.7364 -0.3612
  164TCq2    H3 2510   1.517   2.765  10.808  1.4007 -1.0121 -0.9812
  164TCq2    H4 2511   1.130   2.577  10.753 -0.3558  0.2700 -2.6303
  165MPD2     C 2512   3.514   4.301   2.480  0.0749  0.7055 -0.2927
  165MPD2    C1 2513   3.390   4.349   2.434 -0.4992  0.4280 -1.3069
  165MPD2    C2 2514   3.371   4.487   2.422 -0.3261  0.5156  0.4579
  165MPD2    C3 2515   3.469   4.576   2.449  0.1335  0.0026  0.2589
  165MPD2    C4 2516   3.593   4.523   2.484  0.3760  0.7535 -0.8058
  165MPD2    C5 2517   3.616   4.386   2.498 -0.6562  0.7051 -0.1385
  165MPD2     H 2518   3.276   4.526   2.389 -0.4075  1.5998  1.9464
  165MPD2    H1 2519   3.675   4.589   2.508  1.3147 -0.8214  0.3664
  165MPD2    H2 2520   3.527   4.194   2.488 -0.2847  0.6158 -0.9342
  165MPD2    H3 2521   3.710   4.344   2.531 -0.4600 -0.9823 -2.8138
  165MPD2     N 2522   3.454   4.718   2.443  0.2883 -1.1039 -0.0298
  165MPD2    H5 2523   3.538   0.052   2.449 -1.4339  1.6553 -2.3133
  165MPD2    N1 2524   3.290   4.254   2.387 -0.5336 -0.8938  0.1557
  165MPD2    H7 2525   3.304   4.154   2.382 -0.1904 -0.8613  0.5279
  166TCq2    C1 2526   3.335   0.059   2.425 -0.3887  0.1849 -0.0869
  166TCq2    O2 2527   3.220   0.013   2.421  0.1083  0.8016  0.1882
  166TCq2    C2 2528   3.348   0.211   2.418  0.2005 -0.1547  0.1513
  166TCq2    C3 2529   3.239   0.280   2.459  0.1761 -1.0461  0.5726
  166TCq2    C4 2530   3.235   0.414   2.449  0.3839 -0.9798 -0.3050
  166TCq2    C5 2531   3.346   0.482   2.393 -0.2956  0.2172  0.1645
  166TCq2    C6 2532   3.458   0.413   2.365  0.4076  0.2336  0.1980
  166TCq2    C7 2533   3.465   0.275   2.386  0.2439  0.7504 -0.7321
  166TCq2    C8 2534   3.550   0.467   2.268 -0.2838 -1.0110  0.3214
  166TCq2    O4 2535   3.618   0.390   2.205 -0.1825 -0.5640  0.0684
  166TCq2    C9 2536   3.123   0.484   2.508 -0.5027 -0.3370  0.7368
  166TCq2    O5 2537   3.045   0.418   2.580  0.1258 -0.1952  0.0272
  166TCq2    O6 2538   3.124   0.606   2.469  0.1113 -0.1358 -0.0063
  166TCq2    H2 2539   3.155   0.224   2.498 -2.0073  1.2039 -0.9303
  166TCq2    H3 2540   3.338   0.588   2.375  2.2856  0.3686 -0.1873
  166TCq2    H4 2541   3.547   0.220   2.341  0.1853 -0.4777  0.6608
  167TMC2    C1 2542   0.584   2.445  12.457 -0.3086  0.2123 -0.3743
  167TMC2    C2 2543   0.518   2.492  12.566 -0.3708 -0.2125  0.1954
  167TMC2    C3 2544   0.483   2.403  12.662  0.4096  0.5361  0.0054
  167TMC2    C4 2545   0.626   2.312  12.449 -0.0024  0.4140  0.0399
  167TMC2    C5 2546   0.595   2.229  12.557 -0.0099 -0.0334 -0.3416
  167TMC2    C6 2547   0.516   2.273  12.661 -0.0939  0.8050  0.0636
  167TMC2     C 2548   0.585   2.530  12.332 -0.1543 -0.4075 -0.4619
  167TMC2     O 2549   0.603   2.651  12.345  0.2935  0.3916 -0.2930
  167TMC2     H 2550   0.487   2.596  12.573 -0.7424 -0.2025 -1.6500
  167TMC2    H1 2551   0.691   2.283  12.367 -1.4218  1.0596 -1.3278
  167TMC2    H2 2552   0.459   2.205  12.723 -1.2346  1.1227 -0.6484
  167TMC2    C7 2553   0.628   2.089  12.552  0.0807  0.2147  0.0605
  167TMC2    C8 2554   0.402   2.443  12.771  0.6188 -0.0311 -0.0947
  167TMC2    O1 2555   0.573   2.007  12.627  0.3960 -0.2310  0.3535
  167TMC2    O2 2556   0.391   2.370  12.870 -0.7261  0.2365  0.0227
  167TMC2    O5 2557   0.306   2.523  12.724 -0.3622  0.1321  0.1536
  167TMC2    H5 2558   0.313   2.573  12.640 -1.4802  3.2469  1.9525
  168MPD2     C 2559   0.637   2.621  12.041  0.0522  0.1158 -0.3145
  168MPD2    C1 2560   0.595   2.496  12.088  0.1067 -0.9123 -0.1825
  168MPD2    C2 2561   0.558   2.403  11.994  0.4806 -0.2988  0.0366
  168MPD2    C3 2562   0.578   2.427  11.860 -0.4131  0.4858  0.4295
  168MPD2    C4 2563   0.632   2.547  11.817 -0.3146  0.4709  0.3473
  168MPD2    C5 2564   0.656   2.640  11.911 -1.0203 -0.4045  0.3222
  168MPD2     H 2565   0.508   2.312  12.026  0.6873 -0.7585 -0.9485
  168MPD2    H1 2566   0.665   2.553  11.714  0.2004 -0.2413  0.4703
  168MPD2    H2 2567   0.669   2.696  12.112  2.6606 -1.2350 -0.0389
  168MPD2    H3 2568   0.690   2.737  11.876 -0.3955 -0.2117  1.4926
  168MPD2     N 2569   0.553   2.331  11.763  0.1746 -0.5197 -0.1104
  168MPD2    H5 2570   0.573   2.364  11.669  0.0485 -0.0604  0.0208
  168MPD2    N1 2571   0.575   2.449  12.221 -0.5776 -0.5789 -0.3617
  168MPD2    H7 2572   0.548   2.352  12.232 -1.6742 -0.3703 -1.1949
  169MPD1     C 2573   2.695   1.537   9.299 -0.8978  0.0982  0.1536
  169MPD1    C1 2574   2.830   1.553   9.304  0.2582  0.4739  0.0690
  169MPD1    C2 2575   2.871   1.628   9.407 -0.2460  0.0879  0.8905
  169MPD1    C3 2576   2.783   1.704   9.484 -0.0370 -0.7278  0.1925
  169MPD1    C4 2577   2.649   1.696   9.468  0.1039  0.1684 -1.0092
  169MPD1    C5 2578   2.606   1.608   9.377 -0.1231 -0.3815  0.0693
  169MPD1     H 2579   2.975   1.626   9.438 -0.0159 -2.3394 -0.0844
  169MPD1    H1 2580   2.575   1.753   9.523 -0.5740 -2.0043  0.3713
  169MPD1    H2 2581   2.646   1.481   9.219 -1.9741 -1.2940  1.8010
  169MPD1    H3 2582   2.503   1.602   9.346  0.1903 -2.4230 -0.5710
  169MPD1     N 2583   2.838   1.775   9.594  0.0211 -0.0978 -0.0628
  169MPD1    H5 2584   2.939   1.766   9.596  0.1195  1.0423  0.0642
  169MPD1    N1 2585   2.912   1.457   9.246 -0.2664  0.7121  0.1331
  169MPD1    H6 2586   3.011   1.479   9.236 -0.1475  1.0562  2.1144
  169MPD1    H7 2587   2.866   1.426   9.161 -2.1320 -0.4871  1.5850
  170MPD1     C 2588   1.938   4.182  13.298  0.8817 -0.0228 -1.0187
  170MPD1    C1 2589   2.004   4.195  13.417  0.6414  0.5219  0.5144
  170MPD1    C2 2590   1.985   4.307  13.500 -0.8441  0.1527 -0.2116
  170MPD1    C3 2591   1.900   4.411  13.457  0.8935  0.2724 -1.0841
  170MPD1    C4 2592   1.842   4.396  13.328 -0.2572  0.4122  0.8808
  170MPD1    C5 2593   1.859   4.283  13.258  0.7099  0.1264 -0.8149
  170MPD1     H 2594   2.028   4.310  13.600  1.0159 -0.2344 -0.9898
  170MPD1    H1 2595   1.785   4.474  13.279 -1.7743 -2.3031 -1.6715
  170MPD1    H2 2596   1.953   4.090  13.243 -2.5944  0.5738 -3.0039
  170MPD1    H3 2597   1.826   4.279  13.155  0.6695 -2.7928 -0.6659
  170MPD1     N 2598   1.899   4.527  13.535  0.0038  0.0651 -0.5207
  170MPD1    H5 2599   1.945   4.525  13.625  0.9914  2.5639 -0.9870
  170MPD1    N1 2600   2.081   4.085  13.465 -0.1430  0.6805  0.0153
  170MPD1    H6 2601   2.118   4.018  13.397 -1.7687  0.3655 -0.5410
  170MPD1    H7 2602   2.144   4.120  13.537 -1.0307 -3.7197  2.8731
  171MPD1     C 2603   0.251   0.893  15.653 -0.5496  0.2117 -0.2227
  171MPD1    C1 2604   0.304   0.786  15.583 -0.2052  0.2275 -0.1399
  171MPD1    C2 2605   0.427   0.733  15.619  0.1368  0.2627  0.2534
  171MPD1    C3 2606   0.494   0.787  15.724  0.3657 -0.5189  0.5803
  171MPD1    C4 2607   0.443   0.889  15.792  0.8753  0.4931 -0.0934
  171MPD1    C5 2608   0.319   0.941  15.759  0.4128  0.8487  0.3650
  171MPD1     H 2609   0.465   0.647  15.566 -0.3058 -2.6766  4.6944
  171MPD1    H1 2610   0.494   0.922  15.882  1.7227 -0.4915 -0.2115
  171MPD1    H2 2611   0.156   0.944  15.638 -1.1101 -0.0078  2.6870
  171MPD1    H3 2612   0.290   1.034  15.808  1.7150  1.9826 -1.0198
  171MPD1     N 2613   0.622   0.738  15.772 -0.0601 -0.2446 -0.4321
  171MPD1    H5 2614   0.662   0.789  15.850  0.1640  1.2917 -1.5421
  171MPD1    N1 2615   0.214   0.717  15.503  0.1691  0.0728  1.2105
  171MPD1    H6 2616   0.155   0.786  15.458  0.0268  0.1059  1.4504
  171MPD1    H7 2617   0.261   0.672  15.424 -0.9021  0.9364  0.0835
  172MPD1     C 2618   0.232   0.178   0.138 -0.0819 -0.1030  0.4497
  172MPD1    C1 2619   0.209   0.312   0.128 -0.1552 -0.1419  0.3878
  172MPD1    C2 2620   0.187   0.382   0.247 -0.3501  0.2876  0.4738
  172MPD1    C3 2621   0.162   0.317   0.364  0.2652  0.3652  0.3981
  172MPD1    C4 2622   0.165   0.181   0.368 -0.5695 -1.0026 -0.2677
  172MPD1    C5 2623   0.203   0.113   0.256  0.1307 -0.7028 -0.2734
  172MPD1     H 2624   0.177   0.490   0.250 -1.1553  0.1643  2.0672
  172MPD1    H1 2625   0.147   0.120   0.455  0.9272 -3.3630 -1.6007
  172MPD1    H2 2626   0.248   0.112   0.054  2.6482  1.0117  0.0914
  172MPD1    H3 2627   0.211   0.005   0.260 -2.9123 -0.8446  1.6698
  172MPD1     N 2628   0.153   0.383   0.488 -0.2583 -0.5091  0.1528
  172MPD1    H5 2629   0.176   0.326   0.568  0.6328 -1.3068 -0.6809
  172MPD1    N1 2630   0.219   0.381   0.003 -0.1181 -0.0819  0.0175
  172MPD1    H6 2631   0.179   0.329  17.619  0.4740  1.3980 -1.2815
  172MPD1    H7 2632   0.173   0.472  17.689  1.2951  0.6764  0.4452
  173MPD1     C 2633   1.333   0.096  14.500 -0.2995 -0.0907 -0.0263
  173MPD1    C1 2634   1.301   4.709  14.429  0.1668  0.0994  0.5117
  173MPD1    C2 2635   1.191   4.638  14.476  0.3145 -0.2286 -0.0013
  173MPD1    C3 2636   1.098   4.689  14.565 -0.2973  0.1694 -0.6267
  173MPD1    C4 2637   1.134   0.078  14.642  0.3260 -0.0397  0.2848
  173MPD1    C5 2638   1.253   0.141  14.600 -0.0801 -0.1649 -0.4618
  173MPD1     H 2639   1.171   4.541  14.433 -0.7687 -0.0371  0.0733
  173MPD1    H1 2640   1.071   0.108  14.726  0.2614 -0.9376  0.5518
  173MPD1    H2 2641   1.429   0.144  14.481 -0.2910 -0.8805 -2.0042
  173MPD1    H3 2642   1.291   0.225  14.657 -0.8581 -0.1446  0.0171
  173MPD1     N 2643   0.984   4.616  14.573 -0.3713  0.7631 -0.1259
  173MPD1    H5 2644   0.968   4.539  14.509 -2.2104  1.2711 -0.3038
  173MPD1    N1 2645   1.390   4.641  14.345  0.1041 -0.4184  0.4006
  173MPD1    H6 2646   1.349   4.582  14.273 -2.0335  0.8186  0.6379
  173MPD1    H7 2647   1.460   4.698  14.298 -0.8693  0.3718 -0.0768
  174MPD1     C 2648   0.553   3.746  14.360 -0.1674  0.0291  0.2244
  174MPD1    C1 2649   0.564   3.855  14.275  0.2240  0.5471  0.3654
  174MPD1    C2 2650   0.615   3.977  14.330 -0.1887  0.3720 -0.7150
  174MPD1    C3 2651   0.670   3.973  14.462 -0.1452  0.0002  0.3050
  174MPD1    C4 2652   0.663   3.854  14.535 -0.2430  0.4357 -0.4622
  174MPD1    C5 2653   0.607   3.745  14.483 -0.3354 -0.0274 -0.7102
  174MPD1     H 2654   0.629   4.067  14.272 -2.5840  0.5551 -1.0154
  174MPD1    H1 2655   0.701   3.855  14.636 -2.1284  0.8759  0.2334
  174MPD1    H2 2656   0.500   3.659  14.321  0.7490 -0.3984 -0.0706
  174MPD1    H3 2657   0.621   3.649  14.533  0.4966  0.2593 -0.4006
  174MPD1     N 2658   0.721   4.080  14.537  0.7731 -0.1927 -0.2927
  174MPD1    H5 2659   0.737   4.068  14.636  1.6293  1.6042 -0.2240
  174MPD1    N1 2660   0.497   3.846  14.150  0.3915  0.1067  0.0020
  174MPD1    H6 2661   0.522   3.917  14.082 -1.0088  1.0871  0.5161
  174MPD1    H7 2662   0.497   3.752  14.110  1.2215 -0.3103  0.9914
  175MPD1     C 2663   4.432   0.360  16.448  0.0536  0.6097 -0.2411
  175MPD1    C1 2664   4.472   0.336  16.581 -0.1450 -0.7217 -0.6038
  175MPD1    C2 2665   4.496   0.443  16.674 -0.3929  0.4104 -0.4109
  175MPD1    C3 2666   4.479   0.577  16.626  0.3091 -0.1961 -0.2426
  175MPD1    C4 2667   4.432   0.593  16.495  0.1663  0.2827  0.4378
  175MPD1    C5 2668   4.418   0.488  16.408  0.9355 -0.1150 -0.1530
  175MPD1     H 2669   4.530   0.419  16.774 -0.2190  0.5741 -0.4291
  175MPD1    H1 2670   4.427   0.695  16.457  1.6026  0.8021  1.6086
  175MPD1    H2 2671   4.399   0.282  16.380 -0.2905 -0.6989  1.4344
  175MPD1    H3 2672   4.397   0.508  16.304  0.4957 -0.9352 -0.2275
  175MPD1     N 2673   4.499   0.687  16.713 -0.3222 -0.8477  0.0195
  175MPD1    H5 2674   4.475   0.778  16.676  2.2231 -0.0249  0.3973
  175MPD1    N1 2675   4.438   0.215  16.635  0.3200 -0.3465 -0.2422
  175MPD1    H6 2676   4.496   0.206  16.718  0.3397  0.7302 -0.1329
  175MPD1    H7 2677   4.447   0.135  16.573  1.7642  1.6587 -2.6311
  176MPD1     C 2678   1.453   2.753   0.328  0.3603  0.1339 -0.7546
  176MPD1    C1 2679   1.387   2.665   0.247 -0.2079  0.1377 -0.4101
  176MPD1    C2 2680   1.397   2.694   0.111  0.2573  0.0054  0.2583
  176MPD1    C3 2681   1.468   2.799   0.055  0.4444 -0.8611 -0.2965
  176MPD1    C4 2682   1.539   2.882   0.147  0.2845  0.1485 -0.4035
  176MPD1    C5 2683   1.533   2.855   0.279  0.1969 -0.2645 -0.1746
  176MPD1     H 2684   1.335   2.644   0.038  1.5768  1.2267 -1.6933
  176MPD1    H1 2685   1.605   2.959   0.109 -1.8474  1.2167 -1.9521
  176MPD1    H2 2686   1.450   2.751   0.436 -1.7561 -2.3679 -0.8634
  176MPD1    H3 2687   1.596   2.901   0.355  0.9265 -2.8041  0.7757
  176MPD1     N 2688   1.461   2.820  17.610 -0.5046  0.2333 -0.2303
  176MPD1    H5 2689   1.392   2.765  17.560  0.8368 -0.2972 -1.5079
  176MPD1    N1 2690   1.290   2.565   0.285  0.0706 -0.2314 -0.0229
  176MPD1    H6 2691   1.292   2.486   0.221  0.2262  0.1236 -0.4611
  176MPD1    H7 2692   1.298   2.530   0.380 -0.3882  0.3967  0.2450
  177MPD1     C 2693   4.512   3.043   9.586  0.1806 -0.6079 -0.2434
  177MPD1    C1 2694   4.466   2.923   9.550  0.2346  0.2815  0.5180
  177MPD1    C2 2695   4.330   2.918   9.547 -0.4769 -0.1877 -0.3996
  177MPD1    C3 2696   4.238   3.015   9.592 -0.3795  0.4884  0.6424
  177MPD1    C4 2697   4.299   3.135   9.626 -0.2583  0.1956 -0.1934
  177MPD1    C5 2698   4.433   3.146   9.623  0.2782  0.4816 -0.2645
  177MPD1     H 2699   4.288   2.823   9.517  1.9076 -1.1465 -0.7071
  177MPD1    H1 2700   4.238   3.212   9.673 -1.6042 -0.7264 -0.4129
  177MPD1    H2 2701   4.617   3.059   9.612  0.3403 -0.2322 -1.1350
  177MPD1    H3 2702   4.477   3.238   9.661  0.1112  0.7775 -0.7795
  177MPD1     N 2703   4.097   2.992   9.581  0.1568  0.4391  0.0969
  177MPD1    H5 2704   4.070   2.903   9.541 -1.1437  2.1792 -2.9042
  177MPD1    N1 2705   4.550   2.827   9.489  0.0277  0.2864 -0.3905
  177MPD1    H6 2706   4.647   2.831   9.521 -0.3444 -0.1540  0.7866
  177MPD1    H7 2707   4.502   2.738   9.499 -0.5653  0.8484  1.7727
  178MPD1     C 2708   1.978   3.409   0.883  0.4423  0.8343 -0.2689
  178MPD1    C1 2709   2.112   3.416   0.856 -0.0453 -0.1529  0.3969
  178MPD1    C2 2710   2.149   3.404   0.719 -0.3371  0.0132  0.0483
  178MPD1    C3 2711   2.054   3.378   0.617  0.2019 -0.5196  0.0624
  178MPD1    C4 2712   1.925   3.358   0.651  0.2103 -0.4305 -0.6465
  178MPD1    C5 2713   1.886   3.373   0.787 -0.1971 -1.2593 -0.8315
  178MPD1     H 2714   2.255   3.410   0.698 -0.7673 -1.8342 -2.6083
  178MPD1    H1 2715   1.847   3.330   0.581  0.5127  0.5998 -1.3984
  178MPD1    H2 2716   1.937   3.422   0.983  1.0315  0.5569  0.0080
  178MPD1    H3 2717   1.787   3.352   0.827 -0.2297  1.5231  0.5936
  178MPD1     N 2718   2.088   3.376   0.479  0.2896 -0.1671  0.6682
  178MPD1    H5 2719   2.011   3.357   0.417  0.4183 -1.7084  0.9952
  178MPD1    N1 2720   2.186   3.469   0.960  0.1693  0.3041 -0.1391
  178MPD1    H6 2721   2.285   3.469   0.935  0.3357 -0.1660  0.5260
  178MPD1    H7 2722   2.182   3.418   1.048 -1.9520  0.9947  0.1587
  179MPD1     C 2723   1.792   2.209  15.881  0.2713 -0.0760  0.5833
  179MPD1    C1 2724   1.866   2.097  15.918  0.1680  1.1102 -0.5115
  179MPD1    C2 2725   1.806   1.978  15.935  0.2953 -0.4938  0.1730
  179MPD1    C3 2726   1.674   1.960  15.905  0.2355  0.0595 -0.1753
  179MPD1    C4 2727   1.613   2.071  15.846 -1.1341  0.3372  0.6688
  179MPD1    C5 2728   1.666   2.191  15.838 -0.4898 -0.2702 -0.0845
  179MPD1     H 2729   1.865   1.900  15.980 -0.6001 -0.0809  2.0601
  179MPD1    H1 2730   1.512   2.060  15.808  0.1111 -2.5308 -1.7902
  179MPD1    H2 2731   1.831   2.310  15.876  2.9358 -1.2275 -1.7979
  179MPD1    H3 2732   1.605   2.277  15.811  0.5087  1.0803  1.9938
  179MPD1     N 2733   1.602   1.844  15.925 -0.5086  0.2901 -0.3296
  179MPD1    H5 2734   1.501   1.849  15.927 -0.3172  2.9520  2.5152
  179MPD1    N1 2735   1.994   2.113  15.979 -0.1055  0.0590 -0.8195
  179MPD1    H6 2736   2.048   2.032  15.950 -0.0731  0.4048 -1.7207
  179MPD1    H7 2737   2.034   2.198  15.939 -1.9222  1.2126 -0.1783
  180MPD1     C 2738   2.221   3.034  14.805 -0.3830 -0.5761  0.2364
  180MPD1    C1 2739   2.256   3.139  14.723 -0.2376  0.5656  0.0844
  180MPD1    C2 2740   2.160   3.207  14.664 -0.4597 -0.5411 -0.1914
  180MPD1    C3 2741   2.025   3.202  14.707  1.1015  0.5817 -0.0652
  180MPD1    C4 2742   1.988   3.098  14.790 -0.1730 -0.2336  0.1543
  180MPD1    C5 2743   2.084   3.018  14.833  0.4635  0.6665  0.1151
  180MPD1     H 2744   2.193   3.271  14.584  0.0966 -1.1733 -0.4644
  180MPD1    H1 2745   1.887   3.079  14.825 -1.4962  0.9882 -2.9286
  180MPD1    H2 2746   2.289   2.964  14.851  0.7730 -0.7819 -1.8210
  180MPD1    H3 2747   2.061   2.932  14.895 -2.2208  1.1896 -0.1576
  180MPD1     N 2748   1.931   3.296  14.656 -0.7142 -0.1709  0.3220
  180MPD1    H5 2749   1.962   3.354  14.579  0.9038 -1.7932 -0.2539
  180MPD1    N1 2750   2.397   3.150  14.691  0.8370  0.3430  0.2575
  180MPD1    H6 2751   2.420   3.246  14.667  1.0058 -0.0197 -1.0467
  180MPD1    H7 2752   2.460   3.116  14.762  0.4425 -0.4665  0.2250
  181MPD1     C 2753   2.104   0.204  10.146 -0.1817  0.2644 -0.7073
  181MPD1    C1 2754   2.132   0.106  10.232  0.1940 -0.4303 -0.4121
  181MPD1    C2 2755   2.237   0.113  10.315 -0.5847  0.7345  0.1395
  181MPD1    C3 2756   2.308   0.235  10.327  0.6752  0.3183  0.3980
  181MPD1    C4 2757   2.270   0.342  10.256  0.2822 -0.5173  0.5632
  181MPD1    C5 2758   2.169   0.326  10.163 -0.4998 -0.0891  0.0534
  181MPD1     H 2759   2.258   0.026  10.376  3.5049  1.6104  0.0047
  181MPD1    H1 2760   2.322   0.437  10.254 -2.3174  0.8840 -0.1235
  181MPD1    H2 2761   2.036   0.201  10.062 -0.7068  1.7250 -0.3261
  181MPD1    H3 2762   2.156   0.407  10.092 -2.3278 -0.8405 -0.4706
  181MPD1     N 2763   2.418   0.247  10.416  0.2395 -0.0980 -0.5578
  181MPD1    H5 2764   2.443   0.343  10.436 -2.5552  0.6318 -0.4866
  181MPD1    N1 2765   2.065   4.709  10.229  0.5481 -0.6063 -0.7209
  181MPD1    H6 2766   1.969   0.006  10.201  0.2506 -0.6663  0.2812
  181MPD1    H7 2767   2.071   4.649  10.311  1.1053  0.8232  0.2839
  182MPD1     C 2768   0.083   0.020   2.094  0.3809  0.0471 -0.1123
  182MPD1    C1 2769   0.088   4.639   2.009  0.4792  0.3128  0.3909
  182MPD1    C2 2770   4.693   4.561   1.997  0.0212  0.7012 -1.0975
  182MPD1    C3 2771   4.571   4.588   2.065 -0.4849 -0.3197 -0.3217
  182MPD1    C4 2772   4.573   4.697   2.154  0.1077  0.4790  0.2530
  182MPD1    C5 2773   4.691   0.039   2.168 -0.0022  0.0266 -0.0424
  182MPD1     H 2774   4.693   4.482   1.924 -0.2112 -0.0831 -0.2569
  182MPD1    H1 2775   4.496   0.005   2.223  0.0569 -0.0221  0.4258
  182MPD1    H2 2776   0.159   0.098   2.094  1.0920 -0.6562  0.0134
  182MPD1    H3 2777   4.695   0.130   2.227  2.0774 -0.4807  0.6021
  182MPD1     N 2778   4.450   4.518   2.052 -0.6040 -0.7048  0.0920
  182MPD1    H5 2779   4.370   4.542   2.110 -0.0540  0.8290  0.2139
  182MPD1    N1 2780   0.187   4.635   1.904  0.2143  0.2764 -0.4097
  182MPD1    H6 2781   0.278   4.665   1.937  0.5027 -0.6720 -0.3363
  182MPD1    H7 2782   0.193   4.543   1.861  0.6525 -0.1474  0.5673
  183MPD1     C 2783   4.394   4.685   9.609 -0.1048  0.3968  0.0383
  183MPD1    C1 2784   4.328   0.081   9.620 -0.2339  0.3623 -0.6641
  183MPD1    C2 2785   4.223   0.095   9.712  0.3715 -0.0080  0.2170
  183MPD1    C3 2786   4.174   4.707   9.771 -0.2147 -0.0604  0.9542
  183MPD1    C4 2787   4.226   4.581   9.749 -0.5693  0.1145  0.4028
  183MPD1    C5 2788   4.336   4.571   9.661  0.2711 -0.0984  0.4098
  183MPD1     H 2789   4.177   0.192   9.730 -0.6114 -0.6053  0.9016
  183MPD1    H1 2790   4.192   4.490   9.796 -2.6358  1.0126  0.6592
  183MPD1    H2 2791   4.485   4.662   9.554  0.6474 -1.0942  1.9184
  183MPD1    H3 2792   4.376   4.473   9.636  0.2286  0.1947 -0.7789
  183MPD1     N 2793   4.085   0.006   9.874 -0.0057  0.1656  0.2529
  183MPD1    H5 2794   4.078   0.104   9.897 -0.9805  1.0034 -3.5783
  183MPD1    N1 2795   4.370   0.198   9.552  0.5316 -0.5029 -0.4580
  183MPD1    H6 2796   4.414   0.172   9.464 -0.0972 -0.2031 -0.8581
  183MPD1    H7 2797   4.295   0.259   9.521  1.5260  0.9936  0.0455
  184MPD1     C 2798   2.600   2.759  10.625  0.6305 -0.9694 -0.6887
  184MPD1    C1 2799   2.541   2.694  10.523  0.4857  0.6125 -0.3049
  184MPD1    C2 2800   2.603   2.683  10.403 -0.2785  0.2687  0.1712
  184MPD1    C3 2801   2.733   2.738  10.395 -0.5392 -0.2747  0.1545
  184MPD1    C4 2802   2.797   2.799  10.499 -0.3310 -0.4472 -0.1259
  184MPD1    C5 2803   2.729   2.807  10.616  0.8919  0.1307 -0.7064
  184MPD1     H 2804   2.545   2.656  10.316  0.5687 -1.7751  0.2494
  184MPD1    H1 2805   2.901   2.828  10.493 -0.6237  0.8493  0.9727
  184MPD1    H2 2806   2.541   2.765  10.716  1.4226 -0.5966 -0.1968
  184MPD1    H3 2807   2.783   2.843  10.703  1.3843 -0.6539 -0.6879
  184MPD1     N 2808   2.803   2.745  10.269 -0.1178 -0.6486 -0.5219
  184MPD1    H5 2809   2.895   2.789  10.270 -0.0891 -0.7284  0.7181
  184MPD1    N1 2810   2.401   2.684  10.515 -0.6085 -0.3557  0.2288
  184MPD1    H6 2811   2.350   2.693  10.602  1.4560 -0.5441  1.4362
  184MPD1    H7 2812   2.378   2.586  10.498  0.4026 -0.8118  1.5435
  185MPD1     C 2813   2.877   2.148   9.431  0.1900  0.1632  0.3304
  185MPD1    C1 2814   2.955   2.256   9.413 -0.0552  0.1476 -0.2982
  185MPD1    C2 2815   2.959   2.349   9.516  0.1410 -0.5043  0.5638
  185MPD1    C3 2816   2.881   2.339   9.625 -0.3123  0.3092 -0.4897
  185MPD1    C4 2817   2.796   2.235   9.639 -0.1444 -1.0202 -0.6321
  185MPD1    C5 2818   2.794   2.141   9.540 -0.3866  0.2075 -0.2993
  185MPD1     H 2819   3.038   2.424   9.520 -1.4192  1.0512  2.4477
  185MPD1    H1 2820   2.728   2.229   9.723 -0.1565 -2.1919 -0.7177
  185MPD1    H2 2821   2.877   2.065   9.362  2.3577 -0.3960  0.9877
  185MPD1    H3 2822   2.722   2.061   9.549  0.4664 -0.4130  1.1800
  185MPD1     N 2823   2.885   2.433   9.731 -0.3603 -0.5561  0.2253
  185MPD1    H5 2824   2.832   2.404   9.812 -2.4003 -2.3279 -1.7583
  185MPD1    N1 2825   3.047   2.249   9.306  0.9671 -0.0727 -0.0580
  185MPD1    H6 2826   3.018   2.196   9.224 -1.3156 -1.6876  1.7646
  185MPD1    H7 2827   3.089   2.339   9.286 -0.6944  0.6533 -0.2331
  186MPD1     C 2828   1.956   1.246  16.278 -0.3223 -0.4406 -0.1965
  186MPD1    C1 2829   1.896   1.289  16.395  0.6891  0.6844  0.0197
  186MPD1    C2 2830   1.879   1.424  16.422  0.1331 -0.1180  0.0754
  186MPD1    C3 2831   1.938   1.518  16.339 -0.0605  0.4832  0.2848
  186MPD1    C4 2832   2.001   1.479  16.229  0.6688 -0.0347  0.2443
  186MPD1    C5 2833   2.009   1.345  16.199  0.1497 -0.2190  0.7781
  186MPD1     H 2834   1.842   1.463  16.515  1.7617  0.7368  0.3754
  186MPD1    H1 2835   2.056   1.548  16.166 -0.0688 -0.6410 -1.0701
  186MPD1    H2 2836   1.963   1.142  16.248 -1.4309 -0.0559 -1.7945
  186MPD1    H3 2837   2.077   1.314  16.121  0.5226 -1.4633  1.5992
  186MPD1     N 2838   1.923   1.653  16.385 -0.5156  0.0229  0.5326
  186MPD1    H5 2839   1.877   1.671  16.474 -1.6865 -3.3169  0.6082
  186MPD1    N1 2840   1.848   1.197  16.487  0.1841  0.1606  0.5315
  186MPD1    H6 2841   1.871   1.099  16.471  0.8783  0.7355 -1.9928
  186MPD1    H7 2842   1.746   1.203  16.487  0.1256 -0.4736 -2.1022
  187MPD1     C 2843   0.399   0.306  17.413  0.0263  0.0740  0.0135
  187MPD1    C1 2844   0.479   0.307  17.305 -0.3702  0.3169  0.1474
  187MPD1    C2 2845   0.598   0.237  17.300 -0.8028  0.8845 -0.4194
  187MPD1    C3 2846   0.631   0.150  17.401 -0.0246 -0.2643  0.8304
  187MPD1    C4 2847   0.538   0.131  17.508 -0.0630  0.0388 -0.0058
  187MPD1    C5 2848   0.429   0.214  17.510  0.1201 -0.4855  0.2189
  187MPD1     H 2849   0.666   0.261  17.219 -2.2811 -0.1577 -1.9868
  187MPD1    H1 2850   0.564   0.057  17.583 -1.2829 -0.3917 -0.0194
  187MPD1    H2 2851   0.309   0.363  17.430 -0.4573 -1.1067  1.4873
  187MPD1    H3 2852   0.364   0.205  17.596 -1.2429 -0.1044 -0.7819
  187MPD1     N 2853   0.740   0.060  17.395  0.0228 -0.5906 -0.3332
  187MPD1    H5 2854   0.759   0.002  17.476 -0.5782  2.3493  1.9091
  187MPD1    N1 2855   0.465   0.410  17.216 -0.7699  0.2554 -0.3769
  187MPD1    H6 2856   0.510   0.397  17.126  0.9684  0.6524  0.4552
  187MPD1    H7 2857   0.367   0.427  17.195 -0.8925  1.9711  1.5249
  188MPD1     C 2858   1.230   3.733  10.156  0.4110  0.0868  0.4425
  188MPD1    C1 2859   1.149   3.729  10.045  0.4360 -0.0478  0.1188
  188MPD1    C2 2860   1.044   3.642  10.053  0.4127  0.1405 -0.0599
  188MPD1    C3 2861   1.038   3.548  10.155 -0.1454 -0.1163 -0.8721
  188MPD1    C4 2862   1.128   3.543  10.257 -1.1477  0.4619  0.2783
  188MPD1    C5 2863   1.227   3.641  10.251  0.1820  0.7427  0.4918
  188MPD1     H 2864   0.963   3.652   9.982  1.7421 -0.3608 -1.6506
  188MPD1    H1 2865   1.135   3.461  10.327 -1.0879 -0.3279 -0.6614
  188MPD1    H2 2866   1.328   3.780  10.153  0.0615  0.7604 -0.1051
  188MPD1    H3 2867   1.318   3.621  10.306  0.6235  2.2223  0.2963
  188MPD1     N 2868   0.933   3.454  10.147 -0.0198  0.1499  0.2521
  188MPD1    H5 2869   0.954   3.372  10.204  1.5059  0.7711  0.5769
  188MPD1    N1 2870   1.150   3.837   9.956  0.9073 -0.0937  0.0933
  188MPD1    H6 2871   1.239   3.885   9.941  0.3043  0.3712 -2.0310
  188MPD1    H7 2872   1.108   3.813   9.867 -2.0179  1.7304  0.9871
  189MPD1     C 2873   3.582   4.453   0.412  0.6509 -0.6435  0.4147
  189MPD1    C1 2874   3.517   4.377   0.320 -0.0144 -0.0423  0.2998
  189MPD1    C2 2875   3.394   4.424   0.272 -0.2388  0.2442  0.4294
  189MPD1    C3 2876   3.336   4.540   0.324 -0.3582 -0.0228 -0.2199
  189MPD1    C4 2877   3.399   4.606   0.425 -0.8894 -0.1853  0.1061
  189MPD1    C5 2878   3.522   4.564   0.469 -0.4947  0.2016  0.6083
  189MPD1     H 2879   3.341   4.363   0.200  0.2327  0.6203 -0.2329
  189MPD1    H1 2880   3.351   4.686   0.481  2.1087  1.0895  0.8517
  189MPD1    H2 2881   3.683   4.432   0.446  0.4821  0.3853  1.5474
  189MPD1    H3 2882   3.575   4.616   0.548 -1.3006  2.2809 -0.2214
  189MPD1     N 2883   3.224   4.591   0.261 -0.1123  0.6690  0.5761
  189MPD1    H5 2884   3.167   4.526   0.207 -0.7033  1.4077  0.3232
  189MPD1    N1 2885   3.583   4.265   0.263 -0.3169 -0.3387  0.0169
  189MPD1    H6 2886   3.521   4.191   0.230  0.6709 -0.5471 -1.3654
  189MPD1    H7 2887   3.651   4.214   0.320 -0.8206 -0.8348  0.1674
  190MPD1     C 2888   2.237   3.675  15.921 -0.3248 -0.1619  0.8279
  190MPD1    C1 2889   2.257   3.595  15.809 -0.4649 -0.1272  0.5256
  190MPD1    C2 2890   2.162   3.497  15.782 -0.2077 -0.4776 -0.0527
  190MPD1    C3 2891   2.075   3.456  15.881  0.3286  0.1624 -0.2578
  190MPD1    C4 2892   2.077   3.519  16.002 -0.0487 -0.1535 -0.2766
  190MPD1    C5 2893   2.161   3.624  16.022 -0.0702  0.0759  1.2043
  190MPD1     H 2894   2.171   3.447  15.686  0.4101 -1.8875  0.7245
  190MPD1    H1 2895   2.009   3.490  16.081  2.4453  0.7730  2.1929
  190MPD1    H2 2896   2.296   3.764  15.938 -0.3362 -0.4717  2.4693
  190MPD1    H3 2897   2.154   3.664  16.122  2.6789  1.1620  0.9550
  190MPD1     N 2898   1.993   3.341  15.850  0.3488 -0.4620 -0.2116
  190MPD1    H5 2899   1.990   3.297  15.758  0.4460 -1.0548  0.0733
  190MPD1    N1 2900   2.345   3.649  15.711 -0.0789 -0.1917 -0.5271
  190MPD1    H6 2901   2.378   3.577  15.648 -3.1903 -2.0122 -0.0590
  190MPD1    H7 2902   2.421   3.702  15.754 -2.4899  1.5279  1.6781
  191MPD1     C 2903   0.703   0.123  12.836 -0.8585 -0.3273 -0.1053
  191MPD1    C1 2904   0.679   0.250  12.786  0.0175 -0.0540  0.2583
  191MPD1    C2 2905   0.705   0.268  12.656 -0.0665  0.2271  0.5308
  191MPD1    C3 2906   0.751   0.168  12.578  0.2819 -0.6202 -0.1524
  191MPD1    C4 2907   0.777   0.044  12.632  0.1592 -0.1692 -0.0173
  191MPD1    C5 2908   0.756   0.027  12.761  0.1662  0.4145  0.1787
  191MPD1     H 2909   0.707   0.370  12.620 -1.6020  0.9183  2.3827
  191MPD1    H1 2910   0.811   4.687  12.568  0.1137 -0.3790  0.2217
  191MPD1    H2 2911   0.688   0.100  12.941  2.1059 -1.5117  0.0741
  191MPD1    H3 2912   0.785   4.654  12.802  2.9785  1.1787 -0.0545
  191MPD1     N 2913   0.777   0.186  12.441  1.0778 -0.7419  0.3765
  191MPD1    H5 2914   0.819   0.108  12.392 -1.4772 -1.2123 -1.0668
  191MPD1    N1 2915   0.644   0.350  12.875 -0.5499  0.6745  0.3569
  191MPD1    H6 2916   0.594   0.421  12.823  0.9132  0.0756 -1.8771
  191MPD1    H7 2917   0.576   0.316  12.943 -1.2383 -0.6542 -0.9854
  192MPD1     C 2918   0.644   0.272  11.364  0.6166  0.1421 -0.6109
  192MPD1    C1 2919   0.591   0.191  11.459  0.8198 -0.2614 -0.4278
  192MPD1    C2 2920   0.614   0.225  11.590  0.4164 -0.3069  0.6333
  192MPD1    C3 2921   0.690   0.330  11.633 -0.5303  0.5866  0.0667
  192MPD1    C4 2922   0.746   0.404  11.531  0.1366  0.2684  0.6530
  192MPD1    C5 2923   0.724   0.379  11.398 -0.0214 -0.0958 -0.0476
  192MPD1     H 2924   0.584   0.158  11.670 -0.2928 -0.1499  0.4985
  192MPD1    H1 2925   0.813   0.486  11.555 -1.9598  2.5513 -1.2133
  192MPD1    H2 2926   0.632   0.246  11.260  0.0968  0.3433 -0.6019
  192MPD1    H3 2927   0.769   0.434  11.316 -1.3029 -0.1528 -0.7898
  192MPD1     N 2928   0.720   0.363  11.771 -0.6204 -0.0615  0.6312
  192MPD1    H5 2929   0.792   0.434  11.779 -2.0725  1.3131  1.4114
  192MPD1    N1 2930   0.527   0.071  11.429  0.6189  0.2103  0.3054
  192MPD1    H6 2931   0.470   0.037  11.507  1.8559 -1.9062  0.3019
  192MPD1    H7 2932   0.466   0.090  11.351 -0.2699 -2.4659  0.3269
  193MPD1     C 2933   0.893   0.651   0.378  0.4766 -0.3246 -0.2280
  193MPD1    C1 2934   1.013   0.600   0.323 -0.7698 -0.1093 -0.6481
  193MPD1    C2 2935   1.032   0.617   0.193 -0.4062 -0.7119  0.1719
  193MPD1    C3 2936   0.948   0.692   0.119 -0.2599 -0.0626 -0.0734
  193MPD1    C4 2937   0.833   0.746   0.175 -0.4820  0.6538  0.3614
  193MPD1    C5 2938   0.806   0.721   0.303 -0.5637 -0.8601 -0.1830
  193MPD1     H 2939   1.124   0.584   0.145 -2.1765  0.5928 -4.1828
  193MPD1    H1 2940   0.763   0.811   0.123 -1.3319  1.6867  2.7774
  193MPD1    H2 2941   0.877   0.631   0.483 -2.1262 -1.0305 -0.7559
  193MPD1    H3 2942   0.712   0.756   0.345  1.2375  1.1459  2.2141
  193MPD1     N 2943   0.975   0.726  17.677  0.1839  0.6404  0.3485
  193MPD1    H5 2944   0.913   0.791  17.629 -0.7346  0.4963  1.3432
  193MPD1    N1 2945   1.101   0.511   0.392  0.0477 -0.0129  0.1812
  193MPD1    H6 2946   1.194   0.528   0.353  1.1269  1.7441  3.4881
  193MPD1    H7 2947   1.107   0.535   0.491 -1.3173  0.2081  0.2115
  194MPD1     C 2948   2.618   2.871  17.353  0.3634  0.0859 -0.2507
  194MPD1    C1 2949   2.719   2.899  17.440  0.9684 -0.4269 -0.1431
  194MPD1    C2 2950   2.837   2.836  17.416 -1.1057 -0.0042 -0.3042
  194MPD1    C3 2951   2.844   2.723  17.332 -0.0336 -0.3167 -0.5619
  194MPD1    C4 2952   2.735   2.686  17.262  0.0270  0.6044  0.0688
  194MPD1    C5 2953   2.622   2.763  17.269 -0.1496 -0.0979 -0.3430
  194MPD1     H 2954   2.927   2.871  17.465 -1.4447  1.4961 -0.7366
  194MPD1    H1 2955   2.725   2.602  17.194  0.0053  0.8672 -0.2560
  194MPD1    H2 2956   2.526   2.927  17.358  0.5210  0.5277 -2.3982
  194MPD1    H3 2957   2.528   2.743  17.219  0.5784 -0.3168 -1.6154
  194MPD1     N 2958   2.963   2.642  17.313 -0.1829 -0.7553  0.0537
  194MPD1    H5 2959   2.955   2.564  17.248 -0.7854 -1.9414  1.5488
  194MPD1    N1 2960   2.713   3.011  17.525  0.0399 -0.1288  0.0108
  194MPD1    H6 2961   2.615   3.034  17.544  0.5363  1.1993  0.9629
  194MPD1    H7 2962   2.771   2.996  17.607 -1.1682  0.6531  1.0034
  195MPD1     C 2963   0.001   3.949  17.315 -0.0815  0.7421 -0.0175
  195MPD1    C1 2964   4.699   3.816  17.327 -0.3145  0.1033  0.4813
  195MPD1    C2 2965   0.074   3.744  17.396 -0.2552  0.2699  0.5331
  195MPD1    C3 2966   0.206   3.802  17.418  0.4093 -0.5275  0.4296
  195MPD1    C4 2967   0.232   3.926  17.372  0.0397 -0.3497  0.1053
  195MPD1    C5 2968   0.125   4.005  17.327 -0.1769  0.4298 -0.0018
  195MPD1     H 2969   0.055   3.641  17.421 -1.9297  0.7008  1.0588
  195MPD1    H1 2970   0.323   3.982  17.387  1.3629 -1.8263 -2.3705
  195MPD1    H2 2971   4.643   4.016  17.286 -0.7505  0.8440  2.1141
  195MPD1    H3 2972   0.139   4.107  17.295  1.2928  0.3370  0.3596
  195MPD1     N 2973   0.318   3.721  17.471  0.6141  0.0401  0.3326
  195MPD1    H5 2974   0.409   3.766  17.473 -0.6324  2.5611  0.4196
  195MPD1    N1 2975   4.574   3.763  17.306  0.7098 -0.4922  0.3009
  195MPD1    H6 2976   4.585   3.671  17.264 -0.3990  0.6447 -2.4976
  195MPD1    H7 2977   4.518   3.820  17.243  0.7509  0.8350  1.4630
  196MPD1     C 2978   4.539   4.157   1.609 -0.6335 -0.5877  0.1420
  196MPD1    C1 2979   4.665   4.141   1.666  0.1998 -0.3291 -0.2615
  196MPD1    C2 2980   0.033   4.055   1.604  0.0023  0.1116 -0.2818
  196MPD1    C3 2981   0.011   4.013   1.473 -0.7821 -0.7402  0.9368
  196MPD1    C4 2982   4.618   4.058   1.404 -0.4511 -0.4894  0.1645
  196MPD1    C5 2983   4.524   4.125   1.475 -0.6456 -0.1377  0.2903
  196MPD1     H 2984   0.128   4.044   1.655  0.7331  1.6750 -1.3128
  196MPD1    H1 2985   4.607   4.042   1.297 -0.5863  1.3170 -0.0953
  196MPD1    H2 2986   4.471   4.221   1.666  0.2668  1.6186 -1.2526
  196MPD1    H3 2987   4.435   4.162   1.426  0.6738  1.2430 -1.0257
  196MPD1     N 2988   0.116   3.953   1.403 -0.4447 -0.7489  0.3605
  196MPD1    H5 2989   0.095   3.926   1.307  0.7455  0.3021 -0.1946
  196MPD1    N1 2990   4.680   4.169   1.802 -0.7064  0.1236 -0.2194
  196MPD1    H6 2991   4.628   4.243   1.848  0.9828  0.7514  0.6913
  196MPD1    H7 2992   0.055   4.179   1.827 -0.7803 -2.4325  1.0971
  197MPD1     C 2993   4.553   1.686   0.486  0.5208  0.0247 -0.7225
  197MPD1    C1 2994   4.574   1.582   0.404 -0.0610  0.1653  0.3205
  197MPD1    C2 2995   4.612   1.596   0.273  0.0616  0.5495 -0.5191
  197MPD1    C3 2996   4.626   1.726   0.226  0.0898 -0.2336  0.8092
  197MPD1    C4 2997   4.593   1.832   0.306  0.2740  0.4660 -0.0897
  197MPD1    C5 2998   4.561   1.813   0.439  0.0642 -0.3346 -0.3526
  197MPD1     H 2999   4.648   1.510   0.217  1.9248  0.2800  1.0857
  197MPD1    H1 3000   4.582   1.935   0.273 -1.4161  0.6825  1.1540
  197MPD1    H2 3001   4.550   1.675   0.594  2.6728 -2.8333 -0.9636
  197MPD1    H3 3002   4.538   1.899   0.501  1.6925 -1.0908  1.2911
  197MPD1     N 3003   4.659   1.754   0.095 -0.0386 -0.0818 -0.3267
  197MPD1    H5 3004   4.650   1.851   0.066  0.5315 -0.2798 -1.1640
  197MPD1    N1 3005   4.583   1.451   0.466  0.2548  0.3979  0.2196
  197MPD1    H6 3006   4.571   1.370   0.407  1.7254  0.2428  0.1250
  197MPD1    H7 3007   4.512   1.434   0.537  0.2520 -0.4483  0.0070
  198MPD1     C 3008   1.241   3.584  15.878  0.6317  0.2634 -0.9344
  198MPD1    C1 3009   1.361   3.603  15.821 -0.1920 -0.4531  1.1502
  198MPD1    C2 3010   1.447   3.695  15.882  0.6290 -0.2179  0.8124
  198MPD1    C3 3011   1.426   3.746  16.011 -0.6626 -0.3602  0.2528
  198MPD1    C4 3012   1.298   3.726  16.058  1.2420  0.5937  0.2797
  198MPD1    C5 3013   1.204   3.655  15.990  0.9075 -0.0566  0.6268
  198MPD1     H 3014   1.543   3.719  15.837  1.3285 -0.4825  2.1559
  198MPD1    H1 3015   1.265   3.769  16.152 -0.4721  0.2268 -0.1523
  198MPD1    H2 3016   1.164   3.532  15.823 -0.4288 -0.2156  1.0308
  198MPD1    H3 3017   1.106   3.636  16.032 -0.0883  0.2763 -1.5441
  198MPD1     N 3018   1.528   3.834  16.075 -0.3192 -0.0568 -0.3006
  198MPD1    H5 3019   1.618   3.833  16.028  0.7032 -1.7414  1.6749
  198MPD1    N1 3020   1.390   3.549  15.693 -0.5305 -0.6771 -0.2389
  198MPD1    H6 3021   1.491   3.537  15.697 -0.8233 -2.7739  0.7151
  198MPD1    H7 3022   1.360   3.453  15.706 -0.0962 -0.8300 -0.3671
  199MPD1     C 3023   3.046   0.229  10.226  0.0893 -0.8277 -0.0109
  199MPD1    C1 3024   2.910   0.219  10.200  0.0501 -0.4497  0.4177
  199MPD1    C2 3025   2.829   0.333  10.204  0.4012 -0.0720 -0.1691
  199MPD1    C3 3026   2.873   0.455  10.249  0.4460  0.0709  0.5692
  199MPD1    C4 3027   3.008   0.459  10.282  0.9024 -0.5552  0.3672
  199MPD1    C5 3028   3.095   0.350  10.277  0.2607  0.5268  0.0107
  199MPD1     H 3029   2.723   0.321  10.184 -0.2694  3.5359  1.2777
  199MPD1    H1 3030   3.052   0.558  10.294 -0.0293 -0.1462  0.3798
  199MPD1    H2 3031   3.121   0.150  10.222 -1.1685 -1.9384 -1.6273
  199MPD1    H3 3032   3.198   0.370  10.306  0.4450  0.4720 -0.6115
  199MPD1     N 3033   2.800   0.573  10.253  0.0768 -0.1588 -0.1107
  199MPD1    H5 3034   2.842   0.664  10.270  0.1808  0.0126 -1.2775
  199MPD1    N1 3035   2.861   0.111  10.131 -0.0309 -0.4636  0.5532
  199MPD1    H6 3036   2.761   0.094  10.145  0.5673 -2.0414  2.9940
  199MPD1    H7 3037   2.919   0.030  10.152 -2.2813 -1.6218  2.3798
  200MPD1     C 3038   2.404   0.376  14.600 -0.8826 -0.5724 -0.2090
  200MPD1    C1 3039   2.499   0.403  14.697 -0.3226  0.4261 -0.0943
  200MPD1    C2 3040   2.591   0.493  14.654  0.0447  0.1802 -0.1888
  200MPD1    C3 3041   2.609   0.535  14.523 -1.0677 -0.3529 -0.1160
  200MPD1    C4 3042   2.513   0.496  14.429  0.5825  0.5625  0.3715
  200MPD1    C5 3043   2.415   0.414  14.466 -0.2218  0.7484  0.3083
  200MPD1     H 3044   2.668   0.521  14.726 -1.1226 -2.4110  2.0367
  200MPD1    H1 3045   2.510   0.513  14.323 -2.5011 -0.4637  0.2945
  200MPD1    H2 3046   2.312   0.323  14.620 -0.8593  0.0018  1.3895
  200MPD1    H3 3047   2.347   0.381  14.388  1.0605  1.5923 -1.1879
  200MPD1     N 3048   2.723   0.608  14.493  0.2732 -0.3228  0.8772
  200MPD1    H5 3049   2.791   0.641  14.561  2.9340 -1.1797 -1.3613
  200MPD1    N1 3050   2.465   0.376  14.829 -0.3307 -0.2940 -0.4005
  200MPD1    H6 3051   2.547   0.372  14.890  0.1462 -0.0474 -1.0280
  200MPD1    H7 3052   2.412   0.289  14.830 -1.2922  0.2974 -0.7758
  201MPD1     C 3053   4.579   4.637  12.790  0.0074  0.4454 -0.7360
  201MPD1    C1 3054   4.486   4.558  12.845 -0.2096 -0.0133 -0.4314
  201MPD1    C2 3055   4.527   4.472  12.946  0.2257 -0.1181  0.1013
  201MPD1    C3 3056   4.658   4.473  12.983 -0.2733  0.5851  0.0356
  201MPD1    C4 3057   0.017   4.568  12.932 -0.1507 -0.4521  0.2712
  201MPD1    C5 3058   4.703   4.657  12.843  0.5123  0.0075 -0.0581
  201MPD1     H 3059   4.450   4.401  12.971 -0.5616  0.9609  0.7326
  201MPD1    H1 3060   0.114   4.577  12.980  0.6239  2.1232 -1.7957
  201MPD1    H2 3061   4.553   4.707  12.711  0.7892  2.6656  0.9642
  201MPD1    H3 3062   0.043   0.016  12.809  1.9452 -1.3033 -0.5925
  201MPD1     N 3063   4.694   4.356  13.052 -0.2367 -0.0598 -0.3455
  201MPD1    H5 3064   4.627   4.280  13.055 -0.4339  0.1033 -0.7579
  201MPD1    N1 3065   4.364   4.545  12.787  0.3304 -0.1053  0.7701
  201MPD1    H6 3066   4.344   4.636  12.746 -1.6122 -0.2388  1.4490
  201MPD1    H7 3067   4.300   4.525  12.863  0.0802  2.1997  1.1501
  202MPD1     C 3068   3.624   4.032   9.239  0.4194  0.3152 -0.3446
  202MPD1    C1 3069   3.681   3.909   9.245  0.2979  0.2440  0.1029
  202MPD1    C2 3070   3.720   3.882   9.374  0.3349  0.0133 -1.0669
  202MPD1    C3 3071   3.647   3.930   9.481 -0.0353 -0.3959 -0.5481
  202MPD1    C4 3072   3.571   4.043   9.467  0.0467  0.6505 -0.6927
  202MPD1    C5 3073   3.559   4.094   9.342  0.0415 -0.1578 -0.2652
  202MPD1     H 3074   3.794   3.803   9.385 -1.1960 -1.2218  0.2470
  202MPD1    H1 3075   3.524   4.101   9.547 -1.0690  0.3103 -1.1018
  202MPD1    H2 3076   3.618   4.083   9.144  1.3619  1.5663  0.2710
  202MPD1    H3 3077   3.513   4.191   9.328  1.1903  0.0550 -2.7016
  202MPD1     N 3078   3.649   3.870   9.609  0.1933 -0.2379 -0.4518
  202MPD1    H5 3079   3.602   3.917   9.686  0.8303  1.4395 -1.0815
  202MPD1    N1 3080   3.768   3.867   9.144  0.0663 -0.2448 -0.9123
  202MPD1    H6 3081   3.727   3.876   9.051 -0.4637  1.9268 -0.4719
  202MPD1    H7 3082   3.782   3.766   9.151 -1.3230 -0.3098  1.1905
  203MPD1     C 3083   3.991   0.635  12.985 -0.1319  0.0819  0.7491
  203MPD1    C1 3084   3.937   0.588  12.872 -0.3638  0.0271  0.5749
  203MPD1    C2 3085   3.961   0.456  12.849  0.1047  0.7319 -0.1866
  203MPD1    C3 3086   4.001   0.366  12.946 -0.2398  0.0481  0.1979
  203MPD1    C4 3087   4.031   0.425  13.068 -0.3141  0.5730  0.3391
  203MPD1    C5 3088   4.030   0.557  13.092 -0.7177 -0.4822  0.5691
  203MPD1     H 3089   3.921   0.411  12.759 -1.9668  2.2383 -0.0041
  203MPD1    H1 3090   4.055   0.357  13.148  0.9289 -0.3209 -0.7857
  203MPD1    H2 3091   3.987   0.741  13.004  0.5676 -0.0407  1.5882
  203MPD1    H3 3092   4.063   0.603  13.184 -0.4464  1.8075 -0.6790
  203MPD1     N 3093   3.991   0.231  12.910  0.3753  0.1200 -0.6162
  203MPD1    H5 3094   3.947   0.212  12.820 -1.0144  2.9997 -0.5456
  203MPD1    N1 3095   3.915   0.683  12.768 -0.2822  0.2062  0.5176
  203MPD1    H6 3096   3.879   0.774  12.799  0.2917  0.7933 -0.5582
  203MPD1    H7 3097   3.847   0.635  12.710  0.4337  0.6105 -0.6495
  204MPD1     C 3098   3.047   1.217   0.161 -0.2972 -0.1807  0.2720
  204MPD1    C1 3099   3.102   1.244   0.040  0.0407 -0.1304  0.7061
  204MPD1    C2 3100   3.141   1.144  17.658  0.0953 -0.0732  0.4890
  204MPD1    C3 3101   3.149   1.015   0.007  0.1024  0.7550  0.0671
  204MPD1    C4 3102   3.097   0.990   0.132 -0.4463  0.4825  0.2449
  204MPD1    C5 3103   3.038   1.091   0.208 -0.3435  0.5426  0.2696
  204MPD1     H 3104   3.178   1.170  17.560  0.1081 -1.0810  0.2301
  204MPD1    H1 3105   3.094   0.892   0.177 -0.0621  0.7946  0.9462
  204MPD1    H2 3106   3.014   1.292   0.232  0.5238  0.8415 -0.4346
  204MPD1    H3 3107   3.009   1.070   0.310 -1.5904 -0.4426 -0.2843
  204MPD1     N 3108   3.213   0.923  17.609 -0.5501  0.4623  0.4264
  204MPD1    H5 3109   3.232   0.964  17.518 -0.3915  1.7175  1.0298
  204MPD1    N1 3110   3.100   1.370  17.675  0.2881 -0.3395  0.1457
  204MPD1    H6 3111   3.107   1.440   0.054  0.7339  0.5458 -0.7500
  204MPD1    H7 3112   3.171   1.375  17.601  2.2476 -3.9937  1.7703
  205MPD1     C 3113   4.327   4.524  16.843  0.4124 -0.8777 -0.4212
  205MPD1    C1 3114   4.325   4.404  16.904  0.0701 -0.7748  0.5007
  205MPD1    C2 3115   4.247   4.389  17.020  0.4205 -0.4428  0.6666
  205MPD1    C3 3116   4.176   4.495  17.077  0.5883 -0.2961 -0.0051
  205MPD1    C4 3117   4.187   4.622  17.017 -0.0574  0.1481  0.1647
  205MPD1    C5 3118   4.269   4.636  16.907 -0.1139  0.8686 -0.1789
  205MPD1     H 3119   4.235   4.288  17.056  0.2973 -0.6938 -0.0746
  205MPD1    H1 3120   4.127   4.708  17.045 -0.2311 -0.4486  1.6220
  205MPD1    H2 3121   4.386   4.542  16.755 -0.6136  0.9177 -0.7477
  205MPD1    H3 3122   4.278   0.010  16.859 -1.6431 -0.0787 -2.3649
  205MPD1     N 3123   4.081   4.484  17.182  0.0249  0.0957 -0.3033
  205MPD1    H5 3124   4.040   4.572  17.212 -2.8692 -1.3874  0.0858
  205MPD1    N1 3125   4.401   4.299  16.845  0.5250  0.0530 -0.1528
  205MPD1    H6 3126   4.467   4.341  16.781  0.7272  4.8699  3.2102
  205MPD1    H7 3127   4.438   4.230  16.910  2.0479 -1.2791 -2.4372
  206MPD1     C 3128   3.588   2.589  16.760 -0.5415  0.7396 -0.6794
  206MPD1    C1 3129   3.693   2.563  16.670 -0.0957  0.7509  0.1428
  206MPD1    C2 3130   3.667   2.509  16.546 -0.1586 -0.1049  0.7705
  206MPD1    C3 3131   3.534   2.502  16.490  0.3757  0.2413  0.9673
  206MPD1    C4 3132   3.434   2.553  16.575  0.0552  0.3726  0.2276
  206MPD1    C5 3133   3.461   2.592  16.707 -0.1408  0.1555  0.0324
  206MPD1     H 3134   3.757   2.484  16.492 -1.0213 -0.4681 -0.5083
  206MPD1    H1 3135   3.330   2.573  16.554  0.3042  1.2329 -0.2038
  206MPD1    H2 3136   3.590   2.617  16.865 -1.3040  0.4387 -0.5879
  206MPD1    H3 3137   3.379   2.632  16.766  0.0645  0.5689  0.0406
  206MPD1     N 3138   3.506   2.445  16.362  0.0129  0.1314  0.1288
  206MPD1    H5 3139   3.409   2.444  16.334 -0.3045  2.2287  1.1007
  206MPD1    N1 3140   3.820   2.557  16.733 -0.2520  0.1123  0.6780
  206MPD1    H6 3141   3.828   2.613  16.817 -1.0119  0.5392  0.4608
  206MPD1    H7 3142   3.899   2.585  16.676 -1.1607  1.2808 -0.0019
  207MPD1     C 3143   0.435   0.822   9.812  0.3675 -0.3134 -0.1352
  207MPD1    C1 3144   0.448   0.898   9.931 -0.0855 -0.7767  0.0843
  207MPD1    C2 3145   0.542   0.853  10.027 -0.2790 -0.3152  0.0519
  207MPD1    C3 3146   0.624   0.749   9.987 -0.3765 -0.5645  0.2289
  207MPD1    C4 3147   0.634   0.690   9.862 -0.1095 -0.2245  0.0060
  207MPD1    C5 3148   0.529   0.724   9.781 -0.5044  0.1838  0.5433
  207MPD1     H 3149   0.551   0.903  10.123  0.7117  2.0537 -1.2538
  207MPD1    H1 3150   0.715   0.623   9.836  0.3125  1.5213 -3.1850
  207MPD1    H2 3151   0.362   0.839   9.734  0.2309  2.4703  0.6094
  207MPD1    H3 3152   0.511   0.675   9.686 -0.6926 -1.4567  1.4228
  207MPD1     N 3153   0.713   0.709  10.087 -0.3812  0.1952  0.2459
  207MPD1    H5 3154   0.790   0.647  10.064 -1.3686 -1.1166  0.5131
  207MPD1    N1 3155   0.346   0.983   9.964  0.2504 -0.5241  0.4271
  207MPD1    H6 3156   0.370   1.065  10.020  1.3387 -2.5376  2.8690
  207MPD1    H7 3157   0.302   1.008   9.876 -1.1982  0.1150  1.3250
  208MPD1     C 3158   4.459   0.200   1.050 -0.3998 -0.0420  0.3575
  208MPD1    C1 3159   4.437   0.097   1.143 -0.3845  0.3328 -0.1462
  208MPD1    C2 3160   4.355   4.715   1.110  0.2225 -0.1547  0.6836
  208MPD1    C3 3161   4.326   4.693   0.980  0.8970 -0.1832  0.5728
  208MPD1    C4 3162   4.358   0.061   0.885 -0.4573  0.2388 -0.0716
  208MPD1    C5 3163   4.426   0.173   0.925  0.4852 -0.0680  0.2545
  208MPD1     H 3164   4.316   4.641   1.179 -0.0096  0.1254  0.8480
  208MPD1    H1 3165   4.350   0.048   0.777 -0.8727 -0.4082  0.0398
  208MPD1    H2 3166   4.500   0.298   1.072  2.2282 -1.5078  1.8560
  208MPD1    H3 3167   4.440   0.243   0.844 -0.6263  1.0465  1.0015
  208MPD1     N 3168   4.269   4.567   0.950  0.1621 -0.2161 -0.1736
  208MPD1    H5 3169   4.238   4.511   1.029 -1.4449  0.3373 -0.4196
  208MPD1    N1 3170   4.448   0.129   1.279  0.4262  0.0866  0.5526
  208MPD1    H6 3171   4.464   0.048   1.337 -0.4885  0.7582  1.7474
  208MPD1    H7 3172   4.526   0.193   1.289 -0.8029  2.0645 -2.2083
  209MPD1     C 3173   0.972   3.844  10.421  0.1919 -0.0560 -0.0445
  209MPD1    C1 3174   0.909   3.962  10.377  0.6196 -0.4775  0.5131
  209MPD1    C2 3175   0.917   4.078  10.453  0.7809 -0.4328 -0.2107
  209MPD1    C3 3176   0.983   4.074  10.578 -0.2296  0.1603 -0.4138
  209MPD1    C4 3177   1.038   3.951  10.626 -0.4185  0.5578 -0.6389
  209MPD1    C5 3178   1.033   3.843  10.546  0.0024 -0.4211  0.3227
  209MPD1     H 3179   0.873   4.170  10.417  2.2759  0.6831  0.7661
  209MPD1    H1 3180   1.090   3.942  10.721  0.4884  0.0353 -1.1761
  209MPD1    H2 3181   0.977   3.744  10.379 -1.1367  0.7236 -2.0312
  209MPD1    H3 3182   1.080   3.754  10.586  2.1510  0.1134 -1.0156
  209MPD1     N 3183   0.996   4.198  10.654  0.2564 -0.1505  0.0099
  209MPD1    H5 3184   0.944   4.280  10.626  1.4387  0.5016 -0.2571
  209MPD1    N1 3185   0.864   3.960  10.243  0.2253  0.0059  0.1649
  209MPD1    H6 3186   0.797   4.034  10.224 -1.2624 -1.6609 -1.0157
  209MPD1    H7 3187   0.826   3.870  10.213  0.4395  0.7629 -2.3790
  210MPD1     C 3188   1.276   4.694  11.602  0.4451 -0.0193 -0.4803
  210MPD1    C1 3189   1.237   4.567  11.575  0.3332  0.3703  0.2464
  210MPD1    C2 3190   1.191   4.536  11.452 -0.0215  0.3023  0.0179
  210MPD1    C3 3191   1.196   4.628  11.360 -0.0022 -0.1009  0.0827
  210MPD1    C4 3192   1.247   0.034  11.385  0.3323 -0.3755 -0.4953
  210MPD1    C5 3193   1.291   0.068  11.513 -0.0604  0.3781 -0.0813
  210MPD1     H 3194   1.152   4.437  11.428 -1.8189  0.9591  0.2093
  210MPD1    H1 3195   1.239   0.115  11.313 -0.3153 -0.6198 -0.6957
  210MPD1    H2 3196   1.324   4.715  11.697 -2.6048  0.7499  0.8845
  210MPD1    H3 3197   1.329   0.169  11.522 -0.5524  0.6766 -1.3529
  210MPD1     N 3198   1.153   4.598  11.227 -0.1027 -0.8171  0.3258
  210MPD1    H5 3199   1.179   4.673  11.165  0.0056 -1.9158 -0.9659
  210MPD1    N1 3200   1.228   4.469  11.674 -0.2844  0.2441 -0.1152
  210MPD1    H6 3201   1.292   4.495  11.749 -0.4198  1.6475 -0.4863
  210MPD1    H7 3202   1.252   4.384  11.623  2.7090 -0.5282  2.5639
  211MPD1     C 3203   4.041   4.170  15.827  0.0858 -0.3125  0.0225
  211MPD1    C1 3204   4.010   4.035  15.836  0.1938 -0.3940 -0.8144
  211MPD1    C2 3205   3.885   4.005  15.896  1.2234  0.0845  0.4759
  211MPD1    C3 3206   3.797   4.113  15.919  0.1376  1.1707 -0.0981
  211MPD1    C4 3207   3.829   4.241  15.903  0.0806 -0.5361  0.0289
  211MPD1    C5 3208   3.953   4.271  15.855  1.2821  0.5967 -0.2234
  211MPD1     H 3209   3.858   3.900  15.906 -0.2614  0.4640  0.2962
  211MPD1    H1 3210   3.759   4.323  15.912  0.0875 -0.2388 -2.5628
  211MPD1    H2 3211   4.136   4.203  15.785  0.0482 -1.9745 -1.3683
  211MPD1    H3 3212   3.977   4.375  15.836  0.6661  0.7775 -0.0351
  211MPD1     N 3213   3.672   4.094  15.963  0.0460 -0.0334  0.4934
  211MPD1    H5 3214   3.616   4.177  15.980 -2.4068 -1.2443 -1.7074
  211MPD1    N1 3215   4.111   3.940  15.818  0.0183  0.0156 -0.2079
  211MPD1    H6 3216   4.181   3.969  15.750  0.7995 -0.0084  0.5785
  211MPD1    H7 3217   4.081   3.845  15.800 -1.0566  0.5021 -0.9831
  212MPD1     C 3218   3.100   2.619  16.702 -0.0088 -0.1068 -0.1378
  212MPD1    C1 3219   3.071   2.658  16.829 -0.1401  0.3932  0.2978
  212MPD1    C2 3220   3.017   2.565  16.910 -0.0807  0.6862  0.2529
  212MPD1    C3 3221   2.984   2.443  16.856  0.2461  0.5004 -0.3608
  212MPD1    C4 3222   2.997   2.407  16.729  0.5123  0.6904  0.4455
  212MPD1    C5 3223   3.040   2.509  16.652  0.1681 -0.1775  0.0074
  212MPD1     H 3224   3.005   2.598  17.012  0.9291  0.5265  0.4213
  212MPD1    H1 3225   2.967   2.314  16.684  1.1953 -0.1605  1.7323
  212MPD1    H2 3226   3.160   2.678  16.634  1.1625 -1.5567 -0.3736
  212MPD1    H3 3227   3.058   2.486  16.547  5.0594  1.9179  0.3734
  212MPD1     N 3228   2.914   2.342  16.924 -0.2932 -0.1983 -0.6500
  212MPD1    H5 3229   2.894   2.261  16.867 -0.6630 -0.4938 -0.1023
  212MPD1    N1 3230   3.143   2.771  16.884 -0.1797  0.3671 -0.5592
  212MPD1    H6 3231   3.149   2.841  16.811  4.0024 -0.5318 -1.0963
  212MPD1    H7 3232   3.089   2.814  16.959  2.9463  0.8127  1.4613
  213MPD1     C 3233   0.812   3.627  15.815  0.0048 -0.0329  0.0592
  213MPD1    C1 3234   0.861   3.536  15.719  0.3161 -0.6927  0.3025
  213MPD1    C2 3235   0.820   3.576  15.592 -0.3396  0.4663  0.9947
  213MPD1    C3 3236   0.757   3.705  15.564  0.2024  0.5405  0.0657
  213MPD1    C4 3237   0.752   3.798  15.667  0.1099 -0.5770  0.6000
  213MPD1    C5 3238   0.764   3.753  15.794  0.4607  0.1373  0.0047
  213MPD1     H 3239   0.833   3.501  15.515 -0.3465  1.9346 -0.4308
  213MPD1    H1 3240   0.728   3.901  15.646 -1.9540 -1.0842  0.5279
  213MPD1    H2 3241   0.827   3.614  15.921  2.1709  1.6798 -0.0323
  213MPD1    H3 3242   0.753   3.817  15.881  0.0266 -0.8221  0.6568
  213MPD1     N 3243   0.727   3.736  15.429 -0.2763 -0.5339  0.3425
  213MPD1    H5 3244   0.727   3.657  15.364 -0.8669  1.5757 -2.2264
  213MPD1    N1 3245   0.875   3.398  15.755 -0.0870 -0.8166 -0.2647
  213MPD1    H6 3246   0.933   3.353  15.684  0.7467  0.0202 -0.1247
  213MPD1    H7 3247   0.919   3.381  15.845  1.9671 -0.7832 -1.2556
  214MPD1     C 3248   0.212   3.216  15.046 -0.2136  0.0868  0.0420
  214MPD1    C1 3249   0.261   3.287  14.938 -0.1205 -0.1417 -0.5345
  214MPD1    C2 3250   0.318   3.410  14.955  0.1882  0.5303  0.0618
  214MPD1    C3 3251   0.310   3.472  15.078 -0.2148  0.4172 -0.0740
  214MPD1    C4 3252   0.253   3.408  15.184  0.1050  0.0476 -0.5016
  214MPD1    C5 3253   0.199   3.278  15.168  0.3436  0.2374  0.1133
  214MPD1     H 3254   0.361   3.457  14.867 -0.4093  1.4136  0.2322
  214MPD1    H1 3255   0.249   3.455  15.282  0.3966 -0.4649 -0.2422
  214MPD1    H2 3256   0.187   3.111  15.038  1.1862 -0.2250 -0.1960
  214MPD1    H3 3257   0.141   3.227  15.245  1.3789  0.2571  0.9160
  214MPD1     N 3258   0.376   3.592  15.109  0.3434 -0.5367  0.0243
  214MPD1    H5 3259   0.384   3.625  15.205 -0.4523 -1.6359  0.4685
  214MPD1    N1 3260   0.281   3.218  14.818 -0.2743  0.1687 -0.4530
  214MPD1    H6 3261   0.212   3.145  14.799  1.3584 -1.3584 -0.5272
  214MPD1    H7 3262   0.295   3.269  14.731 -0.6106 -1.1473 -1.2833
  215MPD1     C 3263   0.663   4.027  10.664  1.0904  0.8171  0.1765
  215MPD1    C1 3264   0.654   4.160  10.633  0.4614  0.6163  0.4691
  215MPD1    C2 3265   0.652   4.250  10.739  0.2449 -0.0592 -0.8167
  215MPD1    C3 3266   0.691   4.209  10.864  0.6924 -0.2082  0.8855
  215MPD1    C4 3267   0.725   4.085  10.891  0.5267  0.0465 -0.5114
  215MPD1    C5 3268   0.707   3.990  10.791 -0.4394  0.0875 -0.0924
  215MPD1     H 3269   0.637   4.356  10.723 -0.5554 -0.2151 -1.1293
  215MPD1    H1 3270   0.755   4.058  10.991  0.3001 -1.0251 -0.7363
  215MPD1    H2 3271   0.635   3.950  10.594  0.6012  0.4621  0.7667
  215MPD1    H3 3272   0.724   3.885  10.815 -0.9202  0.3326  1.3233
  215MPD1     N 3273   0.688   4.304  10.966  1.0342  0.2571  0.1058
  215MPD1    H5 3274   0.674   4.400  10.934  2.2713  0.5248  0.3433
  215MPD1    N1 3275   0.609   4.195  10.511  0.3532 -0.3927  0.6602
  215MPD1    H6 3276   0.655   4.283  10.488  1.2144 -0.5077  1.9144
  215MPD1    H7 3277   0.637   4.121  10.448 -0.6627  0.6591 -1.0141
  216MPD1     C 3278   3.030   2.028  16.355 -0.2097  0.4692  0.5486
  216MPD1    C1 3279   3.035   1.904  16.294  0.1386  0.2411  0.4001
  216MPD1    C2 3280   3.031   1.803  16.391 -0.2564 -0.9409 -0.5056
  216MPD1    C3 3281   3.057   1.824  16.526 -0.3507 -0.5064 -0.3157
  216MPD1    C4 3282   3.061   1.950  16.577  0.6703 -0.5079 -0.1147
  216MPD1    C5 3283   3.045   2.053  16.490  0.5314 -0.2849 -0.1548
  216MPD1     H 3284   3.028   1.698  16.366  0.9277 -2.0690  4.1453
  216MPD1    H1 3285   3.067   1.972  16.683 -0.3761 -0.5294 -0.0470
  216MPD1    H2 3286   3.020   2.114  16.290 -1.8809 -0.0768  0.0648
  216MPD1    H3 3287   3.053   2.155  16.526 -0.1870 -0.2712 -0.0347
  216MPD1     N 3288   3.079   1.711  16.613 -0.0161  0.3684  0.2687
  216MPD1    H5 3289   3.088   1.626  16.559  0.3337  1.1330 -0.8594
  216MPD1    N1 3290   2.997   1.884  16.160  0.0184 -0.3219 -0.4266
  216MPD1    H6 3291   3.038   1.798  16.125 -1.4857 -0.9156 -0.7178
  216MPD1    H7 3292   3.019   1.964  16.101  0.8899 -0.8203 -0.7759
  217MPD1     C 3293   2.627   0.187   8.777  0.5427 -0.8838 -0.8844
  217MPD1    C1 3294   2.698   0.098   8.698 -1.4260 -0.1195  0.3541
  217MPD1    C2 3295   2.680   4.688   8.725 -1.2192 -0.0690 -0.2929
  217MPD1    C3 3296   2.593   4.644   8.823 -0.0946  0.4917 -0.2287
  217MPD1    C4 3297   2.518   0.017   8.892  0.2590 -0.2051  0.4390
  217MPD1    C5 3298   2.542   0.150   8.871 -0.1077  0.2903  0.0946
  217MPD1     H 3299   2.725   4.613   8.661 -0.1818 -0.2096  0.5855
  217MPD1    H1 3300   2.443   0.001   8.968 -1.5432  0.2829 -1.2250
  217MPD1    H2 3301   2.628   0.294   8.762 -1.1781 -0.4370  2.2322
  217MPD1    H3 3302   2.491   0.221   8.935 -1.4260 -0.1933 -0.3971
  217MPD1     N 3303   2.572   4.504   8.859 -0.0310  0.4418  0.8418
  217MPD1    H5 3304   2.493   4.483   8.920 -1.4331 -1.6998 -1.7060
  217MPD1    N1 3305   2.777   0.141   8.589 -0.0699 -0.8369  0.3252
  217MPD1    H6 3306   2.807   0.239   8.592 -2.4540 -0.1500  1.9749
  217MPD1    H7 3307   2.856   0.079   8.574  1.5798  1.8751 -2.1343
  218MPD1     C 3308   0.329   0.695  12.771 -0.5171 -0.5512  0.7674
  218MPD1    C1 3309   0.399   0.657  12.666 -0.2008  0.7194 -0.3740
  218MPD1    C2 3310   0.409   0.512  12.642 -0.0782 -0.4634 -0.7032
  218MPD1    C3 3311   0.354   0.414  12.719  0.5888 -0.1683 -0.4600
  218MPD1    C4 3312   0.286   0.472  12.822 -0.3602  0.8703  0.7040
  218MPD1    C5 3313   0.273   0.604  12.847  0.3862  0.5681 -0.1349
  218MPD1     H 3314   0.474   0.480  12.562 -1.7878  2.5112 -3.3074
  218MPD1    H1 3315   0.239   0.403  12.891  3.3518 -1.6563  0.7220
  218MPD1    H2 3316   0.311   0.799  12.791 -0.7117 -1.0204  3.0065
  218MPD1    H3 3317   0.215   0.622  12.937 -1.6859 -0.2970 -1.2947
  218MPD1     N 3318   0.366   0.278  12.692  0.2352 -0.4956 -0.5031
  218MPD1    H5 3319   0.425   0.250  12.614  1.5944 -1.8802  1.0040
  218MPD1    N1 3320   0.456   0.758  12.579 -0.3311 -0.3310 -0.2716
  218MPD1    H6 3321   0.478   0.731  12.484 -0.5160 -0.8467 -0.1652
  218MPD1    H7 3322   0.406   0.847  12.584  2.2227  1.0844  0.2437
  219MPD1     C 3323   0.520   4.447  11.914 -0.2570  0.3639  0.2844
  219MPD1    C1 3324   0.532   4.579  11.957 -0.3067 -0.0206 -0.0704
  219MPD1    C2 3325   0.515   4.616  12.090 -0.1306 -0.1089 -0.0530
  219MPD1    C3 3326   0.487   4.518  12.186 -0.3224  0.1017  0.2810
  219MPD1    C4 3327   0.469   4.393  12.135  0.2441 -0.3366 -0.2116
  219MPD1    C5 3328   0.496   4.351  12.009 -0.5297  0.5445  0.5301
  219MPD1     H 3329   0.529   4.720  12.117  1.0072  0.0807 -1.3694
  219MPD1    H1 3330   0.444   4.315  12.206  0.9353 -0.7231 -0.3990
  219MPD1    H2 3331   0.552   4.419  11.814  1.0967  3.0621 -0.0429
  219MPD1    H3 3332   0.483   4.249  11.975  0.1788  1.0360 -1.1964
  219MPD1     N 3333   0.471   4.548  12.327 -0.0495  0.0352 -0.0510
  219MPD1    H5 3334   0.457   4.466  12.385 -0.1066  0.7893  0.9993
  219MPD1    N1 3335   0.552   4.681  11.865  0.1173 -0.0469  0.5880
  219MPD1    H6 3336   0.558   0.053  11.900 -0.7993  0.3533 -0.3449
  219MPD1    H7 3337   0.631   4.652  11.807 -0.0992  0.2914  0.1303
  220MPD1     C 3338   4.591   4.713   9.910  0.5636  0.0834 -0.9775
  220MPD1    C1 3339   4.511   4.700  10.023  1.0310 -0.7208  0.1693
  220MPD1    C2 3340   4.560   0.032  10.138 -0.0829  0.3958 -0.5269
  220MPD1    C3 3341   4.684   0.094  10.141  0.4770  0.0963  0.3932
  220MPD1    C4 3342   0.028   0.122  10.027 -0.6035 -0.1611  0.0223
  220MPD1    C5 3343   4.695   0.077   9.913  0.0779  0.0237  0.4228
  220MPD1     H 3344   4.502   0.011  10.227  2.4927 -2.4179  0.4954
  220MPD1    H1 3345   0.114   0.188  10.015 -1.3928  1.1258  1.4792
  220MPD1    H2 3346   4.571   4.657   9.819 -0.7635  0.6185 -1.0238
  220MPD1    H3 3347   0.025   0.100   9.821 -2.5144  0.9613 -0.8298
  220MPD1     N 3348   0.024   0.113  10.264 -0.0520  0.2290 -0.2788
  220MPD1    H5 3349   4.698   0.096  10.351  1.3033  0.3503  0.5079
  220MPD1    N1 3350   4.420   4.600  10.027 -0.0614 -0.8466 -0.3241
  220MPD1    H6 3351   4.369   4.610  10.114  2.5789 -3.3615  1.4991
  220MPD1    H7 3352   4.356   4.585   9.949  0.2026  0.0805 -0.7168
  221MPD1     C 3353   3.431   3.415  16.990 -0.0185 -0.7605 -0.7885
  221MPD1    C1 3354   3.547   3.388  16.925  0.1784 -0.6225  0.6412
  221MPD1    C2 3355   3.539   3.332  16.798 -0.0944  0.3696 -0.0833
  221MPD1    C3 3356   3.417   3.304  16.733  0.2973 -0.1580  0.6237
  221MPD1    C4 3357   3.306   3.324  16.805  0.1770 -0.0911  0.2360
  221MPD1    C5 3358   3.312   3.385  16.930  0.3013  0.1228 -0.3663
  221MPD1     H 3359   3.630   3.312  16.743  0.1079 -0.7015  0.6440
  221MPD1    H1 3360   3.205   3.316  16.765 -0.0354 -2.0032  1.1237
  221MPD1    H2 3361   3.440   3.460  17.089 -0.8917 -2.5809  0.1096
  221MPD1    H3 3362   3.215   3.404  16.974  0.3617 -2.8400  1.0709
  221MPD1     N 3363   3.413   3.289  16.592 -0.4140  0.0256  0.0385
  221MPD1    H5 3364   3.321   3.299  16.550 -0.8387 -1.8726  0.5023
  221MPD1    N1 3365   3.667   3.429  16.985 -0.1298  0.3348  0.3723
  221MPD1    H6 3366   3.660   3.494  17.063 -1.4192 -2.1439  2.3351
  221MPD1    H7 3367   3.754   3.396  16.945  0.0684 -0.3499  1.3621
  222MPD1     C 3368   3.203   1.885   0.033 -0.8389 -0.0778 -0.6002
  222MPD1    C1 3369   3.162   1.955  17.616  0.2453 -0.1166 -0.1232
  222MPD1    C2 3370   3.089   2.075  17.632  0.1896  0.1449  0.4335
  222MPD1    C3 3371   3.080   2.127   0.068  0.7857 -0.1354  0.7918
  222MPD1    C4 3372   3.113   2.057   0.181 -0.0336  0.0236 -0.2408
  222MPD1    C5 3373   3.166   1.928   0.160  0.9894  0.0067  0.2829
  222MPD1     H 3374   3.038   2.121  17.548 -1.3630 -1.0960  0.6932
  222MPD1    H1 3375   3.104   2.100   0.280  0.2746  0.0477 -0.2248
  222MPD1    H2 3376   3.265   1.797   0.030 -0.9009 -0.1943  1.3518
  222MPD1    H3 3377   3.222   1.888   0.244  1.3749 -0.3046 -0.1252
  222MPD1     N 3378   3.024   2.250   0.098  0.1623  0.3332  0.1811
  222MPD1    H5 3379   3.020   2.272   0.197  0.9634  1.5083 -0.0455
  222MPD1    N1 3380   3.164   1.898  17.490  0.2401  0.2264 -0.6947
  222MPD1    H6 3381   3.172   1.970  17.418  0.1414 -0.0915 -1.0186
  222MPD1    H7 3382   3.250   1.845  17.475 -0.1685 -0.0792 -1.9011
  223MPD1     C 3383   2.353   2.191   0.609  0.6881  0.0312 -0.2670
  223MPD1    C1 3384   2.369   2.133   0.488  0.1278  1.0770  0.2992
  223MPD1    C2 3385   2.446   2.197   0.393 -1.0654 -0.5406  0.4106
  223MPD1    C3 3386   2.503   2.321   0.416  0.0005 -0.2914 -0.6422
  223MPD1    C4 3387   2.478   2.387   0.535 -0.0360 -0.4932  1.0824
  223MPD1    C5 3388   2.406   2.317   0.624  0.8456  0.1104 -0.3182
  223MPD1     H 3389   2.479   2.155   0.299  0.6668 -0.1277  0.8384
  223MPD1    H1 3390   2.518   2.481   0.571 -0.2971  0.4729 -1.1293
  223MPD1    H2 3391   2.276   2.141   0.667  0.7641  1.1874  0.8111
  223MPD1    H3 3392   2.380   2.384   0.704 -1.4912 -0.1190 -0.8805
  223MPD1     N 3393   2.587   2.375   0.313  0.2382 -0.6471 -0.4780
  223MPD1    H5 3394   2.590   2.321   0.228 -4.1851 -0.6390 -0.6397
  223MPD1    N1 3395   2.332   1.999   0.459 -0.4929 -0.1910  0.1367
  223MPD1    H6 3396   2.243   1.972   0.501 -0.7936  0.4483 -0.0965
  223MPD1    H7 3397   2.338   1.981   0.359  1.9511  1.3742  0.0066
  224MPD1     C 3398   3.882   0.252   9.578 -0.4862 -0.1879 -0.2093
  224MPD1    C1 3399   3.829   0.312   9.690  0.2330 -0.4408 -0.4958
  224MPD1    C2 3400   3.768   0.228   9.784 -0.9698 -0.1749 -0.2105
  224MPD1    C3 3401   3.773   0.092   9.772  0.8662  0.2236 -0.4505
  224MPD1    C4 3402   3.840   0.030   9.672  0.0041 -0.1001 -0.3465
  224MPD1    C5 3403   3.894   0.110   9.575 -0.2705 -0.1310  0.2097
  224MPD1     H 3404   3.719   0.278   9.867 -0.6711  1.5402 -1.0614
  224MPD1    H1 3405   3.841   4.645   9.661 -1.8155 -0.0249 -1.2065
  224MPD1    H2 3406   3.937   0.303   9.500  1.5877 -1.1041  0.6507
  224MPD1    H3 3407   3.956   0.077   9.492 -0.4255  0.6413 -0.2058
  224MPD1     N 3408   3.703   4.717   9.846 -0.2528  0.0637  0.6469
  224MPD1    H5 3409   3.737   4.623   9.827 -0.7710 -0.0806  0.4380
  224MPD1    N1 3410   3.853   0.445   9.720 -0.0276  0.4702 -0.1979
  224MPD1    H6 3411   3.878   0.503   9.640  0.6928 -0.3199 -0.5411
  224MPD1    H7 3412   3.775   0.494   9.763  0.2885  1.5079 -0.7943
  225MPD1     C 3413   0.725   1.122  12.552  0.1616 -0.3967 -0.0699
  225MPD1    C1 3414   0.742   0.998  12.492 -1.2467  0.2262 -0.2723
  225MPD1    C2 3415   0.647   0.955  12.400 -0.1372  0.5148  0.3558
  225MPD1    C3 3416   0.538   1.038  12.382 -0.1837 -0.8144 -0.5031
  225MPD1    C4 3417   0.527   1.169  12.420 -0.4422 -0.0268  0.8601
  225MPD1    C5 3418   0.621   1.206  12.508 -0.0731 -0.1382  0.4709
  225MPD1     H 3419   0.648   0.849  12.376 -3.7942  0.0705  2.0821
  225MPD1    H1 3420   0.446   1.238  12.399  1.0812  1.0921 -1.2771
  225MPD1    H2 3421   0.792   1.161  12.629  0.1238 -1.1868  0.3641
  225MPD1    H3 3422   0.619   1.310  12.540 -1.3554 -0.7243  2.3009
  225MPD1     N 3423   0.425   0.986  12.310  0.2701  0.5266 -0.3435
  225MPD1    H5 3424   0.348   1.052  12.300 -1.2577 -1.1385  0.3432
  225MPD1    N1 3425   0.836   0.913  12.542 -0.0594  0.2587  0.0726
  225MPD1    H6 3426   0.903   0.968  12.596  2.0894 -0.6296 -1.6778
  225MPD1    H7 3427   0.896   0.867  12.474  1.3208  2.6679 -0.3527
  226MPD1     C 3428   2.696   0.950   9.858  0.3249 -1.3637  0.3460
  226MPD1    C1 3429   2.759   1.069   9.861 -0.7396 -0.4707 -0.6582
  226MPD1    C2 3430   2.865   1.075   9.953 -0.4769 -0.1580  0.1359
  226MPD1    C3 3431   2.915   0.961  10.009 -0.5164  0.1158 -0.3973
  226MPD1    C4 3432   2.858   0.842   9.988  0.2830  0.1687  0.7881
  226MPD1    C5 3433   2.743   0.836   9.918  0.3036  0.4642 -0.1998
  226MPD1     H 3434   2.917   1.167   9.978 -2.4288  0.8731  0.4468
  226MPD1    H1 3435   2.897   0.746  10.021 -0.4002  0.4298  2.3475
  226MPD1    H2 3436   2.606   0.942   9.798  0.3045 -1.1046  0.3433
  226MPD1    H3 3437   2.695   0.742   9.895 -1.2655  1.1205  0.4257
  226MPD1     N 3438   3.025   0.990  10.094 -0.2464 -0.1313  0.0249
  226MPD1    H5 3439   3.055   1.087  10.097 -1.6501  0.3430 -1.6284
  226MPD1    N1 3440   2.688   1.181   9.814 -0.1265  0.9224  0.8815
  226MPD1    H6 3441   2.626   1.163   9.735  0.8460 -0.0156  0.3269
  226MPD1    H7 3442   2.742   1.260   9.779  0.7496 -0.1872 -0.2479
  227MPD1     C 3443   3.396   1.579  10.769  1.2075 -0.2919  0.2246
  227MPD1    C1 3444   3.448   1.457  10.804 -0.1196 -0.0622 -0.0394
  227MPD1    C2 3445   3.438   1.347  10.717 -0.2530  0.7134  0.1880
  227MPD1    C3 3446   3.357   1.356  10.608 -0.0157 -0.0691 -0.6909
  227MPD1    C4 3447   3.293   1.478  10.590 -0.0582  0.9860 -0.4328
  227MPD1    C5 3448   3.311   1.592  10.661 -0.2033 -0.1263  0.4983
  227MPD1     H 3449   3.485   1.251  10.732 -0.7412  0.3566 -0.5977
  227MPD1    H1 3450   3.217   1.482  10.512  0.4765 -1.7727 -1.0965
  227MPD1    H2 3451   3.406   1.665  10.835 -1.4598 -1.2518  1.8756
  227MPD1    H3 3452   3.255   1.682  10.636  0.3213 -0.1377 -0.7254
  227MPD1     N 3453   3.340   1.239  10.532 -0.4857 -0.2450  0.9591
  227MPD1    H5 3454   3.375   1.153  10.572  0.0540 -0.5194 -0.0921
  227MPD1    N1 3455   3.539   1.456  10.911  0.1188 -0.3810  0.0582
  227MPD1    H6 3456   3.537   1.364  10.956  1.0969 -0.3518  0.1407
  227MPD1    H7 3457   3.510   1.516  10.988 -0.4436 -1.0757  0.3941
  228MPD1     C 3458   2.068   3.340  12.944  0.8650 -0.7196  0.1968
  228MPD1    C1 3459   1.966   3.420  12.896  0.0884 -0.5835 -1.0516
  228MPD1    C2 3460   1.836   3.369  12.911 -0.2856 -0.0267 -0.0027
  228MPD1    C3 3461   1.812   3.241  12.955  0.3213 -0.9287  0.3606
  228MPD1    C4 3462   1.919   3.163  12.993  0.2544  0.3002 -0.2863
  228MPD1    C5 3463   2.045   3.215  12.995 -0.1732  0.0360 -0.1844
  228MPD1     H 3464   1.747   3.429  12.889  1.1286  1.4052 -1.8119
  228MPD1    H1 3465   1.903   3.073  13.051  0.9733  0.1565 -0.3115
  228MPD1    H2 3466   2.169   3.373  12.966  0.8202 -1.3969  1.3962
  228MPD1    H3 3467   2.119   3.161  13.052  2.1444  1.2242 -2.0496
  228MPD1     N 3468   1.679   3.186  12.951  0.6994  0.0354 -0.2424
  228MPD1    H5 3469   1.605   3.241  12.908  2.2914  2.4451  0.1166
  228MPD1    N1 3470   1.991   3.562  12.881  0.5885 -0.1528  0.6653
  228MPD1    H6 3471   1.921   3.608  12.822  1.5647  0.3542 -0.0929
  228MPD1    H7 3472   2.086   3.573  12.845  0.2071  0.4013 -0.1846
  229MPD1     C 3473   2.914   2.308  13.975 -0.4266 -0.0105  0.4552
  229MPD1    C1 3474   2.782   2.274  13.987  0.0479  0.5733  0.0665
  229MPD1    C2 3475   2.753   2.178  14.083  0.2241 -0.8017  0.0613
  229MPD1    C3 3476   2.853   2.111  14.154 -0.5003 -0.0672  0.2688
  229MPD1    C4 3477   2.985   2.146  14.129  0.6280 -0.3041 -0.1165
  229MPD1    C5 3478   3.011   2.244  14.045 -0.5066  0.5292 -0.1721
  229MPD1     H 3479   2.651   2.150  14.103  0.9299 -1.3321  3.0106
  229MPD1    H1 3480   3.064   2.096  14.184 -0.2400 -0.7146  0.7767
  229MPD1    H2 3481   2.950   2.390  13.915 -2.0637 -0.0432 -0.5784
  229MPD1    H3 3482   3.117   2.267  14.042 -0.4309  0.2483  0.2922
  229MPD1     N 3483   2.823   1.997  14.236 -0.6534  0.3633  0.0639
  229MPD1    H5 3484   2.903   1.966  14.291 -0.5802  0.2268 -0.1220
  229MPD1    N1 3485   2.689   2.367  13.935 -0.0436 -0.7675  0.4255
  229MPD1    H6 3486   2.728   2.422  13.859  1.9110 -0.8647  1.3623
  229MPD1    H7 3487   2.599   2.329  13.908 -0.8838  0.1087  2.0226
  230MPD1     C 3488   1.999   1.536  14.650  0.2131  0.1285 -0.2151
  230MPD1    C1 3489   2.018   1.569  14.522  0.4596  0.0518  0.1622
  230MPD1    C2 3490   2.136   1.626  14.485  0.5596  0.0745 -0.1948
  230MPD1    C3 3491   2.235   1.645  14.577 -0.1800  0.7999  0.6709
  230MPD1    C4 3492   2.214   1.610  14.708  0.0604 -0.0486  0.6715
  230MPD1    C5 3493   2.094   1.568  14.744 -0.1879 -0.7965 -0.2462
  230MPD1     H 3494   2.155   1.659  14.383 -2.2500 -1.3228 -1.1684
  230MPD1    H1 3495   2.289   1.610  14.786  0.9937 -0.3924 -0.2366
  230MPD1    H2 3496   1.900   1.510  14.685  0.5598  0.0630  0.7216
  230MPD1    H3 3497   2.063   1.547  14.846  0.2871  0.1795  0.1015
  230MPD1     N 3498   2.363   1.685  14.536 -1.3531  0.1196  0.2433
  230MPD1    H5 3499   2.362   1.691  14.434  2.7619 -1.5942  0.0930
  230MPD1    N1 3500   1.922   1.558  14.429 -0.5285 -0.0009  0.3081
  230MPD1    H6 3501   1.963   1.552  14.336 -2.6160  0.2607 -0.6183
  230MPD1    H7 3502   1.865   1.476  14.447 -0.9402  0.4315  0.9732
  231MPD1     C 3503   4.482   2.954  15.309 -0.6902  0.6835  0.1437
  231MPD1    C1 3504   4.566   3.037  15.383  0.5137 -0.4045 -0.0792
  231MPD1    C2 3505   4.592   3.154  15.316 -0.5855  0.4373 -0.0865
  231MPD1    C3 3506   4.518   3.207  15.209  1.0102 -0.1945  0.7293
  231MPD1    C4 3507   4.434   3.122  15.137  0.1501  0.1474 -0.0545
  231MPD1    C5 3508   4.419   2.997  15.193  0.2103 -0.1725  0.2693
  231MPD1     H 3509   4.662   3.220  15.366  2.2237 -0.6373 -2.5440
  231MPD1    H1 3510   4.393   3.161  15.044 -0.4704 -1.3350 -0.4165
  231MPD1    H2 3511   4.467   2.850  15.336  2.4754 -0.1465 -1.3107
  231MPD1    H3 3512   4.367   2.921  15.135 -0.4614  1.1707 -0.8729
  231MPD1     N 3513   4.542   3.334  15.152  0.4300 -0.5273  0.9042
  231MPD1    H5 3514   4.501   3.351  15.061  0.2329  0.2422  1.1389
  231MPD1    N1 3515   4.655   2.966  15.465  0.3708 -0.2370  0.2327
  231MPD1    H6 3516   4.608   2.895  15.521 -1.4161 -1.3037 -2.6163
  231MPD1    H7 3517   4.710   3.027  15.525  0.1080 -1.8360  2.1107
  232MPD1     C 3518   2.604   1.063   0.581  0.1497 -0.1461 -0.2649
  232MPD1    C1 3519   2.518   1.118   0.668  0.1015  0.5092 -0.4409
  232MPD1    C2 3520   2.382   1.114   0.649 -0.1417 -0.3964  0.4922
  232MPD1    C3 3521   2.331   1.064   0.536  0.0898  0.1129 -0.1372
  232MPD1    C4 3522   2.415   1.013   0.447  0.9913 -0.5025 -0.0469
  232MPD1    C5 3523   2.548   1.011   0.468  0.5788  0.3597 -0.6979
  232MPD1     H 3524   2.305   1.147   0.718 -0.4036 -1.1906  0.5869
  232MPD1    H1 3525   2.371   0.959   0.363  0.2537  0.7965 -0.4917
  232MPD1    H2 3526   2.711   1.050   0.589 -0.1031 -0.1864  3.3048
  232MPD1    H3 3527   2.613   0.964   0.395  0.3792 -2.3597  0.8597
  232MPD1     N 3528   2.189   1.046   0.532 -0.3395  0.5174  0.4446
  232MPD1    H5 3529   2.142   1.070   0.619  3.2921  1.6286  2.0868
  232MPD1    N1 3530   2.559   1.165   0.791 -0.0374 -0.2860  0.0464
  232MPD1    H6 3531   2.637   1.230   0.780 -1.0063  0.6705 -1.0976
  232MPD1    H7 3532   2.496   1.232   0.834  0.8037 -0.1699  1.1095
  233MPD1     C 3533   3.244   0.359   1.439  0.3626  0.7368  0.2441
  233MPD1    C1 3534   3.133   0.345   1.519  0.3469  0.3838 -0.7114
  233MPD1    C2 3535   3.144   0.250   1.616 -0.3473 -0.5302 -0.1863
  233MPD1    C3 3536   3.252   0.159   1.626 -0.0093 -0.5762  0.0420
  233MPD1    C4 3537   3.359   0.177   1.544 -0.6209 -0.1578 -0.2113
  233MPD1    C5 3538   3.349   0.279   1.453  0.0412 -0.2984 -0.7873
  233MPD1     H 3539   3.063   0.241   1.688 -1.3709  0.2186 -1.2624
  233MPD1    H1 3540   3.453   0.128   1.567  0.8853  1.6918 -2.4463
  233MPD1    H2 3541   3.242   0.449   1.378  0.0224  0.5077 -0.0750
  233MPD1    H3 3542   3.443   0.305   1.405  0.2137  0.4303 -0.0600
  233MPD1     N 3543   3.255   0.045   1.713  0.5209  0.3409  0.9014
  233MPD1    H5 3544   3.338   4.709   1.713  0.2926  0.0228 -0.4476
  233MPD1    N1 3545   3.031   0.446   1.519 -0.1835 -0.1820 -0.2258
  233MPD1    H6 3546   2.946   0.416   1.567 -0.2196 -0.6037 -0.5534
  233MPD1    H7 3547   3.018   0.483   1.425  1.1021  1.5837  0.3001
  234MPD1     C 3548   4.025   3.271   9.257 -0.4515  0.1534  0.6706
  234MPD1    C1 3549   4.025   3.347   9.369 -0.3223  0.4964 -0.1753
  234MPD1    C2 3550   3.908   3.408   9.392  0.3457  0.5765 -0.8187
  234MPD1    C3 3551   3.787   3.383   9.327 -0.5151 -0.0906 -0.3415
  234MPD1    C4 3552   3.793   3.294   9.222  0.1753  0.3986 -0.8620
  234MPD1    C5 3553   3.909   3.246   9.190 -0.3226 -0.3706 -0.0385
  234MPD1     H 3554   3.898   3.473   9.479 -2.1857 -2.5262  1.2344
  234MPD1    H1 3555   3.707   3.269   9.162  0.2224  0.4556 -0.9541
  234MPD1    H2 3556   4.112   3.215   9.226  0.0667  1.7163 -0.7276
  234MPD1    H3 3557   3.917   3.184   9.102 -1.6760 -0.0931 -0.3518
  234MPD1     N 3558   3.670   3.449   9.358  0.0409  0.1166 -0.1367
  234MPD1    H5 3559   3.666   3.506   9.441 -0.3576  2.1606 -1.5504
  234MPD1    N1 3560   4.153   3.386   9.422  0.4060 -0.2288 -0.7590
  234MPD1    H6 3561   4.218   3.309   9.408  2.7671  1.8555 -1.3167
  234MPD1    H7 3562   4.138   3.412   9.519  1.8924 -1.1336 -0.2997
  235MPD1     C 3563   4.459   1.377   9.956 -0.2921  0.5071 -0.0574
  235MPD1    C1 3564   4.404   1.411   9.834  1.0065  0.2373 -0.2557
  235MPD1    C2 3565   4.489   1.388   9.721  0.3240  0.6020 -0.3939
  235MPD1    C3 3566   4.624   1.351   9.735  0.0176 -0.0695  1.0696
  235MPD1    C4 3567   4.669   1.327   9.857  1.6856 -0.1651  0.0291
  235MPD1    C5 3568   4.587   1.326   9.964  0.5759 -0.6680  0.3055
  235MPD1     H 3569   4.446   1.411   9.624  2.3941 -1.5721 -1.8130
  235MPD1    H1 3570   0.049   1.296   9.869  1.3761 -0.5216  1.6661
  235MPD1    H2 3571   4.419   1.390  10.056 -1.3882 -2.3818 -0.1255
  235MPD1    H3 3572   4.634   1.305  10.060  0.1367  0.9771  0.8734
  235MPD1     N 3573   4.703   1.348   9.616 -0.6544  0.2047  0.0084
  235MPD1    H5 3574   4.660   1.374   9.527  0.1065  0.9779 -0.1379
  235MPD1    N1 3575   4.265   1.418   9.818  0.0617  0.5166 -0.1109
  235MPD1    H6 3576   4.219   1.459   9.899 -2.0128 -1.6685 -0.1587
  235MPD1    H7 3577   4.249   1.472   9.734 -1.9914 -3.0372 -1.9979
  236MPD1     C 3578   0.175   2.553  10.071 -0.5942  0.3713  0.2543
  236MPD1    C1 3579   0.109   2.438  10.059 -0.5289 -0.2527  0.7660
  236MPD1    C2 3580   0.160   2.316  10.094 -0.1669  0.4350 -0.6682
  236MPD1    C3 3581   0.287   2.307  10.132 -0.2660 -0.7097  0.1269
  236MPD1    C4 3582   0.365   2.422  10.141 -0.1434 -0.0331 -0.3439
  236MPD1    C5 3583   0.308   2.540  10.111 -0.2123  0.7616 -0.1677
  236MPD1     H 3584   0.099   2.228  10.079  0.5968 -0.1589 -0.2783
  236MPD1    H1 3585   0.471   2.430  10.162 -0.0119 -3.2816  0.3325
  236MPD1    H2 3586   0.140   2.652  10.043  0.7049  0.9789  0.7632
  236MPD1    H3 3587   0.372   2.628  10.110 -0.5251  0.9591 -2.3977
  236MPD1     N 3588   0.351   2.183  10.150  0.2845 -0.5003  0.1678
  236MPD1    H5 3589   0.452   2.187  10.166  0.0845  0.2560  1.2480
  236MPD1    N1 3590   4.697   2.456  10.023 -0.1688 -0.1520 -0.1272
  236MPD1    H6 3591   4.697   2.523   9.946  0.1383  1.2306  1.0773
  236MPD1    H7 3592   4.660   2.369   9.986  1.5061 -0.9407  0.0510
  237MPD1     C 3593   0.436   0.622  15.240 -0.9367 -0.3769 -0.4625
  237MPD1    C1 3594   0.470   0.501  15.289 -0.9422  0.1822  0.4669
  237MPD1    C2 3595   0.364   0.405  15.293  0.1857 -0.4975  0.3806
  237MPD1    C3 3596   0.236   0.435  15.250 -0.1028  0.2886  0.4037
  237MPD1    C4 3597   0.206   0.560  15.203 -0.7138 -0.4896  0.2574
  237MPD1    C5 3598   0.311   0.655  15.207 -0.7708 -0.4054 -0.0050
  237MPD1     H 3599   0.390   0.305  15.324  0.3626 -0.0020  1.8511
  237MPD1    H1 3600   0.108   0.586  15.163  0.4565  1.0214 -1.6249
  237MPD1    H2 3601   0.515   0.696  15.235  0.5478 -1.6916  2.7318
  237MPD1    H3 3602   0.283   0.751  15.165 -0.9623 -0.5320 -0.1693
  237MPD1     N 3603   0.131   0.343  15.248 -0.0705  0.4503 -0.4268
  237MPD1    H5 3604   0.042   0.378  15.216 -0.3893 -0.6761 -0.7527
  237MPD1    N1 3605   0.602   0.461  15.311 -0.3529  0.1179 -0.1500
  237MPD1    H6 3606   0.661   0.532  15.352  0.3519  0.1824 -1.2595
  237MPD1    H7 3607   0.602   0.372  15.360  1.3127  0.1713 -0.0808
  238MPD1     C 3608   2.538   3.599  15.354 -0.0893  0.5708  0.1645
  238MPD1    C1 3609   2.431   3.517  15.398  0.5684 -0.5307  0.2461
  238MPD1    C2 3610   2.306   3.556  15.353 -0.0747 -0.2655 -0.1042
  238MPD1    C3 3611   2.283   3.669  15.273  0.7075  0.8137 -0.0076
  238MPD1    C4 3612   2.394   3.728  15.213  0.4463 -0.4260 -0.4840
  238MPD1    C5 3613   2.517   3.705  15.266  0.3280  0.5735 -0.7550
  238MPD1     H 3614   2.219   3.502  15.389 -0.0705 -0.7400 -0.7982
  238MPD1    H1 3615   2.382   3.809  15.142  1.1540 -0.2031 -0.3479
  238MPD1    H2 3616   2.641   3.584  15.385 -0.2678  0.3277  0.6463
  238MPD1    H3 3617   2.597   3.768  15.227  2.2645  0.0812  2.3923
  238MPD1     N 3618   2.154   3.699  15.225 -0.4618  0.3854  0.2094
  238MPD1    H5 3619   2.157   3.759  15.143 -1.0641 -0.1848 -0.2317
  238MPD1    N1 3620   2.437   3.430  15.502 -0.4451  0.5957 -0.7082
  238MPD1    H6 3621   2.364   3.360  15.494  0.6904 -0.6056 -0.6441
  238MPD1    H7 3622   2.524   3.380  15.520  0.3549  1.3487 -2.4422
  239MPD1     C 3623   2.894   4.264  14.532 -0.2317 -0.1168 -0.1602
  239MPD1    C1 3624   2.787   4.277  14.619  0.2619 -0.2996 -0.3393
  239MPD1    C2 3625   2.709   4.381  14.600  0.1258  0.5736 -0.4364
  239MPD1    C3 3626   2.713   4.467  14.491 -0.1896  0.4433  0.1736
  239MPD1    C4 3627   2.825   4.457  14.406  0.0746 -0.1656 -0.1776
  239MPD1    C5 3628   2.918   4.358  14.431 -0.1325  0.0401 -0.0649
  239MPD1     H 3629   2.623   4.395  14.664 -0.1116 -1.2381 -0.3573
  239MPD1    H1 3630   2.858   4.525  14.329 -1.8706  2.6872  1.5073
  239MPD1    H2 3631   2.972   4.190  14.542 -1.3010 -0.9608  1.9605
  239MPD1    H3 3632   2.997   4.347  14.358 -1.6487 -2.1818 -1.3807
  239MPD1     N 3633   2.618   4.576  14.456  0.0488  0.2413 -0.2585
  239MPD1    H5 3634   2.653   4.641  14.387 -1.2497  0.6340 -0.5518
  239MPD1    N1 3635   2.781   4.214  14.746 -0.2267 -0.0603  0.5139
  239MPD1    H6 3636   2.836   4.128  14.756 -1.1884 -0.6388  0.7735
  239MPD1    H7 3637   2.683   4.189  14.751  0.1670 -2.1282 -1.5957
  240MPD1     C 3638   2.122   4.114  14.131 -0.4269  0.5203  0.9486
  240MPD1    C1 3639   2.001   4.164  14.093  0.9929  0.0122  0.3546
  240MPD1    C2 3640   1.899   4.198  14.180  0.6905 -0.3077  0.2832
  240MPD1    C3 3641   1.925   4.177  14.315  0.1120 -0.1290  0.5374
  240MPD1    C4 3642   2.048   4.120  14.362  0.0984 -0.1421  0.2703
  240MPD1    C5 3643   2.143   4.099  14.267  0.0617 -0.0972  0.7121
  240MPD1     H 3644   1.805   4.241  14.146  0.7426 -0.6821 -0.3365
  240MPD1    H1 3645   2.063   4.085  14.463 -0.5305 -0.8106  0.1326
  240MPD1    H2 3646   2.191   4.082  14.054 -1.2324  0.6185  0.1856
  240MPD1    H3 3647   2.222   4.035  14.302 -0.4652 -0.1307  1.8396
  240MPD1     N 3648   1.818   4.205  14.402 -0.6056 -0.9718 -0.6311
  240MPD1    H5 3649   1.734   4.247  14.364  1.3874  1.5437 -2.2335
  240MPD1    N1 3650   1.982   4.193  13.953 -0.4723 -0.3755  0.5307
  240MPD1    H6 3651   2.022   4.123  13.890  1.3456 -0.1963  1.4755
  240MPD1    H7 3652   1.881   4.182  13.943 -0.5030 -1.0302  1.5120
  241MPD1     C 3653   1.981   4.054  15.367 -0.0623  0.2050 -0.4647
  241MPD1    C1 3654   1.850   4.075  15.361  0.3060  0.4147  0.5596
  241MPD1    C2 3655   1.776   4.101  15.249 -0.0296 -0.0283  0.4793
  241MPD1    C3 3656   1.847   4.107  15.129 -0.0328  0.5816  0.5341
  241MPD1    C4 3657   1.981   4.091  15.132  0.3308 -0.3918 -0.5382
  241MPD1    C5 3658   2.044   4.069  15.249  0.2189 -0.8955  0.6284
  241MPD1     H 3659   1.669   4.117  15.258 -0.2711 -1.0819 -0.4826
  241MPD1    H1 3660   2.041   4.077  15.042 -0.1251  1.3001 -1.0988
  241MPD1    H2 3661   2.046   4.044  15.453  0.8065  2.5155 -0.8606
  241MPD1    H3 3662   2.152   4.060  15.253  0.2826  0.2371  1.5814
  241MPD1     N 3663   1.789   4.124  15.001 -0.4704  0.3480  0.2728
  241MPD1    H5 3664   1.851   4.125  14.921 -1.0345  0.1644 -0.1610
  241MPD1    N1 3665   1.785   4.065  15.487 -0.0807  0.0032 -0.4262
  241MPD1    H6 3666   1.694   4.109  15.504 -0.4922 -0.6718 -0.8936
  241MPD1    H7 3667   1.833   4.108  15.566  0.2534  1.1789 -1.2797
  242MPD1     C 3668   1.381   3.345  15.387  0.8223  0.2020 -0.1233
  242MPD1    C1 3669   1.345   3.308  15.268  0.0141 -0.8968  1.2716
  242MPD1    C2 3670   1.323   3.179  15.233 -0.2397 -1.0147  0.1467
  242MPD1    C3 3671   1.357   3.075  15.319 -0.1618 -0.7480 -0.4128
  242MPD1    C4 3672   1.413   3.114  15.440 -1.0101 -0.1649  0.6453
  242MPD1    C5 3673   1.429   3.249  15.470  0.4286 -0.1016  0.4157
  242MPD1     H 3674   1.290   3.158  15.132 -0.9432  0.5739  0.0390
  242MPD1    H1 3675   1.436   3.035  15.510  0.9103  0.3086  0.5586
  242MPD1    H2 3676   1.386   3.450  15.413 -2.4821  0.1635  0.6891
  242MPD1    H3 3677   1.466   3.284  15.566  1.6134  1.6237 -0.6601
  242MPD1     N 3678   1.322   2.940  15.304  0.0651  0.1231 -0.0333
  242MPD1    H5 3679   1.358   2.880  15.378  2.2333 -0.8188 -1.8622
  242MPD1    N1 3680   1.316   3.408  15.181  0.3376 -0.0846 -0.0545
  242MPD1    H6 3681   1.321   3.378  15.084 -0.5256  3.9576 -1.3724
  242MPD1    H7 3682   1.366   3.495  15.198 -0.8534  0.5742  0.0914
  243MPD1     C 3683   2.545   1.012   0.114 -0.2442 -0.3832  0.1738
  243MPD1    C1 3684   2.672   1.043   0.075 -0.2405  0.0989 -0.4273
  243MPD1    C2 3685   2.731   0.955  17.686  0.0443  0.2755  0.6771
  243MPD1    C3 3686   2.683   0.832  17.663  0.5735 -0.8018 -0.4211
  243MPD1    C4 3687   2.555   0.801   0.017 -0.1629 -0.3653 -0.5255
  243MPD1    C5 3688   2.489   0.894   0.090  0.0474  0.2020 -0.8568
  243MPD1     H 3689   2.833   0.965  17.650 -0.7572  0.2926 -1.5304
  243MPD1    H1 3690   2.509   0.706  17.686 -0.0174 -0.9967  1.6894
  243MPD1    H2 3691   2.485   1.089   0.163 -1.1287 -1.7368  1.2058
  243MPD1    H3 3692   2.389   0.874   0.126 -0.0789  2.0087 -0.2338
  243MPD1     N 3693   2.752   0.752  17.568  0.2242  0.1233 -0.4058
  243MPD1    H5 3694   2.847   0.774  17.540 -0.6070 -0.1475 -3.4032
  243MPD1    N1 3695   2.723   1.172   0.098  0.1625  0.0192  0.1458
  243MPD1    H6 3696   2.825   1.167   0.102  0.2520  1.4896 -0.2995
  243MPD1    H7 3697   2.690   1.229   0.176  0.4557  0.1844  0.1495
  244MPD1     C 3698   3.380   4.712  17.474  0.6463  0.2460 -0.1229
  244MPD1    C1 3699   3.390   0.042  17.347  0.7603 -0.5983  0.3355
  244MPD1    C2 3700   3.306   0.144  17.308 -0.0765 -0.3983 -1.0795
  244MPD1    C3 3701   3.227   0.201  17.411 -0.0297  0.3448 -0.2292
  244MPD1    C4 3702   3.213   0.142  17.538  0.6044  0.4634 -0.9026
  244MPD1    C5 3703   3.291   0.035  17.567  0.1295  0.1588 -0.3799
  244MPD1     H 3704   3.311   0.185  17.208 -0.8401 -0.5313 -1.1701
  244MPD1    H1 3705   3.135   0.167  17.608  0.7015  1.0287 -1.0000
  244MPD1    H2 3706   3.452   4.641  17.512  1.5506  1.5284  0.5537
  244MPD1    H3 3707   3.300   4.715  17.666  0.2600  0.0080 -0.4555
  244MPD1     N 3708   3.155   0.320  17.383  0.1827  0.3160 -0.2723
  244MPD1    H5 3709   3.161   0.363  17.291  0.2384  0.5197 -0.1738
  244MPD1    N1 3710   3.505   0.010  17.273  0.2976  0.0855 -0.0881
  244MPD1    H6 3711   3.483   0.005  17.174  3.0828  2.0378 -0.8114
  244MPD1    H7 3712   3.554   4.646  17.294  0.5203  0.0403 -0.7943
  245MPD1     C 3713   0.186   1.585  13.002 -0.3766  0.5998 -0.1955
  245MPD1    C1 3714   0.181   1.572  13.137 -0.3467 -0.5856 -0.2718
  245MPD1    C2 3715   0.230   1.681  13.222 -0.4941  0.3449  0.0779
  245MPD1    C3 3716   0.278   1.796  13.168  1.4589 -0.3298 -0.7073
  245MPD1    C4 3717   0.288   1.809  13.030  0.3600 -0.5247 -0.5073
  245MPD1    C5 3718   0.236   1.708  12.949 -0.6479 -1.0109 -0.9973
  245MPD1     H 3719   0.231   1.668  13.330 -0.0376 -0.6009 -0.0427
  245MPD1    H1 3720   0.323   1.900  12.983  0.7717 -0.1500  0.5323
  245MPD1    H2 3721   0.140   1.518  12.931 -2.3276  0.8307  0.8331
  245MPD1    H3 3722   0.236   1.717  12.841  2.0539  0.1733 -0.8994
  245MPD1     N 3723   0.322   1.900  13.250  0.1205  0.3643 -0.5148
  245MPD1    H5 3724   0.313   1.876  13.348 -3.4139 -0.0539 -0.9504
  245MPD1    N1 3725   0.119   1.466  13.204  0.4439 -0.5449 -0.0074
  245MPD1    H6 3726   0.088   1.395  13.138 -0.8786 -0.2773  0.3185
  245MPD1    H7 3727   0.039   1.491  13.263  0.7420  2.0644 -0.6876
  246MPD1     C 3728   1.241   3.140  10.156  0.3565 -0.0030  0.0248
  246MPD1    C1 3729   1.239   3.264  10.096  0.5384 -0.6239 -0.3037
  246MPD1    C2 3730   1.156   3.289   9.988 -0.6834 -0.0670  0.3695
  246MPD1    C3 3731   1.062   3.198   9.956  0.2063 -0.5528 -0.6540
  246MPD1    C4 3732   1.060   3.080  10.033  0.0124  0.4808  0.1128
  246MPD1    C5 3733   1.159   3.043  10.117 -0.1684  0.1121  0.2020
  246MPD1     H 3734   1.168   3.383   9.937  3.0377 -0.5754  0.2882
  246MPD1    H1 3735   0.984   3.006  10.012 -2.0393  2.0493  1.9992
  246MPD1    H2 3736   1.321   3.118  10.225  0.2536  1.1799  0.5320
  246MPD1    H3 3737   1.172   2.949  10.170  3.5899  0.1712 -0.6010
  246MPD1     N 3738   0.967   3.228   9.847  0.1262 -0.3627 -0.0583
  246MPD1    H5 3739   0.987   3.307   9.786 -0.7381  0.1752  0.3573
  246MPD1    N1 3740   1.345   3.351  10.122  0.6217  0.6958  0.7529
  246MPD1    H6 3741   1.385   3.363  10.215  1.9670  0.9757  0.1368
  246MPD1    H7 3742   1.322   3.443  10.086 -0.9764  0.0792  0.2139
  247MPD1     C 3743   4.430   1.653  17.032  0.0567 -0.1818  0.0137
  247MPD1    C1 3744   4.398   1.530  16.970 -0.7055  0.1634 -1.2478
  247MPD1    C2 3745   4.448   1.510  16.837  0.3084  0.0928 -0.5179
  247MPD1    C3 3746   4.529   1.609  16.784  0.0622  0.5001  0.1455
  247MPD1    C4 3747   4.576   1.714  16.864  0.3478  0.4255 -0.0541
  247MPD1    C5 3748   4.529   1.738  16.986 -0.2553  0.3657  0.0958
  247MPD1     H 3749   4.398   1.439  16.771 -1.1105  1.3509 -0.8016
  247MPD1    H1 3750   4.647   1.784  16.821  0.2154  0.9405  0.5673
  247MPD1    H2 3751   4.396   1.684  17.131 -0.3565 -0.9666  0.1201
  247MPD1    H3 3752   4.554   1.833  17.030  0.5996  0.3652 -0.3897
  247MPD1     N 3753   4.578   1.613  16.644 -0.5190 -0.0567 -0.4300
  247MPD1    H5 3754   4.630   1.697  16.619 -2.0837  1.3950  1.1162
  247MPD1    N1 3755   4.287   1.450  17.021 -0.5126  0.4953 -0.4925
  247MPD1    H6 3756   4.290   1.462  17.122 -0.2078 -0.7428 -0.3593
  247MPD1    H7 3757   4.289   1.352  16.994  0.1079  0.1593  0.7544
  248MPD1     C 3758   0.931   1.820  17.589  0.0936 -0.5175  0.1768
  248MPD1    C1 3759   0.890   1.946  17.636 -0.2905 -0.3946 -0.0846
  248MPD1    C2 3760   0.817   1.947   0.059 -0.3693 -0.0816  0.1251
  248MPD1    C3 3761   0.759   1.830   0.110 -0.4177  0.2703  0.9127
  248MPD1    C4 3762   0.777   1.713   0.038  0.0809  0.1883  0.0415
  248MPD1    C5 3763   0.870   1.703  17.633  0.6058  0.4885  0.2408
  248MPD1     H 3764   0.801   2.046   0.101  1.6485  0.0697  0.5260
  248MPD1    H1 3765   0.729   1.618   0.058  3.6868 -1.4626  0.8791
  248MPD1    H2 3766   1.002   1.811  17.507 -0.7792 -4.4298 -0.1112
  248MPD1    H3 3767   0.881   1.608  17.583 -1.7005 -0.4937  1.6301
  248MPD1     N 3768   0.695   1.847   0.232 -0.0711  0.5406 -0.5714
  248MPD1    H5 3769   0.690   1.936   0.280  0.1050  0.6589 -0.7765
  248MPD1    N1 3770   0.944   2.065  17.587  0.0048  0.4771 -0.0610
  248MPD1    H6 3771   0.968   2.069  17.488  1.0380  0.7948  0.1935
  248MPD1    H7 3772   0.896   2.150  17.615 -0.4025  0.7962 -1.7299
  249MPD1     C 3773   1.510   4.471  10.842 -0.3397  0.6739 -0.4053
  249MPD1    C1 3774   1.516   4.607  10.835 -0.2277  0.2671  0.2180
  249MPD1    C2 3775   1.428   4.670  10.751 -0.2360 -0.4348 -0.1974
  249MPD1    C3 3776   1.342   4.602  10.667 -1.1248  0.2624  0.1723
  249MPD1    C4 3777   1.336   4.467  10.671 -0.1496  1.1436 -0.4322
  249MPD1    C5 3778   1.418   4.408  10.763 -0.2162 -0.6013  0.2666
  249MPD1     H 3779   1.440   0.055  10.756  0.6378 -0.5437  0.0898
  249MPD1    H1 3780   1.268   4.414  10.605  0.7200 -0.8403  0.2614
  249MPD1    H2 3781   1.565   4.424  10.922 -0.2800  2.2787  0.5113
  249MPD1    H3 3782   1.421   4.300  10.768  0.0486 -0.5925  0.2907
  249MPD1     N 3783   1.261   4.683  10.589 -0.6542 -0.1214  0.3604
  249MPD1    H5 3784   1.275   0.061  10.598  1.8913 -0.4070 -0.2085
  249MPD1    N1 3785   1.604   4.689  10.922  0.5774 -0.0811 -0.0769
  249MPD1    H6 3786   1.625   0.052  10.870 -1.6112  1.7594  2.0783
  249MPD1    H7 3787   1.696   4.651  10.940  0.4776 -0.2155  0.1466
  250MPD2     C 3788   2.571   0.242  13.451  0.8703  0.2485  0.1703
  250MPD2    C1 3789   2.546   0.303  13.333 -0.3385  1.5286  0.4879
  250MPD2    C2 3790   2.449   0.245  13.258 -0.8640  0.2260 -0.3303
  250MPD2    C3 3791   2.388   0.120  13.301  0.0589  0.8346 -0.2809
  250MPD2    C4 3792   2.426   0.049  13.407  0.0461  0.0752  0.9067
  250MPD2    C5 3793   2.519   0.116  13.486 -0.1434 -0.3050  0.3330
  250MPD2     H 3794   2.425   0.288  13.162  0.2429  2.8553  0.5646
  250MPD2    H1 3795   2.377   4.680  13.439 -0.9934  0.4091  0.2461
  250MPD2    H2 3796   2.646   0.286  13.515  1.6738  1.9228 -1.9331
  250MPD2    H3 3797   2.554   0.061  13.573 -3.1832 -0.8505  1.2043
  250MPD2     N 3798   2.281   0.058  13.229 -0.2228  0.2239  0.1058
  250MPD2    H5 3799   2.244   4.690  13.255 -1.9285  1.1373  0.8684
  250MPD2    N1 3800   2.612   0.423  13.312  0.5438 -0.7182 -0.2393
  250MPD2    H7 3801   2.676   0.446  13.388 -0.8689 -0.2490  0.7996
  251TMC3    C1 3802   2.689   0.609  13.190  0.2175 -0.0232  0.1464
  251TMC3    C2 3803   2.640   0.720  13.124  0.2943  0.3118  0.4804
  251TMC3    C3 3804   2.734   0.812  13.082 -0.0370 -0.3750  0.3006
  251TMC3    C4 3805   2.821   0.574  13.194  0.0955  0.2926 -0.5759
  251TMC3    C5 3806   2.905   0.657  13.123  1.0649 -0.0480  0.0408
  251TMC3    C6 3807   2.872   0.783  13.082  0.5781 -0.4592 -0.0174
  251TMC3     C 3808   2.596   0.498  13.197 -0.1040 -0.6262  0.8009
  251TMC3     O 3809   2.504   0.506  13.118  0.1246 -0.0027 -1.3095
  251TMC3     H 3810   2.536   0.747  13.138  0.3429  1.5651 -1.6378
  251TMC3    H1 3811   2.851   0.475  13.225 -0.6106  0.2689  0.0350
  251TMC3    H2 3812   2.934   0.844  13.017 -0.3189  0.2212 -0.2436
  251TMC3    C7 3813   3.013   0.589  13.056  0.0287  0.1131  0.3830
  251TMC3    C8 3814   2.683   0.941  13.055 -0.3363 -0.2215 -0.4437
  251TMC3    O1 3815   2.983   0.475  13.025  0.1204  0.4467 -0.3900
  251TMC3    O2 3816   2.565   0.951  13.008  0.1660  0.1623  0.2107
  252TMC3    C1 3817   2.851   1.865   9.813 -0.2767  0.0716  0.0899
  252TMC3    C2 3818   2.970   1.933   9.783 -0.4216  0.4629 -0.1590
  252TMC3    C3 3819   3.070   1.929   9.873 -0.3704  0.6607 -0.6176
  252TMC3    C4 3820   2.848   1.772   9.911 -0.5368 -0.2459  1.0572
  252TMC3    C5 3821   2.962   1.761   9.992 -0.0275 -0.1977 -0.0793
  252TMC3    C6 3822   3.073   1.837   9.972  0.2195  0.2833 -0.6117
  252TMC3     C 3823   2.770   1.822   9.702  0.0119  0.3953  0.5669
  252TMC3     O 3824   2.657   1.778   9.729 -0.5913  0.0827 -0.1629
  252TMC3     H 3825   2.978   1.980   9.686 -1.5907  1.5437  0.2707
  252TMC3    H1 3826   2.758   1.717   9.933 -1.2363 -0.0479 -1.3219
  252TMC3    H2 3827   3.169   1.821  10.020  0.4214 -0.8655 -1.4018
  252TMC3    C7 3828   2.962   1.685  10.117  0.3340  0.6543 -0.0446
  252TMC3    C8 3829   3.173   2.029   9.869  0.2799 -0.2595 -0.2311
  252TMC3    O1 3830   3.036   1.723  10.209 -0.2424  0.2830  0.2969
  252TMC3    O2 3831   3.183   2.093   9.766 -0.4933 -0.4427 -0.1732
  253MPD2     C 3832   4.581   0.187  15.689  0.3661 -0.4836  0.6535
  253MPD2    C1 3833   4.460   0.131  15.674  0.4177 -0.7515  0.5375
  253MPD2    C2 3834   4.421   0.025  15.756 -0.2890 -0.0688 -0.2942
  253MPD2    C3 3835   4.508   4.705  15.852  0.2753  0.0438 -0.7748
  253MPD2    C4 3836   4.634   0.037  15.863 -0.9024  0.5685  0.9854
  253MPD2    C5 3837   4.671   0.142  15.772  0.3011  0.1552  0.1095
  253MPD2     H 3838   4.319   4.713  15.743 -0.4452 -0.5922  2.3416
  253MPD2    H1 3839   4.713   4.720  15.925 -0.7075  0.5123  0.6999
  253MPD2    H2 3840   4.616   0.268  15.626 -1.8005 -1.0488 -1.2835
  253MPD2    H3 3841   0.043   0.192  15.789 -0.4378  1.5251  0.1857
  253MPD2     N 3842   4.470   4.611  15.951  0.3641  0.5135 -0.6121
  253MPD2    H5 3843   4.537   4.601  16.027 -0.8870 -0.2696  0.3886
  253MPD2    N1 3844   4.361   0.175  15.583 -0.5161 -0.0573  0.9128
  253MPD2    H7 3845   4.266   0.145  15.600 -1.2289  0.4835 -2.1072
  254TMC3    C1 3846   4.311   4.507  16.094 -0.3319  0.1311  0.3746
  254TMC3    C2 3847   4.180   4.527  16.117 -0.4918  0.2314  0.2266
  254TMC3    C3 3848   4.139   4.589  16.231 -0.7616  0.2767 -0.2667
  254TMC3    C4 3849   4.405   4.513  16.191 -0.6935 -0.5682  0.0047
  254TMC3    C5 3850   4.363   4.578  16.306  0.7850  0.5545  0.3219
  254TMC3    C6 3851   4.231   4.624  16.325  0.7401 -0.4821 -0.0234
  254TMC3     C 3852   4.342   4.552  15.960 -0.0766  0.8611  0.3230
  254TMC3     O 3853   4.249   4.558  15.877 -0.3352  0.3854  0.0854
  254TMC3     H 3854   4.104   4.511  16.042 -0.4654 -0.4209  0.3455
  254TMC3    H1 3855   4.510   4.502  16.167 -0.2386 -0.3539  1.9101
  254TMC3    H2 3856   4.192   4.664  16.418 -1.5546 -1.2822 -0.6483
  254TMC3    C7 3857   4.446   4.608  16.420  0.6123  0.4766  0.2570
  254TMC3    C8 3858   4.009   4.654  16.230  0.0910  0.3605  0.3311
  254TMC3    O1 3859   4.408   4.695  16.499 -0.7021  0.5853  0.1008
  254TMC3    O2 3860   3.930   4.610  16.152  0.0879 -0.6434 -0.4536
  255MPD2     C 3861   2.571   2.710   9.789 -0.3010 -0.9104 -0.2214
  255MPD2    C1 3862   2.630   2.824   9.847  0.4420  0.5941  0.3750
  255MPD2    C2 3863   2.727   2.888   9.772 -0.4420  0.2287  0.9685
  255MPD2    C3 3864   2.747   2.850   9.639 -0.4638 -0.1818 -0.2400
  255MPD2    C4 3865   2.681   2.742   9.588  0.1104  1.1891  0.0535
  255MPD2    C5 3866   2.594   2.670   9.664 -0.1941 -0.1569  0.3026
  255MPD2     H 3867   2.777   2.974   9.814  1.7594 -0.1148 -0.9649
  255MPD2    H1 3868   2.694   2.709   9.486 -0.4502  2.4358 -0.4167
  255MPD2    H2 3869   2.510   2.643   9.849 -1.7872 -0.1048 -0.8585
  255MPD2    H3 3870   2.552   2.578   9.625  0.2664 -0.4407  0.4834
  255MPD2     N 3871   2.822   2.938   9.558 -0.2191  0.7972  0.4720
  255MPD2    H5 3872   2.866   3.016   9.606 -0.2089 -0.0877  1.9039
  255MPD2    N1 3873   2.592   2.864   9.977  0.0056 -0.1822  0.7464
  255MPD2    H7 3874   2.510   2.821  10.019  0.3690 -1.2137  0.4147
  256TMC3    C1 3875   2.540   3.023  10.134  0.1944 -0.1583  0.3700
  256TMC3    C2 3876   2.575   3.137  10.195  0.4228  0.8179 -0.2841
  256TMC3    C3 3877   2.473   3.225  10.221  0.3305 -0.3352  0.9903
  256TMC3    C4 3878   2.407   2.985  10.122 -0.0456  0.5715  0.0012
  256TMC3    C5 3879   2.314   3.075  10.166 -0.3091  0.1309 -0.3491
  256TMC3    C6 3880   2.340   3.192  10.221  0.3715 -0.0482  0.3564
  256TMC3     C 3881   2.628   2.983  10.034 -0.5541  0.2952 -0.1411
  256TMC3     O 3882   2.722   3.059  10.010  0.6406  0.3988 -0.7649
  256TMC3     H 3883   2.676   3.173  10.209  0.1096  1.0562  1.3540
  256TMC3    H1 3884   2.381   2.904  10.054 -1.0300  2.4624 -1.8643
  256TMC3    H2 3885   2.262   3.264  10.242  1.3677  1.1203  0.0489
  256TMC3    C7 3886   2.184   3.058  10.099 -1.0338 -0.4184 -0.9242
  256TMC3    C8 3887   2.506   3.360  10.184  0.4157  0.6818 -0.1084
  256TMC3    O1 3888   2.147   3.150  10.028  0.4436 -0.5743  0.6839
  256TMC3    O2 3889   2.622   3.400  10.211 -0.0056 -0.2905  0.3895
  257MPD2     C 3890   1.777   0.730  13.324  0.3954 -0.2015 -1.3380
  257MPD2    C1 3891   1.725   0.623  13.256  0.1183  0.0288 -0.8073
  257MPD2    C2 3892   1.681   0.515  13.347 -0.0729 -0.1286 -0.2653
  257MPD2    C3 3893   1.702   0.525  13.478  0.3471  0.1987 -0.0678
  257MPD2    C4 3894   1.763   0.635  13.540  0.7368  0.0655 -0.0735
  257MPD2    C5 3895   1.794   0.740  13.460  0.6795 -0.1032 -0.4414
  257MPD2     H 3896   1.629   0.428  13.308 -0.1658 -0.4337  0.5510
  257MPD2    H1 3897   1.798   0.641  13.643  0.5668  0.2670 -0.0278
  257MPD2    H2 3898   1.800   0.818  13.264  1.2661  0.9179  0.6496
  257MPD2    H3 3899   1.837   0.829  13.505  2.5633 -0.4936 -1.4469
  257MPD2     N 3900   1.696   0.401  13.542  0.0292  0.2412  0.2901
  257MPD2    H5 3901   1.645   0.325  13.498 -0.0735  0.0119  0.8056
  257MPD2    N1 3902   1.711   0.620  13.120 -0.1014  1.1384 -0.4204
  257MPD2    H7 3903   1.753   0.698  13.069 -1.3365  2.3901  0.4868
  258TMC3    C1 3904   1.746   0.228  13.692 -0.1406  0.0386 -0.0648
  258TMC3    C2 3905   1.768   0.133  13.597  0.5387 -0.6891  0.2798
  258TMC3    C3 3906   1.835   0.017  13.622 -0.0397 -0.7079 -0.2358
  258TMC3    C4 3907   1.794   0.205  13.820 -0.2888 -0.3328  0.4913
  258TMC3    C5 3908   1.864   0.087  13.846  0.6153 -0.9586  0.5183
  258TMC3    C6 3909   1.868   4.709  13.752  0.1269  0.4741 -0.4804
  258TMC3     C 3910   1.751   0.373  13.663 -0.1580 -0.4803 -0.3622
  258TMC3     O 3911   1.826   0.430  13.739 -0.9519  0.1007 -0.5124
  258TMC3     H 3912   1.758   0.164  13.494 -0.9274 -2.8543 -0.2224
  258TMC3    H1 3913   1.770   0.279  13.895  0.6235 -1.9937  2.4464
  258TMC3    H2 3914   1.915   4.614  13.774  0.5698  0.6516 -0.6734
  258TMC3    C7 3915   1.876   0.051  13.988  0.0089 -0.1092  0.8768
  258TMC3    C8 3916   1.835   4.647  13.504  0.0561  0.9736  0.3469
  258TMC3    O1 3917   1.813   0.120  14.066 -0.3798  0.4085 -0.2431
  258TMC3    O2 3918   1.771   4.690  13.408 -0.2067 -0.4652 -0.0201
  259MPD2     C 3919   1.065   2.049   0.976 -0.6140 -0.1242  0.1119
  259MPD2    C1 3920   1.129   1.941   1.020  0.9046  0.1301 -0.2837
  259MPD2    C2 3921   1.206   1.872   0.927 -0.0631  0.1507  0.2662
  259MPD2    C3 3922   1.213   1.908   0.794  0.1944  1.0078  0.1971
  259MPD2    C4 3923   1.158   2.023   0.760 -1.0446 -0.8444 -0.4155
  259MPD2    C5 3924   1.090   2.100   0.848 -0.0214 -0.6206  0.1767
  259MPD2     H 3925   1.263   1.784   0.954 -0.6398  0.1028  1.2802
  259MPD2    H1 3926   1.177   2.066   0.662 -1.1978 -0.0302 -0.0826
  259MPD2    H2 3927   1.003   2.106   1.045  0.2183 -0.0135  0.7665
  259MPD2    H3 3928   1.049   2.194   0.812  0.1588 -0.4506  0.4221
  259MPD2     N 3929   1.280   1.815   0.711 -0.2646 -0.8699 -0.0010
  259MPD2    H5 3930   1.308   1.732   0.763  2.3800 -0.1424 -0.2443
  259MPD2    N1 3931   1.107   1.912   1.154 -0.5431 -0.4935 -0.6984
  259MPD2    H7 3932   1.047   1.970   1.212  0.6191  0.6011 -0.5927
  260TMC3    C1 3933   1.421   1.738   0.524 -0.0350 -0.1910  0.2416
  260TMC3    C2 3934   1.455   1.760   0.396  0.1561  0.1052 -0.5708
  260TMC3    C3 3935   1.567   1.700   0.343  0.0724 -0.1770  0.4224
  260TMC3    C4 3936   1.499   1.667   0.606 -0.4151 -0.4659  0.3416
  260TMC3    C5 3937   1.621   1.619   0.562 -0.0790  0.4655 -0.0564
  260TMC3    C6 3938   1.654   1.636   0.431  0.2235  0.2368 -0.0699
  260TMC3     C 3939   1.320   1.832   0.579 -0.9840  0.2530  0.2331
  260TMC3     O 3940   1.276   1.922   0.506 -0.1657 -0.0913  0.2802
  260TMC3     H 3941   1.382   1.813   0.335  0.5126  1.4234  0.1359
  260TMC3    H1 3942   1.456   1.630   0.699  0.4047  0.7629  1.2251
  260TMC3    H2 3943   1.738   1.580   0.393  1.6283  2.8824 -0.8682
  260TMC3    C7 3944   1.652   1.483   0.604  0.3528 -0.1522 -0.1604
  260TMC3    C8 3945   1.546   1.628   0.224  0.4752  0.1502 -0.2184
  260TMC3    O1 3946   1.662   1.403   0.514 -0.1906  0.0423  0.3164
  260TMC3    O2 3947   1.519   1.672   0.116  0.2332  0.0439 -0.3626
  261MPD2     C 3948   2.111   0.048  12.445 -0.2876  0.1083 -0.2281
  261MPD2    C1 3949   2.179   0.090  12.564  0.1748  0.3373 -0.3391
  261MPD2    C2 3950   2.260   0.203  12.549  0.0118 -0.1003 -0.7687
  261MPD2    C3 3951   2.280   0.258  12.421  0.2026  0.1252 -0.1241
  261MPD2    C4 3952   2.202   0.226  12.312  0.0103 -1.1602 -0.1046
  261MPD2    C5 3953   2.116   0.122  12.324 -0.1898  0.7489  0.5704
  261MPD2     H 3954   2.318   0.240  12.633 -0.1741  1.1612 -1.1950
  261MPD2    H1 3955   2.205   0.270  12.213 -0.8407 -2.5913 -0.7737
  261MPD2    H2 3956   2.047   4.683  12.445  0.4870 -0.4506 -0.2456
  261MPD2    H3 3957   2.067   0.085  12.234 -0.1247 -0.4032  1.0101
  261MPD2     N 3958   2.380   0.361  12.393  0.1823  0.0546 -0.5167
  261MPD2    H5 3959   2.375   0.408  12.303  0.6394  1.9397  0.4660
  261MPD2    N1 3960   2.149   0.048  12.696  0.3497 -0.7582 -1.0369
  261MPD2    H7 3961   2.159   0.118  12.768 -0.0104 -1.9241  0.1382
  262TMC3    C1 3962   2.508   0.541  12.451  0.2226  0.5292  0.8576
  262TMC3    C2 3963   2.419   0.637  12.417  0.2579 -0.3429  0.0395
  262TMC3    C3 3964   2.473   0.758  12.376  0.4631  0.5492  0.3508
  262TMC3    C4 3965   2.645   0.562  12.461  0.5483 -0.1734 -0.3727
  262TMC3    C5 3966   2.689   0.673  12.398 -0.0680 -0.9494  0.5004
  262TMC3    C6 3967   2.608   0.782  12.370 -0.1852 -0.5123  0.0194
  262TMC3     C 3968   2.456   0.415  12.491  0.1589 -0.0408 -0.2761
  262TMC3     O 3969   2.499   0.379  12.602 -0.2437 -0.0804  0.3841
  262TMC3     H 3970   2.314   0.620  12.440  0.8788 -1.4027  2.1012
  262TMC3    H1 3971   2.710   0.477  12.478  0.5415 -0.1062 -0.0083
  262TMC3    H2 3972   2.656   0.866  12.320 -1.2635  0.0212 -0.1141
  262TMC3    C7 3973   2.773   0.629  12.287  0.5449 -0.2395  0.3447
  262TMC3    C8 3974   2.394   0.825  12.278  0.2876 -0.2024 -0.4893
  262TMC3    O1 3975   2.852   0.533  12.301 -0.2219 -0.6052 -0.1358
  262TMC3    O2 3976   2.465   0.889  12.203 -0.0010  1.0798 -0.0235
  263MPD2     C 3977   3.221   4.472  11.931 -0.2679  0.1533  0.0739
  263MPD2    C1 3978   3.306   4.443  11.830  0.4817 -0.2187  0.8812
  263MPD2    C2 3979   3.266   4.464  11.698 -0.0294 -0.1588  0.5338
  263MPD2    C3 3980   3.152   4.530  11.670  0.0802 -0.2136 -0.1633
  263MPD2    C4 3981   3.067   4.568  11.775  0.1309 -0.2592  0.1043
  263MPD2    C5 3982   3.099   4.533  11.906 -0.3758  0.3667 -0.1386
  263MPD2     H 3983   3.325   4.447  11.609 -1.8131  0.5302 -0.7712
  263MPD2    H1 3984   2.974   4.618  11.749 -0.7850 -2.8605 -1.7025
  263MPD2    H2 3985   3.253   4.447  12.032 -0.7220 -1.8321 -0.2720
  263MPD2    H3 3986   3.038   4.561  11.991  1.0825  0.2802  0.9434
  263MPD2     N 3987   3.126   4.553  11.542 -0.4696  1.0280 -0.4003
  263MPD2    H5 3988   3.192   4.516  11.474 -0.0844  1.5088 -0.2888
  263MPD2    N1 3989   3.433   4.388  11.862 -0.4862  0.7344  0.8472
  263MPD2    H7 3990   3.449   4.367  11.960  4.0808  0.1468  0.0011
  264TMC3    C1 3991   3.046   4.646  11.349 -0.0438 -0.4166 -0.1297
  264TMC3    C2 3992   3.067   0.056  11.311 -0.3297 -0.3103  0.7106
  264TMC3    C3 3993   3.143   0.069  11.204 -0.5329  0.8043  0.0680
  264TMC3    C4 3994   3.101   4.540  11.281 -0.5934 -0.2701 -0.1704
  264TMC3    C5 3995   3.174   4.562  11.171 -0.0239 -0.8784 -0.5793
  264TMC3    C6 3996   3.190   4.692  11.122 -0.5718 -0.2853  0.0935
  264TMC3     C 3997   3.029   4.636  11.489  0.3964 -0.1503  0.1319
  264TMC3     O 3998   2.949   4.713  11.543  0.4935 -0.0983 -0.2010
  264TMC3     H 3999   3.048   0.133  11.384  2.6219 -0.1349  1.3197
  264TMC3    H1 4000   3.086   4.439  11.318  3.0081 -0.8129 -0.2190
  264TMC3    H2 4001   3.234   4.715  11.025 -1.6883  0.0505 -0.3428
  264TMC3    C7 4002   3.238   4.445  11.119 -0.0826  0.3028 -0.2405
  264TMC3    C8 4003   3.193   0.203  11.175  0.6414  0.0583 -0.4042
  264TMC3    O1 4004   3.203   4.340  11.162  0.3146 -0.2038  0.1871
  264TMC3    O2 4005   3.308   0.213  11.127  0.3389  0.2047  0.4653
  265MPD2     C 4006   1.403   0.404  15.600  0.2712 -0.4047  0.6951
  265MPD2    C1 4007   1.276   0.382  15.550 -0.3385 -0.4298  0.1329
  265MPD2    C2 4008   1.270   0.313  15.430 -0.1634 -0.0006 -0.5549
  265MPD2    C3 4009   1.382   0.285  15.355  0.8275 -0.0171  0.2490
  265MPD2    C4 4010   1.504   0.330  15.403 -0.0702  0.1664  0.0660
  265MPD2    C5 4011   1.513   0.385  15.530 -1.0130  0.4881 -0.4698
  265MPD2     H 4012   1.169   0.292  15.396 -0.9494  4.1014 -0.8515
  265MPD2    H1 4013   1.599   0.320  15.353  0.3039  1.0634  0.5992
  265MPD2    H2 4014   1.413   0.453  15.697  0.1121 -1.0649  1.0446
  265MPD2    H3 4015   1.610   0.416  15.567 -1.1517  0.2066  0.1409
  265MPD2     N 4016   1.390   0.202  15.236  0.3788  0.4206 -1.0896
  265MPD2    H5 4017   1.482   0.193  15.194  0.1947 -2.4520 -0.8662
  265MPD2    N1 4018   1.157   0.418  15.618  0.6651 -0.3394 -0.7653
  265MPD2    H7 4019   1.071   0.383  15.579  1.1425 -0.3745 -1.7924
  266TMC3    C1 4020   1.032   0.516  15.790  0.2295 -1.2081 -1.2562
  266TMC3    C2 4021   1.036   0.515  15.926  0.3155 -0.5945 -0.3663
  266TMC3    C3 4022   0.937   0.584  15.994 -0.1284 -0.7836 -0.0122
  266TMC3    C4 4023   0.931   0.572  15.713 -0.0165  0.6705  0.0321
  266TMC3    C5 4024   0.832   0.634  15.788 -0.2128 -0.5154  0.3596
  266TMC3    C6 4025   0.832   0.638  15.927  0.1987  0.7043 -0.1160
  266TMC3     C 4026   1.154   0.491  15.728 -0.1502  0.5152  0.4408
  266TMC3     O 4027   1.247   0.534  15.798 -0.2160  0.5853 -0.9200
  266TMC3     H 4028   1.120   0.488  15.989 -0.2928 -0.6279  0.4258
  266TMC3    H1 4029   0.921   0.572  15.605  0.0541 -2.2327  0.0426
  266TMC3    H2 4030   0.738   0.664  15.974 -0.4994  0.0774 -1.1588
  266TMC3    C7 4031   0.706   0.642  15.716 -0.4904 -0.5628 -0.4891
  266TMC3    C8 4032   0.919   0.541  16.129 -0.3496  0.6292  0.1622
  266TMC3    O1 4033   0.687   0.560  15.629 -0.3365  0.3983  0.3013
  266TMC3    O2 4034   0.953   0.427  16.152  0.3323  0.1222 -0.0731
  267MPD2     C 4035   3.768   1.203  17.276  0.3815 -0.2957  0.1419
  267MPD2    C1 4036   3.687   1.307  17.329  0.4534 -0.0798  0.3394
  267MPD2    C2 4037   3.583   1.350  17.242  0.2664 -0.3161  0.6433
  267MPD2    C3 4038   3.572   1.307  17.108  0.0065 -0.1730  0.1170
  267MPD2    C4 4039   3.660   1.218  17.058  0.0113  0.2359  1.0718
  267MPD2    C5 4040   3.752   1.160  17.148 -0.5070 -0.0444 -0.2456
  267MPD2     H 4041   3.506   1.410  17.290 -0.8216 -0.5096 -0.8859
  267MPD2    H1 4042   3.642   1.175  16.961 -0.8284 -0.9881  1.7786
  267MPD2    H2 4043   3.848   1.159  17.334  1.5141  1.3165 -0.2002
  267MPD2    H3 4044   3.803   1.069  17.121  3.0442  2.5323 -2.2579
  267MPD2     N 4045   3.468   1.345  17.018  0.3352  0.5705 -0.5241
  267MPD2    H5 4046   3.468   1.318  16.920  1.0375 -1.8465  0.1280
  267MPD2    N1 4047   3.705   1.345  17.462  0.5906  0.0479  0.2581
  267MPD2    H7 4048   3.786   1.301  17.503  0.2169 -2.6649 -1.9264
  268TMC3    C1 4049   3.675   1.459  17.666 -0.4908 -0.0030  0.3858
  268TMC3    C2 4050   3.650   1.585   0.016 -0.2956 -0.0121  0.1626
  268TMC3    C3 4051   3.626   1.602   0.152 -1.0628  0.1918  0.4506
  268TMC3    C4 4052   3.705   1.355   0.053  0.2957 -0.4639  0.0522
  268TMC3    C5 4053   3.706   1.380   0.188  0.7081  0.2598  0.1014
  268TMC3    C6 4054   3.663   1.502   0.238  0.1728 -0.0322  0.1295
  268TMC3     C 4055   3.639   1.444  17.528 -0.0772 -0.0710 -0.7778
  268TMC3     O 4056   3.563   1.530  17.483 -0.9635 -0.0597 -0.1924
  268TMC3     H 4057   3.644   1.662  17.634  1.8034  0.4389  0.4717
  268TMC3    H1 4058   3.707   1.256   0.010  1.5832 -0.1527 -0.5922
  268TMC3    H2 4059   3.662   1.525   0.344 -0.9193 -0.3232  0.1750
  268TMC3    C7 4060   3.761   1.285   0.287 -0.1957 -0.4714  0.4550
  268TMC3    C8 4061   3.610   1.740   0.202 -0.1958  0.2904  0.0991
  268TMC3    O1 4062   3.747   1.314   0.404  0.3356 -0.0060 -0.0507
  268TMC3    O2 4063   3.631   1.753   0.324 -0.4342 -0.5928 -0.1867
  269MPD2     C 4064   3.545   0.276  15.813  0.1478  0.3668  0.3556
  269MPD2    C1 4065   3.414   0.302  15.787 -0.2923  0.6717  0.1131
  269MPD2    C2 4066   3.376   0.436  15.760 -0.1413  0.1416  0.1950
  269MPD2    C3 4067   3.463   0.545  15.776  0.2977 -0.0843  0.2017
  269MPD2    C4 4068   3.594   0.515  15.821 -0.0546 -0.1991 -0.0887
  269MPD2    C5 4069   3.631   0.382  15.830 -0.2177  0.2767 -0.3177
  269MPD2     H 4070   3.274   0.459  15.730 -0.3035 -1.0217 -0.1471
  269MPD2    H1 4071   3.674   0.583  15.845  0.8668 -0.2466 -3.0265
  269MPD2    H2 4072   3.586   0.176  15.826 -1.1822 -0.2114  0.1194
  269MPD2    H3 4073   3.732   0.368  15.867 -0.9893  0.1653  1.7535
  269MPD2     N 4074   3.417   0.678  15.771 -0.2246  0.1139 -0.3687
  269MPD2    H5 4075   3.319   0.684  15.742  0.1519 -1.1172 -1.9196
  269MPD2    N1 4076   3.325   0.195  15.794 -0.0547 -0.1344  0.0082
  269MPD2    H7 4077   3.371   0.105  15.810  1.6658  0.9634  1.2510
  270TMC3    C1 4078   3.154   0.055  15.733  0.0183  0.1307  0.4902
  270TMC3    C2 4079   3.027   0.043  15.684  0.1448  0.7034  0.3146
  270TMC3    C3 4080   2.987   4.646  15.625 -0.0434  0.6263 -0.2602
  270TMC3    C4 4081   3.242   4.676  15.718  0.5124  0.4563 -0.3481
  270TMC3    C5 4082   3.195   4.560  15.654 -0.9309  0.4972  0.2689
  270TMC3    C6 4083   3.065   4.535  15.621 -0.1114  0.6798  1.1555
  270TMC3     C 4084   3.194   0.193  15.749 -0.3566  0.5149  0.9517
  270TMC3     O 4085   3.113   0.282  15.731 -0.2554 -0.2806 -0.2475
  270TMC3     H 4086   2.961   0.130  15.684 -0.7701  0.0081  1.3196
  270TMC3    H1 4087   3.347   4.686  15.740  0.1342  0.9220  1.2918
  270TMC3    H2 4088   3.020   4.453  15.566  0.4453  2.0185 -1.2895
  270TMC3    C7 4089   3.302   4.482  15.596 -0.6124  0.2134 -0.5597
  270TMC3    C8 4090   2.885   4.640  15.532  0.7365  0.1618  0.5494
  270TMC3    O1 4091   3.410   4.462  15.650  0.3803 -0.4956  0.7801
  270TMC3    O2 4092   2.787   4.570  15.555  0.0981  0.0388  0.0416
  271MPD2     C 4093   2.577   0.317  13.876 -0.1322  0.0865  0.0823
  271MPD2    C1 4094   2.602   0.402  13.981  0.3838  0.1232 -0.1919
  271MPD2    C2 4095   2.511   0.496  14.017 -0.1649  0.1570 -0.3565
  271MPD2    C3 4096   2.398   0.521  13.943 -0.0705 -0.3441  0.0500
  271MPD2    C4 4097   2.386   0.449  13.827 -0.8762 -0.0380 -0.1633
  271MPD2    C5 4098   2.463   0.340  13.801  0.1477  0.1041  1.1669
  271MPD2     H 4099   2.546   0.551  14.104 -0.5107 -2.2715  1.3195
  271MPD2    H1 4100   2.309   0.471  13.754 -0.0756  0.9436 -0.7027
  271MPD2    H2 4101   2.641   0.239  13.838 -0.8297 -0.0206 -0.8680
  271MPD2    H3 4102   2.441   0.286  13.709  1.1638  1.4535  0.1402
  271MPD2     N 4103   2.292   0.607  13.977  0.7014  0.3187  0.3236
  271MPD2    H5 4104   2.225   0.615  13.901  2.3301 -0.0627 -1.1369
  271MPD2    N1 4105   2.722   0.377  14.055  0.2097 -0.0872 -0.2142
  271MPD2    H7 4106   2.723   0.428  14.142  3.5578  0.0859 -0.3511
  272TMC3    C1 4107   2.897   0.263  14.149  0.4407 -0.2518  0.6897
  272TMC3    C2 4108   3.033   0.251  14.131 -0.4073  0.3194  0.9433
  272TMC3    C3 4109   3.114   0.235  14.246  0.9948  0.4500  0.1065
  272TMC3    C4 4110   2.841   0.267  14.265  0.6145  0.1077 -0.0306
  272TMC3    C5 4111   2.919   0.252  14.375  0.1438  0.3146  0.2152
  272TMC3    C6 4112   3.052   0.232  14.366  1.0258 -0.2771 -0.0597
  272TMC3     C 4113   2.818   0.283  14.030  0.0673 -0.6059  0.7030
  272TMC3     O 4114   2.848   0.219  13.930 -0.2388 -0.3638 -0.1984
  272TMC3     H 4115   3.080   0.233  14.036  1.8666  2.5757  1.6487
  272TMC3    H1 4116   2.734   0.273  14.281  0.8243 -1.7656  2.1046
  272TMC3    H2 4117   3.106   0.215  14.458  1.7353 -1.1990 -0.6482
  272TMC3    C7 4118   2.847   0.192  14.485 -0.5853 -0.0699  0.3139
  272TMC3    C8 4119   3.227   0.151  14.223 -0.0600  0.1574  0.3964
  272TMC3    O1 4120   2.782   0.093  14.451  0.2029 -0.3715 -0.6044
  272TMC3    O2 4121   3.294   0.170  14.121 -0.2041 -0.3510 -0.6328
  273MPD2     C 4122   4.361   3.091  11.960 -0.8897 -0.3404 -0.4666
  273MPD2    C1 4123   4.442   3.203  11.933 -0.3292  0.1543  0.0704
  273MPD2    C2 4124   4.433   3.263  11.800  0.5315  0.7723 -0.0271
  273MPD2    C3 4125   4.352   3.202  11.702 -0.1396 -0.4694  0.0851
  273MPD2    C4 4126   4.310   3.068  11.734  0.5143 -0.8569 -0.3106
  273MPD2    C5 4127   4.312   3.019  11.859  0.0745 -0.4260 -0.3596
  273MPD2     H 4128   4.476   3.361  11.788  2.2504 -0.0997 -1.0176
  273MPD2    H1 4129   4.270   3.008  11.653  1.7406  1.2666 -2.5417
  273MPD2    H2 4130   4.357   3.037  12.053 -2.4661 -0.0885 -0.3771
  273MPD2    H3 4131   4.252   2.932  11.881 -0.9060 -0.1610 -1.9076
  273MPD2     N 4132   4.324   3.259  11.580  0.1864  0.2136 -0.1032
  273MPD2    H5 4133   4.290   3.195  11.508 -0.4169  0.4401 -0.0240
  273MPD2    N1 4134   4.506   3.266  12.036  1.0473 -0.4764  0.2548
  273MPD2    H7 4135   4.493   3.235  12.132  0.3562  1.5621  0.8216
  274TMC3    C1 4136   4.291   3.418  11.414 -0.3267  0.8660  0.0633
  274TMC3    C2 4137   4.169   3.359  11.380  0.0898 -0.8696  0.0233
  274TMC3    C3 4138   4.089   3.445  11.316 -0.2396 -0.5723  0.2715
  274TMC3    C4 4139   4.313   3.552  11.390  0.6969 -0.1754 -0.1000
  274TMC3    C5 4140   4.215   3.635  11.348 -0.1608  0.2888 -0.1399
  274TMC3    C6 4141   4.099   3.580  11.296  0.4382 -0.0671 -0.2365
  274TMC3     C 4142   4.341   3.386  11.546 -0.3044  0.7109 -0.0833
  274TMC3     O 4143   4.384   3.486  11.603 -0.0763  0.6267  0.2409
  274TMC3     H 4144   4.143   3.255  11.392 -1.6855 -0.4658 -0.4188
  274TMC3    H1 4145   4.407   3.603  11.410  0.6990  0.4913 -1.8298
  274TMC3    H2 4146   4.015   3.645  11.275  0.6725  0.6740  1.1200
  274TMC3    C7 4147   4.190   3.759  11.411  0.0440  0.1118 -0.1357
  274TMC3    C8 4148   3.955   3.406  11.319  0.4130 -0.4011 -0.2700
  274TMC3    O1 4149   4.100   3.838  11.379  0.5392  0.0234  0.0438
  274TMC3    O2 4150   3.925   3.304  11.377  0.3201  0.1670  0.3468
  275MPD2     C 4151   4.138   1.243  14.603 -0.3517 -0.4991 -0.0776
  275MPD2    C1 4152   4.059   1.258  14.713  1.0439 -0.3827 -0.3794
  275MPD2    C2 4153   3.926   1.216  14.703 -0.1100 -0.3921 -0.4412
  275MPD2    C3 4154   3.876   1.167  14.582 -0.7125  0.1976  0.5501
  275MPD2    C4 4155   3.962   1.148  14.471  0.1856 -0.4122  0.2229
  275MPD2    C5 4156   4.097   1.184  14.487  0.7740 -0.5678  0.5075
  275MPD2     H 4157   3.861   1.236  14.787  0.7343  0.3218  0.0417
  275MPD2    H1 4158   3.932   1.111  14.374  0.3861  3.8654 -1.4422
  275MPD2    H2 4159   4.244   1.262  14.609 -0.7118  1.0235  1.7158
  275MPD2    H3 4160   4.172   1.177  14.409 -0.2560  0.6679 -0.5841
  275MPD2     N 4161   3.743   1.123  14.562  0.1232 -0.4449 -0.7225
  275MPD2    H5 4162   3.729   1.090  14.467  0.3469 -1.3124 -0.4560
  275MPD2    N1 4163   4.107   1.309  14.837 -0.3479  0.1719 -0.4902
  275MPD2    H7 4164   4.039   1.308  14.912  2.2150 -0.0571  1.7912
  276TMC3    C1 4165   4.253   1.398  14.998 -0.3583  0.6863  0.1966
  276TMC3    C2 4166   4.188   1.321  15.092 -0.2288 -0.1526 -0.4904
  276TMC3    C3 4167   4.189   1.372  15.221  0.2959 -0.0599  0.8359
  276TMC3    C4 4168   4.327   1.511  15.022  0.5738 -0.1901 -0.8061
  276TMC3    C5 4169   4.332   1.553  15.155  0.1516 -0.5929  0.7441
  276TMC3    C6 4170   4.252   1.491  15.251  0.5996 -0.1056  0.1032
  276TMC3     C 4171   4.228   1.362  14.861 -0.1820 -0.4270  1.2642
  276TMC3     O 4172   4.317   1.374  14.779  0.3272 -0.1394 -0.2156
  276TMC3     H 4173   4.138   1.228  15.067 -1.4408  0.3435  0.0710
  276TMC3    H1 4174   4.370   1.558  14.934 -1.1144  0.1138 -1.4623
  276TMC3    H2 4175   4.263   1.523  15.354  0.5935  0.1027  0.0382
  276TMC3    C7 4176   4.404   1.668  15.198 -0.0852 -0.0882 -0.0509
  276TMC3    C8 4177   4.123   1.303  15.333  0.2434 -0.1390 -0.0982
  276TMC3    O1 4178   4.408   1.698  15.314 -0.1690  0.2963 -0.0599
  276TMC3    O2 4179   4.086   1.367  15.433 -0.1430 -0.1900  0.2769
  277MPD2     C 4180   1.203   0.418  13.471 -0.7933 -0.5112  0.7200
  277MPD2    C1 4181   1.070   0.379  13.458 -0.1108 -0.4985 -0.3907
  277MPD2    C2 4182   1.026   0.272  13.526  0.1794  0.0320  1.0797
  277MPD2    C3 4183   1.106   0.210  13.618 -0.7007 -0.2847  0.4781
  277MPD2    C4 4184   1.238   0.241  13.631  0.2435 -0.8084  0.5625
  277MPD2    C5 4185   1.290   0.352  13.560  0.1831  0.5909  0.1795
  277MPD2     H 4186   0.924   0.234  13.519  0.3474  0.1962 -2.3195
  277MPD2    H1 4187   1.303   0.189  13.701  1.5741  0.1182  0.0058
  277MPD2    H2 4188   1.243   0.497  13.409 -0.0055 -1.7250 -0.2977
  277MPD2    H3 4189   1.392   0.387  13.563  0.9163 -1.4849 -0.9743
  277MPD2     N 4190   1.043   0.111  13.690  0.0918  0.0204  0.1341
  277MPD2    H5 4191   0.944   0.102  13.668  0.1182 -1.4916  0.6936
  277MPD2    N1 4192   0.991   0.452  13.369  0.6152  0.7921 -0.3126
  277MPD2    H7 4193   1.041   0.528  13.325  0.2653  1.0756 -0.2208
  278TMC3    C1 4194   1.002   4.669  13.850  0.4868  0.2483  0.2789
  278TMC3    C2 4195   0.984   4.544  13.801  0.3328 -0.2337  0.4216
  278TMC3    C3 4196   0.856   4.499  13.800 -0.1504  0.1603  0.0273
  278TMC3    C4 4197   0.905   0.027  13.901  0.7313  0.3641 -0.1348
  278TMC3    C5 4198   0.774   4.700  13.894 -0.3445  0.4364  0.0663
  278TMC3    C6 4199   0.746   4.568  13.842 -0.3252  0.1881  0.1714
  278TMC3     C 4200   1.099   0.018  13.779 -1.0761  0.0997  0.0344
  278TMC3     O 4201   1.217   4.705  13.793  0.1076  0.2144  0.1585
  278TMC3     H 4202   1.073   4.492  13.766  0.2645  0.3462 -0.6153
  278TMC3    H1 4203   0.936   0.127  13.931  1.2130 -0.5987  2.5881
  278TMC3    H2 4204   0.648   4.523  13.854 -0.0260 -0.4659  0.1773
  278TMC3    C7 4205   0.673   0.081  13.908 -0.2837 -0.2254  0.7623
  278TMC3    C8 4206   0.851   4.363  13.756  0.1487  0.2893 -0.8218
  278TMC3    O1 4207   0.711   0.183  13.965  0.0357 -0.0215  0.4029
  278TMC3    O2 4208   0.937   4.288  13.806  0.3314 -0.0299 -0.0487
  279MPD2     C 4209   0.605   0.366   0.570  0.4354 -0.3222 -0.6519
  279MPD2    C1 4210   0.520   0.462   0.626 -0.4049 -0.1709 -0.0488
  279MPD2    C2 4211   0.476   0.559   0.540 -0.4775 -0.3114 -0.2735
  279MPD2    C3 4212   0.499   0.550   0.404  0.6603  0.4196 -0.1975
  279MPD2    C4 4213   0.575   0.444   0.351  0.1584 -0.4520 -0.1372
  279MPD2    C5 4214   0.633   0.358   0.436  0.1578  0.1431 -0.1418
  279MPD2     H 4215   0.417   0.643   0.576  0.9159 -0.6471  2.7855
  279MPD2    H1 4216   0.583   0.430   0.244  0.0624 -2.2639  0.1008
  279MPD2    H2 4217   0.656   0.289   0.628  0.1852 -0.7018 -0.9325
  279MPD2    H3 4218   0.692   0.279   0.392 -1.1024 -1.4535  1.0428
  279MPD2     N 4219   0.438   0.637   0.308 -0.1857  0.7757 -0.5910
  279MPD2    H5 4220   0.449   0.611   0.210 -2.2585 -0.9173 -0.3805
  279MPD2    N1 4221   0.521   0.473   0.768 -0.3066  0.2034 -0.2214
  279MPD2    H7 4222   0.597   0.420   0.811 -1.5565 -0.1663  1.5240
  280TMC3    C1 4223   0.317   0.600   0.787  0.5372 -0.7081 -0.2952
  280TMC3    C2 4224   0.238   0.518   0.709  0.3341 -0.3407 -0.1168
  280TMC3    C3 4225   0.138   0.566   0.632 -0.9695 -0.4574 -0.3437
  280TMC3    C4 4226   0.270   0.721   0.825 -0.0827  0.0977  0.1454
  280TMC3    C5 4227   0.165   0.774   0.749  0.8107  0.2210 -0.4112
  280TMC3    C6 4228   0.105   0.693   0.654  0.1211  0.2827 -0.2532
  280TMC3     C 4229   0.442   0.562   0.847  0.2208 -0.1878 -0.4474
  280TMC3     O 4230   0.449   0.581   0.966 -0.0627 -0.6164 -0.4175
  280TMC3     H 4231   0.273   0.416   0.698  0.3462 -0.4197  0.6681
  280TMC3    H1 4232   0.322   0.775   0.904 -1.1327  1.1397  0.1255
  280TMC3    H2 4233   0.006   0.721   0.620  0.4977  1.3531 -0.4605
  280TMC3    C7 4234   0.109   0.909   0.781  0.1024  0.0814 -0.1663
  280TMC3    C8 4235   0.120   0.512   0.498  0.0415 -0.2670 -0.0052
  280TMC3    O1 4236   0.178   0.991   0.844 -0.0389 -0.5764  0.0779
  280TMC3    O2 4237   0.079   0.590   0.413  0.1541 -0.4763  0.2728
  281TMC3    C1 4238   3.609   0.092  13.149 -0.3105 -0.2319  0.2081
  281TMC3    C2 4239   3.561   0.160  13.041 -0.1071  0.0578  0.3307
  281TMC3    C3 4240   3.454   0.115  12.965 -0.5358 -0.5629  0.3061
  281TMC3    C4 4241   3.561   4.696  13.190  0.1412 -0.1356  0.6190
  281TMC3    C5 4242   3.462   4.647  13.118  0.3133  1.1687  0.0237
  281TMC3    C6 4243   3.399   4.723  13.017  0.3736  0.4956  0.2563
  281TMC3     C 4244   3.681   0.160  13.251 -0.3732  0.5130 -0.4062
  281TMC3     O 4245   3.746   0.097  13.335  0.1721 -0.0756  0.1491
  281TMC3     H 4246   3.603   0.255  13.010 -1.1617 -0.7962 -3.6941
  281TMC3    H1 4247   3.593   4.649  13.283  1.3440  0.0838  0.3137
  281TMC3    H2 4248   3.312   4.686  12.964  0.8282  2.1684 -1.6356
  281TMC3    C7 4249   3.402   4.519  13.146 -0.1255  0.8147 -0.3734
  281TMC3    C8 4250   3.364   0.213  12.917  0.5138  0.5106  0.2681
  281TMC3    O1 4251   3.332   4.473  13.056  0.2120  0.0989 -0.1350
  281TMC3    O2 4252   3.249   0.193  12.949  0.0643 -0.0195  0.4738
  282MPD2     C 4253   1.200   2.190  15.195  0.8522 -0.1215 -0.7747
  282MPD2    C1 4254   1.070   2.224  15.226  0.8379  0.4609  0.0847
  282MPD2    C2 4255   0.983   2.217  15.123 -0.1311 -0.1314  0.0795
  282MPD2    C3 4256   1.022   2.166  15.000 -0.0145 -0.1750 -0.0041
  282MPD2    C4 4257   1.145   2.128  14.976 -0.3077  0.4188 -0.1796
  282MPD2    C5 4258   1.237   2.157  15.071  0.0384 -0.3005 -0.2226
  282MPD2     H 4259   0.880   2.251  15.134  0.4041  1.3054  0.7482
  282MPD2    H1 4260   1.192   2.095  14.884 -3.7162 -1.8163 -1.0842
  282MPD2    H2 4261   1.279   2.191  15.269 -1.1446 -0.8559  1.3581
  282MPD2    H3 4262   1.339   2.134  15.042  0.4036 -0.1115  0.9131
  282MPD2     N 4263   0.917   2.156  14.911  0.0495  0.4066  0.1261
  282MPD2    H5 4264   0.832   2.201  14.943 -0.4924 -0.8600  0.4673
  282MPD2    N1 4265   1.025   2.254  15.354  0.9217  0.2560 -0.0993
  282MPD2    H7 4266   0.927   2.275  15.374  0.8892  1.6641 -1.8090
  283TMC3    C1 4267   1.038   2.345  15.569  0.1666  0.6237  0.1383
  283TMC3    C2 4268   1.071   2.457  15.635  0.7556  0.0117 -0.0055
  283TMC3    C3 4269   1.015   2.491  15.755 -0.3652  0.8548  0.4113
  283TMC3    C4 4270   0.939   2.267  15.621  0.2915 -0.5663  0.4747
  283TMC3    C5 4271   0.875   2.306  15.739  0.2105 -0.2554 -0.0608
  283TMC3    C6 4272   0.920   2.411  15.815 -0.1600 -0.4602 -0.0454
  283TMC3     C 4273   1.109   2.309  15.451  1.1105 -0.7669 -0.0510
  283TMC3     O 4274   1.231   2.330  15.450 -0.3693 -0.5994 -0.2476
  283TMC3     H 4275   1.152   2.511  15.588 -1.5616  2.7979 -0.7599
  283TMC3    H1 4276   0.925   2.176  15.563 -2.4109  1.0057 -1.3036
  283TMC3    H2 4277   0.857   2.438  15.899 -0.6795 -0.5842 -0.3990
  283TMC3    C7 4278   0.793   2.212  15.817 -0.3333  0.8845  0.5253
  283TMC3    C8 4279   1.028   2.625  15.794  0.7757 -0.5971  0.0391
  283TMC3    O1 4280   0.811   2.208  15.939 -0.1059 -0.1993 -0.4981
  283TMC3    O2 4281   1.030   2.654  15.914 -0.2451 -0.1188 -0.4622
  284MPD2     C 4282   4.074   1.107  12.367  0.7107  0.2640  0.4646
  284MPD2    C1 4283   3.964   1.128  12.285  0.0608  0.1874  0.4427
  284MPD2    C2 4284   3.845   1.074  12.333 -0.2127 -0.1323  0.5428
  284MPD2    C3 4285   3.837   0.976  12.430 -0.0382  0.0745 -0.1436
  284MPD2    C4 4286   3.952   0.936  12.492  0.0741  0.4514 -0.2954
  284MPD2    C5 4287   4.070   1.009  12.465  0.1129  0.0222  0.5285
  284MPD2     H 4288   3.760   1.109  12.275  1.2003 -1.1015 -2.1195
  284MPD2    H1 4289   3.956   0.854  12.563 -1.2054  1.9978  1.5660
  284MPD2    H2 4290   4.168   1.155  12.341 -0.7505  2.6798 -0.3869
  284MPD2    H3 4291   4.159   0.991  12.525  0.8378  0.3836 -0.4362
  284MPD2     N 4292   3.721   0.898  12.445  0.2187 -0.0814 -0.1041
  284MPD2    H5 4293   3.738   0.810  12.492  0.8470  1.3008  2.2422
  284MPD2    N1 4294   3.954   1.227  12.185  0.2648 -0.4005 -0.2030
  284MPD2    H7 4295   3.863   1.254  12.150 -0.7228 -3.6537 -0.1637
  285TMC3    C1 4296   4.002   1.343  12.006 -0.1410  0.6694  0.0009
  285TMC3    C2 4297   4.013   1.265  11.889  0.1841 -0.5335 -0.0118
  285TMC3    C3 4298   3.920   1.295  11.794  0.1234  0.0707  0.0894
  285TMC3    C4 4299   3.900   1.431  12.024 -0.6345 -0.1277  0.1027
  285TMC3    C5 4300   3.815   1.453  11.917  0.0103  0.7208 -0.0964
  285TMC3    C6 4301   3.820   1.378  11.810  0.3678 -0.2411 -0.3835
  285TMC3     C 4302   4.057   1.280  12.118  0.3927  0.2007 -0.5099
  285TMC3     O 4303   4.172   1.237  12.113  0.3189  0.1032 -0.1660
  285TMC3     H 4304   4.082   1.182  11.889  0.3605 -0.3937 -1.8367
  285TMC3    H1 4305   3.888   1.488  12.116  1.0209  1.3181 -0.5767
  285TMC3    H2 4306   3.747   1.386  11.731  1.6774 -0.1872 -1.5801
  285TMC3    C7 4307   3.752   1.587  11.922  0.4579  0.3271 -0.0547
  285TMC3    C8 4308   3.923   1.221  11.671 -0.4092  0.1977 -0.8966
  285TMC3    O1 4309   3.806   1.667  12.004  0.2240  0.2969 -0.7891
  285TMC3    O2 4310   3.820   1.206  11.605  0.4830 -0.3494  0.4685
  286MPD2     C 4311   4.520   0.354   1.832  0.3402 -0.0616 -0.2678
  286MPD2    C1 4312   4.441   0.292   1.739  0.6133  0.0965 -0.5504
  286MPD2    C2 4313   4.475   0.173   1.680  0.0832  0.0918  0.2932
  286MPD2    C3 4314   4.592   0.113   1.714 -0.4210  0.1829  0.5414
  286MPD2    C4 4315   4.667   0.170   1.807 -0.2218  0.7468  0.0678
  286MPD2    C5 4316   4.631   0.287   1.869 -0.6689 -0.7149  0.3529
  286MPD2     H 4317   4.402   0.129   1.612  0.7319 -2.6005  1.3101
  286MPD2    H1 4318   0.032   0.119   1.844 -0.9957 -0.6997 -0.0796
  286MPD2    H2 4319   4.506   0.453   1.874 -0.8397 -0.3038 -0.0837
  286MPD2    H3 4320   4.698   0.328   1.944  1.2138 -1.3974 -0.9665
  286MPD2     N 4321   4.638   4.715   1.657  0.1647 -0.2638 -0.2321
  286MPD2    H5 4322   4.716   4.672   1.706  1.3953  0.5554 -1.4512
  286MPD2    N1 4323   4.332   0.355   1.679  0.3426 -0.3862 -0.5160
  286MPD2    H7 4324   4.284   0.301   1.608 -0.7245  1.2949 -1.0869
  287TMC3    C1 4325   4.656   4.517   1.521 -0.3299  0.3194  0.4870
  287TMC3    C2 4326   4.639   4.462   1.401 -0.2481 -0.1350 -0.4170
  287TMC3    C3 4327   0.020   4.381   1.349  0.3676  0.5925 -0.4276
  287TMC3    C4 4328   0.028   4.470   1.609  0.2312 -0.8378  0.7107
  287TMC3    C5 4329   0.114   4.374   1.562 -0.2542 -0.0505  0.2108
  287TMC3    C6 4330   0.122   4.332   1.431  0.2936 -0.3258  0.1953
  287TMC3     C 4331   4.576   4.636   1.557 -0.0773 -0.3960  0.0611
  287TMC3     O 4332   4.491   4.674   1.476 -0.6355  0.1863  0.2154
  287TMC3     H 4333   4.551   4.483   1.341 -0.9380  1.2719  1.1155
  287TMC3    H1 4334   0.019   4.497   1.713  3.9372 -0.8797  1.0541
  287TMC3    H2 4335   0.196   4.262   1.394  0.8540 -0.1192  0.9280
  287TMC3    C7 4336   0.234   4.364   1.648 -0.0630  0.1567 -0.4860
  287TMC3    C8 4337   0.002   4.327   1.215 -0.1331 -0.2223 -0.9146
  287TMC3    O1 4338   0.219   4.389   1.765 -0.5393 -0.1321 -0.3645
  287TMC3    O2 4339   0.049   4.216   1.194  0.0074  0.1718  0.1764
  288TMC3    C1 4340   0.724   4.308  14.589 -0.1896 -0.0006 -0.1879
  288TMC3    C2 4341   0.638   4.291  14.688  0.0213  0.0752  0.1104
  288TMC3    C3 4342   0.631   4.388  14.784  0.1420  0.1300  0.5338
  288TMC3    C4 4343   0.795   4.425  14.569 -0.0634  0.1021 -0.3511
  288TMC3    C5 4344   0.779   4.524  14.658  0.1629 -0.3077  0.2390
  288TMC3    C6 4345   0.700   4.504  14.770  0.2615 -0.3929  0.1203
  288TMC3     C 4346   0.738   4.205  14.486  0.7052  0.4340 -0.1007
  288TMC3     O 4347   0.779   4.237  14.374  0.4655 -0.0300  0.3644
  288TMC3     H 4348   0.591   4.195  14.707  0.3036  0.2113  1.5487
  288TMC3    H1 4349   0.848   4.437  14.476 -0.8355  0.2679 -0.7694
  288TMC3    H2 4350   0.690   4.580  14.847 -1.1283 -1.6620  1.1865
  288TMC3    C7 4351   0.881   4.629  14.665  0.1925  0.8863 -0.2608
  288TMC3    C8 4352   0.552   4.372  14.903 -0.3227  0.4436 -0.0322
  288TMC3    O1 4353   0.871   4.715  14.753 -0.1742  0.1507  0.3165
  288TMC3    O2 4354   0.570   4.447  14.996 -0.1316 -0.3706 -0.3965
  289MPD2     C 4355   1.188   3.708  14.672 -0.2136  0.1185  0.8582
  289MPD2    C1 4356   1.229   3.814  14.594 -0.0277  0.5391 -0.5042
  289MPD2    C2 4357   1.152   3.839  14.480 -0.1394 -0.2925  0.2656
  289MPD2    C3 4358   1.047   3.758  14.443  0.4364 -0.6711  0.9937
  289MPD2    C4 4359   1.006   3.654  14.529 -0.4796 -0.1687  0.7465
  289MPD2    C5 4360   1.077   3.634  14.645  0.0453  0.2588  0.8597
  289MPD2     H 4361   1.187   3.917  14.413 -0.8426 -0.0353  0.2011
  289MPD2    H1 4362   0.923   3.589  14.508  0.2265 -1.5652  2.2311
  289MPD2    H2 4363   1.239   3.679  14.763  0.7440  0.8401  0.5517
  289MPD2    H3 4364   1.040   3.556  14.710  1.1099 -1.2995 -0.4204
  289MPD2     N 4365   0.980   3.774  14.317 -0.2521 -0.0936 -0.3384
  289MPD2    H5 4366   0.916   3.697  14.302 -0.0223 -0.4720  0.6449
  289MPD2    N1 4367   1.337   3.896  14.641  0.0927 -0.4585 -0.1200
  289MPD2    H7 4368   1.379   3.858  14.726  0.5294  1.2470  0.4394
  290TMC3    C1 4369   0.889   3.883  14.127 -0.6648  0.3522  0.3448
  290TMC3    C2 4370   0.852   4.011  14.078  0.3021 -0.9468 -0.3598
  290TMC3    C3 4371   0.764   4.008  13.970  0.3221 -0.2132 -0.1891
  290TMC3    C4 4372   0.842   3.768  14.074 -0.5823  0.0736 -0.1771
  290TMC3    C5 4373   0.754   3.776  13.971  0.5639 -0.2835 -0.1933
  290TMC3    C6 4374   0.711   3.890  13.919 -0.0599 -0.6921 -0.0681
  290TMC3     C 4375   0.988   3.892  14.242  0.3607 -0.3948  0.1517
  290TMC3     O 4376   1.039   4.002  14.270  0.3275 -0.0474  0.1684
  290TMC3     H 4377   0.879   4.100  14.133 -1.0192 -1.5718  1.2827
  290TMC3    H1 4378   0.888   3.676  14.108 -2.2781 -1.0418 -0.9168
  290TMC3    H2 4379   0.649   3.890  13.830 -1.8186  0.7126  1.1614
  290TMC3    C7 4380   0.672   3.663  13.949 -0.1720  0.4603  0.2073
  290TMC3    C8 4381   0.660   4.110  13.972 -0.2662 -0.8279 -0.1724
  290TMC3    O1 4382   0.592   3.672  13.855  0.1538 -0.2991 -0.4412
  290TMC3    O2 4383   0.557   4.080  13.923 -0.2735  0.3257 -0.1179
  291MPD2     C 4384   1.265   3.679   0.006  0.5999  0.3457 -0.0497
  291MPD2    C1 4385   1.156   3.672   0.091 -0.3315  0.2923  0.2185
  291MPD2    C2 4386   1.036   3.660   0.029 -0.6586 -0.9418 -0.4171
  291MPD2    C3 4387   1.035   3.624  17.588 -0.0167  0.9558 -0.2230
  291MPD2    C4 4388   1.143   3.605  17.510  0.1900 -0.0796  0.1875
  291MPD2    C5 4389   1.259   3.639  17.570 -0.1911 -0.1436  0.4535
  291MPD2     H 4390   0.949   3.667   0.092  0.0554 -1.5947  0.6503
  291MPD2    H1 4391   1.141   3.579  17.404 -0.4384  1.0187 -0.0663
  291MPD2    H2 4392   1.368   3.702   0.031  1.2544 -0.4133 -1.9699
  291MPD2    H3 4393   1.350   3.633  17.512  1.5666 -1.9462  3.3628
  291MPD2     N 4394   0.913   3.595  17.525  0.2121  0.0056  0.2553
  291MPD2    H5 4395   0.905   3.548  17.435 -0.1316 -0.7896  0.7073
  291MPD2    N1 4396   1.161   3.668   0.225  0.5299  0.1341 -0.1948
  291MPD2    H7 4397   1.077   3.654   0.279 -0.0326  1.6836 -0.6579
  292TMC3    C1 4398   1.247   3.611   0.425 -0.8931 -0.0382  0.0108
  292TMC3    C2 4399   1.220   3.679   0.542  0.3111 -0.1066  0.3853
  292TMC3    C3 4400   1.158   3.606   0.640 -0.3665 -0.3083 -0.0112
  292TMC3    C4 4401   1.210   3.481   0.413  0.3659 -0.0919  0.0009
  292TMC3    C5 4402   1.143   3.414   0.510 -0.9047  0.2097  0.2372
  292TMC3    C6 4403   1.115   3.474   0.633 -0.1000 -0.3191 -0.0329
  292TMC3     C 4404   1.275   3.684   0.301  0.4219  0.0985 -0.6740
  292TMC3     O 4405   1.387   3.719   0.263 -0.6131  0.1342 -0.1519
  292TMC3     H 4406   1.241   3.783   0.566  1.6977 -0.5881  1.2245
  292TMC3    H1 4407   1.246   3.430   0.324  0.1279 -0.5820  0.1826
  292TMC3    H2 4408   1.083   3.412   0.715  2.5007 -2.3968 -0.5837
  292TMC3    C7 4409   1.074   3.290   0.464 -0.3538 -0.0809  0.8086
  292TMC3    C8 4410   1.155   3.665   0.773 -0.0187  0.1752 -0.2595
  292TMC3    O1 4411   1.125   3.219   0.379 -0.1345 -0.3835 -0.0674
  292TMC3    O2 4412   1.256   3.727   0.809  0.4248  0.4102  0.0625
  293MPD2     C 4413   1.866   0.303  12.636  1.1079 -0.8297 -0.0338
  293MPD2    C1 4414   1.790   0.246  12.734 -0.4089 -0.6823  0.2422
  293MPD2    C2 4415   1.822   0.263  12.867 -0.5650 -0.3218  0.2785
  293MPD2    C3 4416   1.927   0.335  12.900  0.6902 -0.3636 -0.2099
  293MPD2    C4 4417   2.004   0.395  12.804  0.1941 -0.6510 -0.6813
  293MPD2    C5 4418   1.974   0.374  12.674 -0.5681 -0.6047  0.4512
  293MPD2     H 4419   1.765   0.216  12.946 -0.6961  2.9826  2.1300
  293MPD2    H1 4420   2.099   0.446  12.819 -0.3763 -0.0937  1.1436
  293MPD2    H2 4421   1.849   0.287  12.530 -1.9289 -1.7470  0.5883
  293MPD2    H3 4422   2.036   0.417  12.596 -1.6720  0.4160  0.1384
  293MPD2     N 4423   1.958   0.352  13.036 -0.7884  0.2330  0.2055
  293MPD2    H5 4424   1.920   0.287  13.105  2.3290 -2.3161 -0.4808
  293MPD2    N1 4425   1.680   0.169  12.685  0.2785 -0.7153 -0.1286
  293MPD2    H7 4426   1.678   0.180  12.584 -2.6895  1.7935  0.2180
  294TMC3    C1 4427   1.469   0.081  12.687 -0.0221  0.1012  0.4034
  294TMC3    C2 4428   1.355   0.085  12.766 -0.2607  0.4652  0.0972
  294TMC3    C3 4429   1.243   0.089  12.700 -0.5489 -0.0854 -1.0958
  294TMC3    C4 4430   1.464   0.065  12.551  0.0850  0.4969 -0.4014
  294TMC3    C5 4431   1.341   0.064  12.485  0.3334  0.0670  0.2137
  294TMC3    C6 4432   1.230   0.095  12.562  0.8744  0.0438 -0.1731
  294TMC3     C 4433   1.593   0.089  12.753  0.1167 -0.1158  0.4410
  294TMC3     O 4434   1.589   0.056  12.873 -0.2158 -0.3738  0.2159
  294TMC3     H 4435   1.347   0.082  12.874 -0.1626 -1.6798  0.0588
  294TMC3    H1 4436   1.557   0.034  12.505  0.0832 -0.3719  0.1784
  294TMC3    H2 4437   1.130   0.104  12.522  1.1766  0.3685 -0.8635
  294TMC3    C7 4438   1.318   4.720  12.362  0.3892 -0.4656  0.0371
  294TMC3    C8 4439   1.152   4.710  12.752  0.1509 -0.6394  0.0083
  294TMC3    O1 4440   1.217   4.654  12.383  0.0446 -0.1468 -0.6197
  294TMC3    O2 4441   1.116   0.003  12.866  0.2149  0.4271  0.5467
  295MPD2     C 4442   2.434   3.641   0.560  0.7375 -0.1935 -1.0292
  295MPD2    C1 4443   2.548   3.705   0.600  0.1239 -0.1858  0.0869
  295MPD2    C2 4444   2.549   3.769   0.724  0.7531 -1.1441 -0.4214
  295MPD2    C3 4445   2.437   3.771   0.805  0.1325  0.3027 -0.0581
  295MPD2    C4 4446   2.316   3.717   0.757 -0.2629  0.5001  0.5969
  295MPD2    C5 4447   2.322   3.661   0.633 -0.3764  0.2622 -0.6513
  295MPD2     H 4448   2.642   3.818   0.752 -0.0813  0.7196 -0.8637
  295MPD2    H1 4449   2.222   3.717   0.812 -1.3002 -1.0885 -1.1734
  295MPD2    H2 4450   2.414   3.585   0.470 -1.2339  1.0879 -1.3837
  295MPD2    H3 4451   2.227   3.618   0.605 -0.1593 -1.1602  0.7908
  295MPD2     N 4452   2.431   3.811   0.936  0.3005  0.7763  0.5712
  295MPD2    H5 4453   2.336   3.821   0.971 -0.7030 -1.5911 -1.4421
  295MPD2    N1 4454   2.664   3.687   0.531 -0.2103 -0.3625 -0.0600
  295MPD2    H7 4455   2.739   3.732   0.582 -1.1653  0.9944  0.1424
  296TMC3    C1 4456   2.500   3.869   1.154  0.7152  0.2690 -0.0229
  296TMC3    C2 4457   2.597   3.920   1.225  1.0186 -0.3615 -0.4683
  296TMC3    C3 4458   2.581   3.939   1.360 -0.5901  0.0325  0.2900
  296TMC3    C4 4459   2.372   3.829   1.205 -0.0591 -0.1889 -0.0371
  296TMC3    C5 4460   2.364   3.842   1.338 -0.2060  0.0929  0.3680
  296TMC3    C6 4461   2.457   3.900   1.416 -0.2587  0.7656  0.3406
  296TMC3     C 4462   2.535   3.842   1.019  0.0021  0.1831 -0.1569
  296TMC3     O 4463   2.654   3.845   0.986  0.1148  0.1439  0.4254
  296TMC3     H 4464   2.694   3.949   1.185  1.9885 -1.3899  1.1247
  296TMC3    H1 4465   2.300   3.783   1.139  1.6224 -0.9639 -1.3217
  296TMC3    H2 4466   2.434   3.949   1.511  0.9220  0.3687  0.8355
  296TMC3    C7 4467   2.242   3.787   1.403 -0.3261  0.0935 -0.6350
  296TMC3    C8 4468   2.656   4.036   1.427 -0.5906 -0.2418 -0.0182
  296TMC3    O1 4469   2.157   3.748   1.323 -0.5462 -0.1892 -0.2729
  296TMC3    O2 4470   2.705   4.130   1.360 -0.1074  0.2883  0.2277
  297MPD2     C 4471   0.215   1.114  17.259 -0.8291 -1.5029  0.4424
  297MPD2    C1 4472   0.175   1.118  17.130 -0.0774 -0.4951  0.8085
  297MPD2    C2 4473   0.241   1.199  17.041 -0.7794  0.3278  0.0278
  297MPD2    C3 4474   0.347   1.287  17.082 -0.4078 -0.3839  0.2051
  297MPD2    C4 4475   0.383   1.279  17.218 -0.3973  0.1791 -0.3768
  297MPD2    C5 4476   0.320   1.193  17.295  1.0333  0.0300 -0.3055
  297MPD2     H 4477   0.198   1.206  16.941 -2.7322  1.8976  0.9710
  297MPD2    H1 4478   0.462   1.344  17.253  0.2654 -0.7733 -0.1086
  297MPD2    H2 4479   0.170   1.059  17.341 -0.7443 -1.8095  0.2843
  297MPD2    H3 4480   0.330   1.199  17.403  0.3481 -2.3116 -0.0966
  297MPD2     N 4481   0.413   1.376  16.996 -0.2342 -0.0809 -0.1017
  297MPD2    H5 4482   0.391   1.348  16.901  0.1283  1.0330 -0.5146
  297MPD2    N1 4483   0.066   1.035  17.089 -0.4388 -0.5829  0.1446
  297MPD2    H7 4484   0.051   1.008  16.992  1.7053  0.6107 -0.5123
  298TMC3    C1 4485   4.577   0.941  17.086  0.2512 -0.3672  0.4116
  298TMC3    C2 4486   4.616   0.839  17.008  0.4411 -0.1891  0.2976
  298TMC3    C3 4487   4.543   0.816  16.897 -0.4225 -0.1710  0.5051
  298TMC3    C4 4488   4.465   1.015  17.064  0.6149 -0.2396 -0.3695
  298TMC3    C5 4489   4.402   1.002  16.949 -0.7593  0.5574 -0.4029
  298TMC3    C6 4490   4.436   0.907  16.862 -0.5718  0.0840 -0.3586
  298TMC3     C 4491   4.678   1.004  17.170  0.3193 -0.1529  0.4971
  298TMC3     O 4492   4.635   1.048  17.274 -0.1151  0.7494  0.2095
  298TMC3     H 4493   4.701   0.773  17.027  1.4885  0.9385 -0.4308
  298TMC3    H1 4494   4.448   1.100  17.130 -0.5924  0.2837 -1.3445
  298TMC3    H2 4495   4.376   0.899  16.771  0.5526 -0.4721 -1.0509
  298TMC3    C7 4496   4.287   1.085  16.924 -0.1161  0.0527  0.4617
  298TMC3    C8 4497   4.565   0.688  16.837 -0.1367  0.2292  0.3253
  298TMC3    O1 4498   4.238   1.141  17.020  0.4550  0.0323 -0.1964
  298TMC3    O2 4499   4.623   0.601  16.896  0.4461  0.3002  0.0675
  299MPD2     C 4500   0.269   0.596  10.106  0.4923 -0.2477  0.1991
  299MPD2    C1 4501   0.202   0.586  10.227  0.3289 -0.7597  0.2997
  299MPD2    C2 4502   0.082   0.518  10.239 -0.2899  0.0995  0.4595
  299MPD2    C3 4503   0.013   0.488  10.126  0.2402 -0.2158 -0.2206
  299MPD2    C4 4504   0.074   0.498  10.000  0.2361 -0.7394  0.3037
  299MPD2    C5 4505   0.202   0.544   9.996 -0.6097 -0.8447  0.0896
  299MPD2     H 4506   0.044   0.490  10.337  2.0188 -1.5222  0.8946
  299MPD2    H1 4507   0.021   0.487   9.906  1.5380 -0.4803 -0.4664
  299MPD2    H2 4508   0.365   0.647  10.104  0.9808 -1.1648  0.0525
  299MPD2    H3 4509   0.240   0.565   9.896 -0.1024  0.6168  0.5955
  299MPD2     N 4510   4.600   0.448  10.123  0.5348  0.1381  0.3694
  299MPD2    H5 4511   4.553   0.422  10.038  0.9629  0.5719 -0.0008
  299MPD2    N1 4512   0.262   0.638  10.339 -0.2903  0.0599  0.0101
  299MPD2    H7 4513   0.356   0.675  10.324  0.0063 -0.6067  0.2406
  300TMC3    C1 4514   4.387   0.391  10.193 -0.1525 -0.7581 -0.3802
  300TMC3    C2 4515   4.324   0.516  10.175  0.3267  0.2528  0.0445
  300TMC3    C3 4516   4.211   0.539  10.237 -0.0586 -1.2605 -0.0851
  300TMC3    C4 4517   4.327   0.290  10.264 -0.0563 -0.1484  0.1911
  300TMC3    C5 4518   4.203   0.317  10.318  0.5271  0.1006 -0.0785
  300TMC3    C6 4519   4.154   0.446  10.321  0.1864  0.2092  0.1523
  300TMC3     C 4520   4.524   0.413  10.230 -1.0422  0.4747 -0.2623
  300TMC3     O 4521   4.559   0.393  10.347  0.1644 -0.5614  0.5056
  300TMC3     H 4522   4.374   0.600  10.128  0.1719  0.9050  1.0435
  300TMC3    H1 4523   4.382   0.197  10.278 -0.6495 -0.6641 -0.9283
  300TMC3    H2 4524   4.049   0.459  10.345  0.6647  3.8027  0.2063
  300TMC3    C7 4525   4.129   0.227  10.405 -0.3757  0.1225  0.6361
  300TMC3    C8 4526   4.195   0.674  10.276  0.2604 -0.2140 -0.2409
  300TMC3    O1 4527   4.147   0.108  10.395 -0.0813  0.6616 -0.4719
  300TMC3    O2 4528   4.298   0.745  10.261  0.6681 -0.2634 -0.3980
  301MPD2     C 4529   2.686   1.762   2.021 -0.0692 -1.0054  0.0886
  301MPD2    C1 4530   2.586   1.735   1.933  0.1356 -0.4134 -0.3975
  301MPD2    C2 4531   2.615   1.642   1.834  0.2359  0.5709 -1.2820
  301MPD2    C3 4532   2.730   1.576   1.825  0.2305  0.4921  0.4723
  301MPD2    C4 4533   2.833   1.601   1.913 -0.2514  0.7302  0.8718
  301MPD2    C5 4534   2.813   1.697   2.011  0.5337 -0.1603 -0.2294
  301MPD2     H 4535   2.539   1.623   1.760 -1.5071 -2.4598  1.3200
  301MPD2    H1 4536   2.933   1.558   1.913 -1.4066 -1.8873  1.7344
  301MPD2    H2 4537   2.671   1.828   2.107  2.5051  0.8643 -0.8779
  301MPD2    H3 4538   2.892   1.729   2.078  1.0118  1.1715 -1.4314
  301MPD2     N 4539   2.755   1.476   1.730 -0.3665 -0.4262  1.0805
  301MPD2    H5 4540   2.849   1.438   1.719 -0.2984 -0.1471  0.6837
  301MPD2    N1 4541   2.463   1.800   1.928 -0.3142  0.1657 -0.4150
  301MPD2    H7 4542   2.397   1.772   1.856 -2.3388  0.3468  1.3576
  302TMC3    C1 4543   2.719   1.313   1.574 -0.5223 -0.0648  0.2455
  302TMC3    C2 4544   2.838   1.259   1.607  0.3177 -0.1824 -0.2770
  302TMC3    C3 4545   2.883   1.159   1.524  1.0433  1.2661  0.0372
  302TMC3    C4 4546   2.652   1.279   1.458 -0.2974 -0.1116  0.5139
  302TMC3    C5 4547   2.708   1.174   1.380 -0.3803 -0.0076  0.0105
  302TMC3    C6 4548   2.824   1.112   1.407  0.8901 -1.2529 -0.1620
  302TMC3     C 4549   2.665   1.428   1.636  0.4251 -0.3659  0.3488
  302TMC3     O 4550   2.545   1.447   1.632  0.2697  0.0246 -0.2373
  302TMC3     H 4551   2.876   1.273   1.708 -0.1565 -0.6091 -0.0389
  302TMC3    H1 4552   2.564   1.331   1.423 -0.3096 -1.8911 -2.0861
  302TMC3    H2 4553   2.865   1.039   1.339  0.2259 -0.7190 -1.1320
  302TMC3    C7 4554   2.611   1.110   1.289 -0.4765 -0.6538 -0.0779
  302TMC3    C8 4555   3.011   1.097   1.558  0.4620  0.6789 -0.3264
  302TMC3    O1 4556   2.649   1.062   1.184 -0.3233  0.1655  0.5277
  302TMC3    O2 4557   3.050   1.008   1.483  0.0632  0.1972 -0.5619
  303MPD2     C 4558   2.256   0.071  10.797 -0.6466  1.1782  0.5478
  303MPD2    C1 4559   2.145   4.712  10.784 -0.1257  0.1949  0.6770
  303MPD2    C2 4560   2.035   0.033  10.715 -0.7629 -0.1780  0.1010
  303MPD2    C3 4561   2.043   0.154  10.647  0.5036 -0.2477 -0.2488
  303MPD2    C4 4562   2.148   0.240  10.665 -0.3347  0.6339  0.4504
  303MPD2    C5 4563   2.261   0.187  10.731 -1.2041  0.2394 -0.0582
  303MPD2     H 4564   1.942   4.700  10.711 -0.9805  0.3095 -1.4959
  303MPD2    H1 4565   2.158   0.333  10.611 -1.4970  0.4748 -0.0279
  303MPD2    H2 4566   2.348   0.035  10.841 -0.5760 -0.5858 -1.0149
  303MPD2    H3 4567   2.356   0.239  10.722 -0.2698 -1.7056 -1.4845
  303MPD2     N 4568   1.947   0.198  10.556  0.5795 -0.6803  0.3508
  303MPD2    H5 4569   1.990   0.272  10.501  1.6442 -0.9343  0.8397
  303MPD2    N1 4570   2.149   4.589  10.857 -0.2626  0.1604 -0.4513
  303MPD2    H7 4571   2.235   4.547  10.892 -0.2375 -0.2405 -0.9788
  304TMC3    C1 4572   2.065   4.381  10.931  0.7857  0.1090  0.5658
  304TMC3    C2 4573   1.976   4.331  11.025 -0.2608 -1.1764 -0.0189
  304TMC3    C3 4574   1.984   4.197  11.051  0.0634 -0.0630 -0.3793
  304TMC3    C4 4575   2.169   4.303  10.882  0.0531  0.2831  0.6447
  304TMC3    C5 4576   2.175   4.175  10.917 -0.2401 -0.1628 -0.4528
  304TMC3    C6 4577   2.077   4.113  10.991  0.3021 -0.1270 -0.2128
  304TMC3     C 4578   2.037   4.515  10.878 -0.7206  0.2567 -0.6489
  304TMC3     O 4579   1.917   4.550  10.879  0.1823 -0.1757  0.5448
  304TMC3     H 4580   1.901   4.401  11.062  0.1907  0.0886 -1.5239
  304TMC3    H1 4581   2.238   4.335  10.805  1.1126 -1.1067  1.0365
  304TMC3    H2 4582   2.087   4.007  11.013 -1.4372 -0.1813  0.2730
  304TMC3    C7 4583   2.182   4.096  10.794 -0.0489  0.3420 -0.2426
  304TMC3    C8 4584   1.857   4.133  11.043 -0.4483  0.1373 -0.5001
  304TMC3    O1 4585   2.294   4.082  10.746  0.0737  0.2710  0.1500
  304TMC3    O2 4586   1.851   4.034  10.973  0.4677 -0.1057  0.0295
  305MPD2     C 4587   0.871   2.402  13.739 -0.1497 -0.1573  0.8443
  305MPD2    C1 4588   0.880   2.263  13.745 -0.2227  0.4039 -0.3738
  305MPD2    C2 4589   0.860   2.173  13.633 -0.7171 -0.1773 -0.3431
  305MPD2    C3 4590   0.833   2.234  13.516  0.5474  0.1179 -0.7212
  305MPD2    C4 4591   0.828   2.368  13.509 -0.1509 -0.2279  0.2896
  305MPD2    C5 4592   0.846   2.452  13.616  0.0366 -0.2257  0.3976
  305MPD2     H 4593   0.852   2.065  13.640  0.6209 -0.2295  0.2593
  305MPD2    H1 4594   0.802   2.415  13.415 -0.8359 -1.8028 -0.3083
  305MPD2    H2 4595   0.889   2.469  13.822 -1.7757  2.8869 -1.2995
  305MPD2    H3 4596   0.831   2.558  13.607  0.9196  0.0587  2.1301
  305MPD2     N 4597   0.795   2.165  13.397  0.2071  0.3212  0.4097
  305MPD2    H5 4598   0.766   2.230  13.325  2.6063  0.2639 -0.6152
  305MPD2    N1 4599   0.913   2.217  13.872 -0.4308  0.7933 -0.4650
  305MPD2    H7 4600   0.949   2.286  13.937 -1.0361  1.4601 -0.8310
  306TMC3    C1 4601   0.939   2.085  14.064 -0.0416  0.5311  0.1212
  306TMC3    C2 4602   1.028   1.994  14.115  0.0481  0.1626  0.1362
  306TMC3    C3 4603   1.075   2.018  14.242  0.2299  0.0400  0.2173
  306TMC3    C4 4604   0.891   2.194  14.137  0.7742  0.2280 -0.2264
  306TMC3    C5 4605   0.938   2.207  14.267 -0.1159 -0.3816 -0.4472
  306TMC3    C6 4606   1.031   2.124  14.320 -0.3943  1.2675  0.0657
  306TMC3     C 4607   0.910   2.088  13.921 -0.1601  0.3851  0.1598
  306TMC3     O 4608   0.862   1.981  13.874  0.7587 -0.0659 -0.1480
  306TMC3     H 4609   1.063   1.908  14.058 -0.6698  1.5648 -2.3993
  306TMC3    H1 4610   0.814   2.262  14.103  0.1407  1.2096  3.1268
  306TMC3    H2 4611   1.059   2.116  14.424  1.4085 -1.7831 -0.6621
  306TMC3    C7 4612   0.880   2.311  14.355  0.1493  0.6378 -0.2494
  306TMC3    C8 4613   1.112   1.899  14.314  0.8716  0.5222 -0.5256
  306TMC3    O1 4614   0.769   2.350  14.317  0.4154 -0.5581 -0.0362
  306TMC3    O2 4615   1.216   1.907  14.381  0.3502 -0.4248  0.5459
  307MPD2     C 4616   4.089   0.003   0.164  0.3325 -0.7868 -0.1096
  307MPD2    C1 4617   3.996   0.099   0.201 -0.0808 -0.3707 -0.0513
  307MPD2    C2 4618   3.932   0.085   0.321 -0.2475  0.0643  0.0286
  307MPD2    C3 4619   3.955   4.710   0.416  0.4783 -0.3101  0.1071
  307MPD2    C4 4620   4.061   4.620   0.381  0.3750 -0.1564  0.2724
  307MPD2    C5 4621   4.122   4.630   0.255 -0.5280 -0.2016 -0.0340
  307MPD2     H 4622   3.856   0.159   0.343  0.0866  0.1409  0.9334
  307MPD2    H1 4623   4.092   4.539   0.446  1.0823 -0.6361 -0.6835
  307MPD2    H2 4624   4.159   0.020   0.083  0.9708 -0.6337  0.4780
  307MPD2    H3 4625   4.195   4.555   0.228 -1.5550 -1.0619 -0.4098
  307MPD2     N 4626   3.875   4.714   0.533 -0.3296 -0.0779 -0.2435
  307MPD2    H5 4627   3.825   0.077   0.550 -0.3818 -0.1639  0.0506
  307MPD2    N1 4628   3.957   0.210   0.120  0.2877 -0.6094 -0.2208
  307MPD2    H7 4629   3.901   0.285   0.159 -0.1034 -1.4555  0.8181
  308TMC3    C1 4630   3.638   4.529   0.893 -0.1795  0.0066  0.4516
  308TMC3    C2 4631   3.617   4.653   0.948  0.4010  0.1861 -0.0560
  308TMC3    C3 4632   3.681   0.035   0.900  0.3999  0.9110  0.2103
  308TMC3    C4 4633   3.724   4.518   0.784  0.3440 -0.2494  0.5740
  308TMC3    C5 4634   3.781   4.634   0.735  0.3801  0.0896 -0.0101
  308TMC3    C6 4635   3.762   0.037   0.789 -0.2653  0.4681 -0.6876
  308TMC3     C 4636   3.521   4.439   0.879  0.5492  0.9088  0.0925
  308TMC3     O 4637   3.555   4.337   0.830 -0.0243 -0.1476 -0.6963
  308TMC3     H 4638   3.544   4.654   1.029  0.0943 -1.2903 -0.2969
  308TMC3    H1 4639   3.740   4.422   0.736 -0.6918  0.2523 -0.7900
  308TMC3    H2 4640   3.823   0.125   0.769  0.6229  0.0887  0.3831
  308TMC3    C7 4641   3.858   4.603   0.614 -0.3640 -0.2341 -0.6116
  308TMC3    C8 4642   3.661   0.163   0.965  0.1148  0.5660 -0.0042
  308TMC3    O1 4643   3.876   4.488   0.584 -0.1345 -0.1716 -0.0404
  308TMC3    O2 4644   3.645   0.144   1.087  0.2156  0.0644  0.4299
  309MPD2     C 4645   2.887   0.124  17.213 -0.6324 -0.2847  0.6830
  309MPD2    C1 4646   2.791   0.158  17.120  0.3376 -0.4519 -0.0778
  309MPD2    C2 4647   2.680   0.219  17.163 -0.1771  0.0592 -0.0421
  309MPD2    C3 4648   2.659   0.251  17.297 -0.2562  0.4144  0.3787
  309MPD2    C4 4649   2.755   0.219  17.395 -0.5863 -0.1209  0.1666
  309MPD2    C5 4650   2.864   0.155  17.349  0.4892 -0.3902 -1.1919
  309MPD2     H 4651   2.606   0.236  17.085 -0.8074 -1.6343  0.1854
  309MPD2    H1 4652   2.733   0.226  17.501  0.5809 -3.4450  0.6301
  309MPD2    H2 4653   2.975   0.072  17.179 -0.2688  0.9580 -0.2685
  309MPD2    H3 4654   2.936   0.119  17.422  1.0342  2.7712 -0.2016
  309MPD2     N 4655   2.538   0.311  17.344 -0.1039  0.1678 -1.1302
  309MPD2    H5 4656   2.521   0.309  17.444 -1.7299  1.4743 -1.3737
  309MPD2    N1 4657   2.802   0.141  16.983  0.3046 -0.0507 -0.3169
  309MPD2    H7 4658   2.714   0.158  16.935  0.3089  2.0629  0.4305
  310TMC3    C1 4659   2.875   0.062  16.781 -0.8630 -0.8171  0.0256
  310TMC3    C2 4660   2.785   0.151  16.725 -0.1516 -0.2455 -0.0591
  310TMC3    C3 4661   2.776   0.145  16.593 -0.6211 -0.1254  0.6441
  310TMC3    C4 4662   2.965   4.719  16.710  0.6003  0.1904 -0.3832
  310TMC3    C5 4663   2.959   4.719  16.575  0.2878  0.4287 -0.0764
  310TMC3    C6 4664   2.855   0.063  16.515  0.1704  0.0134  0.2761
  310TMC3     C 4665   2.900   0.064  16.922 -0.0759 -0.1900 -0.3110
  310TMC3     O 4666   2.989   0.002  16.974  0.1137  0.0906  0.3143
  310TMC3     H 4667   2.723   0.224  16.777  0.4594  1.9274 -2.4035
  310TMC3    H1 4668   3.043   4.653  16.748  0.1426  0.4259  0.9825
  310TMC3    H2 4669   2.842   0.084  16.410 -1.5708 -0.0842  0.4740
  310TMC3    C7 4670   3.052   4.648  16.492 -0.3998 -0.5894 -0.1061
  310TMC3    C8 4671   2.677   0.233  16.529  0.1610 -0.4461  0.2877
  310TMC3    O1 4672   3.002   4.589  16.398 -0.1248 -0.1163  0.3625
  310TMC3    O2 4673   2.715   0.273  16.417 -0.2531 -0.1076  0.5940
  311MPD2     C 4674   4.630   1.419  12.741  0.7988  0.7349 -1.1671
  311MPD2    C1 4675   4.589   1.551  12.743 -0.1920 -0.2960  0.1674
  311MPD2    C2 4676   4.477   1.589  12.814 -0.1715 -0.0709  0.6496
  311MPD2    C3 4677   4.415   1.495  12.892 -0.0900 -0.0810  0.9300
  311MPD2    C4 4678   4.463   1.367  12.893 -0.0273  0.1267 -0.2163
  311MPD2    C5 4679   4.562   1.330  12.810 -0.7605 -0.4448  0.6287
  311MPD2     H 4680   4.453   1.694  12.824  0.3353  0.0773  0.3564
  311MPD2    H1 4681   4.425   1.285  12.954  1.3055  2.4503  3.7604
  311MPD2    H2 4682   4.714   1.378  12.687  0.5185  0.8960 -1.7276
  311MPD2    H3 4683   4.589   1.225  12.812 -2.1306 -0.8051  0.2156
  311MPD2     N 4684   4.306   1.531  12.971 -0.5849 -0.7220  0.1991
  311MPD2    H5 4685   4.252   1.615  12.954 -0.3052  0.0376  3.0229
  311MPD2    N1 4686   4.664   1.661  12.693  0.6000 -0.3630 -0.3281
  311MPD2    H7 4687   4.630   1.753  12.721 -0.8337 -0.8357 -0.5171
  312TMC3    C1 4688   4.134   1.520  13.111 -0.5149  0.1511 -0.2864
  312TMC3    C2 4689   4.059   1.565  13.006  0.7229  0.6437  0.4543
  312TMC3    C3 4690   3.990   1.677  13.036 -0.1724  0.4589  0.7186
  312TMC3    C4 4691   4.136   1.572  13.238 -0.1940 -1.2964 -0.1532
  312TMC3    C5 4692   4.086   1.700  13.254 -0.6974  0.3859 -0.1341
  312TMC3    C6 4693   4.008   1.754  13.150  0.9288 -0.3151  0.0792
  312TMC3     C 4694   4.260   1.463  13.080 -0.3169  0.6156  0.5972
  312TMC3     O 4695   4.309   1.381  13.160 -0.3947 -0.2380  0.0863
  312TMC3     H 4696   4.044   1.509  12.915  0.1577  0.5898  0.5787
  312TMC3    H1 4697   4.202   1.526  13.310  0.2151  1.1181  1.0025
  312TMC3    H2 4698   3.970   1.855  13.161  0.3924 -0.7110  1.9806
  312TMC3    C7 4699   4.161   1.788  13.343  0.4495  0.7427 -0.5007
  312TMC3    C8 4700   3.881   1.706  12.945  0.4278 -0.1068 -0.6262
  312TMC3    O1 4701   4.154   1.905  13.310 -0.3405  0.2489 -0.2198
  312TMC3    O2 4702   3.861   1.635  12.849  0.1656 -0.3079 -0.2538
  313MPD2     C 4703   4.054   1.275  11.101  0.8302  0.3812  0.0433
  313MPD2    C1 4704   3.927   1.257  11.146  0.2051  0.0555  0.0936
  313MPD2    C2 4705   3.841   1.176  11.077 -0.2351  0.3426 -0.3213
  313MPD2    C3 4706   3.886   1.093  10.975  0.3599  0.2579 -0.2086
  313MPD2    C4 4707   4.013   1.115  10.922  0.4780 -0.0221  0.1467
  313MPD2    C5 4708   4.088   1.209  10.985 -0.6750  0.6377  0.4263
  313MPD2     H 4709   3.738   1.173  11.112 -0.0898  1.0808  0.1750
  313MPD2    H1 4710   4.059   1.060  10.841 -0.5038 -2.3086  1.1491
  313MPD2    H2 4711   4.118   1.348  11.149  3.4163 -0.2716 -2.4400
  313MPD2    H3 4712   4.187   1.231  10.947 -0.3255 -1.1969  0.2370
  313MPD2     N 4713   3.798   0.996  10.911 -0.6055  0.0712  0.1193
  313MPD2    H5 4714   3.697   0.998  10.922 -0.8159 -0.8157 -1.7143
  313MPD2    N1 4715   3.869   1.333  11.258  0.8145  0.4149  0.4972
  313MPD2    H7 4716   3.771   1.311  11.276  0.6843 -0.0753 -0.7955
  314TMC3    C1 4717   3.841   1.467  11.442 -0.4945  0.3455 -0.2167
  314TMC3    C2 4718   3.899   1.573  11.511  0.8336 -0.1997  0.4196
  314TMC3    C3 4719   3.820   1.677  11.538 -0.6705 -0.1554  0.4735
  314TMC3    C4 4720   3.706   1.463  11.411 -0.3949  0.2339  0.2829
  314TMC3    C5 4721   3.636   1.571  11.446  0.3285 -0.5823  0.2130
  314TMC3    C6 4722   3.692   1.684  11.497 -0.2262  0.5769 -0.2488
  314TMC3     C 4723   3.935   1.410  11.350  0.4077 -0.5844  0.4094
  314TMC3     O 4724   4.054   1.429  11.364 -0.1382 -0.3471 -0.1927
  314TMC3     H 4725   4.006   1.579  11.524  0.9973  0.1431 -1.0583
  314TMC3    H1 4726   3.657   1.379  11.364 -2.5050  0.2707  2.3846
  314TMC3    H2 4727   3.630   1.771  11.517 -2.2144 -1.7370  3.5578
  314TMC3    C7 4728   3.512   1.584  11.374  0.2797 -0.3455 -0.3298
  314TMC3    C8 4729   3.883   1.808  11.531 -0.1185  0.1480 -0.3158
  314TMC3    O1 4730   3.430   1.492  11.375 -0.2902  0.1718  0.0797
  314TMC3    O2 4731   3.832   1.888  11.453 -0.3318 -0.7882 -0.3083
  315MPD2     C 4732   4.192   0.609  17.682 -0.2535  0.3603  0.4411
  315MPD2    C1 4733   4.232   0.624   0.121  0.0687 -0.3864 -0.5985
  315MPD2    C2 4734   4.234   0.751   0.179 -0.6170  0.5345  0.2553
  315MPD2    C3 4735   4.207   0.860   0.098 -1.2025  0.3458 -0.6684
  315MPD2    C4 4736   4.182   0.846  17.656 -0.3110  1.1210  0.5044
  315MPD2    C5 4737   4.165   0.720  17.603 -0.5675 -0.0075 -0.6635
  315MPD2     H 4738   4.256   0.758   0.285  0.6354 -0.4539  0.0626
  315MPD2    H1 4739   4.159   0.930  17.592  2.5374  1.3822 -0.1784
  315MPD2    H2 4740   4.183   0.510  17.638 -2.0438  0.8126 -0.2018
  315MPD2    H3 4741   4.132   0.691  17.504  1.7359 -1.7065 -0.9137
  315MPD2     N 4742   4.208   0.989   0.170 -0.2535  0.3665  0.1523
  315MPD2    H5 4743   4.221   0.980   0.270 -2.1758  1.9313  0.5630
  315MPD2    N1 4744   4.251   0.514   0.210 -0.0629 -0.4447  0.2356
  315MPD2    H7 4745   4.262   0.543   0.307 -1.5333 -0.5983  0.4525
  316TMC3    C1 4746   4.187   1.226   0.206 -0.0122  0.0007 -0.2719
  316TMC3    C2 4747   4.232   1.207   0.333 -0.0697  0.8277  0.2750
  316TMC3    C3 4748   4.208   1.309   0.418  0.0347 -0.7046  0.4667
  316TMC3    C4 4749   4.120   1.339   0.165  0.1308 -0.7221 -0.1357
  316TMC3    C5 4750   4.097   1.441   0.255 -0.5879  0.0053 -0.0031
  316TMC3    C6 4751   4.123   1.418   0.386 -0.5574 -0.0353 -0.3670
  316TMC3     C 4752   4.202   1.115   0.113 -0.0999 -0.0106 -0.2346
  316TMC3     O 4753   4.213   1.150  17.691  0.0257 -0.0153  0.1134
  316TMC3     H 4754   4.303   1.127   0.349 -0.0667  0.6926 -0.3962
  316TMC3    H1 4755   4.068   1.325   0.071  1.5658  4.5458 -1.7403
  316TMC3    H2 4756   4.099   1.496   0.459 -0.6393 -1.6213  1.3017
  316TMC3    C7 4757   4.046   1.570   0.219  0.1782 -0.2087  0.5222
  316TMC3    C8 4758   4.289   1.318   0.535 -0.0970 -0.6116  0.5658
  316TMC3    O1 4759   4.017   1.659   0.299  0.2776  0.0497  0.1158
  316TMC3    O2 4760   4.283   1.429   0.591 -0.7083 -0.5019  0.3409
  317MPD2     C 4761   0.677   3.700  12.645  0.4280  0.4707 -0.3230
  317MPD2    C1 4762   0.767   3.606  12.608 -0.5904 -0.4310  0.0192
  317MPD2    C2 4763   0.850   3.553  12.710 -0.0849  0.1267  0.0394
  317MPD2    C3 4764   0.835   3.598  12.842  0.4708 -0.1462  0.0917
  317MPD2    C4 4765   0.749   3.701  12.875 -0.0342 -0.7944 -0.5088
  317MPD2    C5 4766   0.675   3.753  12.773 -0.0713  0.0772 -1.1140
  317MPD2     H 4767   0.929   3.481  12.692 -1.4051 -1.3975  0.3823
  317MPD2    H1 4768   0.736   3.752  12.970  1.4973 -0.6843 -0.3542
  317MPD2    H2 4769   0.596   3.728  12.578 -1.1077  0.3823  1.5147
  317MPD2    H3 4770   0.608   3.838  12.784 -1.8834 -1.7354  1.8747
  317MPD2     N 4771   0.902   3.521  12.943  0.4553 -0.4660  0.7166
  317MPD2    H5 4772   0.966   3.446  12.919  1.2953  0.4860 -0.0537
  317MPD2    N1 4773   0.774   3.563  12.479 -0.1566  0.6919 -0.5799
  317MPD2    H7 4774   0.848   3.501  12.449 -1.4137 -1.2989  0.4399
  318TMC3    C1 4775   0.937   3.423  13.147  0.6208 -0.3424  0.2971
  318TMC3    C2 4776   0.868   3.371  13.245 -0.7601 -0.3703  0.4978
  318TMC3    C3 4777   0.909   3.272  13.315 -0.1180 -0.0245  0.2623
  318TMC3    C4 4778   1.070   3.391  13.123 -0.6280  0.4281  0.5206
  318TMC3    C5 4779   1.121   3.304  13.213  0.1866 -0.1909  0.2897
  318TMC3    C6 4780   1.045   3.243  13.312  0.3777 -0.0904 -0.2515
  318TMC3     C 4781   0.876   3.530  13.077 -0.0877  0.6637 -0.4745
  318TMC3     O 4782   0.796   3.597  13.135 -0.5932 -0.2664  0.0823
  318TMC3     H 4783   0.766   3.400  13.269 -1.1441  1.2943 -3.1713
  318TMC3    H1 4784   1.128   3.438  13.045  0.6126 -0.8345  0.6889
  318TMC3    H2 4785   1.081   3.156  13.366 -0.7675  0.7971  1.9402
  318TMC3    C7 4786   1.262   3.288  13.219  0.8555 -0.0223  0.0370
  318TMC3    C8 4787   0.816   3.175  13.364  0.3663 -0.6992 -0.5948
  318TMC3    O1 4788   1.331   3.292  13.117  0.1212 -0.4204  0.0879
  318TMC3    O2 4789   0.866   3.083  13.429  0.5099  0.1740 -0.2426
  319MPD2     C 4790   2.433   4.706  16.175  0.5785  0.1148  0.1014
  319MPD2    C1 4791   2.360   4.661  16.281  0.4805  0.0723 -0.2729
  319MPD2    C2 4792   2.225   4.651  16.261 -0.7426  0.3363  0.0235
  319MPD2    C3 4793   2.162   4.684  16.146  0.4485 -0.2249 -0.1990
  319MPD2    C4 4794   2.236   0.003  16.038  0.3989 -0.9595 -0.8536
  319MPD2    C5 4795   2.373   0.013  16.053  0.2965 -0.2349  0.7878
  319MPD2     H 4796   2.169   4.601  16.339  1.9383 -2.0897  0.4005
  319MPD2    H1 4797   2.193   0.003  15.938 -0.5171  0.3364 -0.4420
  319MPD2    H2 4798   2.541   4.716  16.176  0.7127 -1.0712 -2.6412
  319MPD2    H3 4799   2.435   0.030  15.966  0.6723  1.5298  1.3891
  319MPD2     N 4800   2.023   4.659  16.130 -0.3916 -0.2608  0.3213
  319MPD2    H5 4801   1.989   4.670  16.035  2.4297  0.6716 -0.5862
  319MPD2    N1 4802   2.413   4.600  16.397 -0.7046 -0.0051 -0.1991
  319MPD2    H7 4803   2.343   4.568  16.463  1.4667  0.6256  2.4243
  320TMC3    C1 4804   1.793   4.620  16.188  0.7455  0.4311 -0.1514
  320TMC3    C2 4805   1.733   0.008  16.122 -0.1442  0.0137  0.3488
  320TMC3    C3 4806   1.595   0.019  16.144  0.2879  0.1646 -0.3066
  320TMC3    C4 4807   1.716   4.534  16.250 -0.2650 -0.4388  0.2774
  320TMC3    C5 4808   1.585   4.543  16.266  0.4526  0.2572  0.4859
  320TMC3    C6 4809   1.523   4.649  16.207  1.0070 -0.5669 -0.3888
  320TMC3     C 4810   1.933   4.623  16.234  0.0048 -0.5943 -0.8335
  320TMC3     O 4811   1.948   4.594  16.354 -0.8396 -0.0699  0.5771
  320TMC3     H 4812   1.785   0.099  16.094 -1.1283  0.2121 -0.7938
  320TMC3    H1 4813   1.763   4.446  16.292 -1.5522 -0.9442  0.6471
  320TMC3    H2 4814   1.415   4.653  16.213  0.9823  0.3897 -1.5602
  320TMC3    C7 4815   1.510   4.425  16.294 -0.2519 -0.1024 -0.2240
  320TMC3    C8 4816   1.529   0.149  16.156 -0.0852  0.6758 -0.4071
  320TMC3    O1 4817   1.532   4.328  16.222  0.2339 -0.0355  0.1771
  320TMC3    O2 4818   1.438   0.159  16.237  0.1716  0.7402 -0.1976
  321TMC3    C1 4819   2.563   4.535  16.564 -0.4195 -0.2546 -0.1316
  321TMC3    C2 4820   2.462   4.528  16.656  0.0489 -0.2048  0.1482
  321TMC3    C3 4821   2.469   4.426  16.749  0.4579  0.3422  0.3631
  321TMC3    C4 4822   2.678   4.460  16.572  0.4982  0.6818  0.2459
  321TMC3    C5 4823   2.677   4.351  16.653 -0.3909 -0.6571  0.3708
  321TMC3    C6 4824   2.575   4.337  16.747  0.6837  0.0793  0.3720
  321TMC3     C 4825   2.545   4.603  16.434  0.1611  0.5250 -0.1989
  321TMC3     O 4826   2.645   4.631  16.370  0.1991  0.2979 -1.1374
  321TMC3     H 4827   2.377   4.595  16.667 -0.0014 -0.0830 -0.9544
  321TMC3    H1 4828   2.751   4.460  16.491 -0.2374  1.8749 -0.4180
  321TMC3    H2 4829   2.566   4.248  16.808  0.8493  0.0047  0.2871
  321TMC3    C7 4830   2.799   4.337  16.732 -0.5974  0.7143  0.4918
  321TMC3    C8 4831   2.474   4.493  16.884 -0.6391  0.5195  0.0079
  321TMC3    O1 4832   2.791   4.319  16.851 -0.1618  0.1624 -0.2137
  321TMC3    O2 4833   2.375   4.566  16.906  1.0376  0.0562 -0.1350
  322MPD2     C 4834   0.405   0.868  14.070  0.1233  0.4047 -0.3893
  322MPD2    C1 4835   0.483   0.959  14.005  0.4980  0.0435  0.8077
  322MPD2    C2 4836   0.580   0.910  13.919  0.2870 -0.7914 -0.5288
  322MPD2    C3 4837   0.580   0.775  13.882  0.2075  0.2663  0.2258
  322MPD2    C4 4838   0.484   0.688  13.928 -0.2715 -0.7689 -0.6128
  322MPD2    C5 4839   0.400   0.743  14.026  0.3256 -0.2682 -0.1543
  322MPD2     H 4840   0.652   0.974  13.870 -2.1770  1.8009 -0.7508
  322MPD2    H1 4841   0.470   0.581  13.915 -1.1928 -1.0744  2.9871
  322MPD2    H2 4842   0.329   0.898  14.141 -0.1377  2.1612 -1.4047
  322MPD2    H3 4843   0.326   0.672  14.061  1.3964 -1.5680 -0.5095
  322MPD2     N 4844   0.688   0.732  13.798  0.3689 -0.4522  0.3368
  322MPD2    H5 4845   0.774   0.785  13.797  0.1635 -0.1947 -2.1612
  322MPD2    N1 4846   0.486   1.094  14.049 -0.1028 -0.2534 -0.0503
  322MPD2    H7 4847   0.437   1.109  14.137 -3.3028 -1.8028 -1.5804
  323TMC3    C1 4848   0.580   1.311  14.098  0.3437  0.0475  0.6212
  323TMC3    C2 4849   0.691   1.382  14.070  0.0165  0.5373  0.0892
  323TMC3    C3 4850   0.761   1.430  14.173 -0.5200 -0.2747  0.4529
  323TMC3    C4 4851   0.540   1.286  14.226  0.0958  0.8147 -0.0300
  323TMC3    C5 4852   0.627   1.320  14.326  0.6236 -0.3031 -0.3019
  323TMC3    C6 4853   0.740   1.394  14.304  0.2260  0.0708  0.0579
  323TMC3     C 4854   0.552   1.204  14.000  0.1884 -0.3941  0.3166
  323TMC3     O 4855   0.597   1.230  13.893  0.6005 -0.5301 -0.3870
  323TMC3     H 4856   0.729   1.378  13.969  0.9177  0.1972  0.4498
  323TMC3    H1 4857   0.457   1.219  14.245  1.2841 -0.4841  0.5118
  323TMC3    H2 4858   0.806   1.431  14.382  0.2909  0.3152 -0.1130
  323TMC3    C7 4859   0.615   1.254  14.456 -0.4259 -0.1830  0.3517
  323TMC3    C8 4860   0.896   1.484  14.148  0.1856 -0.4149  0.2502
  323TMC3    O1 4861   0.510   1.203  14.487  0.2099 -0.4770  0.3473
  323TMC3    O2 4862   0.979   1.453  14.236 -0.4464  0.1344 -0.8929
  324MPD2     C 4863   2.262   2.335  14.691  0.3625  0.5635 -0.6597
  324MPD2    C1 4864   2.328   2.428  14.616  0.1520  0.4119 -0.0787
  324MPD2    C2 4865   2.253   2.496  14.514  0.1331 -0.2620  0.0370
  324MPD2    C3 4866   2.116   2.471  14.488  0.0914  0.2702  0.4312
  324MPD2    C4 4867   2.056   2.376  14.564  0.0818 -0.8507  0.0369
  324MPD2    C5 4868   2.131   2.307  14.657 -0.0612 -0.4032 -0.4917
  324MPD2     H 4869   2.316   2.558  14.452  0.2786  0.1828  0.6304
  324MPD2    H1 4870   1.954   2.347  14.546 -0.3187  1.1661 -0.9987
  324MPD2    H2 4871   2.311   2.265  14.758  0.3304  0.4501 -0.7548
  324MPD2    H3 4872   2.081   2.229  14.714 -3.2028  2.4647  0.6593
  324MPD2     N 4873   2.050   2.535  14.379  0.3393 -0.6859  0.7639
  324MPD2    H5 4874   1.950   2.519  14.368 -0.0730  1.8083  0.8929
  324MPD2    N1 4875   2.466   2.456  14.627 -0.2334  0.0133 -0.1720
  324MPD2    H7 4876   2.505   2.518  14.556  0.4987  1.7274  1.7219
  325TMC3    C1 4877   2.013   2.657  14.171 -0.1665  0.0529 -0.0929
  325TMC3    C2 4878   1.926   2.560  14.115 -0.2508  0.3074 -0.4040
  325TMC3    C3 4879   1.889   2.569  13.986  0.0245 -0.5799 -0.2476
  325TMC3    C4 4880   2.044   2.758  14.086  0.0772  0.5587 -0.1132
  325TMC3    C5 4881   2.000   2.778  13.962 -0.3267  0.6494 -0.3214
  325TMC3    C6 4882   1.926   2.677  13.901 -0.7063  0.7372  0.0887
  325TMC3     C 4883   2.098   2.629  14.292  0.3494  0.7968 -0.3108
  325TMC3     O 4884   2.205   2.682  14.295  0.0525  0.0235  0.2965
  325TMC3     H 4885   1.918   2.465  14.167 -0.6704  0.8034  0.4412
  325TMC3    H1 4886   2.113   2.835  14.118  1.5557 -0.1919 -1.5111
  325TMC3    H2 4887   1.868   2.705  13.814  0.1282 -2.1910 -1.4007
  325TMC3    C7 4888   1.977   2.912  13.904  0.0750  0.5481 -0.3666
  325TMC3    C8 4889   1.776   2.487  13.936  0.2383  0.5028 -1.0804
  325TMC3    O1 4890   1.934   2.922  13.792  0.4474 -0.0207 -0.1832
  325TMC3    O2 4891   1.762   2.480  13.814  0.2004 -0.1664  0.1156
  326MPD2     C 4892   3.779   3.472  11.728  0.0682  0.2727  0.1582
  326MPD2    C1 4893   3.664   3.527  11.671 -0.2002  0.2089 -0.1303
  326MPD2    C2 4894   3.689   3.645  11.599  0.0343  0.2032  0.3911
  326MPD2    C3 4895   3.813   3.706  11.572  0.4424 -0.5412  0.5624
  326MPD2    C4 4896   3.916   3.648  11.629 -0.3606  0.1900 -0.2402
  326MPD2    C5 4897   3.901   3.532  11.695 -0.0124 -0.3142 -0.2978
  326MPD2     H 4898   3.601   3.700  11.570 -0.3678 -0.7894 -0.2534
  326MPD2    H1 4899   4.017   3.687  11.623 -0.0695 -0.8053 -2.0258
  326MPD2    H2 4900   3.780   3.378  11.782  0.7195 -0.1293 -0.5512
  326MPD2    H3 4901   3.999   3.502  11.732  0.1407  1.0536  0.4076
  326MPD2     N 4902   3.836   3.824  11.497 -0.6199  0.4977 -0.0282
  326MPD2    H5 4903   3.934   3.840  11.474  0.0301 -0.6002  2.0069
  326MPD2    N1 4904   3.527   3.475  11.679 -0.1685 -0.6970  0.8646
  326MPD2    H7 4905   3.453   3.526  11.631  1.1159  0.7721  0.4289
  327TMC3    C1 4906   3.357   3.330  11.713  0.0762 -0.6056  0.8246
  327TMC3    C2 4907   3.271   3.436  11.700  0.2832  0.0226  0.0651
  327TMC3    C3 4908   3.163   3.417  11.614 -0.1278 -0.4930  0.4303
  327TMC3    C4 4909   3.355   3.226  11.618  0.5741 -0.1240 -0.5037
  327TMC3    C5 4910   3.266   3.230  11.517  0.6960  0.2478  0.4972
  327TMC3    C6 4911   3.161   3.311  11.529 -0.9762  0.5668  0.3553
  327TMC3     C 4912   3.493   3.360  11.751  0.1892 -0.1810  0.8876
  327TMC3     O 4913   3.570   3.267  11.778  0.1839  0.2396  0.1044
  327TMC3     H 4914   3.285   3.526  11.757  0.8192 -1.3161  2.0393
  327TMC3    H1 4915   3.434   3.152  11.619 -1.6239 -2.4563  0.9404
  327TMC3    H2 4916   3.093   3.308  11.445 -0.6044  1.4981  0.0310
  327TMC3    C7 4917   3.322   3.256  11.384  0.1381  0.1929  0.2223
  327TMC3    C8 4918   3.066   3.518  11.589  0.8103  0.2911 -0.2041
  327TMC3    O1 4919   3.246   3.256  11.288 -0.2384  0.1853 -0.0325
  327TMC3    O2 4920   3.005   3.512  11.484 -0.3272 -0.1388 -0.3969
  328MPD2     C 4921   1.549   3.560  17.320  0.6454  0.8760 -0.3773
  328MPD2    C1 4922   1.461   3.477  17.254 -0.6411 -0.1186 -0.0854
  328MPD2    C2 4923   1.356   3.530  17.184  0.4941  0.8230  0.3851
  328MPD2    C3 4924   1.321   3.658  17.183  0.3853 -0.3565 -0.7594
  328MPD2    C4 4925   1.401   3.747  17.254 -0.2456 -0.0211  0.0821
  328MPD2    C5 4926   1.515   3.695  17.313 -0.0712  0.9142  0.5759
  328MPD2     H 4927   1.306   3.461  17.117 -2.5733  1.3827  2.1025
  328MPD2    H1 4928   1.372   3.851  17.265  1.8587  0.2777  3.0749
  328MPD2    H2 4929   1.633   3.527  17.380  0.8721 -2.1122 -2.3606
  328MPD2    H3 4930   1.577   3.764  17.370  0.3002 -0.3196  1.6795
  328MPD2     N 4931   1.217   3.715  17.103  0.0760 -0.1209 -0.0283
  328MPD2    H5 4932   1.202   3.815  17.108  0.5733 -0.0330 -0.3079
  328MPD2    N1 4933   1.482   3.333  17.266  0.2235  0.5257 -0.4107
  328MPD2    H7 4934   1.562   3.304  17.321 -0.8530 -2.3145 -0.3321
  329TMC3    C1 4935   1.449   3.099  17.228 -0.1953  0.5483 -0.1797
  329TMC3    C2 4936   1.364   3.009  17.170 -0.3261  0.6249 -0.4193
  329TMC3    C3 4937   1.332   2.890  17.236 -0.6783 -0.0647 -0.1285
  329TMC3    C4 4938   1.508   3.059  17.346  0.4342  0.9077 -0.1140
  329TMC3    C5 4939   1.483   2.937  17.401  0.5395 -0.8792 -0.2905
  329TMC3    C6 4940   1.393   2.846  17.350 -0.0567 -0.2824 -0.0621
  329TMC3     C 4941   1.400   3.235  17.217 -0.1686  0.2735  0.1141
  329TMC3     O 4942   1.288   3.245  17.167  0.5950 -0.6879 -0.1787
  329TMC3     H 4943   1.313   3.035  17.078 -1.4611  0.8957  0.2892
  329TMC3    H1 4944   1.578   3.124  17.398  0.7041 -0.6734  1.4868
  329TMC3    H2 4945   1.370   2.747  17.387  0.4119 -0.2308  0.3768
  329TMC3    C7 4946   1.529   2.917  17.540  0.5148 -0.4759  0.2728
  329TMC3    C8 4947   1.195   2.848  17.221 -0.1703  0.0032  0.5164
  329TMC3    O1 4948   1.609   3.000  17.583 -0.1217  0.1214  0.4184
  329TMC3    O2 4949   1.164   2.739  17.268  0.1431  0.2290  0.0541
  330TMC3    C1 4950   3.637   3.109   9.541  0.0036 -0.3144  0.4776
  330TMC3    C2 4951   3.602   2.978   9.504 -0.1710 -0.1229  0.8260
  330TMC3    C3 4952   3.701   2.890   9.495 -0.0924 -0.2733  0.3433
  330TMC3    C4 4953   3.767   3.133   9.576 -0.7500 -0.6653  0.1777
  330TMC3    C5 4954   3.865   3.037   9.567 -0.1356 -0.4446 -0.3925
  330TMC3    C6 4955   3.834   2.916   9.513 -0.2072 -0.2965 -0.1885
  330TMC3     C 4956   3.536   3.199   9.581 -1.4903  0.0094 -0.5746
  330TMC3     O 4957   3.563   3.272   9.677  0.4874 -0.0961  0.3961
  330TMC3     H 4958   3.502   2.952   9.470  0.3112 -1.2726  0.2961
  330TMC3    H1 4959   3.792   3.220   9.636 -2.8134 -0.1028  0.2364
  330TMC3    H2 4960   3.910   2.840   9.524 -0.3256 -0.5062 -0.8296
  330TMC3    C7 4961   3.994   3.081   9.607 -0.3117 -0.7410  0.2682
  330TMC3    C8 4962   3.665   2.750   9.500  0.1156 -0.0945 -0.6999
  330TMC3    O1 4963   4.008   3.196   9.644  0.2841 -0.0146  0.1589
  330TMC3    O2 4964   3.749   2.666   9.471  0.4680 -0.1171 -0.1288
  331MPD2     C 4965   1.504   1.745  12.340  0.4651 -0.2404  0.1726
  331MPD2    C1 4966   1.614   1.829  12.318  0.2531  0.4006  0.3680
  331MPD2    C2 4967   1.727   1.785  12.251  0.5311 -0.4178 -0.0462
  331MPD2    C3 4968   1.738   1.648  12.225  0.5024  0.6768  0.3551
  331MPD2    C4 4969   1.635   1.556  12.260 -0.6400 -0.6568 -0.6187
  331MPD2    C5 4970   1.514   1.610  12.305  0.2212 -0.3843 -0.1281
  331MPD2     H 4971   1.796   1.864  12.224  0.2053 -0.5383 -1.2156
  331MPD2    H1 4972   1.649   1.448  12.253 -0.7782 -0.8239  1.5016
  331MPD2    H2 4973   1.413   1.783  12.384  0.6006 -0.1401  0.3666
  331MPD2    H3 4974   1.428   1.545  12.319 -0.3484  0.0222 -1.7026
  331MPD2     N 4975   1.863   1.595  12.190  0.2012  0.3456  0.6858
  331MPD2    H5 4976   1.939   1.662  12.196  1.0041 -0.5199  0.1847
  331MPD2    N1 4977   1.613   1.966  12.357 -0.2485  0.3061 -0.0905
  331MPD2    H7 4978   1.524   2.011  12.380 -0.1609  1.2798 -1.5880
  332TMC3    C1 4979   2.029   1.469  12.096  0.2932 -0.1892  0.1785
  332TMC3    C2 4980   2.048   1.569  12.012 -0.1217  0.0029 -0.4816
  332TMC3    C3 4981   2.176   1.618  12.010 -0.3100  0.1669  0.0440
  332TMC3    C4 4982   2.116   1.415  12.178 -0.4098  0.2627  0.1460
  332TMC3    C5 4983   2.235   1.468  12.183  0.2869 -0.1525  1.0058
  332TMC3    C6 4984   2.274   1.568  12.098 -0.1593 -0.2772 -0.2077
  332TMC3     C 4985   1.893   1.474  12.144  0.1298  0.1624 -0.2661
  332TMC3     O 4986   1.822   1.373  12.135 -0.0821 -0.3264  0.3924
  332TMC3     H 4987   1.965   1.610  11.956  0.0201  1.8710  0.6794
  332TMC3    H1 4988   2.086   1.350  12.259  1.5800 -1.3449 -0.4199
  332TMC3    H2 4989   2.370   1.617  12.106 -0.0169 -1.1547  3.2724
  332TMC3    C7 4990   2.298   1.476  12.314 -0.4424 -1.2275 -0.1311
  332TMC3    C8 4991   2.226   1.723  11.919  0.3840  0.7055 -0.0180
  332TMC3    O1 4992   2.228   1.430  12.404 -0.3419  0.0692  0.1187
  332TMC3    O2 4993   2.338   1.767  11.939  0.0084 -0.5358  0.0568
  333MPD2     C 4994   1.508   2.409  10.989 -0.7214  0.0476 -0.5920
  333MPD2    C1 4995   1.565   2.328  10.891 -0.3388 -1.2170  0.0210
  333MPD2    C2 4996   1.485   2.241  10.826  0.3161  0.4980  0.2339
  333MPD2    C3 4997   1.353   2.224  10.850 -0.4040 -0.1034  0.2618
  333MPD2    C4 4998   1.292   2.311  10.938  0.5083 -0.4520  0.2836
  333MPD2    C5 4999   1.370   2.414  10.994  0.1508  0.1490 -0.5538
  333MPD2     H 5000   1.531   2.185  10.747 -0.9753  2.2205 -1.7341
  333MPD2    H1 5001   1.187   2.309  10.964  0.5323 -0.8093  0.3541
  333MPD2    H2 5002   1.566   2.478  11.049  0.8926 -1.5802 -0.2657
  333MPD2    H3 5003   1.327   2.483  11.066  0.6456 -1.8507  1.6919
  333MPD2     N 5004   1.291   2.111  10.788  0.0145  1.0604  0.2254
  333MPD2    H5 5005   1.348   2.053  10.727  1.1474  0.7360  1.5984
  333MPD2    N1 5006   1.703   2.351  10.865  0.4519 -0.4650  0.5298
  333MPD2    H7 5007   1.751   2.411  10.931 -2.4549  0.4757  1.7850
  334TMC3    C1 5008   1.921   2.316  10.778 -0.1465  0.6325 -0.4366
  334TMC3    C2 5009   2.015   2.230  10.802 -0.7204 -0.3105  0.3373
  334TMC3    C3 5010   2.140   2.274  10.833 -0.0196  0.9972  0.7341
  334TMC3    C4 5011   1.948   2.453  10.762 -0.4937 -0.2064  0.0759
  334TMC3    C5 5012   2.080   2.496  10.789  0.7544  0.0742  0.6453
  334TMC3    C6 5013   2.179   2.405  10.827 -0.0768 -0.3606 -0.2573
  334TMC3     C 5014   1.778   2.275  10.769  0.2364 -0.3101 -0.1442
  334TMC3     O 5015   1.752   2.184  10.688  0.1015 -0.2966 -0.2542
  334TMC3     H 5016   1.997   2.123  10.807 -5.1248  0.5056  2.0643
  334TMC3    H1 5017   1.869   2.517  10.726  0.6216  1.3015  0.3443
  334TMC3    H2 5018   2.280   2.434  10.852 -0.8427  2.2837 -0.1559
  334TMC3    C7 5019   2.129   2.629  10.749  0.4912  0.4969  0.5487
  334TMC3    C8 5020   2.228   2.175  10.881  0.2364  0.3260 -0.0556
  334TMC3    O1 5021   2.241   2.654  10.782 -0.2349  0.5226  0.0381
  334TMC3    O2 5022   2.181   2.061  10.889  0.0155  0.1799  0.2006
  335TMC3    C1 5023   2.222   3.340   0.284 -0.3496  0.3778  0.4251
  335TMC3    C2 5024   2.109   3.283   0.230  0.1890 -0.3700  0.7601
  335TMC3    C3 5025   2.127   3.239   0.099 -0.3290  0.4140  0.3978
  335TMC3    C4 5026   2.349   3.344   0.223 -0.3688 -0.0018 -1.0339
  335TMC3    C5 5027   2.353   3.297   0.096  0.8203  1.1026 -0.0695
  335TMC3    C6 5028   2.248   3.242   0.027 -0.7505 -0.0330  0.3835
  335TMC3     C 5029   2.218   3.355   0.428 -0.7559 -0.6761 -0.0145
  335TMC3     O 5030   2.322   3.340   0.493 -0.0586  0.6164  0.0360
  335TMC3     H 5031   2.013   3.265   0.277  0.7216 -0.7402  1.6905
  335TMC3    H1 5032   2.438   3.368   0.279  0.3497 -0.5966 -1.9257
  335TMC3    H2 5033   2.247   3.195  17.623 -0.6014 -0.2754  0.4991
  335TMC3    C7 5034   2.481   3.316   0.020  0.7503  0.1827 -0.2726
  335TMC3    C8 5035   2.020   3.156   0.041 -0.0352 -0.2894  0.0216
  335TMC3    O1 5036   2.492   3.256  17.610 -0.1728  0.6771  0.1609
  335TMC3    O2 5037   1.951   3.091   0.120  0.3133  0.3422  0.8079
  336MPD2     C 5038   1.474   1.256  16.545  0.6882  0.0329 -0.7950
  336MPD2    C1 5039   1.473   1.205  16.418 -0.3028 -0.1537 -0.1434
  336MPD2    C2 5040   1.488   1.070  16.394 -0.8156 -0.2289 -0.0247
  336MPD2    C3 5041   1.510   0.995  16.509 -0.5957 -0.5400 -0.4148
  336MPD2    C4 5042   1.505   1.046  16.641 -0.0466 -0.1484  0.2301
  336MPD2    C5 5043   1.487   1.181  16.657 -0.6221 -0.2506  0.6242
  336MPD2     H 5044   1.481   1.037  16.291 -0.8498  0.0656 -0.1147
  336MPD2    H1 5045   1.519   0.993  16.734 -1.9522  3.2807  2.4856
  336MPD2    H2 5046   1.456   1.362  16.557 -1.0572 -0.1453 -1.9276
  336MPD2    H3 5047   1.486   1.235  16.751 -1.0972 -1.0926  1.0996
  336MPD2     N 5048   1.539   0.851  16.504  0.8277  0.2757 -0.2870
  336MPD2    H5 5049   1.537   0.795  16.588 -1.7620 -1.7112 -1.6616
  336MPD2    N1 5050   1.458   1.286  16.307 -0.0433 -0.1274  0.5894
  336MPD2    H7 5051   1.441   1.234  16.221 -1.2489  1.1233  0.0596
  337TMC3    C1 5052   1.488   1.465  16.161 -0.2066  0.2734 -0.2220
  337TMC3    C2 5053   1.366   1.460  16.103  0.6358  0.6256 -0.3256
  337TMC3    C3 5054   1.340   1.536  15.993  0.0386 -0.6552  1.0088
  337TMC3    C4 5055   1.580   1.559  16.131 -0.1394  0.6665  0.8468
  337TMC3    C5 5056   1.545   1.638  16.026 -0.6055  0.0545  0.1840
  337TMC3    C6 5057   1.437   1.622  15.950  0.7372 -0.7969  0.1849
  337TMC3     C 5058   1.493   1.415  16.295  0.2992 -0.1687 -0.2457
  337TMC3     O 5059   1.535   1.490  16.382 -0.4402 -0.1811 -0.6748
  337TMC3     H 5060   1.286   1.401  16.145 -0.4474  1.0803 -1.7729
  337TMC3    H1 5061   1.677   1.566  16.179  0.2135  1.5825  0.0005
  337TMC3    H2 5062   1.425   1.669  15.853 -1.6515 -1.8656 -0.0418
  337TMC3    C7 5063   1.643   1.728  15.986 -0.6565  0.0519  0.0175
  337TMC3    C8 5064   1.213   1.531  15.926  0.1766  0.5508  0.6211
  337TMC3    O1 5065   1.756   1.689  16.008 -0.6424  0.5008  0.1202
  337TMC3    O2 5066   1.157   1.419  15.925  0.2479 -0.2722  0.2176
  338MPD2     C 5067   3.067   0.587   0.948 -0.1154  0.4004 -0.0090
  338MPD2    C1 5068   2.942   0.572   0.896 -0.1348 -0.4181  0.7333
  338MPD2    C2 5069   2.827   0.607   0.967  0.1205  0.4718  0.1511
  338MPD2    C3 5070   2.842   0.642   1.100  0.5081 -0.6531  0.6228
  338MPD2    C4 5071   2.963   0.643   1.158  0.0930 -0.1838 -0.9544
  338MPD2    C5 5072   3.082   0.618   1.080  0.0270 -0.4715 -0.1261
  338MPD2     H 5073   2.731   0.635   0.926 -0.3354  0.2567  1.0718
  338MPD2    H1 5074   2.976   0.665   1.263  0.6446 -0.5121 -0.9578
  338MPD2    H2 5075   3.159   0.561   0.897  0.2726 -3.2149  2.5549
  338MPD2    H3 5076   3.175   0.613   1.137  0.5599  0.1197 -0.9504
  338MPD2     N 5077   2.716   0.670   1.172 -0.7086 -0.6253  0.0437
  338MPD2    H5 5078   2.628   0.649   1.126 -0.0381 -1.7018 -0.7446
  338MPD2    N1 5079   2.915   0.512   0.769  0.2239 -0.2439 -0.1626
  338MPD2    H7 5080   2.816   0.507   0.750  0.2703  0.4341 -0.5960
  339TMC3    C1 5081   2.576   0.735   1.346  0.7222 -0.1768 -0.0771
  339TMC3    C2 5082   2.546   0.753   1.480  0.5235  0.0650  0.7933
  339TMC3    C3 5083   2.424   0.790   1.517  0.0487 -0.3637 -0.0855
  339TMC3    C4 5084   2.471   0.737   1.255 -0.8278  1.3449 -0.3741
  339TMC3    C5 5085   2.342   0.758   1.309  0.1051 -0.0728  0.1924
  339TMC3    C6 5086   2.314   0.787   1.436  0.2137  0.6741 -0.3292
  339TMC3     C 5087   2.709   0.717   1.301 -0.5454  0.1248 -0.0986
  339TMC3     O 5088   2.796   0.753   1.380 -0.2401  0.3218 -0.4140
  339TMC3     H 5089   2.632   0.754   1.546 -0.4226 -0.5999  2.0138
  339TMC3    H1 5090   2.483   0.770   1.152  1.2824  2.2362  0.1757
  339TMC3    H2 5091   2.226   0.845   1.464 -0.9852 -0.9170 -0.7808
  339TMC3    C7 5092   2.236   0.759   1.207 -0.6471  0.1694  0.3745
  339TMC3    C8 5093   2.421   0.833   1.656  0.0542  1.1021 -0.1901
  339TMC3    O1 5094   2.275   0.734   1.098  0.2551  0.0361  0.0845
  339TMC3    O2 5095   2.517   0.889   1.701  0.7719  0.3737  0.1608
  340MPD2     C 5096   1.763   2.791   9.997 -0.3563 -0.3141 -0.1175
  340MPD2    C1 5097   1.816   2.889   9.923  0.2731 -0.0741  0.8327
  340MPD2    C2 5098   1.939   2.943   9.965  0.8185  0.4090  0.6171
  340MPD2    C3 5099   1.997   2.895  10.078 -0.4021 -0.6026 -0.1305
  340MPD2    C4 5100   1.946   2.787  10.146 -0.4204 -0.3446 -0.8951
  340MPD2    C5 5101   1.825   2.745  10.113 -0.2942  0.5005 -0.3636
  340MPD2     H 5102   1.995   3.018   9.911  1.0615  0.1769  0.5447
  340MPD2    H1 5103   2.004   2.747  10.229  0.9475  0.4216 -1.4945
  340MPD2    H2 5104   1.664   2.756   9.972 -1.0184  0.3403  1.5928
  340MPD2    H3 5105   1.784   2.664  10.171 -1.4961  1.2037 -0.2364
  340MPD2     N 5106   2.120   2.940  10.128  0.1086  0.0949  0.3019
  340MPD2    H5 5107   2.162   2.883  10.201 -1.2298  0.1275  1.0951
  340MPD2    N1 5108   1.752   2.910   9.798 -0.4487 -0.0274 -0.1070
  340MPD2    H7 5109   1.662   2.865   9.791 -1.2502  1.5853 -0.2197
  341TMC3    C1 5110   1.705   2.995   9.588  0.7839  0.7290  0.6590
  341TMC3    C2 5111   1.601   2.906   9.582 -0.1342  0.4684  0.1852
  341TMC3    C3 5112   1.528   2.911   9.462  0.0121 -0.1294 -0.0060
  341TMC3    C4 5113   1.729   3.092   9.489 -0.3376 -0.1657  0.2390
  341TMC3    C5 5114   1.633   3.102   9.391  0.5955  1.0556 -1.3219
  341TMC3    C6 5115   1.530   3.012   9.369  0.2264  0.1602  0.2086
  341TMC3     C 5116   1.795   2.988   9.696 -0.0773  0.7919  0.6579
  341TMC3     O 5117   1.895   3.059   9.690 -0.2064 -0.6015  0.1337
  341TMC3     H 5118   1.593   2.816   9.641  1.1282 -0.2863 -0.8045
  341TMC3    H1 5119   1.802   3.172   9.491 -1.4472  0.8749 -1.3307
  341TMC3    H2 5120   1.476   3.011   9.276  4.1141 -1.8962 -2.0434
  341TMC3    C7 5121   1.647   3.209   9.299 -0.1658 -0.2511 -0.6358
  341TMC3    C8 5122   1.423   2.808   9.445  0.1224 -0.2683 -0.2463
  341TMC3    O1 5123   1.767   3.240   9.279 -0.0784  0.0202  0.2823
  341TMC3    O2 5124   1.349   2.816   9.345  0.0347 -0.5587 -0.5472
  342MPD2     C 5125   0.227   2.042   0.204 -0.7338 -0.5485 -0.0694
  342MPD2    C1 5126   0.344   2.015   0.138 -0.5523 -0.4264  0.0747
  342MPD2    C2 5127   0.427   2.125   0.112 -0.2943 -0.0884 -0.4383
  342MPD2    C3 5128   0.385   2.254   0.144 -0.0450 -0.1597 -0.3751
  342MPD2    C4 5129   0.266   2.273   0.206  0.0707  0.0331 -0.0828
  342MPD2    C5 5130   0.187   2.165   0.238 -0.2642 -0.0304 -0.2415
  342MPD2     H 5131   0.524   2.105   0.069 -0.2838 -1.2212  0.1341
  342MPD2    H1 5132   0.244   2.373   0.243  1.8925  0.1724  0.6621
  342MPD2    H2 5133   0.151   1.969   0.229 -1.7215  0.8006  0.8193
  342MPD2    H3 5134   0.088   2.182   0.280 -1.1366 -0.9687 -1.9618
  342MPD2     N 5135   0.473   2.361   0.128 -0.1194  0.6313 -0.3891
  342MPD2    H5 5136   0.431   2.453   0.136 -1.9010 -0.0888 -1.5115
  342MPD2    N1 5137   0.389   1.882   0.100  0.2233 -0.0067  0.1392
  342MPD2    H7 5138   0.467   1.871   0.036  0.8164 -0.5295  0.9449
  343TMC3    C1 5139   0.360   1.650   0.084 -0.3723  0.1669  0.2423
  343TMC3    C2 5140   0.445   1.653  17.675  0.3789 -0.0688  0.3918
  343TMC3    C3 5141   0.440   1.552  17.585 -0.3137  0.4118 -0.3604
  343TMC3    C4 5142   0.280   1.543   0.107 -0.6587  0.2663  0.4769
  343TMC3    C5 5143   0.278   1.443   0.010  0.1149 -0.1507 -0.6244
  343TMC3    C6 5144   0.364   1.440  17.599 -0.5587  0.3991  0.5980
  343TMC3     C 5145   0.331   1.771   0.155  0.3706 -0.4287 -0.5936
  343TMC3     O 5146   0.253   1.767   0.247 -0.2861 -0.4160 -0.5063
  343TMC3     H 5147   0.530   1.720  17.667 -0.9530  1.3707 -1.8779
  343TMC3    H1 5148   0.221   1.550   0.198  0.9103  0.4117  1.4679
  343TMC3    H2 5149   0.355   1.367  17.519 -0.4226 -0.5844  1.4731
  343TMC3    C7 5150   0.219   1.317   0.039 -0.4529  0.6139 -0.2265
  343TMC3    C8 5151   0.551   1.552  17.501 -0.0375 -0.2773 -0.2656
  343TMC3    O1 5152   0.212   1.236  17.642  0.4294 -0.0677 -0.3478
  343TMC3    O2 5153   0.594   1.659  17.468 -0.2935  0.2343 -0.1520
  344MPD2     C 5154   0.848   1.018  10.431 -0.0942 -0.4017  1.1437
  344MPD2    C1 5155   0.717   1.024  10.402 -0.0418  0.4596  0.1606
  344MPD2    C2 5156   0.687   1.084  10.284  0.1132 -0.7259 -0.3002
  344MPD2    C3 5157   0.781   1.143  10.196 -0.6311 -0.2583 -0.2593
  344MPD2    C4 5158   0.909   1.153  10.241 -0.2091  0.4691  0.5746
  344MPD2    C5 5159   0.938   1.092  10.358 -0.1026  0.4706  0.2050
  344MPD2     H 5160   0.584   1.077  10.249 -0.4675 -2.0757  1.6690
  344MPD2    H1 5161   0.990   1.200  10.185  0.8918 -1.1355  0.8174
  344MPD2    H2 5162   0.884   0.982  10.527  1.0129 -0.9451  0.5064
  344MPD2    H3 5163   1.037   1.104  10.400  1.3171  0.7652 -3.2731
  344MPD2     N 5164   0.746   1.204  10.075  0.0303  0.4231 -0.1571
  344MPD2    H5 5165   0.825   1.232  10.016 -0.6968  1.9994 -0.3981
  344MPD2    N1 5166   0.614   0.947  10.468  0.3776  0.5601  0.0967
  344MPD2    H7 5167   0.519   0.968  10.442  0.1988  0.1155  0.3894
  345TMC3    C1 5168   0.607   1.237   9.883  0.5055  0.2584 -0.4631
  345TMC3    C2 5169   0.721   1.225   9.810 -0.1053  0.8359 -0.1737
  345TMC3    C3 5170   0.733   1.288   9.686  0.0824 -0.1164  0.0444
  345TMC3    C4 5171   0.515   1.335   9.847 -0.3583 -0.0873  0.4466
  345TMC3    C5 5172   0.525   1.396   9.724  0.6543 -0.3344  0.0989
  345TMC3    C6 5173   0.641   1.376   9.643  0.7175 -0.3303 -0.6546
  345TMC3     C 5174   0.616   1.212  10.027  0.6233 -0.3967 -0.5099
  345TMC3     O 5175   0.507   1.212  10.085 -0.4858  0.5558  0.2514
  345TMC3     H 5176   0.805   1.170   9.851  0.6161  1.8084 -0.3467
  345TMC3    H1 5177   0.432   1.357   9.913 -0.6221 -3.3226  1.2137
  345TMC3    H2 5178   0.646   1.435   9.551  0.1714 -0.3995 -0.7292
  345TMC3    C7 5179   0.457   1.514   9.702  0.2968 -0.1167  0.2586
  345TMC3    C8 5180   0.862   1.288   9.611  0.5040 -0.0961 -0.3233
  345TMC3    O1 5181   0.517   1.599   9.640  0.5603  0.9962  0.4941
  345TMC3    O2 5182   0.893   1.380   9.535 -0.9071 -0.3092  0.1879
  346MPD2     C 5183   0.937   3.194  14.387  0.0030  0.0094 -0.7261
  346MPD2    C1 5184   1.026   3.211  14.284 -0.4760 -0.3814 -0.2172
  346MPD2    C2 5185   1.152   3.263  14.308 -0.2194  1.1136 -1.3133
  346MPD2    C3 5186   1.193   3.296  14.434  0.1394  0.7733 -0.5550
  346MPD2    C4 5187   1.097   3.281  14.536  0.0362  0.0033  0.5020
  346MPD2    C5 5188   0.970   3.227  14.516 -0.4988  0.2494  0.2167
  346MPD2     H 5189   1.219   3.278  14.223  0.4936 -0.1871 -0.9863
  346MPD2    H1 5190   1.127   3.302  14.638 -0.4904 -0.2338  0.7066
  346MPD2    H2 5191   0.846   3.139  14.367  0.5740 -1.2480  0.1695
  346MPD2    H3 5192   0.908   3.210  14.603 -0.8893  1.7016  0.2263
  346MPD2     N 5193   1.327   3.339  14.448  0.5221  0.0538  0.0407
  346MPD2    H5 5194   1.394   3.313  14.376  1.5183 -1.0759  1.3688
  346MPD2    N1 5195   0.981   3.185  14.149  0.1370 -0.0976  0.3488
  346MPD2    H7 5196   1.042   3.220  14.075  0.1504 -0.5740  0.1379
  347TMC3    C1 5197   1.513   3.440  14.544 -0.5146  0.0003  0.3617
  347TMC3    C2 5198   1.558   3.487  14.422  0.6516  0.8508 -0.3047
  347TMC3    C3 5199   1.691   3.489  14.406 -0.8027  0.1422 -0.1613
  347TMC3    C4 5200   1.591   3.401  14.646  1.0793 -0.0793  0.1988
  347TMC3    C5 5201   1.726   3.405  14.619 -0.4698  0.3092 -0.3237
  347TMC3    C6 5202   1.778   3.444  14.500 -0.1157  0.2717 -0.1507
  347TMC3     C 5203   1.374   3.396  14.562  0.2507 -0.2095  0.5668
  347TMC3     O 5204   1.331   3.391  14.675  0.0883 -0.2007 -0.2404
  347TMC3     H 5205   1.504   3.522  14.334 -0.4361 -1.3478 -0.5031
  347TMC3    H1 5206   1.550   3.371  14.742 -1.0372 -0.1624 -0.7378
  347TMC3    H2 5207   1.879   3.461  14.465 -0.0946 -0.3766 -0.3926
  347TMC3    C7 5208   1.801   3.310  14.697  0.4300 -0.1486 -0.0584
  347TMC3    C8 5209   1.726   3.482  14.265  0.0211  0.0094  0.0142
  347TMC3    O1 5210   1.733   3.259  14.782 -0.5240  0.5148 -0.4284
  347TMC3    O2 5211   1.674   3.566  14.191  0.1321 -0.7066  0.1625
  348MPD2     C 5212   4.576   2.468  12.125  0.1077  0.4088  0.9354
  348MPD2    C1 5213   4.677   2.469  12.033 -0.6866 -0.5258  0.3610
  348MPD2    C2 5214   4.661   2.551  11.920 -0.4098 -0.3049  0.0305
  348MPD2    C3 5215   4.544   2.618  11.897 -0.8987 -0.0770 -0.3221
  348MPD2    C4 5216   4.449   2.622  11.999  0.2170 -0.2926 -0.0350
  348MPD2    C5 5217   4.460   2.539  12.103 -0.2580  0.7167 -0.3056
  348MPD2     H 5218   0.021   2.550  11.851 -1.2971 -1.6336 -1.0210
  348MPD2    H1 5219   4.361   2.686  12.008  0.0762 -0.7114  1.6114
  348MPD2    H2 5220   4.575   2.407  12.214 -0.2401 -0.6446  0.2050
  348MPD2    H3 5221   4.382   2.548  12.177  0.1341  1.6564 -0.0026
  348MPD2     N 5222   4.523   2.683  11.777 -0.2192 -0.4202 -0.2351
  348MPD2    H5 5223   4.602   2.679  11.713 -0.3877 -1.8771 -0.3671
  348MPD2    N1 5224   0.071   2.392  12.049 -0.2445  0.2253 -0.2601
  348MPD2    H7 5225   0.129   2.389  11.966 -1.5497 -0.7457 -1.1294
  349TMC3    C1 5226   0.172   2.192  12.087  0.0539 -0.6122  0.0452
  349TMC3    C2 5227   0.115   2.077  12.141 -0.4897  0.1104 -0.1635
  349TMC3    C3 5228   0.078   1.976  12.057 -0.4936 -0.0025 -0.0434
  349TMC3    C4 5229   0.201   2.198  11.958 -0.5200  0.9006 -0.3651
  349TMC3    C5 5230   0.154   2.100  11.877 -0.6133 -0.4215  0.0768
  349TMC3    C6 5231   0.096   1.987  11.921  0.2370  0.5082 -0.4181
  349TMC3     C 5232   0.091   2.298  12.143  0.1221 -0.8586  0.1358
  349TMC3     O 5233   0.034   2.277  12.251 -0.5280  0.2254  0.2240
  349TMC3     H 5234   0.118   2.062  12.249 -0.6144 -0.6748 -0.2725
  349TMC3    H1 5235   0.244   2.277  11.897 -0.0686  1.1624  0.2854
  349TMC3    H2 5236   0.037   1.927  11.853  1.5669 -0.3947 -0.7922
  349TMC3    C7 5237   0.085   2.159  11.763  0.3615  0.1673 -0.1671
  349TMC3    C8 5238   0.060   1.850  12.122 -0.4618  0.9107 -0.2054
  349TMC3    O1 5239   0.158   2.193  11.671  0.4652 -0.8984  0.5446
  349TMC3    O2 5240   0.014   1.845  12.232 -0.5562  0.0257  0.0412
  350MPD2     C 5241   2.912   0.791  10.598 -1.2879 -0.5002  0.0975
  350MPD2    C1 5242   2.977   0.669  10.582  0.3931  0.3553 -0.6658
  350MPD2    C2 5243   3.117   0.671  10.575  0.4199  0.6573  0.0322
  350MPD2    C3 5244   3.192   0.786  10.579  0.3449 -0.1143  0.5348
  350MPD2    C4 5245   3.121   0.907  10.602  0.3166  0.1003 -0.4289
  350MPD2    C5 5246   2.987   0.905  10.611  0.0921  0.3937  0.1254
  350MPD2     H 5247   3.175   0.579  10.572 -1.9531 -0.9176  1.9706
  350MPD2    H1 5248   3.171   1.003  10.598 -0.5178  0.5413 -0.3128
  350MPD2    H2 5249   2.806   0.793  10.618 -1.1145  2.1948  0.7866
  350MPD2    H3 5250   2.934   0.999  10.625 -0.7425 -0.4994  3.0056
  350MPD2     N 5251   3.329   0.771  10.596  0.3061 -0.4947  0.2416
  350MPD2    H5 5252   3.373   0.689  10.556  0.9306 -0.7767  1.5007
  350MPD2    N1 5253   2.920   0.547  10.576 -0.6828 -0.4558  0.3270
  350MPD2    H7 5254   2.984   0.471  10.551 -1.9039 -1.5662  0.5564
  351TMC3    C1 5255   2.766   0.367  10.581  0.1648  0.5958 -0.0837
  351TMC3    C2 5256   2.866   0.272  10.597 -0.4385  0.8845  0.5169
  351TMC3    C3 5257   2.821   0.141  10.597  0.1274 -1.0684  0.0235
  351TMC3    C4 5258   2.636   0.328  10.550  0.7543 -0.5211 -0.1823
  351TMC3    C5 5259   2.606   0.194  10.533 -0.2705  0.9910  0.0059
  351TMC3    C6 5260   2.701   0.104  10.554  0.1342  0.0120  0.1176
  351TMC3     C 5261   2.792   0.512  10.598  0.7281  0.4775 -0.0026
  351TMC3     O 5262   2.693   0.585  10.611  0.2054  0.2533 -0.3581
  351TMC3     H 5263   2.968   0.306  10.613  0.0516  0.3919 -1.5373
  351TMC3    H1 5264   2.569   0.407  10.520 -0.5373 -0.3698  3.1684
  351TMC3    H2 5265   2.682   4.721  10.542  0.9394 -0.1158 -0.0386
  351TMC3    C7 5266   2.483   0.144  10.472 -0.1897  0.5453 -0.6242
  351TMC3    C8 5267   2.926   0.041  10.574  0.2083 -0.1108  0.0446
  351TMC3    O1 5268   2.482   0.028  10.437 -0.3346 -0.2035  0.0701
  351TMC3    O2 5269   2.914   4.670  10.497 -0.0824 -0.0856 -0.1241
  352MPD2     C 5270   2.209   2.713   1.795 -0.1444  0.1756 -0.4389
  352MPD2    C1 5271   2.108   2.636   1.738  0.0948 -0.4032  0.2031
  352MPD2    C2 5272   2.094   2.509   1.787 -0.0964  0.7645 -0.5540
  352MPD2    C3 5273   2.178   2.464   1.888  0.3083  0.9472 -0.6812
  352MPD2    C4 5274   2.273   2.536   1.943 -0.3539  0.1135  0.1167
  352MPD2    C5 5275   2.284   2.665   1.899  0.3432  0.2148 -0.4710
  352MPD2     H 5276   2.007   2.454   1.754  0.9365  0.3608 -2.5722
  352MPD2    H1 5277   2.324   2.496   2.029  0.1718 -1.4929 -0.9375
  352MPD2    H2 5278   2.218   2.818   1.769  1.1444  0.6396  1.8244
  352MPD2    H3 5279   2.355   2.730   1.949 -1.7053 -0.0970  2.8811
  352MPD2     N 5280   2.178   2.327   1.929 -0.2435 -0.5224 -0.1156
  352MPD2    H5 5281   2.249   2.315   2.001  1.2169 -0.6675 -1.5675
  352MPD2    N1 5282   2.017   2.695   1.641 -0.0521 -0.3961 -0.1730
  352MPD2    H7 5283   2.051   2.785   1.607  1.2242 -0.7128  0.2810
  353TMC3    C1 5284   2.134   2.102   1.918  0.0266 -0.6989  0.1162
  353TMC3    C2 5285   2.262   2.076   1.960 -0.0087 -0.1607  0.2644
  353TMC3    C3 5286   2.287   1.944   1.975  0.2404 -1.0985  0.0087
  353TMC3    C4 5287   2.040   2.006   1.888 -0.5310 -1.4540 -1.2874
  353TMC3    C5 5288   2.073   1.877   1.911  0.4248  0.0838 -0.7781
  353TMC3    C6 5289   2.199   1.847   1.959 -0.2941 -0.9617 -0.2029
  353TMC3     C 5290   2.092   2.232   1.883 -0.7469  0.1152  0.6005
  353TMC3     O 5291   1.996   2.241   1.805 -0.3409 -0.0357 -0.4038
  353TMC3     H 5292   2.337   2.144   2.000 -2.0443  2.2841 -0.0770
  353TMC3    H1 5293   1.938   2.033   1.860 -0.8596 -1.9549 -0.5674
  353TMC3    H2 5294   2.238   1.746   1.962 -1.8524 -1.5922 -1.4622
  353TMC3    C7 5295   1.984   1.774   1.880  0.4024  0.2520 -0.8507
  353TMC3    C8 5296   2.425   1.912   2.004 -0.0088 -0.2390  0.1836
  353TMC3    O1 5297   1.919   1.781   1.779 -0.4543 -0.8129 -0.0680
  353TMC3    O2 5298   2.502   1.983   2.066 -0.3985 -0.1087 -0.0282
  354TMC3    C1 5299   3.475   3.588  13.458 -0.1448  0.4017  0.4838
  354TMC3    C2 5300   3.523   3.695  13.520  0.2331 -0.5551  0.1454
  354TMC3    C3 5301   3.555   3.803  13.444  0.4537  0.2064 -0.0219
  354TMC3    C4 5302   3.464   3.579  13.321  0.8282  0.2852 -0.2686
  354TMC3    C5 5303   3.486   3.689  13.245  0.2830 -0.4657 -0.4571
  354TMC3    C6 5304   3.532   3.800  13.306 -0.1216 -0.3763  0.7098
  354TMC3     C 5305   3.423   3.480  13.543  0.8578  0.9722 -0.4254
  354TMC3     O 5306   3.340   3.405  13.495 -0.1322 -0.1194  0.3492
  354TMC3     H 5307   3.540   3.694  13.627 -0.4398 -0.3435  0.2558
  354TMC3    H1 5308   3.392   3.504  13.289 -1.2887  1.4932  1.7416
  354TMC3    H2 5309   3.532   3.898  13.258 -1.3393 -0.1738  1.1332
  354TMC3    C7 5310   3.476   3.671  13.095 -0.6864  0.3494  0.7402
  354TMC3    C8 5311   3.625   3.919  13.499  0.5895 -0.2770 -0.0910
  354TMC3    O1 5312   3.447   3.560  13.048 -0.3013 -0.2575 -0.5033
  354TMC3    O2 5313   3.669   3.911  13.612 -0.1072 -0.5150  0.0480
  355MPD2     C 5314   3.399   0.036  12.051 -0.5437 -0.4109 -0.0318
  355MPD2    C1 5315   3.426   0.056  11.914  1.0362 -0.2324 -0.4935
  355MPD2    C2 5316   3.555   0.046  11.868 -0.5699  0.9989 -0.2783
  355MPD2    C3 5317   3.656   0.014  11.959  0.3068  0.0055  0.2499
  355MPD2    C4 5318   3.628   0.001  12.089 -0.8425  0.4374 -0.1251
  355MPD2    C5 5319   3.501   0.008  12.136 -0.0545 -0.2254 -0.0660
  355MPD2     H 5320   3.587   0.066  11.766 -0.0597  1.1795 -0.0847
  355MPD2    H1 5321   3.701   4.694  12.163  2.5473  1.1674 -3.1706
  355MPD2    H2 5322   3.302   0.026  12.099 -0.1161  0.0645  0.9360
  355MPD2    H3 5323   3.483   4.708  12.240 -0.2762  0.4156  0.0375
  355MPD2     N 5324   3.793   0.034  11.928 -0.4736  0.3804  0.2054
  355MPD2    H5 5325   3.859   0.017  12.004 -0.9547 -2.6715 -0.0480
  355MPD2    N1 5326   3.313   0.090  11.833 -0.1167 -0.4740 -0.0798
  355MPD2    H7 5327   3.221   0.067  11.869 -0.6299 -3.1100 -3.0884
  356TMC3    C1 5328   3.991   0.115  11.824  0.1258 -0.2360  0.2941
  356TMC3    C2 5329   4.054   0.132  11.706 -0.5152  0.2781  0.1069
  356TMC3    C3 5330   4.184   0.174  11.719  0.1479  0.4568  0.1756
  356TMC3    C4 5331   4.051   0.112  11.946 -0.2938  0.2409 -0.2506
  356TMC3    C5 5332   4.187   0.142  11.951 -0.3914  0.3073 -0.5645
  356TMC3    C6 5333   4.252   0.187  11.835  0.1044 -0.4257 -0.0758
  356TMC3     C 5334   3.852   0.084  11.812 -0.2536  0.2701 -0.2362
  356TMC3     O 5335   3.799   0.083  11.703  0.1192 -0.4090 -0.3050
  356TMC3     H 5336   4.006   0.124  11.609 -0.2534  1.8734 -0.1604
  356TMC3    H1 5337   3.994   0.106  12.038  2.5456 -3.1157  1.2983
  356TMC3    H2 5338   4.358   0.210  11.839 -0.2685  1.0949  1.0622
  356TMC3    C7 5339   4.236   0.164  12.087  0.0789  0.1549 -0.2683
  356TMC3    C8 5340   4.251   0.185  11.588 -0.3615  0.7833  0.0616
  356TMC3    O1 5341   4.185   0.101  12.180  0.5058  0.1429 -0.1748
  356TMC3    O2 5342   4.204   0.115  11.501 -0.0920  0.1233  0.1503
  357MPD2     C 5343   3.932   4.720   2.149  0.1589 -0.3932 -0.2038
  357MPD2    C1 5344   3.892   4.589   2.140  0.6938 -1.0854 -0.0911
  357MPD2    C2 5345   3.759   4.568   2.109  0.4230 -0.2439 -0.1466
  357MPD2    C3 5346   3.663   4.665   2.112  0.5548 -0.3559 -0.2879
  357MPD2    C4 5347   3.704   0.071   2.139 -0.1655 -0.0074 -0.2396
  357MPD2    C5 5348   3.839   0.101   2.158 -0.1536  1.0380 -0.0753
  357MPD2     H 5349   3.735   4.468   2.075 -1.2692 -0.1368  0.6780
  357MPD2    H1 5350   3.648   0.162   2.123  1.1981  0.4546 -2.4675
  357MPD2    H2 5351   4.037   0.021   2.155  0.0562  0.1808 -0.7265
  357MPD2    H3 5352   3.863   0.206   2.163 -0.0408  1.0296 -0.4721
  357MPD2     N 5353   3.527   4.638   2.088 -0.3125  0.1942  0.2509
  357MPD2    H5 5354   3.469   4.721   2.099 -0.8776 -0.1974  0.2371
  357MPD2    N1 5355   3.998   4.495   2.120 -0.3682  0.6576 -0.2777
  357MPD2    H7 5356   4.093   4.530   2.120 -0.4604  0.9137  0.4163
  358TMC3    C1 5357   4.094   4.290   2.049  0.2620 -0.0584 -0.3548
  358TMC3    C2 5358   4.065   4.214   1.941  0.8549 -0.3669  0.0294
  358TMC3    C3 5359   4.158   4.207   1.835 -0.2607 -0.4288  0.0418
  358TMC3    C4 5360   4.216   4.353   2.061 -0.8305 -0.2564 -0.1906
  358TMC3    C5 5361   4.300   4.359   1.953  0.1320 -0.5439 -0.3126
  358TMC3    C6 5362   4.273   4.290   1.838 -1.0808 -0.2504 -0.4858
  358TMC3     C 5363   3.976   4.361   2.100  0.0442 -0.0605  0.8102
  358TMC3     O 5364   3.878   4.288   2.114 -0.2266  0.0031  0.3152
  358TMC3     H 5365   3.969   4.164   1.938  0.3958  0.5568 -0.6831
  358TMC3    H1 5366   4.240   4.412   2.149 -0.0658 -0.0750 -0.5188
  358TMC3    H2 5367   4.324   4.318   1.746  1.3190 -0.9207  0.6276
  358TMC3    C7 5368   4.434   4.419   1.958 -0.2419  0.0557 -0.1863
  358TMC3    C8 5369   4.113   4.176   1.700  1.1704  0.0028 -0.5782
  358TMC3    O1 5370   4.520   4.373   1.884 -0.3973  0.2367 -0.0598
  358TMC3    O2 5371   4.203   4.146   1.621 -0.2799 -0.0920 -0.3103
  359MPD2     C 5372   4.007   3.616  12.108 -0.0492  0.0645 -0.3515
  359MPD2    C1 5373   4.079   3.532  12.187 -0.1410  0.0589  0.0348
  359MPD2    C2 5374   4.016   3.423  12.241 -0.1307  0.4163  0.2969
  359MPD2    C3 5375   3.889   3.385  12.198 -0.5133  0.1422 -0.1087
  359MPD2    C4 5376   3.819   3.471  12.119 -0.6613 -0.0107  0.5947
  359MPD2    C5 5377   3.877   3.588  12.077  0.2601  0.3513 -0.2187
  359MPD2     H 5378   4.077   3.362  12.307  1.9066  0.8664 -1.1459
  359MPD2    H1 5379   3.722   3.446  12.078 -0.7896  0.3377  0.6915
  359MPD2    H2 5380   4.046   3.702  12.054 -1.2570  1.9683  1.8666
  359MPD2    H3 5381   3.825   3.661  12.016  0.6327 -0.5580 -1.6274
  359MPD2     N 5382   3.825   3.265  12.232 -0.0566 -0.3189  0.1415
  359MPD2    H5 5383   3.735   3.253  12.186 -0.4208 -0.2110  0.8270
  359MPD2    N1 5384   4.212   3.551  12.217 -0.2192 -0.3123  0.1468
  359MPD2    H7 5385   4.254   3.495  12.290 -0.1286 -2.0011 -1.2131
  360TMC3    C1 5386   4.439   3.631  12.195  0.3452  0.2899 -0.0471
  360TMC3    C2 5387   4.523   3.732  12.159 -0.0526 -0.5065 -0.0649
  360TMC3    C3 5388   4.640   3.702  12.102 -0.3194 -0.0747 -0.7303
  360TMC3    C4 5389   4.472   3.496  12.175 -0.2079 -0.0951 -0.3500
  360TMC3    C5 5390   4.597   3.472  12.121  0.1785  0.6966  0.0110
  360TMC3    C6 5391   4.681   3.573  12.086 -0.4340 -0.0805  0.2916
  360TMC3     C 5392   4.297   3.650  12.173  0.3357  0.8925 -0.2505
  360TMC3     O 5393   4.265   3.751  12.108  0.2334 -0.0362  0.1564
  360TMC3     H 5394   4.485   3.834  12.159 -1.8693 -1.1795 -0.0807
  360TMC3    H1 5395   4.399   3.416  12.181 -0.8796  0.4300 -1.5469
  360TMC3    H2 5396   0.054   3.554  12.041 -0.5140  2.0374 -0.7467
  360TMC3    C7 5397   4.597   3.369  12.017  0.2438 -0.2136  0.5242
  360TMC3    C8 5398   4.683   3.797  12.005  0.1780  0.5551  0.3439
  360TMC3    O1 5399   4.661   3.399  11.915 -0.0721  0.7648  0.2815
  360TMC3    O2 5400   4.672   3.921  12.035 -0.1842 -0.5532 -0.2549
  361MPD2     C 5401   1.502   1.980  16.809  0.9496  0.1393  0.8227
  361MPD2    C1 5402   1.474   1.990  16.943  0.5248 -0.9110 -0.0355
  361MPD2    C2 5403   1.524   1.897  17.031 -0.1259  0.0916 -0.4878
  361MPD2    C3 5404   1.588   1.783  16.986  0.2918  0.3017 -0.3029
  361MPD2    C4 5405   1.607   1.769  16.850  0.0444  0.2120  0.1239
  361MPD2    C5 5406   1.574   1.876  16.767 -0.3023  0.2959 -0.4184
  361MPD2     H 5407   1.510   1.903  17.138  2.6844  1.1576 -0.1921
  361MPD2    H1 5408   1.664   1.682  16.819  2.4386  1.7932  0.1027
  361MPD2    H2 5409   1.463   2.055  16.741 -1.0868  0.4816  2.3600
  361MPD2    H3 5410   1.599   1.883  16.661 -1.1668  2.3548 -0.4822
  361MPD2     N 5411   1.632   1.673  17.071  0.1449 -0.7805 -0.0719
  361MPD2    H5 5412   1.656   1.587  17.022 -1.7174 -1.6216  0.5064
  361MPD2    N1 5413   1.381   2.086  16.996 -0.1412 -0.1422 -0.5097
  361MPD2    H7 5414   1.371   2.081  17.097  0.4544  0.6774 -0.4097
  362TMC3    C1 5415   1.240   2.276  17.009  0.4693  0.2399  0.0179
  362TMC3    C2 5416   1.170   2.236  17.123 -0.6528 -0.1471 -0.1519
  362TMC3    C3 5417   1.069   2.314  17.175  0.1670  0.3025  0.5472
  362TMC3    C4 5418   1.202   2.402  16.956 -0.1523 -0.3553 -0.5828
  362TMC3    C5 5419   1.119   2.492  17.022  0.1785 -1.4114  0.5803
  362TMC3    C6 5420   1.045   2.441  17.129 -0.1716 -0.2086  0.3617
  362TMC3     C 5421   1.307   2.180  16.926 -0.0689 -0.4290 -0.7918
  362TMC3     O 5422   1.296   2.196  16.804  0.2181  0.0107 -0.1655
  362TMC3     H 5423   1.171   2.129  17.143 -2.6605 -0.4562 -1.7004
  362TMC3    H1 5424   1.252   2.427  16.863 -1.3177  1.1125 -0.8142
  362TMC3    H2 5425   0.972   2.509  17.173  0.2024  0.5784 -0.2360
  362TMC3    C7 5426   1.042   2.583  16.936 -0.6057 -0.1254 -0.8862
  362TMC3    C8 5427   0.969   2.245  17.261  0.2799 -0.1940  0.2488
  362TMC3    O1 5428   0.922   2.582  16.957 -0.0904  0.3830 -0.1377
  362TMC3    O2 5429   0.975   2.123  17.277  0.2620  0.5251 -0.1657
  363TMC3    C1 5430   3.971   4.691  10.075  0.1595 -0.3044  0.7781
  363TMC3    C2 5431   3.930   4.597  10.163  0.4774  0.0564 -0.3412
  363TMC3    C3 5432   3.845   4.639  10.264  0.4223  0.4958 -0.2830
  363TMC3    C4 5433   3.952   0.105  10.084  0.6256  0.3277 -0.1035
  363TMC3    C5 5434   3.865   0.137  10.187 -0.2024 -0.0929 -0.4304
  363TMC3    C6 5435   3.805   0.050  10.282  0.1067 -0.3042  0.1403
  363TMC3     C 5436   4.023   4.636   9.951  0.4834 -0.0262  0.4297
  363TMC3     O 5437   4.033   4.514   9.951 -0.2297 -0.5543  0.1440
  363TMC3     H 5438   3.960   4.493  10.160  1.6878  0.3852  0.5433
  363TMC3    H1 5439   3.952   0.168   9.997  0.3419 -0.3275 -0.5840
  363TMC3    H2 5440   3.748   0.079  10.370  0.9581  0.9509  0.2785
  363TMC3    C7 5441   3.818   0.269  10.193  0.6796 -0.2588  0.6010
  363TMC3    C8 5442   3.747   4.537  10.314  1.0946  0.4374  0.9451
  363TMC3    O1 5443   3.732   0.287  10.283  0.1093 -0.5682 -0.2768
  363TMC3    O2 5444   3.666   4.583  10.396  0.4374 -0.7665  0.0605
  364MPD2     C 5445   2.729   3.894  11.725 -0.1317 -0.5769  0.2547
  364MPD2    C1 5446   2.773   3.849  11.597 -0.3375  0.3031  0.0905
  364MPD2    C2 5447   2.876   3.760  11.582 -0.6831  0.2639  0.2099
  364MPD2    C3 5448   2.943   3.704  11.694 -0.2686  0.1764 -0.2292
  364MPD2    C4 5449   2.903   3.761  11.818  0.1462  0.0881  0.5796
  364MPD2    C5 5450   2.800   3.848  11.832  0.0633 -0.3984  0.0716
  364MPD2     H 5451   2.906   3.721  11.485 -3.0651  0.9052 -0.7903
  364MPD2    H1 5452   2.935   3.722  11.913  0.4670  0.1899  0.5117
  364MPD2    H2 5453   2.640   3.956  11.736  0.3578  0.5223 -1.9779
  364MPD2    H3 5454   2.761   3.859  11.933 -0.3994 -0.3510 -0.1133
  364MPD2     N 5455   3.040   3.600  11.699 -0.3318 -0.0297 -0.0292
  364MPD2    H5 5456   3.087   3.579  11.787  0.9185 -1.5361 -1.0532
  364MPD2    N1 5457   2.703   3.900  11.489  0.1884 -0.5532 -0.2335
  364MPD2    H7 5458   2.636   3.971  11.515  0.5452 -0.1920 -0.3130
  365TMC3    C1 5459   2.656   3.930  11.252  0.7196  0.5398  0.1143
  365TMC3    C2 5460   2.709   3.904  11.126 -0.6428  0.2476 -0.5826
  365TMC3    C3 5461   2.644   3.944  11.012 -0.0261 -0.2305 -0.0153
  365TMC3    C4 5462   2.541   4.004  11.270  0.0314  0.0014  0.2149
  365TMC3    C5 5463   2.490   4.068  11.159 -0.1169 -0.5910 -0.0310
  365TMC3    C6 5464   2.539   4.033  11.029  0.3962 -0.2234 -0.8566
  365TMC3     C 5465   2.731   3.865  11.358 -0.9822 -0.0536  0.4788
  365TMC3     O 5466   2.791   3.769  11.315  0.0194 -0.2205  0.0437
  365TMC3     H 5467   2.791   3.834  11.113  0.4681  1.4299 -0.0538
  365TMC3    H1 5468   2.496   4.021  11.368  2.1082  1.0234  0.9903
  365TMC3    H2 5469   2.499   4.085  10.942 -1.4031 -0.5451 -0.2283
  365TMC3    C7 5470   2.444   4.208  11.184 -0.8153 -0.1497  0.4763
  365TMC3    C8 5471   2.645   3.848  10.901 -0.2477 -0.1390 -0.5657
  365TMC3    O1 5472   2.438   4.283  11.087  0.1556 -0.1638 -0.3023
  365TMC3    O2 5473   2.734   3.763  10.913  0.5933 -0.7708 -0.3750
  366MPD2     C 5474   1.750   0.440  15.073 -0.0386  0.1405  0.1762
  366MPD2    C1 5475   1.767   0.572  15.108 -0.3892  0.1542  0.4155
  366MPD2    C2 5476   1.888   0.615  15.148 -0.2937  0.4234 -0.0087
  366MPD2    C3 5477   1.995   0.528  15.171  0.5335  0.4033  0.1126
  366MPD2    C4 5478   1.980   0.404  15.121  0.0233 -0.0170 -0.5487
  366MPD2    C5 5479   1.861   0.357  15.070  0.6486 -0.2585 -0.2075
  366MPD2     H 5480   1.891   0.716  15.185  1.4184 -0.5160  2.4000
  366MPD2    H1 5481   2.062   0.336  15.139 -0.5731 -0.6357 -0.1883
  366MPD2    H2 5482   1.657   0.392  15.046 -0.4667  1.4244 -0.6121
  366MPD2    H3 5483   1.853   0.254  15.038  0.8000 -0.3064 -0.0910
  366MPD2     N 5484   2.110   0.580  15.237  0.3010  0.3915  0.0450
  366MPD2    H5 5485   2.095   0.676  15.269 -1.6076 -0.1379  0.7204
  366MPD2    N1 5486   1.660   0.653  15.143 -0.0370  0.0273  0.1271
  366MPD2    H7 5487   1.688   0.736  15.194 -2.7459 -1.1632  3.5134
  367TMC3    C1 5488   1.490   0.667  15.293  1.0480  0.4536 -0.3132
  367TMC3    C2 5489   1.582   0.714  15.382  0.0280  0.2560  0.3309
  367TMC3    C3 5490   1.533   0.769  15.498 -0.3630 -0.5073  0.0234
  367TMC3    C4 5491   1.356   0.695  15.308 -0.6747  0.4538  0.7406
  367TMC3    C5 5492   1.315   0.756  15.430 -0.4595 -0.1048 -0.4069
  367TMC3    C6 5493   1.404   0.797  15.522  0.0230 -0.5955 -0.4203
  367TMC3     C 5494   1.534   0.600  15.174 -0.1910  0.0316 -0.6811
  367TMC3     O 5495   1.466   0.518  15.116 -0.1997  0.2225 -0.2382
  367TMC3     H 5496   1.688   0.691  15.379  0.6580  3.0714  1.2868
  367TMC3    H1 5497   1.294   0.679  15.220 -0.1837 -0.2485  0.5199
  367TMC3    H2 5498   1.366   0.854  15.606  0.3772 -0.2232 -0.5183
  367TMC3    C7 5499   1.184   0.811  15.433 -0.3828  0.2893  0.0480
  367TMC3    C8 5500   1.636   0.809  15.592  0.3279  0.1472  0.2447
  367TMC3    O1 5501   1.164   0.922  15.479 -0.5023  0.7623  0.6394
  367TMC3    O2 5502   1.752   0.777  15.568  0.0296 -0.0629 -0.4596
  368MPD2     C 5503   2.245   2.446  13.027 -0.4653 -0.1119 -0.9309
  368MPD2    C1 5504   2.238   2.570  12.974 -0.0532 -0.2855 -0.0182
  368MPD2    C2 5505   2.360   2.633  12.947  0.2342  0.7021  0.4990
  368MPD2    C3 5506   2.486   2.576  12.979  0.2134 -0.5665  0.1086
  368MPD2    C4 5507   2.488   2.441  13.023  0.6096  0.2920  0.0433
  368MPD2    C5 5508   2.369   2.379  13.044  0.3125 -0.7530  0.0033
  368MPD2     H 5509   2.366   2.728  12.894  0.5668 -1.0909 -2.6505
  368MPD2    H1 5510   2.584   2.394  13.043  0.9560  0.7393 -0.5333
  368MPD2    H2 5511   2.160   2.379  13.035 -0.3903 -0.2540 -1.3105
  368MPD2    H3 5512   2.380   2.277  13.080 -2.6927 -1.1598 -0.2508
  368MPD2     N 5513   2.602   2.648  12.970 -0.1604 -0.0436  0.1663
  368MPD2    H5 5514   2.684   2.587  12.976 -0.7494 -1.0869 -2.1671
  368MPD2    N1 5515   2.109   2.618  12.931  0.2679 -0.0719 -0.3291
  368MPD2    H7 5516   2.028   2.560  12.949  2.2560 -2.4629  0.7947
  369TMC3    C1 5517   1.938   2.772  12.867 -0.5194 -0.3228 -0.4003
  369TMC3    C2 5518   1.910   2.871  12.774 -0.5092 -0.0649  0.1833
  369TMC3    C3 5519   1.780   2.882  12.732 -0.0614  0.0277  0.5209
  369TMC3    C4 5520   1.844   2.685  12.920 -0.1863  0.9246 -0.1877
  369TMC3    C5 5521   1.708   2.711  12.892 -0.5607  1.3669  0.1408
  369TMC3    C6 5522   1.679   2.806  12.797 -0.4460  0.0540  0.9767
  369TMC3     C 5523   2.078   2.748  12.899  0.1407  0.5436  0.1857
  369TMC3     O 5524   2.157   2.834  12.859  0.0203  0.0001 -0.0718
  369TMC3     H 5525   1.977   2.953  12.751  0.5686 -1.5686 -2.0967
  369TMC3    H1 5526   1.866   2.604  12.989 -1.6645  0.5301 -0.1934
  369TMC3    H2 5527   1.576   2.829  12.775  0.3698  2.0787 -0.7697
  369TMC3    C7 5528   1.610   2.616  12.948 -0.4065  0.3713  0.5872
  369TMC3    C8 5529   1.744   2.969  12.624 -0.6890 -0.0721 -0.5396
  369TMC3    O1 5530   1.656   2.532  13.023  0.0848  0.8061 -0.5674
  369TMC3    O2 5531   1.626   3.001  12.610  0.4012  0.4548 -0.1200
  370TMC3    C1 5532   2.140   2.830  16.484 -0.2844  0.4850 -0.3426
  370TMC3    C2 5533   2.073   2.748  16.573 -0.4534  0.2454 -0.5492
  370TMC3    C3 5534   2.040   2.623  16.520  0.1998 -0.0298  0.0304
  370TMC3    C4 5535   2.169   2.793  16.349  0.3067  0.3178  0.0542
  370TMC3    C5 5536   2.111   2.672  16.309  0.2609  0.2321 -0.0463
  370TMC3    C6 5537   2.054   2.580  16.395 -0.7026  0.0321  0.7754
  370TMC3     C 5538   2.240   2.904  16.559 -0.3405  0.1003 -0.1316
  370TMC3     O 5539   2.271   2.858  16.665  0.0871 -0.2990  0.2523
  370TMC3     H 5540   2.050   2.783  16.673  0.8701 -1.9770  0.5451
  370TMC3    H1 5541   2.211   2.859  16.274  1.0096  1.2230  1.2578
  370TMC3    H2 5542   1.993   2.497  16.363 -0.3506  0.0201  0.1421
  370TMC3    C7 5543   2.165   2.611  16.184  0.4980  0.8818  0.3867
  370TMC3    C8 5544   2.013   2.520  16.615 -0.0251  0.9422  0.0659
  370TMC3    O1 5545   2.211   2.688  16.106  0.2701  0.4819  0.2143
  370TMC3    O2 5546   2.024   2.401  16.583  0.3127 -0.3019  1.2914
  371TMC3    C1 5547   3.414   0.924  15.765 -0.1422  0.1999  0.1894
  371TMC3    C2 5548   3.283   0.929  15.801 -0.3039  0.4501 -0.4568
  371TMC3    C3 5549   3.213   1.045  15.795 -0.5172  0.3790 -0.5105
  371TMC3    C4 5550   3.478   1.042  15.730  0.2302 -0.2486  0.0402
  371TMC3    C5 5551   3.402   1.155  15.727  0.3006  0.0931 -0.0601
  371TMC3    C6 5552   3.270   1.164  15.752  0.0865  0.3561  0.1629
  371TMC3     C 5553   3.493   0.793  15.773 -0.5597  0.3113  0.2049
  371TMC3     O 5554   3.615   0.789  15.778 -0.2543  0.5360 -0.1755
  371TMC3     H 5555   3.236   0.839  15.839  1.1181  0.5204  1.4947
  371TMC3    H1 5556   3.585   1.036  15.715  0.0447 -0.8326 -1.0303
  371TMC3    H2 5557   3.215   1.257  15.750  1.0572  0.9465  1.1481
  371TMC3    C7 5558   3.450   1.267  15.648 -0.0021 -0.0298  0.4064
  371TMC3    C8 5559   3.068   1.031  15.818 -0.0014 -0.0883 -0.3094
  371TMC3    O1 5560   3.389   1.371  15.658  0.6122 -0.2586  0.2491
  371TMC3    O2 5561   3.026   0.915  15.814 -0.1808 -0.1466  0.3326
  372MPD2     C 5562   3.270   2.607  13.343  0.2477 -0.2514 -0.0857
  372MPD2    C1 5563   3.358   2.509  13.387  0.1312 -0.0531  0.3554
  372MPD2    C2 5564   3.309   2.395  13.448  0.0184  0.2623  0.2475
  372MPD2    C3 5565   3.176   2.384  13.477  0.6469  0.1104  0.1908
  372MPD2    C4 5566   3.091   2.475  13.427 -0.0157  0.1087  0.7332
  372MPD2    C5 5567   3.138   2.589  13.370 -0.0341 -0.3661 -0.6307
  372MPD2     H 5568   3.366   2.309  13.482  0.3719  0.3345 -0.1581
  372MPD2    H1 5569   2.984   2.465  13.442  0.0405 -0.3448  0.8421
  372MPD2    H2 5570   3.290   2.706  13.302  0.5692 -0.4471 -0.3979
  372MPD2    H3 5571   3.066   2.668  13.351  1.9957  1.6275 -0.0842
  372MPD2     N 5572   3.129   2.269  13.545  0.3476  0.1649  0.0739
  372MPD2    H5 5573   3.197   2.200  13.574 -0.9665 -0.8708  0.6407
  372MPD2    N1 5574   3.497   2.524  13.365  0.3468  0.7763  0.0888
  372MPD2    H7 5575   3.564   2.462  13.408  0.8281  0.8169 -0.6040
  373TMC3    C1 5576   2.978   2.100  13.639  0.1815 -0.0914 -0.6334
  373TMC3    C2 5577   2.866   2.087  13.719 -0.1224 -0.0786 -0.8858
  373TMC3    C3 5578   2.835   1.958  13.750  0.5296  0.4197 -0.7308
  373TMC3    C4 5579   3.062   1.995  13.608 -0.2981  0.1860  0.3979
  373TMC3    C5 5580   3.015   1.872  13.633  0.3207  0.0791 -1.3388
  373TMC3    C6 5581   2.898   1.853  13.694 -0.1106  0.2914 -0.5392
  373TMC3     C 5582   3.000   2.226  13.569 -0.7253  0.6152 -0.4451
  373TMC3     O 5583   2.891   2.283  13.540  0.4278 -0.3438  0.0732
  373TMC3     H 5584   2.805   2.171  13.750 -1.5955 -0.5856 -2.4374
  373TMC3    H1 5585   3.149   2.007  13.544  1.5627  0.0193  2.8778
  373TMC3    H2 5586   2.860   1.756  13.723  0.6338  0.6928  1.7933
  373TMC3    C7 5587   3.103   1.759  13.612  0.3536  0.2180 -0.2798
  373TMC3    C8 5588   2.711   1.942  13.822 -0.2085  0.0959 -0.1264
  373TMC3    O1 5589   3.057   1.652  13.595  0.0058 -0.4483  0.0743
  373TMC3    O2 5590   2.626   2.026  13.790  0.2853  0.0275  0.1336
  374TMC3    C1 5591   2.865   2.685  10.062 -0.1500  0.0450 -0.3895
  374TMC3    C2 5592   2.942   2.799  10.067 -0.0847 -0.3669 -0.1247
  374TMC3    C3 5593   3.017   2.823   9.955  0.1163  0.0802  0.2311
  374TMC3    C4 5594   2.861   2.601   9.957  0.6291  0.5424  0.6980
  374TMC3    C5 5595   2.932   2.633   9.844 -0.4590 -0.9480 -0.0376
  374TMC3    C6 5596   3.023   2.736   9.851  0.1183  0.0211 -0.2168
  374TMC3     C 5597   2.770   2.665  10.160 -0.5527 -0.2803 -0.3639
  374TMC3     O 5598   2.669   2.600  10.134  0.1636 -0.1459 -0.1932
  374TMC3     H 5599   2.938   2.877  10.141 -1.5794 -0.3537 -0.2196
  374TMC3    H1 5600   2.790   2.519   9.951 -1.7761  2.6957 -0.3043
  374TMC3    H2 5601   3.088   2.754   9.766 -0.5334  1.9449 -0.3021
  374TMC3    C7 5602   2.936   2.558   9.725 -0.6042  0.4817 -0.4689
  374TMC3    C8 5603   3.133   2.910   9.955 -1.0245  0.1188 -0.6612
  374TMC3    O1 5604   2.988   2.614   9.629 -0.2884 -0.5035 -0.7141
  374TMC3    O2 5605   3.184   2.933   9.843 -0.7463  0.1692  0.3198
  375MPD2     C 5606   3.629   2.999  17.013  0.0069  0.8766  0.2705
  375MPD2    C1 5607   3.505   2.991  16.962  0.3176  0.1973  0.5890
  375MPD2    C2 5608   3.479   2.966  16.828  0.0625  0.7692  0.3114
  375MPD2    C3 5609   3.591   2.939  16.752 -0.3085 -0.9888 -0.0102
  375MPD2    C4 5610   3.718   2.950  16.805  0.3705 -0.9904 -0.1502
  375MPD2    C5 5611   3.735   2.978  16.936 -0.8227 -0.0378  0.4708
  375MPD2     H 5612   3.379   2.972  16.788 -0.0970  0.9038  0.7368
  375MPD2    H1 5613   3.809   2.934  16.749  0.3812 -0.1072 -0.3910
  375MPD2    H2 5614   3.653   3.000  17.119  0.4390 -0.9659  0.2009
  375MPD2    H3 5615   3.835   2.968  16.977 -1.0689  0.4944  1.2058
  375MPD2     N 5616   3.585   2.914  16.611 -0.0377 -0.3307  0.2235
  375MPD2    H5 5617   3.677   2.911  16.569 -0.2700  1.4944 -0.4228
  375MPD2    N1 5618   3.386   3.026  17.036  0.1665 -0.1062  0.0966
  375MPD2    H7 5619   3.298   3.033  16.986  0.1013 -1.1277  0.0777
  376TMC3    C1 5620   3.508   2.885  16.394  0.4904 -0.3048 -0.5396
  376TMC3    C2 5621   3.624   2.932  16.348  0.5565  0.6811  0.9872
  376TMC3    C3 5622   3.671   2.898  16.225  0.0699 -0.2448 -0.2798
  376TMC3    C4 5623   3.420   2.814  16.317  0.1060  0.4307  0.6743
  376TMC3    C5 5624   3.454   2.789  16.193  0.7974 -0.6158  0.7321
  376TMC3    C6 5625   3.582   2.823  16.144 -0.5550 -0.5966 -0.2016
  376TMC3     C 5626   3.471   2.906  16.537 -0.4653 -0.0274 -0.1120
  376TMC3     O 5627   3.352   2.904  16.563  0.2860  0.1355 -0.3990
  376TMC3     H 5628   3.683   3.002  16.406  1.9768 -0.1888  0.5780
  376TMC3    H1 5629   3.322   2.793  16.359 -0.9893  0.9037 -1.6801
  376TMC3    H2 5630   3.610   2.798  16.042 -1.2489 -1.5063 -0.1714
  376TMC3    C7 5631   3.357   2.829  16.089  0.4631 -0.2100  0.1964
  376TMC3    C8 5632   3.781   2.966  16.163 -0.0411 -0.8102 -0.1638
  376TMC3    O1 5633   3.409   2.849  15.981 -0.3153 -0.4215 -0.1215
  376TMC3    O2 5634   3.792   2.950  16.043 -0.0402  0.3792  0.0535
  377MPD2     C 5635   0.937   2.911  11.967 -0.3261 -0.6466  0.2829
  377MPD2    C1 5636   1.006   2.897  12.088 -0.1180  0.5257 -0.3317
  377MPD2    C2 5637   0.941   2.936  12.201 -0.4126  0.5055 -0.1343
  377MPD2    C3 5638   0.807   2.968  12.199 -0.5515  0.1406  0.4516
  377MPD2    C4 5639   0.738   2.985  12.085 -0.1168 -0.9926 -0.1662
  377MPD2    C5 5640   0.808   2.958  11.968  0.2820 -0.1260  0.2682
  377MPD2     H 5641   0.995   2.946  12.295 -1.0148  1.6120  0.0945
  377MPD2    H1 5642   0.638   3.025  12.085  0.5236  0.5682  2.5024
  377MPD2    H2 5643   0.978   2.894  11.868  2.0841  3.6254  0.5560
  377MPD2    H3 5644   0.759   2.966  11.872 -1.0175 -1.3107  0.8390
  377MPD2     N 5645   0.733   2.992  12.316 -0.7034 -0.1338  0.3025
  377MPD2    H5 5646   0.640   3.029  12.295 -0.6956 -0.5249 -0.3993
  377MPD2    N1 5647   1.133   2.840  12.079  0.4159  0.6955 -0.1716
  377MPD2    H7 5648   1.166   2.819  11.985 -0.4592 -1.9902  0.1337
  378TMC3    C1 5649   1.547   2.753  12.058  0.1290  0.5027 -0.4593
  378TMC3    C2 5650   1.405   2.768  12.052 -0.0751 -0.0630 -0.3064
  378TMC3    C3 5651   1.338   2.747  12.167 -0.8298  0.3545  0.1571
  378TMC3    C4 5652   1.615   2.726  12.170 -0.3253  0.6223  0.2195
  378TMC3    C5 5653   1.539   2.692  12.279 -0.2327 -0.1778  0.2914
  378TMC3    C6 5654   1.400   2.699  12.276 -0.2259 -0.3841  0.0981
  378TMC3     C 5655   1.612   2.826  11.946  0.6017  0.3742 -0.0920
  378TMC3     O 5656   1.539   2.877  11.860 -0.4814  0.6076 -0.2044
  378TMC3     H 5657   1.359   2.803  11.960  1.0041 -0.3942 -0.9728
  378TMC3    H1 5658   1.721   2.705  12.167 -0.3867  0.2916  0.4194
  378TMC3    H2 5659   1.348   2.689  12.370  0.4650 -1.7332  0.3370
  378TMC3    C7 5660   1.605   2.670  12.407 -0.0109 -0.3198 -0.0548
  378TMC3    C8 5661   1.201   2.792  12.190 -0.1254  0.0101 -0.0413
  378TMC3    O1 5662   1.532   2.625  12.497 -0.6243 -0.0131 -0.5258
  378TMC3    O2 5663   1.160   2.775  12.304  0.4144 -0.3051 -0.5049
  379MPD2     C 5664   2.185   0.414  16.459  0.6806 -0.1067 -0.1383
  379MPD2    C1 5665   2.307   0.447  16.395 -0.1011 -0.6960 -0.7979
  379MPD2    C2 5666   2.427   0.378  16.432 -0.1651 -0.2490 -0.5987
  379MPD2    C3 5667   2.430   0.287  16.535  0.1628 -0.2329 -0.3516
  379MPD2    C4 5668   2.311   0.263  16.598  0.6521  0.1560 -0.2553
  379MPD2    C5 5669   2.194   0.319  16.555 -0.0500  0.5421 -0.3938
  379MPD2     H 5670   2.516   0.409  16.378 -0.3305  0.5441 -0.4161
  379MPD2    H1 5671   2.298   0.197  16.684 -1.4792 -1.1967 -1.5989
  379MPD2    H2 5672   2.089   0.457  16.434  2.0246  3.1652  0.3172
  379MPD2    H3 5673   2.111   0.297  16.622 -0.8959 -0.7348 -1.8644
  379MPD2     N 5674   2.549   0.222  16.583  0.6327 -0.4640 -0.4867
  379MPD2    H5 5675   2.528   0.163  16.664  2.5376  0.3561  0.6178
  379MPD2    N1 5676   2.296   0.541  16.289  0.1896 -0.0170  0.6866
  379MPD2    H7 5677   2.203   0.572  16.264 -0.9114 -0.3093  4.4421
  380TMC3    C1 5678   2.368   0.711  16.135  0.0116  0.1244 -0.3232
  380TMC3    C2 5679   2.435   0.732  16.013  0.4376  0.1929  0.8004
  380TMC3    C3 5680   2.385   0.820  15.918  0.2018  0.0025  0.1568
  380TMC3    C4 5681   2.253   0.780  16.163 -1.1812  0.9854 -0.3283
  380TMC3    C5 5682   2.214   0.863  16.069 -0.5007  0.3280  0.3492
  380TMC3    C6 5683   2.273   0.888  15.952  0.0666 -0.0954 -1.4498
  380TMC3     C 5684   2.400   0.598  16.218 -0.3512  0.2730  0.3637
  380TMC3     O 5685   2.514   0.557  16.197  0.4463 -0.3416 -0.2630
  380TMC3     H 5686   2.526   0.679  15.990 -0.1282 -0.7442  0.7326
  380TMC3    H1 5687   2.196   0.756  16.252  1.0789 -2.3800  0.2149
  380TMC3    H2 5688   2.227   0.956  15.882 -1.0513  1.1666  0.5182
  380TMC3    C7 5689   2.077   0.907  16.082  0.5061 -0.4478  0.7423
  380TMC3    C8 5690   2.477   0.872  15.821 -0.2226  0.0320 -0.1377
  380TMC3    O1 5691   2.046   0.925  16.199 -0.8768 -0.2998  0.2821
  380TMC3    O2 5692   2.474   0.992  15.789 -0.6549  0.2730 -0.2355
  381TMC3    C1 5693   1.949   1.888  16.392  0.0244 -0.0393  0.0180
  381TMC3    C2 5694   2.051   1.979  16.369 -0.7223  0.2857  0.1786
  381TMC3    C3 5695   2.089   2.067  16.466 -0.0975  0.0453  0.2210
  381TMC3    C4 5696   1.890   1.880  16.516  0.3722 -0.7845 -0.5214
  381TMC3    C5 5697   1.934   1.969  16.616  0.6311 -0.1541 -0.1629
  381TMC3    C6 5698   2.028   2.065  16.588  0.1521  0.3598 -0.2988
  381TMC3     C 5699   1.982   1.763  16.332 -1.1029  0.0557  0.6464
  381TMC3     O 5700   2.048   1.771  16.232 -0.3653 -0.3124 -0.3805
  381TMC3     H 5701   2.100   1.984  16.272 -0.2183  0.0650  0.4192
  381TMC3    H1 5702   1.814   1.806  16.539  0.2972 -0.5936 -0.1420
  381TMC3    H2 5703   2.071   2.125  16.668 -0.9869 -2.2408  2.2658
  381TMC3    C7 5704   1.923   1.926  16.754 -0.7026  0.2290 -0.0480
  381TMC3    C8 5705   2.224   2.117  16.452 -0.0090 -0.7138 -0.0000
  381TMC3    O1 5706   1.936   1.805  16.768  0.0553  0.3226  0.1661
  381TMC3    O2 5707   2.302   2.060  16.379  0.5061  0.0175  0.4278
  382MPD2     C 5708   1.757   4.505  17.499  0.2201 -0.6435  0.2245
  382MPD2    C1 5709   1.706   4.628  17.462  0.5264  0.2428  0.1379
  382MPD2    C2 5710   1.577   4.629  17.412  0.1271  0.0454  0.2206
  382MPD2    C3 5711   1.500   4.511  17.403  0.2999  0.6626 -0.6070
  382MPD2    C4 5712   1.562   4.393  17.432 -0.1773  0.0886  0.3396
  382MPD2    C5 5713   1.687   4.385  17.480  0.0736 -0.3582  0.4610
  382MPD2     H 5714   1.538   0.006  17.403  0.5090  0.2051  0.3780
  382MPD2    H1 5715   1.517   4.296  17.419 -0.6695 -0.0929  3.4277
  382MPD2    H2 5716   1.856   4.494  17.542  0.5439 -0.6396 -0.5164
  382MPD2    H3 5717   1.723   4.284  17.490  0.5702 -0.0572  1.6951
  382MPD2     N 5718   1.364   4.505  17.356 -0.3251 -0.0524 -0.4205
  382MPD2    H5 5719   1.322   4.413  17.351  0.0765 -0.1959 -1.1293
  382MPD2    N1 5720   1.775   0.025  17.468  0.3236  0.2198 -0.4697
  382MPD2    H7 5721   1.721   0.109  17.450 -1.7143 -0.7284  1.1765
  383TMC3    C1 5722   1.146   4.585  17.298  0.5832  0.3271  0.0395
  383TMC3    C2 5723   1.102   4.457  17.313  0.1259 -0.4673  0.0483
  383TMC3    C3 5724   0.967   4.437  17.348 -0.0973 -0.9529  0.6307
  383TMC3    C4 5725   1.072   4.697  17.312  0.1246  0.1305 -0.2031
  383TMC3    C5 5726   0.941   4.683  17.348  0.1786 -1.0549  0.7559
  383TMC3    C6 5727   0.887   4.552  17.365  0.4000  0.4330  0.1649
  383TMC3     C 5728   1.284   4.616  17.323 -0.3826 -0.5264  0.7488
  383TMC3     O 5729   1.323   0.005  17.294 -0.4841 -0.2151 -0.0137
  383TMC3     H 5730   1.171   4.375  17.292  0.0974 -0.3582 -0.4771
  383TMC3    H1 5731   1.112   0.070  17.284 -0.3855  0.9690  1.8912
  383TMC3    H2 5732   0.780   4.540  17.364  0.5896 -1.1357 -1.2983
  383TMC3    C7 5733   0.850   0.063  17.311 -0.2872 -0.5651 -0.7212
  383TMC3    C8 5734   0.902   4.306  17.336  0.3225  0.5314 -0.1131
  383TMC3    O1 5735   0.875   0.140  17.215 -0.0329 -0.0362  0.6853
  383TMC3    O2 5736   0.779   4.305  17.341  0.3333 -0.0234 -0.5758
  384MPD2     C 5737   2.810   1.028  12.105 -0.5598  0.2207  0.2833
  384MPD2    C1 5738   2.826   1.019  12.238  0.1679 -0.2718 -0.1956
  384MPD2    C2 5739   2.932   0.938  12.281 -0.1946 -0.1569  0.5265
  384MPD2    C3 5740   3.014   0.860  12.197 -0.5546  0.2486 -0.4052
  384MPD2    C4 5741   2.979   0.862  12.063 -0.8767  0.6140  0.5689
  384MPD2    C5 5742   2.884   0.950  12.019  0.7360 -0.6345  0.6651
  384MPD2     H 5743   2.966   0.943  12.384 -1.1660  2.4405  0.6967
  384MPD2    H1 5744   3.032   0.800  11.992 -0.7963  0.0984  1.0789
  384MPD2    H2 5745   2.733   1.091  12.062 -0.7384  0.8602  1.5246
  384MPD2    H3 5746   2.866   0.949  11.912  1.7234 -1.0364  0.5114
  384MPD2     N 5747   3.105   0.770  12.253  0.3371  0.3383 -0.2896
  384MPD2    H5 5748   3.112   0.771  12.354 -2.3661 -2.4732 -0.0907
  384MPD2    N1 5749   2.763   1.091  12.342  0.4219 -0.0016  0.2439
  384MPD2    H7 5750   2.792   1.074  12.438  2.1793  1.7548  0.0331
  385TMC3    C1 5751   3.234   0.582  12.311  0.1549 -0.0766 -0.1462
  385TMC3    C2 5752   3.196   0.446  12.300  0.6825 -0.0944 -0.2645
  385TMC3    C3 5753   3.168   0.378  12.417  0.0675 -0.5771  0.9690
  385TMC3    C4 5754   3.243   0.638  12.426 -0.0219  0.0746 -0.0378
  385TMC3    C5 5755   3.197   0.574  12.540 -0.4328  0.5845 -0.7857
  385TMC3    C6 5756   3.179   0.439  12.534 -0.0908 -0.3506 -0.1521
  385TMC3     C 5757   3.193   0.669  12.204  1.0507 -0.0737  0.0465
  385TMC3     O 5758   3.210   0.633  12.090  0.6244 -0.0329 -0.2997
  385TMC3     H 5759   3.191   0.392  12.206  0.3631  0.3927 -0.5282
  385TMC3    H1 5760   3.266   0.744  12.431  1.7021 -0.2383 -1.0682
  385TMC3    H2 5761   3.162   0.381  12.624  1.7277 -0.6037  0.0354
  385TMC3    C7 5762   3.092   0.654  12.607  0.2821 -0.0479 -0.4188
  385TMC3    C8 5763   3.194   0.236  12.419  0.4033  0.8637  0.5771
  385TMC3    O1 5764   3.089   0.769  12.568  0.3050 -0.3883 -0.9852
  385TMC3    O2 5765   3.266   0.197  12.514  0.6530  1.0304  0.4699
  386TMC3    C1 5766   2.491   3.203  11.878 -0.3579  0.0969 -0.0378
  386TMC3    C2 5767   2.533   3.156  11.756 -0.9021 -0.7936 -1.1960
  386TMC3    C3 5768   2.461   3.181  11.645  0.0096  0.3306  0.1181
  386TMC3    C4 5769   2.372   3.265  11.885 -0.1289  0.3198 -0.1836
  386TMC3    C5 5770   2.306   3.299  11.769  0.2120  0.1420 -0.3649
  386TMC3    C6 5771   2.345   3.256  11.645 -0.0920 -0.3618  0.7831
  386TMC3     C 5772   2.561   3.179  12.005  0.7636 -0.2748 -0.1415
  386TMC3     O 5773   2.484   3.198  12.102 -0.5422 -0.1863 -0.0403
  386TMC3     H 5774   2.607   3.078  11.759 -1.3207 -1.0840  2.5047
  386TMC3    H1 5775   2.330   3.304  11.977 -1.5527 -2.4074  0.3351
  386TMC3    H2 5776   2.283   3.270  11.558  2.2513  0.7903 -0.6892
  386TMC3    C7 5777   2.180   3.369  11.783 -0.7258 -0.3096  0.6996
  386TMC3    C8 5778   2.505   3.125  11.517  0.1169  0.4060 -0.0950
  386TMC3    O1 5779   2.122   3.357  11.891  0.0477 -0.6687  0.4814
  386TMC3    O2 5780   2.417   3.113  11.432  0.4128  0.1078  0.3997
  387MPD2     C 5781   0.210   3.075   9.838 -0.1014 -0.1504 -0.1417
  387MPD2    C1 5782   0.318   3.016   9.900 -0.1754 -0.3148 -0.2036
  387MPD2    C2 5783   0.334   2.880   9.872  0.4518  0.3001  0.2238
  387MPD2    C3 5784   0.269   2.814   9.773  1.4730  0.0968  0.0770
  387MPD2    C4 5785   0.173   2.879   9.702 -0.3296  0.5674  0.9219
  387MPD2    C5 5786   0.143   3.008   9.736  0.6845  0.6988 -0.2279
  387MPD2     H 5787   0.416   2.829   9.920  0.4684  0.5590  0.4739
  387MPD2    H1 5788   0.114   2.821   9.633  0.0969 -1.5940  2.3879
  387MPD2    H2 5789   0.187   3.180   9.849  0.5678  0.0838 -0.9436
  387MPD2    H3 5790   0.070   3.061   9.677 -0.8696 -1.1712  0.0164
  387MPD2     N 5791   0.304   2.674   9.757 -0.1015  0.1238  0.1824
  387MPD2    H5 5792   0.380   2.639   9.814 -1.3414 -0.6445  1.3580
  387MPD2    N1 5793   0.409   3.082   9.983 -0.0531  0.4311  0.1817
  387MPD2    H7 5794   0.473   3.019  10.030  0.6583  0.4786 -0.7420
  388TMC3    C1 5795   0.528   3.249  10.092 -0.4185 -0.0539  0.2263
  388TMC3    C2 5796   0.605   3.342  10.049  0.1412  0.8430 -0.1758
  388TMC3    C3 5797   0.738   3.340  10.089 -0.2249 -0.0685 -0.0944
  388TMC3    C4 5798   0.562   3.154  10.187  0.3951  0.2580 -0.5102
  388TMC3    C5 5799   0.697   3.153  10.222 -0.0680  0.2921 -0.7021
  388TMC3    C6 5800   0.783   3.245  10.175  0.4408 -0.1792  0.2437
  388TMC3     C 5801   0.417   3.217  10.004  0.1925 -0.3174  0.1417
  388TMC3     O 5802   0.357   3.308   9.948  0.1161 -0.6906  0.0008
  388TMC3     H 5803   0.564   3.411   9.976  2.5875 -0.3162 -2.6477
  388TMC3    H1 5804   0.485   3.094  10.233  0.6362  0.5948  0.3284
  388TMC3    H2 5805   0.888   3.223  10.189  1.2610  2.3654 -1.9262
  388TMC3    C7 5806   0.744   3.023  10.251  0.1557 -0.5999  0.2241
  388TMC3    C8 5807   0.825   3.448  10.060 -0.5744 -0.2683 -0.1828
  388TMC3    O1 5808   0.721   2.991  10.366  0.2251  0.2913  0.1603
  388TMC3    O2 5809   0.787   3.522   9.974  0.2730 -0.3162 -0.1503
  389MPD2     C 5810   0.059   1.306  11.284  0.5641  0.5318  0.4535
  389MPD2    C1 5811   4.686   1.210  11.244  0.2801  0.1777 -0.5760
  389MPD2    C2 5812   4.646   1.113  11.333  0.0249  0.0197 -0.2505
  389MPD2    C3 5813   4.686   1.116  11.465  0.1060  0.2541  0.1546
  389MPD2    C4 5814   0.057   1.209  11.503  0.3548  0.6505 -0.1714
  389MPD2    C5 5815   0.108   1.293  11.410  0.4333 -0.1749 -0.3113
  389MPD2     H 5816   4.572   1.041  11.300 -0.6335  0.8331 -0.5529
  389MPD2    H1 5817   0.099   1.201  11.603  1.0988 -1.4264 -0.6483
  389MPD2    H2 5818   0.097   1.382  11.217 -0.8944  0.6233 -0.2752
  389MPD2    H3 5819   0.194   1.358  11.422 -0.6233  1.6992 -2.7810
  389MPD2     N 5820   4.650   1.023  11.558 -0.4055  0.0856  0.2011
  389MPD2    H5 5821   4.686   1.046  11.650  1.7693  0.2838 -0.6975
  389MPD2    N1 5822   4.641   1.214  11.106 -0.3706 -0.1960  0.4488
  389MPD2    H7 5823   4.685   1.290  11.054 -1.4246 -0.4304 -0.7924
  390TMC3    C1 5824   4.532   0.858  11.676  0.0666 -0.6493  0.3123
  390TMC3    C2 5825   4.479   0.736  11.684  1.1203  0.7048  0.3447
  390TMC3    C3 5826   4.425   0.700  11.808 -0.0653 -0.8676 -0.3858
  390TMC3    C4 5827   4.512   0.950  11.779  0.6002  0.3563  0.0688
  390TMC3    C5 5828   4.444   0.914  11.891 -0.0062 -0.5597 -0.1180
  390TMC3    C6 5829   4.427   0.784  11.914 -0.0521 -0.1785  0.9061
  390TMC3     C 5830   4.568   0.914  11.546 -0.2619 -0.4734  0.1829
  390TMC3     O 5831   4.545   0.848  11.444 -0.2702  0.8582 -0.4603
  390TMC3     H 5832   4.497   0.668  11.601 -1.2067 -0.6092  0.9388
  390TMC3    H1 5833   4.524   1.056  11.760 -3.0976  1.0100  1.3447
  390TMC3    H2 5834   4.390   0.757  12.012 -2.1657 -1.6965 -0.3034
  390TMC3    C7 5835   4.309   0.975  11.891 -1.3573  0.4690 -0.1826
  390TMC3    C8 5836   4.309   0.616  11.798  0.2585 -0.3705 -0.0155
  390TMC3    O1 5837   4.291   1.052  11.794  0.0060  0.3418 -0.4083
  390TMC3    O2 5838   4.278   0.584  11.684 -0.2021 -0.6686 -0.6193
  391MPD2     C 5839   3.844   2.622  11.326 -1.2183  0.7330 -0.3204
  391MPD2    C1 5840   3.947   2.694  11.266  0.2654  0.1382  0.3237
  391MPD2    C2 5841   3.925   2.758  11.146  0.4716  0.2274 -0.0384
  391MPD2    C3 5842   3.806   2.746  11.079 -0.5602 -0.4295 -0.1132
  391MPD2    C4 5843   3.694   2.681  11.144 -0.1418  0.5209 -0.5302
  391MPD2    C5 5844   3.721   2.618  11.264  0.2594  0.4401  0.5214
  391MPD2     H 5845   3.993   2.825  11.095 -0.6749  0.7909 -0.8217
  391MPD2    H1 5846   3.597   2.665  11.098 -0.3939 -0.7345  0.4340
  391MPD2    H2 5847   3.862   2.563  11.415 -1.7036  3.1565  1.3997
  391MPD2    H3 5848   3.638   2.558  11.301  1.5709 -1.0978  0.9447
  391MPD2     N 5849   3.792   2.817  10.952 -0.5514 -0.2589  0.0606
  391MPD2    H5 5850   3.878   2.828  10.901 -0.7097  0.7545  0.0267
  391MPD2    N1 5851   4.077   2.694  11.327  0.3524  0.4390  0.2611
  391MPD2    H7 5852   4.082   2.644  11.415  1.7519 -1.3764 -0.8413
  392TMC3    C1 5853   3.693   2.940  10.769  0.1188  0.2720  0.1289
  392TMC3    C2 5854   3.585   2.968  10.691 -0.4556  0.1149 -0.5001
  392TMC3    C3 5855   3.605   3.044  10.581  0.1713  0.1167  0.3927
  392TMC3    C4 5856   3.816   2.986  10.745  0.4824 -0.2954 -0.0247
  392TMC3    C5 5857   3.836   3.070  10.638 -0.7525 -0.4712 -0.1875
  392TMC3    C6 5858   3.729   3.103  10.557 -0.0046  0.2242  0.4214
  392TMC3     C 5859   3.673   2.853  10.888  0.2171  0.3248  0.2594
  392TMC3     O 5860   3.556   2.847  10.933 -0.2079 -0.6590  0.0286
  392TMC3     H 5861   3.495   2.911  10.713  0.5114 -0.9955  0.5315
  392TMC3    H1 5862   3.894   2.989  10.821  2.2449 -0.8337 -1.7924
  392TMC3    H2 5863   3.746   3.169  10.473 -0.6491 -1.0398 -0.7121
  392TMC3    C7 5864   3.954   3.146  10.636  0.1547  0.1549 -0.5618
  392TMC3    C8 5865   3.507   3.031  10.480 -0.2288  0.4909  0.2352
  392TMC3    O1 5866   4.009   3.169  10.741  0.6156  0.5238 -0.8906
  392TMC3    O2 5867   3.421   2.947  10.502 -0.2585 -0.1673 -0.4433
  393TMC3    C1 5868   3.063   0.756  10.968  0.5650 -0.3349 -0.1473
  393TMC3    C2 5869   2.929   0.738  10.987 -0.0288  0.0448 -0.2157
  393TMC3    C3 5870   2.872   0.614  10.977 -0.1763  0.5048 -0.4579
  393TMC3    C4 5871   3.143   0.651  10.930  0.3317  0.1898  0.7405
  393TMC3    C5 5872   3.084   0.525  10.924  0.4101  0.2986 -0.0298
  393TMC3    C6 5873   2.954   0.509  10.936 -0.1275  0.1662 -0.4654
  393TMC3     C 5874   3.124   0.895  10.966  0.4334 -0.0836  0.1267
  393TMC3     O 5875   3.245   0.904  10.992  0.6809 -0.0107 -0.6303
  393TMC3     H 5876   2.875   0.821  11.032 -0.8108 -0.2084 -0.6913
  393TMC3    H1 5877   3.248   0.665  10.906  0.1995 -1.5234 -0.8142
  393TMC3    H2 5878   2.903   0.416  10.911  0.7390 -0.7885  1.2584
  393TMC3    C7 5879   3.152   0.427  10.840 -0.3896  0.1344  0.5960
  393TMC3    C8 5880   2.734   0.595  10.988  0.2724  0.2373 -0.2975
  393TMC3    O1 5881   3.078   0.341  10.802 -0.1450  0.3814  0.0364
  393TMC3    O2 5882   2.660   0.689  10.964  0.0107 -0.0581 -0.3289
  394TMC3    C1 5883   4.518   1.172  10.908  0.0190  0.1247  0.2249
  394TMC3    C2 5884   4.423   1.095  10.847  0.5777 -0.2373  0.6224
  394TMC3    C3 5885   4.408   1.127  10.715 -0.2638 -0.0507  0.0936
  394TMC3    C4 5886   4.610   1.256  10.836  0.5635 -0.1777  0.4171
  394TMC3    C5 5887   4.599   1.271  10.703 -0.3533  0.4962  0.1958
  394TMC3    C6 5888   4.489   1.213  10.644 -0.0282 -0.0218 -0.1720
  394TMC3     C 5889   4.545   1.138  11.045  0.2501  0.0663  0.1738
  394TMC3     O 5890   4.474   1.056  11.098  0.4451 -0.3736 -0.7010
  394TMC3     H 5891   4.347   1.037  10.898 -0.6795  1.3063  0.5061
  394TMC3    H1 5892   4.692   1.312  10.880  0.9121 -1.7552  1.7984
  394TMC3    H2 5893   4.467   1.226  10.539  0.9545  1.4816 -0.1838
  394TMC3    C7 5894   4.700   1.334  10.615  0.5305 -0.6502 -0.5055
  394TMC3    C8 5895   4.330   1.031  10.642 -0.3234  0.2598  0.1113
  394TMC3    O1 5896   0.025   1.440  10.660  0.1536 -0.4499 -0.2757
  394TMC3    O2 5897   4.360   0.911  10.643  0.3190 -0.3926 -0.0462
  395TMC3    C1 5898   4.439   2.892  14.116  0.1383 -0.2954  0.1973
  395TMC3    C2 5899   4.338   2.827  14.179 -1.1497  0.0169  0.9556
  395TMC3    C3 5900   4.261   2.901  14.270 -0.3628  0.2389  0.2503
  395TMC3    C4 5901   4.475   3.021  14.151  0.1140  1.0595 -0.7794
  395TMC3    C5 5902   4.401   3.080  14.254  0.3181 -0.4520 -0.1021
  395TMC3    C6 5903   4.289   3.029  14.304  0.0524 -0.0054  0.3918
  395TMC3     C 5904   4.519   2.825  14.010 -0.2158  0.2247  0.1905
  395TMC3     O 5905   4.553   2.887  13.911 -0.3161 -0.3066  0.1550
  395TMC3     H 5906   4.310   2.733  14.133 -1.5693 -0.4889  2.2394
  395TMC3    H1 5907   4.569   3.061  14.115  1.1735  0.1369  0.9385
  395TMC3    H2 5908   4.240   3.076  14.389 -2.5828 -1.1533 -0.5059
  395TMC3    C7 5909   4.458   3.160  14.351  0.7803  0.7016  0.3350
  395TMC3    C8 5910   4.194   2.818  14.365  0.0175  0.2233  0.2194
  395TMC3    O1 5911   4.389   3.237  14.415  0.1166 -0.6563  0.5369
  395TMC3    O2 5912   4.097   2.864  14.428  0.1523 -0.3602 -0.8890
  396MPD2     C 5913   4.282   4.328  17.576  0.4508 -0.5223 -0.0273
  396MPD2    C1 5914   4.321   4.287  17.449 -0.1909 -0.1608 -0.0646
  396MPD2    C2 5915   4.364   4.384  17.357  0.0053  0.6291  0.0786
  396MPD2    C3 5916   4.367   4.519  17.394 -0.0625 -0.0699 -0.2588
  396MPD2    C4 5917   4.335   4.550  17.524  0.1897 -0.6541  0.8614
  396MPD2    C5 5918   4.301   4.456  17.617  0.0523  0.1424  0.5481
  396MPD2     H 5919   4.396   4.350  17.260  2.1226 -0.4266  1.1398
  396MPD2    H1 5920   4.343   4.656  17.547 -2.1745 -0.1951 -0.3449
  396MPD2    H2 5921   4.237   4.265  17.652 -1.0194 -1.0227 -1.3135
  396MPD2    H3 5922   4.264   4.489   0.019  0.6512  1.5303  0.3094
  396MPD2     N 5923   4.415   4.615  17.304  0.2722  0.1451 -0.1277
  396MPD2    H5 5924   4.465   4.572  17.226 -1.1638  0.3428 -1.1516
  396MPD2    N1 5925   4.304   4.153  17.420 -0.3978 -0.5603  0.7660
  396MPD2    H7 5926   4.266   4.092  17.491  0.9943 -1.7455  0.4835
  397TMC3    C1 5927   4.287   3.970  17.271  0.1355  0.6005  0.6832
  397TMC3    C2 5928   4.335   3.904  17.163 -0.5394 -0.4990 -0.1890
  397TMC3    C3 5929   4.290   3.770  17.154 -0.9587  0.0605 -0.5945
  397TMC3    C4 5930   4.238   3.897  17.380  0.3695 -0.6882 -0.5067
  397TMC3    C5 5931   4.227   3.761  17.372  0.3799 -0.6011  0.6755
  397TMC3    C6 5932   4.241   3.690  17.258 -0.4222 -0.6066  0.3602
  397TMC3     C 5933   4.353   4.095  17.305 -0.2189  0.3701  0.0641
  397TMC3     O 5934   4.430   4.135  17.218  0.0867 -0.2407 -0.4374
  397TMC3     H 5935   4.373   3.963  17.080 -0.6328  0.1459  0.2254
  397TMC3    H1 5936   4.198   3.948  17.468 -0.7427 -2.9826  0.3162
  397TMC3    H2 5937   4.251   3.583  17.266 -0.4018 -0.7045 -1.0367
  397TMC3    C7 5938   4.176   3.687  17.486 -0.4311 -0.0508 -0.1439
  397TMC3    C8 5939   4.330   3.705  17.036  0.0354  0.0171 -0.3161
  397TMC3    O1 5940   4.099   3.600  17.455  0.7086  0.3656 -0.2095
  397TMC3    O2 5941   4.406   3.759  16.955 -0.1075 -0.3102  0.1782
  398MPD2     C 5942   2.775   0.602   0.257  0.5277 -0.8180  0.0657
  398MPD2    C1 5943   2.900   0.544   0.278  0.4690 -0.7055  0.4741
  398MPD2    C2 5944   2.993   0.614   0.356  0.5802 -0.3033 -0.4373
  398MPD2    C3 5945   2.964   0.744   0.404  0.1387 -0.6508  0.0580
  398MPD2    C4 5946   2.840   0.794   0.393 -0.4427 -0.4376  0.8456
  398MPD2    C5 5947   2.753   0.724   0.311 -0.3082  0.4704 -0.5686
  398MPD2     H 5948   3.088   0.564   0.366 -0.7871 -2.9771 -0.7823
  398MPD2    H1 5949   2.809   0.893   0.426 -1.4249  0.6224 -3.1301
  398MPD2    H2 5950   2.694   0.556   0.200 -0.4582  1.1079 -0.0983
  398MPD2    H3 5951   2.649   0.754   0.299 -0.4094 -0.8029 -2.8749
  398MPD2     N 5952   3.063   0.802   0.486  0.0428  0.0929  0.3364
  398MPD2    H5 5953   3.153   0.755   0.493 -0.0292 -0.0998 -0.0111
  398MPD2    N1 5954   2.937   0.412   0.232 -0.1252  0.1786  0.4714
  398MPD2    H7 5955   3.025   0.380   0.270 -1.2762  0.0291  3.0662
  399TMC3    C1 5956   2.895   0.194   0.149  0.5605 -0.0285 -0.2137
  399TMC3    C2 5957   3.027   0.157   0.184  0.3786 -0.1530  0.3849
  399TMC3    C3 5958   3.055   0.025   0.208 -0.7082 -0.2481 -0.3006
  399TMC3    C4 5959   2.799   0.092   0.130 -0.0380  0.7780  0.4707
  399TMC3    C5 5960   2.837   4.679   0.157  0.5343 -0.5143  1.0806
  399TMC3    C6 5961   2.965   4.647   0.198 -0.4906 -0.3388 -0.1570
  399TMC3     C 5962   2.854   0.336   0.153  0.3077 -0.0541 -0.4758
  399TMC3     O 5963   2.747   0.356   0.098  0.1273 -0.5973 -0.0164
  399TMC3     H 5964   3.110   0.225   0.171  0.0651  0.2884  0.6943
  399TMC3    H1 5965   2.704   0.125   0.091  0.3179  0.3628 -0.7467
  399TMC3    H2 5966   2.981   4.546   0.235 -0.6527 -0.3900 -0.2224
  399TMC3    C7 5967   2.740   4.579   0.152  0.2008  0.4131  1.0884
  399TMC3    C8 5968   3.179   4.722   0.273  0.7919 -0.4082  0.3911
  399TMC3    O1 5969   2.775   4.466   0.176  0.1575 -0.2168  0.2392
  399TMC3    O2 5970   3.243   0.093   0.316  0.0077 -0.3267  0.0121
  400TMC3    C1 5971   1.035   3.747  16.964  0.3179 -0.7293  0.9694
  400TMC3    C2 5972   0.908   3.709  16.940 -0.2960 -1.0035 -0.1222
  400TMC3    C3 5973   0.835   3.808  16.889  0.5155  0.0088  0.2791
  400TMC3    C4 5974   1.085   3.877  16.949 -0.0326 -0.3040 -0.1474
  400TMC3    C5 5975   0.999   3.967  16.898  0.2810 -0.4373 -0.3030
  400TMC3    C6 5976   0.872   3.933  16.864  0.7301 -0.1321 -0.2954
  400TMC3     C 5977   1.108   3.652  17.045 -0.4459 -0.5092 -0.0846
  400TMC3     O 5978   1.096   3.531  17.029 -0.0428 -0.2846 -0.0496
  400TMC3     H 5979   0.877   3.618  16.990 -0.3385 -1.1388 -0.3941
  400TMC3    H1 5980   1.191   3.901  16.952  0.1658 -1.2444  0.2926
  400TMC3    H2 5981   0.801   4.006  16.823  1.7979  0.5235 -0.9759
  400TMC3    C7 5982   1.037   4.102  16.914 -0.2676  0.2815 -0.1627
  400TMC3    C8 5983   0.700   3.771  16.847 -0.5590 -0.1010  0.2623
  400TMC3    O1 5984   1.157   4.129  16.929  0.5846 -0.2523 -0.8603
  400TMC3    O2 5985   0.620   3.862  16.835 -0.0569  0.0300 -0.1864
  401MPD2     C 5986   4.606   3.353   0.949 -0.3059  0.0608 -0.2793
  401MPD2    C1 5987   4.710   3.270   0.997 -0.2369  0.2999  0.7337
  401MPD2    C2 5988   4.703   3.137   0.968 -1.1247 -0.0215  0.4780
  401MPD2    C3 5989   4.589   3.089   0.908  0.5748 -0.8463 -0.6730
  401MPD2    C4 5990   4.494   3.173   0.856  0.7056  0.1812  0.1710
  401MPD2    C5 5991   4.497   3.306   0.881 -0.2946 -0.2608  0.0475
  401MPD2     H 5992   0.053   3.061   0.992  0.4309  1.5066  0.5503
  401MPD2    H1 5993   4.402   3.139   0.812  1.0420 -1.7888  0.9847
  401MPD2    H2 5994   4.603   3.459   0.968  0.8605  0.3270 -1.6396
  401MPD2    H3 5995   4.410   3.366   0.857 -1.0439 -1.1981  0.4112
  401MPD2     N 5996   4.578   2.950   0.873 -0.3040 -0.3570 -0.2339
  401MPD2    H5 5997   4.663   2.895   0.877 -0.9009 -1.3743 -1.5827
  401MPD2    N1 5998   0.094   3.312   1.070  0.5255 -0.0409  0.5732
  401MPD2    H7 5999   0.149   3.238   1.112 -1.4985 -0.6581  2.1283
  402TMC3    C1 6000   4.525   2.758   0.759  0.2802  0.1370 -0.2875
  402TMC3    C2 6001   4.482   2.650   0.833 -0.2944  0.7164 -0.0862
  402TMC3    C3 6002   4.561   2.540   0.845 -0.0652  0.5603  0.4452
  402TMC3    C4 6003   4.644   2.747   0.692 -0.5234 -0.1709 -0.0394
  402TMC3    C5 6004   4.716   2.637   0.706 -0.7765  1.0089  0.3693
  402TMC3    C6 6005   4.674   2.527   0.780 -0.2175  0.0248 -0.0747
  402TMC3     C 6006   4.476   2.885   0.805 -0.3956 -0.1639  0.4105
  402TMC3     O 6007   4.354   2.904   0.819 -0.1492 -0.3755  0.0132
  402TMC3     H 6008   4.384   2.660   0.878  0.7194  1.4485  1.9699
  402TMC3    H1 6009   4.678   2.833   0.635 -2.7156 -1.0516 -2.6930
  402TMC3    H2 6010   0.019   2.445   0.802 -0.3117 -0.5848 -2.0313
  402TMC3    C7 6011   0.107   2.624   0.617 -0.2334  0.0588 -0.4361
  402TMC3    C8 6012   4.537   2.435   0.942 -0.3236 -0.2872 -0.0355
  402TMC3    O1 6013   0.148   2.727   0.562  0.5059 -0.4663 -0.2549
  402TMC3    O2 6014   4.627   2.354   0.966  0.0243 -0.1066 -0.1612
  403MPD2     C 6015   2.407   0.986  13.343  0.0099 -0.3988 -0.4190
  403MPD2    C1 6016   2.445   0.863  13.385 -0.1404  0.1795  0.1181
  403MPD2    C2 6017   2.560   0.849  13.455  0.6112  0.2099 -0.0101
  403MPD2    C3 6018   2.639   0.954  13.493 -0.0894 -0.1838  0.0861
  403MPD2    C4 6019   2.609   1.078  13.440 -0.0833  0.5512 -0.1647
  403MPD2    C5 6020   2.493   1.091  13.368 -0.2093 -0.3462 -0.4999
  403MPD2     H 6021   2.586   0.751  13.494 -2.9989 -1.1005 -0.8690
  403MPD2    H1 6022   2.675   1.161  13.460 -0.6849  0.5911  1.6712
  403MPD2    H2 6023   2.315   1.014  13.293  0.3359  0.1565 -0.7095
  403MPD2    H3 6024   2.472   1.183  13.315 -1.0590 -0.1523  0.1653
  403MPD2     N 6025   2.759   0.933  13.571  0.3678 -0.2844  0.0907
  403MPD2    H5 6026   2.765   0.841  13.614 -1.6986 -0.3893  0.1512
  403MPD2    N1 6027   2.363   0.756  13.347  0.3531 -0.0942 -0.2633
  403MPD2    H7 6028   2.290   0.781  13.281  0.1620  0.7219  0.2602
  404TMC3    C1 6029   2.235   0.549  13.376 -0.2751 -0.1418 -0.4133
  404TMC3    C2 6030   2.189   0.466  13.473 -0.3061 -0.0610  0.4596
  404TMC3    C3 6031   2.100   0.374  13.432 -0.3980 -0.1369 -0.0196
  404TMC3    C4 6032   2.191   0.543  13.243  0.3926  0.1584  0.4314
  404TMC3    C5 6033   2.096   0.450  13.209 -0.1000  0.3381  0.3693
  404TMC3    C6 6034   2.055   0.359  13.299  0.1791  0.1432  0.1548
  404TMC3     C 6035   2.349   0.635  13.415 -0.1671  0.2389  0.7892
  404TMC3     O 6036   2.419   0.587  13.504  0.4066 -0.2407  0.3052
  404TMC3     H 6037   2.232   0.468  13.572 -0.0284 -3.0358  0.4000
  404TMC3    H1 6038   2.233   0.623  13.183 -0.3149  1.7179  2.0293
  404TMC3    H2 6039   1.971   0.293  13.281  0.1938  0.5485 -1.3796
  404TMC3    C7 6040   2.045   0.458  13.075  0.1717 -0.8773  0.3682
  404TMC3    C8 6041   2.093   0.248  13.510  0.0467 -0.2535  0.5284
  404TMC3    O1 6042   2.074   0.566  13.027  0.2083 -0.1102  0.3148
  404TMC3    O2 6043   2.092   0.146  13.445 -0.7263  0.4567  0.0156
  405MPD2     C 6044   2.732   1.269  14.447 -0.5438  0.2145 -0.3647
  405MPD2    C1 6045   2.742   1.187  14.334 -0.3296 -0.6541  0.0882
  405MPD2    C2 6046   2.651   1.207  14.228 -0.0417 -0.2116  0.1983
  405MPD2    C3 6047   2.554   1.302  14.224 -0.4309 -0.1229  0.0350
  405MPD2    C4 6048   2.544   1.387  14.329  0.4503  0.2563 -0.0886
  405MPD2    C5 6049   2.621   1.357  14.442 -0.9096 -0.2143 -0.0450
  405MPD2     H 6050   2.667   1.151  14.136  0.0265 -2.9283  1.8872
  405MPD2    H1 6051   2.475   1.469  14.343 -0.6896 -0.3705 -2.0572
  405MPD2    H2 6052   2.798   1.252  14.531 -1.5538 -0.6915  0.2498
  405MPD2    H3 6053   2.612   1.415  14.533  0.8521 -0.7169  0.4713
  405MPD2     N 6054   2.463   1.298  14.115  0.5964  0.0930 -0.2319
  405MPD2    H5 6055   2.486   1.225  14.049 -1.2101 -0.8989  0.2113
  405MPD2    N1 6056   2.834   1.087  14.316  0.3923  0.2442  0.4685
  405MPD2    H7 6057   2.841   1.038  14.227  1.6663  2.2957 -0.5639
  406TMC3    C1 6058   2.082   1.239  13.897  0.5738  0.5640 -0.3684
  406TMC3    C2 6059   2.149   1.155  13.818  1.0459  0.3374  0.0722
  406TMC3    C3 6060   2.281   1.156  13.818 -0.7736 -0.3783  0.3598
  406TMC3    C4 6061   2.142   1.328  13.981 -0.1438 -0.0543 -0.4023
  406TMC3    C5 6062   2.280   1.338  13.972  0.8695 -0.2922  0.4134
  406TMC3    C6 6063   2.352   1.247  13.897 -0.0425  0.3631  0.6859
  406TMC3     C 6064   1.938   1.205  13.911  0.0411 -0.3122  0.2757
  406TMC3     O 6065   1.866   1.172  13.818  0.0865 -0.9224 -0.1080
  406TMC3     H 6066   2.102   1.087  13.748 -1.7220  1.3644  0.9284
  406TMC3    H1 6067   2.086   1.395  14.045 -0.5576 -0.0802 -0.7335
  406TMC3    H2 6068   2.455   1.272  13.878 -0.5494  1.3580 -0.8099
  406TMC3    C7 6069   2.349   1.374  14.097 -0.6534 -0.1046  0.6503
  406TMC3    C8 6070   2.351   1.038  13.770 -0.4646  0.4597  0.8885
  406TMC3    O1 6071   2.292   1.453  14.171 -0.4227 -0.0751 -0.6544
  406TMC3    O2 6072   2.274   0.949  13.729  0.6762 -0.7957 -0.1708
  407MPD2     C 6073   4.457   2.377   9.563 -1.4570 -0.2896 -0.0409
  407MPD2    C1 6074   4.574   2.449   9.583 -0.1481  0.2012  0.2155
  407MPD2    C2 6075   4.573   2.546   9.680  0.3959 -0.3499  0.4123
  407MPD2    C3 6076   4.462   2.567   9.760  0.0727 -0.5596  0.7924
  407MPD2    C4 6077   4.352   2.483   9.746  0.4283 -0.4394 -0.2421
  407MPD2    C5 6078   4.358   2.384   9.655 -0.1088 -0.0459  1.1486
  407MPD2     H 6079   4.662   2.606   9.697  0.3146  0.2969 -1.5292
  407MPD2    H1 6080   4.267   2.499   9.811  0.0709 -1.7229 -0.3836
  407MPD2    H2 6081   4.439   2.304   9.485 -0.2716 -1.6507  0.9511
  407MPD2    H3 6082   4.279   2.310   9.650 -0.3349  0.2175  0.8361
  407MPD2     N 6083   4.454   2.683   9.837  0.4967 -0.3397  0.6016
  407MPD2    H5 6084   4.359   2.706   9.866 -0.4029 -0.1501 -2.4387
  407MPD2    N1 6085   4.681   2.440   9.504  0.5356  0.1239 -1.0438
  407MPD2    H7 6086   0.030   2.509   9.521  2.1957 -2.2820  1.5760
  408TMC3    C1 6087   0.098   2.384   9.324 -0.3851  0.8023 -0.1863
  408TMC3    C2 6088   0.203   2.305   9.323  0.8855 -0.0763 -0.3041
  408TMC3    C3 6089   0.322   2.365   9.288 -0.0972 -0.0749  0.2589
  408TMC3    C4 6090   0.100   2.517   9.293 -0.0904 -0.2141 -0.0590
  408TMC3    C5 6091   0.213   2.559   9.235  1.0077 -0.3220  0.2809
  408TMC3    C6 6092   0.326   2.486   9.218  0.0609 -0.1260 -0.8128
  408TMC3     C 6093   4.706   2.341   9.405 -0.4603 -0.6213  0.0662
  408TMC3     O 6094   4.659   2.233   9.379  0.1258 -0.3609  0.4649
  408TMC3     H 6095   0.213   2.208   9.371  3.4184  0.0094 -0.6605
  408TMC3    H1 6096   0.006   2.572   9.291 -0.3051 -0.5879 -0.2636
  408TMC3    H2 6097   0.413   2.523   9.167  0.6767  4.6905  3.7141
  408TMC3    C7 6098   0.255   2.688   9.274 -0.2308 -0.8185 -0.4537
  408TMC3    C8 6099   0.442   2.347   9.375 -0.0809 -0.2814 -0.3804
  408TMC3    O1 6100   0.369   2.696   9.306  0.3195 -0.0074 -0.2780
  408TMC3    O2 6101   0.446   2.244   9.449  0.2363 -0.1975 -0.1439
  409MPD2     C 6102   0.070   3.069  17.112 -0.6612  0.5784  0.1632
  409MPD2    C1 6103   0.163   3.122  17.195 -0.3431  0.1132 -0.2538
  409MPD2    C2 6104   0.196   3.260  17.191 -1.3045  0.3652  0.2208
  409MPD2    C3 6105   0.137   3.335  17.097 -0.3553 -0.3786 -0.4024
  409MPD2    C4 6106   0.043   3.280  17.007 -0.2512 -0.3266  0.7298
  409MPD2    C5 6107   0.014   3.148  17.013 -0.4586  0.2327  0.0871
  409MPD2     H 6108   0.254   3.307  17.269  1.6378 -2.0627 -0.4941
  409MPD2    H1 6109   4.718   3.344  16.935  1.8523 -0.9760 -1.2407
  409MPD2    H2 6110   0.036   2.967  17.122  1.2008 -0.0490  0.2252
  409MPD2    H3 6111   4.665   3.100  16.948  1.4355 -0.9238 -1.1421
  409MPD2     N 6112   0.177   3.467  17.084 -0.0261  0.1480 -0.1733
  409MPD2    H5 6113   0.117   3.536  17.041 -0.9585 -0.9611 -0.6403
  409MPD2    N1 6114   0.218   3.046  17.305 -0.3410 -0.6181  0.3568
  409MPD2    H7 6115   0.284   3.086  17.370  1.0040 -1.6996 -0.3404
  410TMC3    C1 6116   0.304   3.665  17.103 -0.0696  0.7296 -0.1571
  410TMC3    C2 6117   0.415   3.732  17.144 -0.5035  0.2871  0.4586
  410TMC3    C3 6118   0.437   3.855  17.093 -0.3243  0.1647  0.1812
  410TMC3    C4 6119   0.196   3.725  17.040 -0.2778  0.0889  0.9644
  410TMC3    C5 6120   0.223   3.849  16.985 -0.0701 -0.5790  0.3931
  410TMC3    C6 6121   0.336   3.914  17.020  0.1563 -0.8338  0.0673
  410TMC3     C 6122   0.299   3.519  17.125 -0.0420  0.6851 -0.6762
  410TMC3     O 6123   0.403   3.463  17.147 -0.0536 -0.3762  0.1429
  410TMC3     H 6124   0.493   3.679  17.197 -0.0618 -1.6186 -2.0887
  410TMC3    H1 6125   0.103   3.673  17.021  0.2738 -0.3072 -0.6282
  410TMC3    H2 6126   0.356   4.011  16.977 -3.5319 -0.0176  0.2399
  410TMC3    C7 6127   0.131   3.880  16.871 -0.7468 -0.0401  0.9114
  410TMC3    C8 6128   0.547   3.932  17.132 -0.0935 -0.3097 -0.0797
  410TMC3    O1 6129   0.022   3.826  16.871 -0.1347  0.2798 -0.1498
  410TMC3    O2 6130   0.531   4.053  17.115 -0.0263  0.3662 -0.1516
  411MPD2     C 6131   0.355   4.139  14.557  0.4108  1.1052 -0.0327
  411MPD2    C1 6132   0.232   4.163  14.502  0.5140 -0.5203  0.2580
  411MPD2    C2 6133   0.134   4.061  14.510  0.4007  0.6240  0.0754
  411MPD2    C3 6134   0.160   3.935  14.569 -0.2467  0.4846  0.2015
  411MPD2    C4 6135   0.288   3.917  14.625 -0.1510  0.5256 -1.1502
  411MPD2    C5 6136   0.387   4.013  14.608  0.1143  0.3268 -0.2712
  411MPD2     H 6137   0.035   4.072  14.468  0.1148  2.7360  1.3094
  411MPD2    H1 6138   0.312   3.818  14.662 -0.8101  0.5670 -0.5965
  411MPD2    H2 6139   0.428   4.218  14.543  1.2375  0.3533  0.0881
  411MPD2    H3 6140   0.486   3.991  14.647  1.1152 -0.8441 -3.4960
  411MPD2     N 6141   0.074   3.826  14.559  0.3103  0.0063 -0.2888
  411MPD2    H5 6142   0.110   3.736  14.588 -0.1392 -1.3505 -3.9772
  411MPD2    N1 6143   0.213   4.287  14.442  0.5404 -0.2193 -0.9029
  411MPD2    H7 6144   0.281   4.362  14.455 -2.7512  3.2016 -3.4008
  412TMC3    C1 6145   4.637   3.684  14.447 -0.2092 -0.7484 -0.2509
  412TMC3    C2 6146   4.505   3.664  14.461  0.3881  0.1719  0.2386
  412TMC3    C3 6147   4.447   3.564  14.390  0.7398  0.2315 -0.2813
  412TMC3    C4 6148   4.719   3.616  14.361 -0.3112 -0.2833  0.5409
  412TMC3    C5 6149   4.651   3.535  14.276  0.2436 -0.1101  0.5409
  412TMC3    C6 6150   4.520   3.507  14.286 -0.7683  0.0360 -0.6526
  412TMC3     C 6151   4.677   3.819  14.486  1.3102  0.7769 -0.1427
  412TMC3     O 6152   4.606   3.910  14.449  0.5960  0.5062 -0.4379
  412TMC3     H 6153   4.448   3.733  14.524 -0.2308  0.3653 -0.5358
  412TMC3    H1 6154   0.102   3.636  14.344 -0.2439  0.7684  2.1357
  412TMC3    H2 6155   4.467   3.436  14.223  1.1971 -1.6152 -0.4632
  412TMC3    C7 6156   4.705   3.510  14.144 -0.4926 -0.2267  0.4538
  412TMC3    C8 6157   4.305   3.566  14.360 -0.0249  0.2569  0.1442
  412TMC3    O1 6158   4.649   3.418  14.094  0.3183  0.4878 -0.0992
  412TMC3    O2 6159   4.249   3.673  14.342  0.3799 -0.5889 -0.2491
  413MPD2     C 6160   1.864   2.612  15.266  0.0699  0.6973 -0.4952
  413MPD2    C1 6161   1.758   2.517  15.252  0.3003  0.1996  0.0165
  413MPD2    C2 6162   1.796   2.387  15.238 -0.0702 -0.2100  0.5755
  413MPD2    C3 6163   1.923   2.349  15.260  0.8493 -0.1773 -0.2900
  413MPD2    C4 6164   2.029   2.433  15.282 -0.4860 -0.3558 -0.0324
  413MPD2    C5 6165   1.995   2.565  15.286  0.1244 -0.4080 -0.2674
  413MPD2     H 6166   1.728   2.302  15.244 -1.5365  0.7689 -1.9274
  413MPD2    H1 6167   2.135   2.412  15.296 -0.5682 -0.4532  0.4533
  413MPD2    H2 6168   1.841   2.717  15.252  3.6927  1.7366  1.5061
  413MPD2    H3 6169   2.077   2.634  15.302 -1.3167  0.8474  1.8620
  413MPD2     N 6170   1.947   2.211  15.243 -0.1062 -0.4738 -0.3110
  413MPD2    H5 6171   1.869   2.150  15.220 -0.4591  0.3342 -1.2632
  413MPD2    N1 6172   1.628   2.562  15.241 -0.1949  0.0040 -0.5519
  413MPD2    H7 6173   1.612   2.660  15.266  1.8828  0.0207  0.7714
  414TMC3    C1 6174   2.072   2.007  15.253 -0.2639  0.3769  0.8420
  414TMC3    C2 6175   2.165   1.940  15.325  0.3094 -0.4920  0.2013
  414TMC3    C3 6176   2.228   1.837  15.259 -0.2816  0.6662  0.3959
  414TMC3    C4 6177   2.026   1.968  15.125 -0.3924 -0.0182 -0.1096
  414TMC3    C5 6178   2.096   1.861  15.065 -0.6657 -0.5040  0.5291
  414TMC3    C6 6179   2.191   1.795  15.133  0.5297  0.1865  1.4127
  414TMC3     C 6180   2.063   2.148  15.285  0.3831  0.1329 -0.3109
  414TMC3     O 6181   2.151   2.193  15.355 -0.0289  0.1096 -0.0461
  414TMC3     H 6182   2.189   1.951  15.430 -0.7961  1.2864  0.2602
  414TMC3    H1 6183   1.967   2.030  15.058 -2.2067 -1.8628 -0.2009
  414TMC3    H2 6184   2.240   1.710  15.088 -0.3992  0.9106 -0.9295
  414TMC3    C7 6185   2.139   1.906  14.933  0.1485  0.2770 -0.1981
  414TMC3    C8 6186   2.359   1.793  15.299 -0.9490  0.0005  0.1862
  414TMC3    O1 6187   2.060   1.955  14.851 -0.0411  0.0270 -0.8523
  414TMC3    O2 6188   2.406   1.705  15.229 -0.1907  0.1416  0.3187
  415TMC3    C1 6189   1.733   0.207  10.436 -0.0808 -0.1818 -0.2222
  415TMC3    C2 6190   1.783   0.309  10.356  0.3148  0.7675  0.3678
  415TMC3    C3 6191   1.714   0.336  10.244 -0.2688  0.5790 -0.1091
  415TMC3    C4 6192   1.617   0.133  10.413 -0.0646  0.6738  0.7877
  415TMC3    C5 6193   1.545   0.173  10.312  0.3419 -0.3336 -0.4999
  415TMC3    C6 6194   1.591   0.275  10.230 -0.0000  0.5929  0.2966
  415TMC3     C 6195   1.836   0.128  10.510  0.0088 -0.3551 -0.3225
  415TMC3     O 6196   1.805   0.013  10.534 -0.1856 -0.2270  0.4367
  415TMC3     H 6197   1.886   0.343  10.357  1.7057 -3.5264  2.6419
  415TMC3    H1 6198   1.582   0.050  10.474 -1.0281 -0.6670 -1.5775
  415TMC3    H2 6199   1.541   0.305  10.139  0.8723 -3.4338 -1.5095
  415TMC3    C7 6200   1.462   0.080  10.239 -0.8979 -0.5091  0.1651
  415TMC3    C8 6201   1.756   0.426  10.144 -0.1249 -0.0186  0.9378
  415TMC3    O1 6202   1.409   0.120  10.133 -0.8133 -0.3115  0.3589
  415TMC3    O2 6203   1.727   0.418  10.027 -0.1605  0.1934  0.4544
  416MPD2     C 6204   4.297   4.004  11.850  0.1351 -0.0406 -0.7964
  416MPD2    C1 6205   4.189   4.019  11.761 -0.2559 -0.9846 -0.0419
  416MPD2    C2 6206   4.178   3.942  11.648  0.1426  0.3534  0.3506
  416MPD2    C3 6207   4.275   3.842  11.634  0.0377 -0.0295 -0.5323
  416MPD2    C4 6208   4.384   3.827  11.723  0.6656  0.2778 -0.0082
  416MPD2    C5 6209   4.392   3.908  11.831  0.0902  0.4164  0.1196
  416MPD2     H 6210   4.102   3.962  11.573  0.0593 -1.4762 -0.0511
  416MPD2    H1 6211   4.464   3.755  11.717  0.0841 -0.2396 -1.4882
  416MPD2    H2 6212   4.313   4.076  11.930 -0.3680  0.2738 -0.9786
  416MPD2    H3 6213   4.484   3.922  11.887  2.4391 -0.9479 -3.3846
  416MPD2     N 6214   4.271   3.753  11.524 -0.0721 -0.4997  0.1448
  416MPD2    H5 6215   4.330   3.671  11.528 -0.5762 -0.7444  2.5016
  416MPD2    N1 6216   4.088   4.117  11.797 -0.3904 -0.6809 -0.6466
  416MPD2    H7 6217   4.101   4.174  11.880 -2.2684  1.1982 -1.6453
  417TMC3    C1 6218   3.872   4.217  11.808  0.0575  0.3735 -0.2208
  417TMC3    C2 6219   3.899   4.241  11.939 -0.0698 -0.3094  0.0200
  417TMC3    C3 6220   3.804   4.294  12.020  1.1381 -0.7728  0.4974
  417TMC3    C4 6221   3.748   4.243  11.754 -0.6765 -0.3970 -0.0215
  417TMC3    C5 6222   3.660   4.305  11.840  0.6879 -0.1812 -0.3946
  417TMC3    C6 6223   3.685   4.341  11.969  0.1997 -0.0691 -0.9401
  417TMC3     C 6224   3.961   4.114  11.743  0.0407 -0.7569 -0.8703
  417TMC3     O 6225   3.904   4.057  11.654  0.3305  0.1657  0.5270
  417TMC3     H 6226   3.998   4.223  11.980 -0.5881  1.5462  2.0943
  417TMC3    H1 6227   3.728   4.217  11.650  0.1600 -1.0564 -0.0219
  417TMC3    H2 6228   3.617   4.408  12.020 -0.4351 -1.3546 -0.0696
  417TMC3    C7 6229   3.532   4.346  11.782 -0.3666 -0.5162  0.2796
  417TMC3    C8 6230   3.828   4.337  12.161 -0.5687 -0.0499  0.2837
  417TMC3    O1 6231   3.523   4.347  11.661 -0.1433 -0.4257 -0.1304
  417TMC3    O2 6232   3.760   4.430  12.197  0.0342  0.1614 -0.4460
  418TMC3    C1 6233   3.372   1.033   0.488 -0.0069  0.1769 -0.2809
  418TMC3    C2 6234   3.247   1.053   0.519  0.2279  0.1572  0.5477
  418TMC3    C3 6235   3.180   0.965   0.604 -0.6089 -0.2353 -0.1003
  418TMC3    C4 6236   3.446   0.931   0.549  0.0819 -0.2841  0.0563
  418TMC3    C5 6237   3.387   0.854   0.642 -0.6038 -0.2246  0.0845
  418TMC3    C6 6238   3.248   0.860   0.656 -0.0047  0.6553 -0.1478
  418TMC3     C 6239   3.399   1.064   0.348  0.2916  0.6058 -1.0963
  418TMC3     O 6240   3.358   1.169   0.302  0.5225 -0.0138 -0.5689
  418TMC3     H 6241   3.193   1.126   0.460  0.7745  0.4438  0.3986
  418TMC3    H1 6242   3.553   0.927   0.534  0.0226 -2.8833  0.3263
  418TMC3    H2 6243   3.195   0.799   0.729 -0.6898  1.6230  0.1618
  418TMC3    C7 6244   3.453   0.741   0.696  0.5125  0.5538  0.2325
  418TMC3    C8 6245   3.054   0.923   0.547 -0.4240 -0.5180  0.1448
  418TMC3    O1 6246   3.534   0.690   0.619  0.0186 -0.1514 -0.4167
  418TMC3    O2 6247   2.970   1.010   0.540  0.3868 -0.0569  0.4161
  419MPD2     C 6248   1.176   3.565  12.485 -0.1186 -0.4375 -0.5812
  419MPD2    C1 6249   1.122   3.692  12.503 -0.4306 -0.5218  0.7704
  419MPD2    C2 6250   1.098   3.748  12.623 -0.5734  0.5379 -0.2805
  419MPD2    C3 6251   1.140   3.685  12.738 -0.6246 -0.3711 -0.6615
  419MPD2    C4 6252   1.205   3.563  12.727  0.5303  0.4012 -0.1926
  419MPD2    C5 6253   1.227   3.505  12.597  0.1192  0.1396  0.0971
  419MPD2     H 6254   1.035   3.836  12.623  0.6325  1.4146 -1.0018
  419MPD2    H1 6255   1.253   3.510  12.808  1.6828  3.2591  0.9837
  419MPD2    H2 6256   1.180   3.518  12.387 -0.6859 -0.4873 -0.5780
  419MPD2    H3 6257   1.292   3.418  12.596  0.3621  0.3034  1.4133
  419MPD2     N 6258   1.120   3.764  12.857  0.3233  0.0637  0.6486
  419MPD2    H5 6259   1.076   3.854  12.841  2.9282  1.5843  2.1531
  419MPD2    N1 6260   1.081   3.775  12.402 -0.1872  0.3491  0.1754
  419MPD2    H7 6261   1.079   3.874  12.424 -0.7955  0.6185 -1.0605
  420TMC3    C1 6262   1.113   3.827  13.084  0.1224  0.2183 -0.2660
  420TMC3    C2 6263   0.995   3.898  13.054  0.4929 -0.2332  0.1343
  420TMC3    C3 6264   0.944   3.977  13.155 -0.6356  0.3049 -0.0616
  420TMC3    C4 6265   1.180   3.837  13.200 -0.4255 -0.5711  0.6544
  420TMC3    C5 6266   1.126   3.918  13.299  0.3779  0.3201 -0.4338
  420TMC3    C6 6267   1.006   3.987  13.279 -0.1378 -0.8726 -0.2262
  420TMC3     C 6268   1.174   3.743  12.981 -0.2655  0.2172  0.0979
  420TMC3     O 6269   1.264   3.659  13.007 -0.2860 -0.4228  0.0049
  420TMC3     H 6270   0.940   3.886  12.961  0.7052  2.4780 -0.3426
  420TMC3    H1 6271   1.264   3.769  13.212 -0.2028 -0.8616 -2.5257
  420TMC3    H2 6272   0.962   4.051  13.354 -0.7624 -2.3330  0.6707
  420TMC3    C7 6273   1.203   3.959  13.423 -0.1000 -0.4269  0.2048
  420TMC3    C8 6274   0.861   4.085  13.108 -0.3590 -0.6016  0.1481
  420TMC3    O1 6275   1.144   4.026  13.507 -0.4927 -0.1360  0.3421
  420TMC3    O2 6276   0.824   4.080  12.991  0.5750  0.2095  0.5751
  421TMC3    C1 6277   2.960   0.972  13.689  0.5500  0.7300  0.1289
  421TMC3    C2 6278   3.024   1.059  13.772  0.7806 -0.3048 -0.6645
  421TMC3    C3 6279   3.143   1.016  13.823  0.3156 -0.2434 -0.4121
  421TMC3    C4 6280   3.011   0.852  13.645 -0.6774  0.2565  0.3180
  421TMC3    C5 6281   3.132   0.815  13.699 -0.2671 -0.4742  0.1490
  421TMC3    C6 6282   3.204   0.897  13.780 -0.4934 -0.1001  0.2300
  421TMC3     C 6283   2.855   1.029  13.601 -0.1840 -0.6116 -0.0940
  421TMC3     O 6284   2.868   1.149  13.572 -0.1265 -0.0540  0.0486
  421TMC3     H 6285   2.975   1.154  13.790 -1.0856 -1.7117  1.6594
  421TMC3    H1 6286   2.962   0.791  13.571  0.2257  0.2424 -0.2671
  421TMC3    H2 6287   3.280   0.865  13.850  1.0603  0.7366 -1.0975
  421TMC3    C7 6288   3.202   0.694  13.662 -0.1036 -0.4139 -0.6459
  421TMC3    C8 6289   3.224   1.092  13.916 -0.1803  0.2880  0.3395
  421TMC3    O1 6290   3.313   0.694  13.716  0.0915 -0.5238 -0.5696
  421TMC3    O2 6291   3.338   1.054  13.943  0.1389 -0.1397 -0.2021
  422TMC3    C1 6292   0.306   1.868  12.462 -0.7376 -0.1835 -0.1027
  422TMC3    C2 6293   0.272   1.992  12.508  0.3940  0.0501 -0.8201
  422TMC3    C3 6294   0.166   2.004  12.596 -0.5314  0.1184  0.6845
  422TMC3    C4 6295   0.216   1.765  12.483 -0.0723  0.4489  1.2256
  422TMC3    C5 6296   0.118   1.775  12.572  0.3844 -0.0908  0.1944
  422TMC3    C6 6297   0.090   1.896  12.642 -0.5150 -0.7255 -0.0193
  422TMC3     C 6298   0.365   1.869  12.332 -0.1346 -0.5567 -0.1175
  422TMC3     O 6299   0.384   1.976  12.280  0.0714  0.6038  0.2364
  422TMC3     H 6300   0.347   2.068  12.488 -0.6289  1.1581 -0.4850
  422TMC3    H1 6301   0.230   1.669  12.433 -2.6382  0.0815  1.2080
  422TMC3    H2 6302   0.028   1.893  12.731 -0.0179  0.3905  0.3679
  422TMC3    C7 6303   0.051   1.651  12.614  0.2401  0.0732 -0.1146
  422TMC3    C8 6304   0.127   2.142  12.628  0.2580  0.4584  0.0742
  422TMC3    O1 6305   0.088   1.554  12.552 -0.0454 -0.1520 -0.1330
  422TMC3    O2 6306   0.214   2.232  12.625  0.1496 -0.0992  0.7251
  423MPD2     C 6307   2.203   2.704   0.920  0.1101 -0.2617 -0.2336
  423MPD2    C1 6308   2.082   2.645   0.928 -0.8244 -0.3893  0.1566
  423MPD2    C2 6309   2.048   2.572   0.812  0.3440  0.4768  0.2569
  423MPD2    C3 6310   2.139   2.554   0.710  0.4933  0.2220  0.5643
  423MPD2    C4 6311   2.254   2.626   0.699 -0.0878 -0.3952  0.6728
  423MPD2    C5 6312   2.283   2.696   0.811 -0.1482  0.0709 -0.0020
  423MPD2     H 6313   1.949   2.526   0.807  1.0824 -0.8632 -2.1743
  423MPD2    H1 6314   2.332   2.628   0.624  0.3371 -1.5991  1.0665
  423MPD2    H2 6315   2.238   2.752   1.011 -0.5663  0.9221 -0.6085
  423MPD2    H3 6316   2.388   2.724   0.808  0.3520 -1.7885  0.6592
  423MPD2     N 6317   2.102   2.487   0.588  0.7334 -0.6961 -0.1592
  423MPD2    H5 6318   2.160   2.492   0.505 -0.8111  3.6496 -1.0100
  423MPD2    N1 6319   1.990   2.660   1.034 -0.0319 -0.2563 -0.2500
  423MPD2    H7 6320   1.899   2.617   1.019  0.3492 -1.0853 -0.2015
  424TMC3    C1 6321   1.903   2.707   1.249 -0.2071  0.6494 -0.1233
  424TMC3    C2 6322   1.946   2.697   1.379  0.0836  1.0461 -0.0169
  424TMC3    C3 6323   1.852   2.699   1.479  0.2763  0.1442  0.4742
  424TMC3    C4 6324   1.769   2.706   1.209  0.3781 -0.5568  0.1332
  424TMC3    C5 6325   1.688   2.707   1.324 -0.2296 -0.2364 -0.0312
  424TMC3    C6 6326   1.718   2.701   1.454 -0.2335  0.6807  0.1322
  424TMC3     C 6327   2.006   2.738   1.146 -0.2298 -0.1304 -0.4494
  424TMC3     O 6328   2.099   2.813   1.172 -0.1967  0.5896 -0.5838
  424TMC3     H 6329   2.051   2.676   1.396 -0.4693 -2.1086 -0.4455
  424TMC3    H1 6330   1.737   2.727   1.108 -0.8705  1.7058  1.0000
  424TMC3    H2 6331   1.644   2.689   1.532  0.5590 -0.7145  0.6602
  424TMC3    C7 6332   1.553   2.727   1.285  0.7668  0.4488 -0.3033
  424TMC3    C8 6333   1.900   2.638   1.601  0.7617  0.3214  0.2480
  424TMC3    O1 6334   1.521   2.718   1.171 -0.0800 -0.3116  0.2405
  424TMC3    O2 6335   1.838   2.549   1.655  0.2220  0.1206 -0.3461
  425MPD2     C 6336   1.350   2.285  17.405  0.0825 -0.2076 -0.4775
  425MPD2    C1 6337   1.290   2.203  17.499  0.4780  0.3499  0.2244
  425MPD2    C2 6338   1.201   2.262  17.584  0.1934  0.2663 -0.1551
  425MPD2    C3 6339   1.172   2.398  17.580  0.1299 -0.6722 -0.0645
  425MPD2    C4 6340   1.235   2.477  17.492  0.0486  0.0596  0.4131
  425MPD2    C5 6341   1.327   2.424  17.409 -0.3709 -0.2733 -0.4727
  425MPD2     H 6342   1.138   2.196  17.642 -0.5438  2.2645  1.3226
  425MPD2    H1 6343   1.224   2.585  17.493 -2.2364 -0.1428 -1.9541
  425MPD2    H2 6344   1.422   2.254  17.330  0.3845  0.3302 -0.4081
  425MPD2    H3 6345   1.382   2.488  17.341 -1.2890  1.6749  0.6176
  425MPD2     N 6346   1.064   2.431  17.663  0.3266  0.1167  0.4721
  425MPD2    H5 6347   1.021   2.370   0.038 -0.5733  0.1465 -0.0704
  425MPD2    N1 6348   1.309   2.063  17.495 -0.2724  0.1080 -0.3083
  425MPD2    H7 6349   1.275   2.010  17.574 -0.5799 -0.9126 -1.1349
  426TMC3    C1 6350   1.336   1.852  17.388  0.5622  0.9729  0.0358
  426TMC3    C2 6351   1.312   1.790  17.274  0.0151  0.0163  0.4884
  426TMC3    C3 6352   1.307   1.651  17.274 -0.6687 -0.3851 -0.1560
  426TMC3    C4 6353   1.355   1.787  17.507 -0.0625  0.3723  0.8989
  426TMC3    C5 6354   1.341   1.650  17.502 -0.2281  0.3546  0.2110
  426TMC3    C6 6355   1.329   1.582  17.389 -0.4453  0.5623  0.5200
  426TMC3     C 6356   1.345   2.002  17.375 -0.2819 -0.0442  0.6989
  426TMC3     O 6357   1.364   2.046  17.264  0.2617  0.2584 -0.9325
  426TMC3     H 6358   1.295   1.845  17.181 -2.2985 -1.7958 -0.1587
  426TMC3    H1 6359   1.369   1.839  17.601  0.2227 -0.7325  1.4707
  426TMC3    H2 6360   1.308   1.476  17.393  1.5287  0.2563  2.7849
  426TMC3    C7 6361   1.267   1.586  17.608 -0.2250  0.4898  0.5195
  426TMC3    C8 6362   1.255   1.568  17.167 -0.5454  0.1502 -0.5538
  426TMC3    O1 6363   1.248   1.463  17.600  0.4726 -0.4780 -0.6230
  426TMC3    O2 6364   1.226   1.450  17.184 -0.0059  0.3996 -0.2151
  427MPD2     C 6365   3.855   3.592  14.445 -0.0292  0.4790 -0.5305
  427MPD2    C1 6366   3.891   3.713  14.505  0.8124 -0.3642 -0.7686
  427MPD2    C2 6367   3.787   3.782  14.570 -0.1526 -0.4305 -0.6734
  427MPD2    C3 6368   3.659   3.734  14.560 -0.6639  0.5474 -0.1795
  427MPD2    C4 6369   3.632   3.621  14.494  0.1021 -0.6616  0.0625
  427MPD2    C5 6370   3.732   3.545  14.432  0.3893  0.1771 -0.0603
  427MPD2     H 6371   3.805   3.873  14.625 -1.8908 -1.7828  2.1349
  427MPD2    H1 6372   3.530   3.587  14.481  0.5776 -1.2953 -1.9994
  427MPD2    H2 6373   3.924   3.521  14.401  1.3803  1.1393  0.6058
  427MPD2    H3 6374   3.705   3.451  14.384 -1.4795  0.6858  0.0058
  427MPD2     N 6375   3.542   3.807  14.591 -0.2023 -0.1367  0.2472
  427MPD2    H5 6376   3.460   3.789  14.535 -0.0818  0.9302 -0.2570
  427MPD2    N1 6377   4.031   3.735  14.522  0.1106 -0.0413 -0.1262
  427MPD2    H7 6378   4.094   3.677  14.468  0.7132 -0.1403  0.6930
  428TMC3    C1 6379   4.210   3.797  14.651 -0.4927 -0.1940  0.3027
  428TMC3    C2 6380   4.221   3.660  14.682 -0.0962  0.1468  0.1031
  428TMC3    C3 6381   4.319   3.624  14.768 -0.2292 -0.2727  0.5724
  428TMC3    C4 6382   4.279   3.891  14.722 -0.1971  0.1510 -0.1624
  428TMC3    C5 6383   4.375   3.848  14.805  0.2770  0.5747  0.1017
  428TMC3    C6 6384   4.399   3.715  14.826 -0.0684 -0.0338  0.0998
  428TMC3     C 6385   4.089   3.838  14.583  0.3324  0.0314 -0.2024
  428TMC3     O 6386   4.048   3.944  14.625  0.2905  0.1918  0.3702
  428TMC3     H 6387   4.158   3.589  14.629  1.1916 -1.6862  1.0466
  428TMC3    H1 6388   4.264   3.998  14.718  0.8513  0.2167 -2.1834
  428TMC3    H2 6389   4.485   3.688  14.886 -0.6033 -0.0351  0.8549
  428TMC3    C7 6390   4.472   3.941  14.856  0.5485 -0.8449  0.3064
  428TMC3    C8 6391   4.346   3.487  14.787  0.5912  0.2452 -0.7966
  428TMC3    O1 6392   4.538   3.900  14.950  0.0018  0.0159  0.6669
  428TMC3    O2 6393   4.463   3.462  14.803 -0.4033 -0.5638  0.2441
  429MPD2     C 6394   0.025   4.184  17.666  0.2249  0.4397  0.3653
  429MPD2    C1 6395   0.159   4.197  17.690  0.0126 -0.4009 -0.1593
  429MPD2    C2 6396   0.226   4.303  17.625 -0.4287  0.7066 -1.2040
  429MPD2    C3 6397   0.160   4.382  17.526  0.4033  0.2116 -0.2738
  429MPD2    C4 6398   0.023   4.370  17.516 -0.2124 -0.2851  0.0060
  429MPD2    C5 6399   4.680   4.277  17.587  0.3523  0.0744 -0.5839
  429MPD2     H 6400   0.334   4.312  17.629 -0.1483 -2.4791 -0.9437
  429MPD2    H1 6401   4.693   4.428  17.441  1.6451 -0.5734 -1.5307
  429MPD2    H2 6402   4.695   4.109   0.030 -1.7528  2.6795  1.4568
  429MPD2    H3 6403   4.573   4.274  17.574  0.3426  1.7803 -0.9300
  429MPD2     N 6404   0.236   4.484  17.467  0.5512  0.4763  0.2834
  429MPD2    H5 6405   0.332   4.492  17.496  0.0463  0.1197  2.0422
  429MPD2    N1 6406   0.241   4.104   0.062 -0.3988  0.2956  0.0028
  429MPD2    H7 6407   0.339   4.126   0.076 -0.3486  1.0560 -1.6305
  430TMC3    C1 6408   0.293   4.649  17.303 -0.1845  0.1725  0.1178
  430TMC3    C2 6409   0.250   0.027  17.221 -0.4302 -0.1964  0.0678
  430TMC3    C3 6410   0.336   0.057  17.112  0.0807  0.0369 -0.4751
  430TMC3    C4 6411   0.413   4.584  17.278  0.4419 -0.2160 -0.4476
  430TMC3    C5 6412   0.487   4.624  17.176 -0.0334  1.2986  0.8224
  430TMC3    C6 6413   0.458   0.004  17.100  0.2453 -0.6136  0.0265
  430TMC3     C 6414   0.189   4.571  17.370 -0.3288 -0.0048  0.1198
  430TMC3     O 6415   0.080   4.576  17.321 -0.0492  0.0665  0.0961
  430TMC3     H 6416   0.154   0.072  17.242 -0.8693 -0.1551 -1.9845
  430TMC3    H1 6417   0.445   4.504  17.344  2.2695  1.0113  0.1355
  430TMC3    H2 6418   0.510   0.018  17.005 -0.7459  2.2481 -0.1015
  430TMC3    C7 6419   0.580   4.520  17.137 -0.7261  0.0309  0.4848
  430TMC3    C8 6420   0.269   0.124  17.004 -0.3476  0.0447 -0.4826
  430TMC3    O1 6421   0.541   4.406  17.142  0.5655 -0.0810 -0.1202
  430TMC3    O2 6422   0.212   0.230  17.031  0.0961  0.8069 -0.0646
  431MPD2     C 6423   1.034   4.445  12.808  0.0996  0.3127  0.2453
  431MPD2    C1 6424   1.061   4.492  12.681  0.2122  0.3288  0.4690
  431MPD2    C2 6425   1.046   4.407  12.573  0.0315 -0.1900 -0.8589
  431MPD2    C3 6426   1.028   4.272  12.584  0.4716  0.3039 -0.3417
  431MPD2    C4 6427   1.000   4.223  12.714  0.3106 -0.2131 -0.1274
  431MPD2    C5 6428   1.003   4.310  12.820  0.6589  0.7568 -0.8439
  431MPD2     H 6429   1.057   4.453  12.476  1.1284  1.7402  0.1845
  431MPD2    H1 6430   0.979   4.117  12.728  2.2477 -0.2935  2.0942
  431MPD2    H2 6431   1.035   4.510  12.895 -0.7441  0.0193  0.4781
  431MPD2    H3 6432   0.975   4.277  12.920  1.2279  2.0764 -0.2480
  431MPD2     N 6433   1.031   4.182  12.476 -0.3780  0.8412 -0.0749
  431MPD2    H5 6434   0.991   4.091  12.498  0.2553  0.4795 -0.4181
  431MPD2    N1 6435   1.114   4.623  12.653 -0.4780  0.2610 -0.2508
  431MPD2    H7 6436   1.160   4.642  12.565 -0.5150  0.3211 -0.2570
  432TMC3    C1 6437   1.080   4.101  12.245 -0.1491 -0.8333 -0.5309
  432TMC3    C2 6438   1.164   4.120  12.145 -0.1983 -0.3015  0.2701
  432TMC3    C3 6439   1.189   4.016  12.059  0.4981 -0.1589  0.7178
  432TMC3    C4 6440   1.031   3.979  12.279  0.0473  0.2006  0.4800
  432TMC3    C5 6441   1.065   3.877  12.196  0.3099  0.1616 -0.0563
  432TMC3    C6 6442   1.141   3.892  12.082  0.7683  0.4562 -0.9574
  432TMC3     C 6443   1.073   4.214  12.348  0.3535  0.1537 -0.4939
  432TMC3     O 6444   1.126   4.315  12.314 -0.4912  0.5040 -0.1116
  432TMC3     H 6445   1.205   4.219  12.129  3.1667 -1.8787 -0.8774
  432TMC3    H1 6446   0.947   3.970  12.347  0.5777  0.5662  1.1804
  432TMC3    H2 6447   1.163   3.802  12.025  2.4047 -0.0577  0.5079
  432TMC3    C7 6448   1.093   3.753  12.267  0.8656 -0.6486  0.0471
  432TMC3    C8 6449   1.306   4.006  11.973  0.2188 -0.2857  0.7960
  432TMC3    O1 6450   1.137   3.656  12.203 -0.1629  0.0684  0.3229
  432TMC3    O2 6451   1.300   3.922  11.883  0.0059  0.2845 -0.4156
  433MPD2     C 6452   0.000   3.214  10.592 -0.5422  0.1287 -0.1651
  433MPD2    C1 6453   0.015   3.119  10.692  0.5542  0.3685  0.1287
  433MPD2    C2 6454   0.072   3.142  10.818  0.4328  0.7730 -0.2821
  433MPD2    C3 6455   0.096   3.274  10.852  0.3712 -0.5202  0.0919
  433MPD2    C4 6456   0.078   3.370  10.748 -0.0148  0.2587 -0.7377
  433MPD2    C5 6457   0.027   3.343  10.624  0.0502  0.2161 -0.0633
  433MPD2     H 6458   0.066   3.061  10.889  2.3337  0.6317 -0.2663
  433MPD2    H1 6459   0.089   3.475  10.772 -3.2067  0.4766 -0.2038
  433MPD2    H2 6460   4.686   3.191  10.493 -0.0791 -0.0616 -0.2944
  433MPD2    H3 6461   0.019   3.412  10.540  1.5259 -0.0150 -0.3847
  433MPD2     N 6462   0.151   3.307  10.982  0.3127 -0.2965 -0.1823
  433MPD2    H5 6463   0.170   3.225  11.040  1.6593 -0.2783 -0.5914
  433MPD2    N1 6464   4.690   2.995  10.646 -0.3521  0.1690 -0.6541
  433MPD2    H7 6465   4.674   2.989  10.546 -2.3553  1.4294 -0.3886
  434TMC3    C1 6466   4.665   2.760  10.631 -0.0349 -0.0768  0.7062
  434TMC3    C2 6467   0.020   2.658  10.667  0.3189  0.0198  0.0545
  434TMC3    C3 6468   0.109   2.608  10.581 -0.1710  1.2048  0.6716
  434TMC3    C4 6469   4.645   2.794  10.496 -0.0788  0.1507  0.0127
  434TMC3    C5 6470   4.717   2.719  10.408  0.1293 -0.3866 -0.5616
  434TMC3    C6 6471   0.101   2.641  10.443  0.6066 -0.2530  0.2087
  434TMC3     C 6472   4.677   2.878  10.719 -0.2571 -0.8108 -0.3696
  434TMC3     O 6473   4.703   2.855  10.839 -0.0768 -0.2558  0.5892
  434TMC3     H 6474   0.034   2.629  10.771  1.2699  1.7961  0.4094
  434TMC3    H1 6475   4.553   2.842  10.465 -0.5066 -0.0950  0.9031
  434TMC3    H2 6476   0.169   2.599  10.371  1.5779 -0.3791  1.1995
  434TMC3    C7 6477   4.705   2.767  10.273  0.1188 -0.2852 -0.0735
  434TMC3    C8 6478   0.235   2.562  10.629 -0.3179 -0.5827 -0.2865
  434TMC3    O1 6479   0.063   2.852  10.245  0.3847  0.0847 -0.3385
  434TMC3    O2 6480   0.242   2.495  10.730  0.2128  0.0136  0.3441
  435MPD2     C 6481   2.220   2.721  15.533  0.1584 -0.3399  0.5822
  435MPD2    C1 6482   2.232   2.746  15.665 -0.4358 -0.5265 -0.2094
  435MPD2    C2 6483   2.343   2.705  15.740 -0.4027 -0.0288  0.3670
  435MPD2    C3 6484   2.424   2.614  15.689 -0.5617  0.1743 -0.6765
  435MPD2    C4 6485   2.412   2.586  15.554 -0.8295 -0.4086  0.7740
  435MPD2    C5 6486   2.308   2.631  15.482 -0.4967 -0.4033 -0.2010
  435MPD2     H 6487   2.361   2.743  15.840 -2.4826  2.4215 -0.2198
  435MPD2    H1 6488   2.473   2.513  15.502  0.3973  0.6327  0.7584
  435MPD2    H2 6489   2.136   2.761  15.477 -1.0108 -2.2608  0.9527
  435MPD2    H3 6490   2.303   2.602  15.378  1.3416 -1.2109 -0.0671
  435MPD2     N 6491   2.523   2.557  15.772  0.3297  0.2617  0.1443
  435MPD2    H5 6492   2.531   2.595  15.865  1.3792 -1.6644  0.8345
  435MPD2    N1 6493   2.135   2.825  15.735  0.7483 -0.1667 -0.7769
  435MPD2    H7 6494   2.146   2.827  15.836 -0.2556  2.3557 -0.7273
  436TMC3    C1 6495   1.848   2.944  16.007 -0.6257  0.5655  0.9020
  436TMC3    C2 6496   1.913   2.883  15.902  0.4861 -0.4498 -0.2662
  436TMC3    C3 6497   1.953   2.960  15.794  1.2198 -0.4006 -0.0857
  436TMC3    C4 6498   1.821   3.077  16.000  0.0598 -0.1271 -0.3569
  436TMC3    C5 6499   1.867   3.151  15.896 -0.1403 -0.2344  0.5054
  436TMC3    C6 6500   1.931   3.095  15.786 -0.0906  0.2241 -0.0116
  436TMC3     C 6501   1.787   2.855  16.109 -0.6781  0.7846  0.7134
  436TMC3     O 6502   1.821   2.739  16.105  0.4099 -0.1229  0.0783
  436TMC3     H 6503   1.922   2.775  15.905 -2.4799 -0.7094 -0.9382
  436TMC3    H1 6504   1.772   3.127  16.082  0.3958 -1.2484  0.5206
  436TMC3    H2 6505   1.964   3.146  15.696  0.1661  0.3813  0.1708
  436TMC3    C7 6506   1.913   3.281  15.941  0.4715 -1.0137 -0.0165
  436TMC3    C8 6507   2.030   2.895  15.683  0.6934 -0.0632  0.5825
  436TMC3    O1 6508   1.890   3.312  16.054 -0.0878  0.1033 -0.4109
  436TMC3    O2 6509   2.016   2.946  15.573 -0.0608 -0.5984 -1.0579
  437TMC3    C1 6510   0.780   0.260  12.232  0.3601  0.8843 -0.2137
  437TMC3    C2 6511   0.693   0.288  12.121  0.0021  0.0045 -0.3061
  437TMC3    C3 6512   0.756   0.324  12.004 -0.3079 -0.6179 -0.5111
  437TMC3    C4 6513   0.913   0.270  12.226  0.3861 -0.4827  0.1780
  437TMC3    C5 6514   0.964   0.305  12.108 -0.7149  0.0663  0.6999
  437TMC3    C6 6515   0.891   0.327  11.995 -0.6364  0.1763 -1.0455
  437TMC3     C 6516   0.723   0.281  12.361 -0.2232 -0.5919 -0.7440
  437TMC3     O 6517   0.671   0.389  12.380  0.4401  0.0017  0.9626
  437TMC3     H 6518   0.588   0.267  12.141 -0.8631  5.2331  0.5486
  437TMC3    H1 6519   0.974   0.236  12.309  1.4348 -0.5344 -0.6149
  437TMC3    H2 6520   0.938   0.348  11.900  1.7734  1.3242  0.4087
  437TMC3    C7 6521   1.108   0.318  12.096  0.4965  0.9227 -0.3702
  437TMC3    C8 6522   0.680   0.297  11.884 -0.1966 -0.0994  0.0515
  437TMC3    O1 6523   1.145   0.311  11.978 -0.4110 -0.1080  0.4214
  437TMC3    O2 6524   0.586   0.221  11.898  0.3455  0.2661 -0.2538
  438MPD2     C 6525   3.444   0.979  16.773 -0.7644 -0.2970 -0.8666
  438MPD2    C1 6526   3.553   0.924  16.839 -0.2439 -0.9717 -0.0839
  438MPD2    C2 6527   3.525   0.898  16.973  1.0061 -0.4102  1.0536
  438MPD2    C3 6528   3.397   0.909  17.032 -0.1617 -0.2191 -0.5153
  438MPD2    C4 6529   3.298   0.958  16.952 -0.2646  0.2960  0.0921
  438MPD2    C5 6530   3.319   0.995  16.824  0.1256  0.5520 -0.3027
  438MPD2     H 6531   3.612   0.864  17.029  3.3899  1.2522 -1.6261
  438MPD2    H1 6532   3.193   0.952  16.978 -0.2284  1.2911  0.4527
  438MPD2    H2 6533   3.463   1.017  16.674 -3.3624  0.9935 -0.8557
  438MPD2    H3 6534   3.234   1.027  16.765 -0.1148 -0.9016 -0.7510
  438MPD2     N 6535   3.357   0.843  17.150  0.0640  0.0631  0.2509
  438MPD2    H5 6536   3.265   0.869  17.185 -0.0630  2.4272 -1.8558
  438MPD2    N1 6537   3.687   0.907  16.799 -0.3930  0.1486  0.0700
  438MPD2    H7 6538   3.747   0.848  16.855 -2.1811 -1.9499 -0.2533
  439TMC3    C1 6539   3.848   0.842  16.639  0.0033  0.2524 -0.5827
  439TMC3    C2 6540   3.843   0.756  16.534  0.1265 -1.1831 -0.2808
  439TMC3    C3 6541   3.957   0.677  16.526 -0.6614  0.8314  0.2890
  439TMC3    C4 6542   3.944   0.847  16.740 -0.6517 -0.3686  0.6469
  439TMC3    C5 6543   4.050   0.763  16.724  0.1004  0.5595 -0.4641
  439TMC3    C6 6544   4.060   0.685  16.614 -0.2745  0.3879  0.7284
  439TMC3     C 6545   3.727   0.915  16.665 -0.2448 -0.7818 -0.0543
  439TMC3     O 6546   3.655   0.931  16.566  0.1988 -0.9031 -0.0105
  439TMC3     H 6547   3.759   0.755  16.465 -1.4171  2.0058  1.5406
  439TMC3    H1 6548   3.951   0.925  16.816 -0.0666 -1.0764  1.3157
  439TMC3    H2 6549   4.141   0.614  16.614 -2.4880 -2.1538 -0.9855
  439TMC3    C7 6550   4.117   0.728  16.847  0.1126  0.0718  0.1285
  439TMC3    C8 6551   3.956   0.550  16.465 -0.0359  0.1646  0.0291
  439TMC3    O1 6552   4.118   0.811  16.933  0.5797 -0.4159 -0.0752
  439TMC3    O2 6553   4.064   0.512  16.427  0.2621 -0.8543  0.2553
  440MPD2     C 6554   3.194   1.583  14.704 -0.1516  0.0787  0.2171
  440MPD2    C1 6555   3.062   1.550  14.738 -0.4318  0.6300  0.3473
  440MPD2    C2 6556   3.038   1.496  14.862  0.6420 -0.4298 -0.9061
  440MPD2    C3 6557   3.135   1.466  14.947  0.1760  0.1772  0.0211
  440MPD2    C4 6558   3.265   1.489  14.908  0.5547 -0.8659 -0.1520
  440MPD2    C5 6559   3.298   1.556  14.799 -0.6901  0.1788 -0.0662
  440MPD2     H 6560   2.933   1.474  14.878  0.5064 -1.0287 -2.6147
  440MPD2    H1 6561   3.345   1.453  14.970  0.7947  1.6514  1.0144
  440MPD2    H2 6562   3.222   1.632  14.612  1.6763 -0.1292  0.6596
  440MPD2    H3 6563   3.401   1.573  14.771  0.1121  0.7891  3.2863
  440MPD2     N 6564   3.109   1.422  15.082  0.2351  0.5701  0.4045
  440MPD2    H5 6565   3.184   1.440  15.148  0.6529 -0.3892  0.1844
  440MPD2    N1 6566   2.953   1.582  14.663  0.0165  0.1435  0.0693
  440MPD2    H7 6567   2.862   1.548  14.694 -0.1505 -1.4286 -2.1011
  441TMC3    C1 6568   2.979   1.366  15.274 -0.0529 -0.3369  0.1153
  441TMC3    C2 6569   3.009   1.478  15.348  0.9517 -0.7452  0.2926
  441TMC3    C3 6570   2.995   1.475  15.483  0.4477  0.6108 -0.1139
  441TMC3    C4 6571   2.942   1.246  15.332 -0.2505 -0.2425 -0.7470
  441TMC3    C5 6572   2.930   1.251  15.464 -0.2646 -0.6552 -0.3984
  441TMC3    C6 6573   2.966   1.356  15.544 -0.0644 -0.3281 -0.1239
  441TMC3     C 6574   2.997   1.369  15.124 -0.4263 -0.1980 -0.7330
  441TMC3     O 6575   2.908   1.311  15.062 -0.1876  0.7831  0.0425
  441TMC3     H 6576   3.029   1.571  15.296 -1.4856 -1.7962 -2.5056
  441TMC3    H1 6577   2.918   1.165  15.264  0.9927 -1.7995  0.6884
  441TMC3    H2 6578   2.934   1.357  15.648 -2.4221  3.3960 -0.8715
  441TMC3    C7 6579   2.852   1.149  15.534 -0.1347 -0.0763 -0.2592
  441TMC3    C8 6580   2.929   1.591  15.545 -0.1674 -0.2567 -0.4377
  441TMC3    O1 6581   2.768   1.192  15.612 -0.1139 -0.2657 -0.0253
  441TMC3    O2 6582   2.940   1.611  15.666 -0.7823  0.4325 -0.1788
  442MPD2     C 6583   0.591   2.380  16.578  0.9223  0.2172 -0.1987
  442MPD2    C1 6584   0.525   2.333  16.696 -0.5876 -0.8201  0.1989
  442MPD2    C2 6585   0.545   2.205  16.737  0.0769  0.0386 -0.1264
  442MPD2    C3 6586   0.621   2.119  16.664 -0.3728 -0.8921 -0.3569
  442MPD2    C4 6587   0.686   2.161  16.553  0.3126  0.7702 -0.4105
  442MPD2    C5 6588   0.677   2.292  16.512  0.6982 -0.5348 -0.0243
  442MPD2     H 6589   0.498   2.184  16.832 -0.3471 -1.3956 -0.6460
  442MPD2    H1 6590   0.754   2.097  16.499  0.3962 -0.7083  1.4550
  442MPD2    H2 6591   0.590   2.482  16.540 -2.9213  0.0765 -0.5566
  442MPD2    H3 6592   0.734   2.327  16.426 -1.0691  0.0110 -0.9664
  442MPD2     N 6593   0.632   1.981  16.702  0.2490  0.2491 -0.1510
  442MPD2    H5 6594   0.688   1.925  16.639 -2.0399 -1.8491 -0.3194
  442MPD2    N1 6595   0.460   2.427  16.780  0.0694 -0.4459 -0.1212
  442MPD2    H7 6596   0.427   2.392  16.870  1.8840 -2.4854 -0.2409
  443TMC3    C1 6597   0.353   2.609  16.856 -0.1236  0.3864 -0.2379
  443TMC3    C2 6598   0.243   2.686  16.818  0.0917  0.2753  0.6294
  443TMC3    C3 6599   0.130   2.664  16.885 -0.1594 -0.4978  0.0425
  443TMC3    C4 6600   0.359   2.541  16.977 -0.2796  0.4995  0.2154
  443TMC3    C5 6601   0.245   2.546  17.053  0.6115  0.5472 -0.7086
  443TMC3    C6 6602   0.128   2.599  17.007  0.2754  0.3108  0.6602
  443TMC3     C 6603   0.437   2.552  16.748 -0.3482 -0.4092  0.9027
  443TMC3     O 6604   0.440   2.626  16.647  0.5135 -1.0096 -0.2574
  443TMC3     H 6605   0.247   2.742  16.725 -2.5389 -0.4146  0.1196
  443TMC3    H1 6606   0.451   2.495  17.010 -0.1228  0.2462 -0.5723
  443TMC3    H2 6607   0.036   2.572  17.058 -0.2875  1.0072  0.0307
  443TMC3    C7 6608   0.232   2.460  17.170 -0.0062 -0.2896  0.4547
  443TMC3    C8 6609   0.008   2.744  16.855  0.6803  0.2127  0.0933
  443TMC3    O1 6610   0.313   2.371  17.175  0.4180 -0.3722 -0.5983
  443TMC3    O2 6611   4.682   2.801  16.948  0.2384  0.4386  0.2094
  444MPD2     C 6612   0.782   1.483  17.323 -0.1325  0.3894  0.5067
  444MPD2    C1 6613   0.706   1.390  17.396  0.4063 -0.2805 -0.6172
  444MPD2    C2 6614   0.743   1.249  17.409 -1.0737  0.8171 -0.0270
  444MPD2    C3 6615   0.863   1.213  17.351  0.1849 -1.0261 -0.5929
  444MPD2    C4 6616   0.929   1.317  17.281 -0.4343  0.8620  0.2391
  444MPD2    C5 6617   0.890   1.445  17.263 -0.8302  0.7273 -0.1195
  444MPD2     H 6618   0.678   1.180  17.462 -2.8419  2.4998 -0.0097
  444MPD2    H1 6619   1.024   1.295  17.233 -0.6462  1.1880 -0.3358
  444MPD2    H2 6620   0.753   1.586  17.309 -3.0806 -0.2077  2.1391
  444MPD2    H3 6621   0.954   1.512  17.205  1.0272 -1.2985 -0.4175
  444MPD2     N 6622   0.911   1.077  17.358  0.1736 -0.5440  0.2451
  444MPD2    H5 6623   0.872   1.023  17.434 -2.4229  1.1513  0.1325
  444MPD2    N1 6624   0.593   1.423  17.474 -0.3601 -0.0261 -0.2352
  444MPD2    H7 6625   0.536   1.351  17.519 -1.6525  1.1535  0.0284
  445TMC3    C1 6626   1.056   0.888  17.311 -0.0883 -0.3908  0.0272
  445TMC3    C2 6627   1.049   0.845  17.442  0.5153 -0.4450  0.0773
  445TMC3    C3 6628   1.093   0.721  17.470  0.1742 -0.2587 -0.4819
  445TMC3    C4 6629   1.119   0.813  17.216  0.2171  0.0447 -0.4140
  445TMC3    C5 6630   1.164   0.689  17.253  0.3183 -0.1403  0.8229
  445TMC3    C6 6631   1.146   0.635  17.374 -0.4633 -0.4619  0.1664
  445TMC3     C 6632   1.006   1.019  17.270  0.0838  0.8501 -0.3684
  445TMC3     O 6633   1.049   1.070  17.166  0.2839  0.6691  0.5014
  445TMC3     H 6634   1.033   0.911  17.527 -1.4943 -1.2662  0.3536
  445TMC3    H1 6635   1.122   0.839  17.111 -1.1006 -0.1867 -0.5055
  445TMC3    H2 6636   1.193   0.539  17.394 -0.4616 -0.5059 -0.0532
  445TMC3    C7 6637   1.248   0.627  17.158 -0.1646 -0.7647  0.2309
  445TMC3    C8 6638   1.079   0.671  17.604  0.5360  0.2078 -0.5144
  445TMC3    O1 6639   1.322   0.701  17.097 -0.2277  0.2411 -0.9859
  445TMC3    O2 6640   1.158   0.581  17.626  0.5620  1.0653  0.2443
  446MPD2     C 6641   0.038   2.392  11.188 -0.7630 -0.1882 -0.0468
  446MPD2    C1 6642   4.678   2.494  11.144  0.0466  0.4087 -0.0660
  446MPD2    C2 6643   0.009   2.609  11.083  0.5757  0.4190 -0.1138
  446MPD2    C3 6644   0.145   2.611  11.066  0.4496  0.3125 -0.6416
  446MPD2    C4 6645   0.227   2.503  11.107  0.4985  0.1072 -0.5250
  446MPD2    C5 6646   0.171   2.391  11.155 -0.1139  0.7340  1.3159
  446MPD2     H 6647   4.670   2.689  11.044  0.2823  1.0458  1.6406
  446MPD2    H1 6648   0.336   2.501  11.106  0.4810 -0.5606 -0.5440
  446MPD2    H2 6649   4.720   2.299  11.225 -2.5062  0.9788  0.9759
  446MPD2    H3 6650   0.240   2.315  11.190  0.6013  0.4221 -0.7951
  446MPD2     N 6651   0.192   2.721  10.994  0.7076  0.0258 -0.3202
  446MPD2    H5 6652   0.137   2.799  10.961  1.3679  1.4263  1.9049
  446MPD2    N1 6653   4.536   2.474  11.154 -0.0291  0.1029  0.0432
  446MPD2    H7 6654   4.507   2.387  11.199 -1.1749  0.2340 -0.4534
  447TMC3    C1 6655   0.364   2.867  10.919 -0.2665 -0.2031  0.9475
  447TMC3    C2 6656   0.314   2.887  10.792 -0.4822  0.3632  0.3866
  447TMC3    C3 6657   0.384   2.965  10.711  0.0741  0.2920 -0.1353
  447TMC3    C4 6658   0.485   2.922  10.950  0.1729  0.3895  0.4714
  447TMC3    C5 6659   0.547   3.011  10.860 -0.1622 -0.1378 -0.9684
  447TMC3    C6 6660   0.499   3.030  10.739 -0.2247  0.1591  0.1374
  447TMC3     C 6661   0.328   2.747  10.989 -0.4046  0.1656 -0.4692
  447TMC3     O 6662   0.427   2.705  11.049 -0.1760  0.4931  0.4383
  447TMC3     H 6663   0.216   2.852  10.763 -0.0565 -0.0972 -0.4995
  447TMC3    H1 6664   0.545   2.891  11.035 -1.5238 -1.5112  0.9629
  447TMC3    H2 6665   0.553   3.075  10.657 -0.7883 -0.3971 -0.5279
  447TMC3    C7 6666   0.688   3.029  10.870  0.5443 -0.7067  0.8896
  447TMC3    C8 6667   0.322   3.001  10.585  0.1989 -0.0280  1.0530
  447TMC3    O1 6668   0.754   3.052  10.770 -0.1404 -0.6215  0.0022
  447TMC3    O2 6669   0.267   2.909  10.529 -0.1842  0.1393  0.7690
  448TMC3    C1 6670   3.172   2.549  17.357  0.1775 -0.2067 -0.0029
  448TMC3    C2 6671   3.129   2.448  17.272 -0.0294  0.1874  0.1621
  448TMC3    C3 6672   3.170   2.321  17.301  0.3686  0.1621  0.4738
  448TMC3    C4 6673   3.249   2.524  17.464  0.6489  0.0195 -0.0735
  448TMC3    C5 6674   3.283   2.398  17.492  0.0882 -0.1334 -0.0833
  448TMC3    C6 6675   3.242   2.298  17.416  0.4027  0.2601  0.3516
  448TMC3     C 6676   3.081   2.656  17.380 -0.2272 -0.7118  0.0860
  448TMC3     O 6677   3.114   2.735  17.465 -0.7115  0.3610 -0.0861
  448TMC3     H 6678   3.083   2.480  17.180  1.1755 -0.7179 -0.7531
  448TMC3    H1 6679   3.285   2.604  17.528  1.1241 -0.2207 -0.0403
  448TMC3    H2 6680   3.270   2.194  17.431 -1.2653 -0.0921  0.9375
  448TMC3    C7 6681   3.357   2.369  17.621 -0.4394  0.1643  0.0264
  448TMC3    C8 6682   3.174   2.220  17.201  0.3218 -0.2696  0.4629
  448TMC3    O1 6683   3.384   2.462  17.692  0.2393  0.3268  0.7032
  448TMC3    O2 6684   3.157   2.106  17.246 -0.0858 -0.1761 -0.1685
  449MPD2     C 6685   0.050   1.006  13.881 -0.6793 -0.2049  1.0141
  449MPD2    C1 6686   4.644   0.971  13.866 -0.5940 -0.2834 -0.7512
  449MPD2    C2 6687   4.571   0.907  13.963 -0.2700 -0.9619  0.4157
  449MPD2    C3 6688   4.627   0.882  14.085 -0.0142  0.0107  0.1407
  449MPD2    C4 6689   0.024   0.938  14.111 -0.3236  0.3701  0.1769
  449MPD2    C5 6690   0.098   0.996  14.010 -0.4915  0.0116 -0.2954
  449MPD2     H 6691   4.474   0.862  13.944 -1.8618  2.2113  1.0268
  449MPD2    H1 6692   0.070   0.936  14.209  2.3412  1.2267 -1.0642
  449MPD2    H2 6693   0.114   1.037  13.799 -2.3636 -1.5042 -0.7972
  449MPD2    H3 6694   0.197   1.029  14.037 -0.3813 -1.3262  0.9820
  449MPD2     N 6695   4.562   0.789  14.171 -0.2143  0.2729  0.3331
  449MPD2    H5 6696   4.474   0.752  14.136 -0.1150 -0.7972  1.2083
  449MPD2    N1 6697   4.578   0.993  13.746 -0.1171  0.0674 -0.1882
  449MPD2    H7 6698   4.480   0.968  13.743 -0.1465  0.0510  0.9585
  450TMC3    C1 6699   4.535   1.025  13.515  0.3651  0.4065  0.0728
  450TMC3    C2 6700   4.576   0.953  13.407  0.1821 -0.1197 -0.1388
  450TMC3    C3 6701   4.495   0.855  13.352  0.2468  0.3963  0.4665
  450TMC3    C4 6702   4.402   1.007  13.561 -0.3623 -0.0748 -0.5307
  450TMC3    C5 6703   4.326   0.906  13.517 -0.7654  0.0320  0.3192
  450TMC3    C6 6704   4.369   0.825  13.413  0.6344 -0.5309  0.2285
  450TMC3     C 6705   4.633   1.032  13.624  0.3937 -0.4402  0.2824
  450TMC3     O 6706   0.027   1.048  13.593  0.3644 -0.3321 -0.1370
  450TMC3     H 6707   4.677   0.964  13.370  0.0715 -1.4837 -0.8737
  450TMC3    H1 6708   4.359   1.077  13.632 -1.7855 -2.7334  1.1969
  450TMC3    H2 6709   4.306   0.750  13.368  0.1895  0.1327 -0.2630
  450TMC3    C7 6710   4.270   0.839  13.631  0.1029  0.0539 -0.1819
  450TMC3    C8 6711   4.555   0.747  13.277 -0.2058 -0.3581  0.0768
  450TMC3    O1 6712   4.311   0.879  13.737 -0.4698 -0.2643 -0.1308
  450TMC3    O2 6713   4.470   0.671  13.235 -0.0724 -0.1532  0.3605
  451MPD2     C 6714   1.314   4.465   1.936 -0.3173  0.1958 -0.7443
  451MPD2    C1 6715   1.392   4.533   1.843 -0.1861  0.3642 -0.4521
  451MPD2    C2 6716   1.495   4.464   1.785 -0.0154  0.1085  0.1207
  451MPD2    C3 6717   1.519   4.326   1.811  0.5299  0.6131  0.0908
  451MPD2    C4 6718   1.440   4.264   1.906 -0.8486  0.3336  0.1040
  451MPD2    C5 6719   1.336   4.330   1.971 -0.0703  0.2883  0.1061
  451MPD2     H 6720   1.558   4.511   1.710 -1.3984  0.9771 -0.4990
  451MPD2    H1 6721   1.451   4.159   1.932  1.4188  0.0669 -1.9629
  451MPD2    H2 6722   1.235   4.521   1.985  0.7525  0.9654  0.1005
  451MPD2    H3 6723   1.263   4.282   2.035 -1.3282  1.6258 -0.3227
  451MPD2     N 6724   1.620   4.251   1.746  0.0228  0.1781  0.6177
  451MPD2    H5 6725   1.637   4.162   1.792 -0.0691  0.2619  0.8131
  451MPD2    N1 6726   1.383   4.670   1.833  0.3182 -0.2515  0.8972
  451MPD2    H7 6727   1.295   4.709   1.865 -0.2392 -2.0169  1.5009
  452TMC3    C1 6728   1.787   4.168   1.598 -0.8445  0.4043 -0.1432
  452TMC3    C2 6729   1.857   4.107   1.702 -0.3592 -0.3215  0.1401
  452TMC3    C3 6730   1.980   4.053   1.676 -0.3164  0.0108 -0.7169
  452TMC3    C4 6731   1.850   4.179   1.485 -0.4179 -0.1766 -0.8733
  452TMC3    C5 6732   1.980   4.141   1.465 -0.2116 -0.1731 -0.0422
  452TMC3    C6 6733   2.055   4.079   1.566 -0.5839  0.0712  0.9092
  452TMC3     C 6734   1.690   4.275   1.629  0.3148  0.0142  0.6892
  452TMC3     O 6735   1.687   4.366   1.545 -0.0977  0.3432 -0.5086
  452TMC3     H 6736   1.817   4.100   1.803 -1.4771  0.0889 -0.2817
  452TMC3    H1 6737   1.799   4.219   1.398 -1.7640  0.1647  0.0725
  452TMC3    H2 6738   2.150   4.028   1.555 -2.0448 -2.6294  0.7713
  452TMC3    C7 6739   2.047   4.165   1.342 -0.2868 -1.3918 -0.2941
  452TMC3    C8 6740   2.028   3.981   1.797  0.5457  0.9029 -0.3925
  452TMC3    O1 6741   1.978   4.164   1.244  0.3008 -0.2937  0.1306
  452TMC3    O2 6742   1.944   3.935   1.873 -0.3149  0.0098 -0.5309
  453TMC3    C1 6743   2.353   1.434  11.709 -0.2237 -0.7529  0.2262
  453TMC3    C2 6744   2.293   1.358  11.799  0.5355 -0.2572  0.7401
  453TMC3    C3 6745   2.167   1.315  11.777 -0.0520  0.5937  0.3594
  453TMC3    C4 6746   2.290   1.484  11.599 -0.0238 -0.4684  1.2123
  453TMC3    C5 6747   2.163   1.438  11.581 -0.1440 -0.0422  1.1875
  453TMC3    C6 6748   2.100   1.358  11.669 -0.0616 -0.6052 -0.9512
  453TMC3     C 6749   2.487   1.489  11.758  1.1387 -0.5540  0.7354
  453TMC3     O 6750   2.556   1.415  11.830  0.1452  0.4941  0.2097
  453TMC3     H 6751   2.345   1.338  11.892  0.3734 -2.5827  0.3167
  453TMC3    H1 6752   2.342   1.540  11.522 -2.7267  2.6108  1.6548
  453TMC3    H2 6753   2.003   1.313  11.649 -0.6844  0.1799  0.3066
  453TMC3    C7 6754   2.089   1.480  11.460  0.2137  0.5894  0.3780
  453TMC3    C8 6755   2.096   1.245  11.883  0.4101 -0.0156  0.5028
  453TMC3    O1 6756   2.156   1.526  11.370  0.0702  0.5050 -0.4809
  453TMC3    O2 6757   1.974   1.251  11.873 -0.7428 -0.5489 -0.0088
  454MPD2     C 6758   0.967   0.588  16.882  0.0641 -0.2190  0.9587
  454MPD2    C1 6759   0.985   0.724  16.872  0.1160  0.6318  0.4463
  454MPD2    C2 6760   0.909   0.804  16.956  0.2279  0.4531  0.7851
  454MPD2    C3 6761   0.809   0.744  17.037  0.3181 -0.3198 -0.1467
  454MPD2    C4 6762   0.809   0.605  17.049 -0.2308  0.2382  1.3905
  454MPD2    C5 6763   0.899   0.529  16.974  0.0682  0.7050 -0.2317
  454MPD2     H 6764   0.914   0.912  16.950  1.3639  0.4848  2.2970
  454MPD2    H1 6765   0.734   0.560  17.114 -2.2020  1.1442 -0.2386
  454MPD2    H2 6766   1.031   0.520  16.827  0.1637 -0.6401  1.5985
  454MPD2    H3 6767   0.886   0.421  16.980 -0.3055  0.7838  0.5072
  454MPD2     N 6768   0.715   0.819  17.113  0.0184 -0.4820  0.2980
  454MPD2    H5 6769   0.682   0.761  17.189 -2.9551  1.0699  0.1962
  454MPD2    N1 6770   1.070   0.779  16.773 -0.4352  0.0049  0.1521
  454MPD2    H7 6771   1.096   0.876  16.777  0.9624 -0.3937  0.7169
  455TMC3    C1 6772   0.678   1.008  16.967  0.0972  0.1117  0.6063
  455TMC3    C2 6773   0.724   1.133  16.984 -0.7589 -0.4706 -0.5276
  455TMC3    C3 6774   0.781   1.194  16.871  0.3907 -0.0373  0.1145
  455TMC3    C4 6775   0.657   0.943  16.850 -0.1055  0.0016 -0.1424
  455TMC3    C5 6776   0.709   1.010  16.739  0.2769 -0.3729  0.2442
  455TMC3    C6 6777   0.771   1.131  16.748  0.2221 -0.3986  0.0354
  455TMC3     C 6778   0.672   0.948  17.100  0.4960  0.6796  0.0369
  455TMC3     O 6779   0.607   1.022  17.175  0.1554 -0.3310 -0.0767
  455TMC3     H 6780   0.732   1.189  17.076  1.8481  0.5695 -1.3901
  455TMC3    H1 6781   0.597   0.854  16.838 -2.7236  1.5966  1.3071
  455TMC3    H2 6782   0.800   1.177  16.655  0.5954  1.1986  0.9380
  455TMC3    C7 6783   0.710   0.937  16.611  0.3799 -0.6679 -0.4493
  455TMC3    C8 6784   0.879   1.307  16.884  0.4101  0.4586 -0.5565
  455TMC3    O1 6785   0.746   0.994  16.508 -0.1720  0.5852  0.1916
  455TMC3    O2 6786   0.847   1.384  16.973  0.2880  0.8175  0.1495
  456MPD2     C 6787   4.077   1.138  16.630 -0.1872 -0.0379  0.3233
  456MPD2    C1 6788   4.117   1.148  16.759 -0.1658 -0.3748  0.4296
  456MPD2    C2 6789   4.034   1.224  16.844  0.4381  0.3775 -0.4300
  456MPD2    C3 6790   3.928   1.308  16.798 -0.5264  0.2292 -0.1347
  456MPD2    C4 6791   3.893   1.285  16.664 -0.3201  0.7706  0.3415
  456MPD2    C5 6792   3.967   1.206  16.585 -0.1866 -0.7345  0.6004
  456MPD2     H 6793   4.051   1.224  16.951  0.5036  1.0504 -0.4377
  456MPD2    H1 6794   3.812   1.337  16.612  0.0353  0.0703 -0.9200
  456MPD2    H2 6795   4.113   1.060  16.564 -1.3567 -0.6770  0.4420
  456MPD2    H3 6796   3.919   1.191  16.489 -0.4970 -1.4938  0.8743
  456MPD2     N 6797   3.875   1.411  16.889  0.4763  0.1697 -0.2950
  456MPD2    H5 6798   3.924   1.404  16.978 -0.4533  2.0033  0.3539
  456MPD2    N1 6799   4.234   1.076  16.801 -0.6328  0.6370  0.0442
  456MPD2    H7 6800   4.286   1.014  16.738 -2.1763  0.6098 -1.1926
  457TMC3    C1 6801   3.737   1.584  16.967 -0.1736  0.0810 -0.0619
  457TMC3    C2 6802   3.617   1.654  16.956 -0.2752  0.1693  0.2580
  457TMC3    C3 6803   3.596   1.743  17.059 -0.7693 -0.4223 -0.3420
  457TMC3    C4 6804   3.813   1.585  17.085  0.7248 -0.5753  1.0546
  457TMC3    C5 6805   3.774   1.669  17.183 -0.8203  0.5293 -0.2329
  457TMC3    C6 6806   3.668   1.750  17.176  0.3075 -0.1398 -0.7074
  457TMC3     C 6807   3.780   1.502  16.854 -0.5211 -0.7848 -0.4631
  457TMC3     O 6808   3.716   1.513  16.753 -0.3114 -0.8205 -0.1184
  457TMC3     H 6809   3.570   1.657  16.859 -1.0983 -1.1110  0.6219
  457TMC3    H1 6810   3.897   1.516  17.092  0.6062 -0.9193 -0.7793
  457TMC3    H2 6811   3.624   1.799  17.262  1.6058 -1.8379  0.9042
  457TMC3    C7 6812   3.825   1.653  17.318  0.1466 -0.5788 -0.3792
  457TMC3    C8 6813   3.482   1.826  17.042 -0.7488 -0.1457  0.4334
  457TMC3    O1 6814   3.895   1.554  17.338  0.4814  0.0375  0.2641
  457TMC3    O2 6815   3.420   1.839  17.146 -0.8970 -0.0205  0.5624
  458MPD2     C 6816   1.586   0.374  12.261 -0.3301 -0.3970  0.8108
  458MPD2    C1 6817   1.501   0.409  12.360  0.5604  0.4855 -0.0738
  458MPD2    C2 6818   1.370   0.394  12.338 -0.9122  0.2692 -0.3057
  458MPD2    C3 6819   1.321   0.352  12.213 -0.2325 -0.3201 -0.1504
  458MPD2    C4 6820   1.406   0.321  12.113  0.6151 -0.2723  0.0512
  458MPD2    C5 6821   1.541   0.337  12.138 -0.2035 -0.6099 -0.3653
  458MPD2     H 6822   1.305   0.432  12.417 -0.0790  0.2072  0.4152
  458MPD2    H1 6823   1.376   0.282  12.016  0.2518  1.8731 -0.7064
  458MPD2    H2 6824   1.692   0.380  12.282 -0.0203  0.7934 -1.0909
  458MPD2    H3 6825   1.611   0.301  12.064 -0.5738  2.0677 -2.0046
  458MPD2     N 6826   1.182   0.339  12.208 -0.2253  0.0878  0.5674
  458MPD2    H5 6827   1.130   0.366  12.291 -1.1234 -2.0996  0.7207
  458MPD2    N1 6828   1.557   0.461  12.475 -0.1507  0.4867  0.4202
  458MPD2    H7 6829   1.655   0.485  12.467 -0.0921 -0.0770 -0.5026
  459TMC3    C1 6830   1.558   0.553  12.681  0.4525  0.3339  0.4125
  459TMC3    C2 6831   1.640   0.654  12.638  0.2169 -0.1267 -0.2114
  459TMC3    C3 6832   1.742   0.699  12.719  0.2206  0.3453  0.6131
  459TMC3    C4 6833   1.568   0.508  12.814  0.4082 -0.5731 -0.4778
  459TMC3    C5 6834   1.667   0.553  12.895  0.1690 -0.2681  0.3555
  459TMC3    C6 6835   1.761   0.645  12.843  0.5413 -0.3189  1.1092
  459TMC3     C 6836   1.487   0.469  12.593  0.0168 -0.7128  0.3466
  459TMC3     O 6837   1.376   0.432  12.633  0.2184 -0.1865  0.2037
  459TMC3     H 6838   1.629   0.695  12.539  0.7297 -1.1995 -0.7078
  459TMC3    H1 6839   1.495   0.435  12.848  1.4518 -0.7237  1.4264
  459TMC3    H2 6840   1.854   0.665  12.895  1.0502 -3.6095  1.4796
  459TMC3    C7 6841   1.655   0.523  13.038 -0.3025 -0.0293 -0.0109
  459TMC3    C8 6842   1.838   0.791  12.660  0.2374  0.1725 -0.4515
  459TMC3    O1 6843   1.576   0.432  13.073 -1.1102  0.1883  0.0603
  459TMC3    O2 6844   1.944   0.792  12.724 -0.1717  0.1187 -0.0276
  460MPD2     C 6845   0.326   3.321  10.409  0.0742 -0.1368 -0.0996
  460MPD2    C1 6846   0.299   3.191  10.429 -0.1210 -0.2070 -0.2616
  460MPD2    C2 6847   0.216   3.124  10.340  0.0833  0.0091  0.6765
  460MPD2    C3 6848   0.150   3.194  10.241 -0.4197 -0.3043 -0.2082
  460MPD2    C4 6849   0.189   3.331  10.214 -0.1636 -0.1777  0.0622
  460MPD2    C5 6850   0.279   3.396  10.301 -0.4500  0.2152  0.4238
  460MPD2     H 6851   0.194   3.019  10.354 -0.6342  0.4539  2.7900
  460MPD2    H1 6852   0.147   3.373  10.124  1.5821 -0.5623 -0.9513
  460MPD2    H2 6853   0.396   3.362  10.480 -1.4855  0.4220  1.1060
  460MPD2    H3 6854   0.308   3.498  10.280  1.5299 -0.1907  1.1591
  460MPD2     N 6855   0.051   3.134  10.156 -0.2170 -0.6693 -0.1793
  460MPD2    H5 6856   0.029   3.038  10.180 -1.7687 -0.2760 -0.0121
  460MPD2    N1 6857   0.350   3.127  10.542 -0.2645  0.2933  0.0595
  460MPD2    H7 6858   0.394   3.191  10.607  2.0747 -1.6452  0.3810
  461TMC3    C1 6859   4.574   3.105  10.029 -0.4080 -0.3210  0.2016
  461TMC3    C2 6860   4.607   2.979   9.984 -0.1621 -0.6435 -0.8075
  461TMC3    C3 6861   4.511   2.899   9.928  0.6502  0.2268  0.2467
  461TMC3    C4 6862   4.455   3.155  10.014 -0.5094  0.0115  0.3820
  461TMC3    C5 6863   4.355   3.070   9.965 -0.5042  0.0688 -0.2749
  461TMC3    C6 6864   4.383   2.943   9.922  0.1547  0.9408  0.7004
  461TMC3     C 6865   4.675   3.202  10.085 -0.4326 -0.5999  0.1233
  461TMC3     O 6866   4.645   3.321  10.089 -0.5514 -0.3427 -0.9041
  461TMC3     H 6867   4.707   2.939   9.995  0.1209 -0.1305 -1.5006
  461TMC3    H1 6868   4.424   3.252  10.050 -2.9433  0.0582 -1.8017
  461TMC3    H2 6869   4.310   2.888   9.864  3.1402 -1.3664 -0.8533
  461TMC3    C7 6870   4.226   3.124   9.953  0.1281 -0.2302  0.6267
  461TMC3    C8 6871   4.556   2.766   9.882  0.2417 -0.3789 -0.5709
  461TMC3    O1 6872   4.236   3.249   9.933  0.1452  0.0553  0.4488
  461TMC3    O2 6873   4.670   2.733   9.895 -0.5688  0.1000  0.3091
  462TMC3    C1 6874   0.450   3.532  17.534 -0.4044  0.0858  0.2894
  462TMC3    C2 6875   0.463   3.404  17.498  0.7198  0.2172  0.0421
  462TMC3    C3 6876   0.592   3.357  17.472 -0.4798  0.5441 -0.3621
  462TMC3    C4 6877   0.560   3.611  17.538 -0.2748  0.2800  0.4612
  462TMC3    C5 6878   0.688   3.559  17.516  0.6576 -0.0105  0.2306
  462TMC3    C6 6879   0.707   3.427  17.480 -0.2041 -0.6590 -0.6972
  462TMC3     C 6880   0.318   3.593  17.515 -0.3906  0.3801  0.1295
  462TMC3     O 6881   0.233   3.512  17.489  0.0487  0.0773  0.3640
  462TMC3     H 6882   0.377   3.341  17.477  1.3874 -0.1727 -1.5608
  462TMC3    H1 6883   0.550   3.708  17.586  1.6822  0.5225  0.3936
  462TMC3    H2 6884   0.798   3.375  17.506  2.3006  2.3723 -3.4623
  462TMC3    C7 6885   0.791   3.626  17.581  0.3760  1.0332  0.4168
  462TMC3    C8 6886   0.604   3.238  17.391 -0.7083 -0.7456  0.6938
  462TMC3    O1 6887   0.771   3.724  17.655 -0.2207 -0.0929 -0.9030
  462TMC3    O2 6888   0.508   3.162  17.385  0.0956 -0.5232 -0.6124
  463MPD2     C 6889   2.310   2.465   2.326  0.2134 -0.1513  0.0997
  463MPD2    C1 6890   2.192   2.527   2.289 -0.1882 -0.2945 -0.1727
  463MPD2    C2 6891   2.183   2.659   2.263 -0.2293 -0.3453  0.1456
  463MPD2    C3 6892   2.299   2.737   2.270 -0.6081  0.1709 -0.7892
  463MPD2    C4 6893   2.423   2.671   2.299  0.3518 -0.3443 -0.3601
  463MPD2    C5 6894   2.424   2.540   2.328 -0.4640 -0.4470 -0.8862
  463MPD2     H 6895   2.085   2.701   2.242  0.1348  1.4080  1.8953
  463MPD2    H1 6896   2.515   2.728   2.306 -0.1529  0.4918 -0.5069
  463MPD2    H2 6897   2.313   2.366   2.371  1.3019  0.5951  1.6659
  463MPD2    H3 6898   2.517   2.491   2.356 -0.6638 -0.4666 -0.2564
  463MPD2     N 6899   2.304   2.876   2.245  0.2373  0.0204 -0.1128
  463MPD2    H5 6900   2.401   2.908   2.246  0.0680  0.5349 -0.8586
  463MPD2    N1 6901   2.074   2.451   2.260  0.3153 -0.4166 -0.0627
  463MPD2    H7 6902   1.998   2.513   2.232  0.8549 -0.1302 -0.8770
  464TMC3    C1 6903   1.931   2.280   2.181  1.4256  0.0112  0.2435
  464TMC3    C2 6904   1.834   2.376   2.158  0.9819  0.8670  0.2059
  464TMC3    C3 6905   1.702   2.333   2.138 -0.2681 -0.0146 -0.1795
  464TMC3    C4 6906   1.905   2.148   2.187 -0.2321  0.2004  0.3752
  464TMC3    C5 6907   1.777   2.114   2.155 -0.5751 -0.3548 -0.1761
  464TMC3    C6 6908   1.672   2.203   2.137 -0.8248 -0.9400  0.9602
  464TMC3     C 6909   2.065   2.320   2.230 -0.6014 -0.9202 -0.4792
  464TMC3     O 6910   2.153   2.234   2.223  0.0226 -0.0784 -0.1587
  464TMC3     H 6911   1.857   2.479   2.133  2.2774  0.4615 -0.3056
  464TMC3    H1 6912   1.985   2.074   2.190  1.0066  1.3722 -2.4788
  464TMC3    H2 6913   1.568   2.175   2.134 -1.4728  1.4527  1.2854
  464TMC3    C7 6914   1.749   1.979   2.120  0.1514  0.0455 -0.5186
  464TMC3    C8 6915   1.596   2.432   2.118  0.2352  0.7493 -0.2675
  464TMC3    O1 6916   1.821   1.891   2.157  0.2562  0.5735  0.2824
  464TMC3    O2 6917   1.483   2.389   2.098 -0.0221  0.6223  0.1321
  465MPD2     C 6918   2.774   0.532  16.787 -0.1665  0.4881  0.6779
  465MPD2    C1 6919   2.687   0.561  16.892  1.0372 -0.1920 -0.0666
  465MPD2    C2 6920   2.558   0.612  16.860 -0.6079 -0.7329  0.7500
  465MPD2    C3 6921   2.532   0.655  16.730  0.3734 -0.7339  0.0108
  465MPD2    C4 6922   2.630   0.635  16.634  0.3933  0.4558 -0.9705
  465MPD2    C5 6923   2.744   0.566  16.658  0.2450 -0.6132  0.2218
  465MPD2     H 6924   2.480   0.626  16.935  0.4901 -0.4600  1.8370
  465MPD2    H1 6925   2.611   0.668  16.532  0.8606  0.0569 -1.1896
  465MPD2    H2 6926   2.869   0.482  16.805  0.3673  0.9817 -0.7146
  465MPD2    H3 6927   2.813   0.537  16.580  0.1297 -0.1862 -0.0359
  465MPD2     N 6928   2.411   0.719  16.697 -0.2726  0.5527  0.1022
  465MPD2    H5 6929   2.344   0.729  16.773 -0.5750 -0.3730 -0.0507
  465MPD2    N1 6930   2.716   0.537  17.029 -0.1197 -0.2963 -0.7377
  465MPD2    H7 6931   2.641   0.545  17.097 -0.7162  0.9925 -1.5558
  466TMC3    C1 6932   2.105   0.973  16.715 -0.5408  0.3480 -0.3417
  466TMC3    C2 6933   2.129   1.090  16.646  0.1059 -0.2714 -0.6101
  466TMC3    C3 6934   2.210   1.088  16.537  0.6304 -0.0178 -0.3940
  466TMC3    C4 6935   2.177   0.858  16.693 -0.1331  0.4567  0.4154
  466TMC3    C5 6936   2.269   0.867  16.590  0.4028 -0.5663 -0.1388
  466TMC3    C6 6937   2.280   0.977  16.502 -0.2375  0.0449  0.1519
  466TMC3     C 6938   2.061   0.981  16.850 -0.1654  0.6984  0.0179
  466TMC3     O 6939   2.057   0.873  16.913  0.0347  0.0022  0.3037
  466TMC3     H 6940   2.067   1.178  16.664  0.9689  0.4259 -1.0559
  466TMC3    H1 6941   2.166   0.769  16.754  2.4326  1.4733  2.3926
  466TMC3    H2 6942   2.368   0.984  16.438 -0.7145 -0.1989 -0.5347
  466TMC3    C7 6943   2.373   0.770  16.576  0.4040 -0.6536 -0.2665
  466TMC3    C8 6944   2.261   1.217  16.482 -0.8571  0.0229  0.2367
  466TMC3    O1 6945   2.433   0.782  16.466 -0.4494  0.5063 -0.5159
  466TMC3    O2 6946   2.304   1.218  16.367  0.0133  0.1668 -0.3424
  467TMC3    C1 6947   3.640   4.122  13.976 -0.4510  0.7499  0.7916
  467TMC3    C2 6948   3.592   4.105  13.848 -0.2576 -0.0634  0.1194
  467TMC3    C3 6949   3.462   4.062  13.840 -0.5805 -0.2128 -0.1569
  467TMC3    C4 6950   3.568   4.110  14.091  0.1711 -0.0604  1.1043
  467TMC3    C5 6951   3.432   4.081  14.084  0.0096 -0.6293 -0.4328
  467TMC3    C6 6952   3.382   4.051  13.954  0.4170 -0.1500  0.0421
  467TMC3     C 6953   3.775   4.164  13.988 -0.0326  0.3178  0.1354
  467TMC3     O 6954   3.820   4.232  14.080 -0.0037  0.2128  0.5495
  467TMC3     H 6955   3.646   4.120  13.755 -1.1296 -0.6210 -0.4835
  467TMC3    H1 6956   3.614   4.147  14.182  0.3849  0.7499  0.6668
  467TMC3    H2 6957   3.278   4.025  13.940 -0.0075  0.1169  2.7777
  467TMC3    C7 6958   3.360   4.044  14.201 -0.4913  0.8082  0.2184
  467TMC3    C8 6959   3.400   4.060  13.710 -0.4130 -0.8881 -0.4049
  467TMC3    O1 6960   3.428   4.019  14.301 -0.3536  0.3340 -0.3358
  467TMC3    O2 6961   3.324   3.967  13.695  0.3204  0.9994 -0.5255
  468MPD2     C 6962   2.105   3.083  10.507 -0.6228  1.1587  0.1308
  468MPD2    C1 6963   2.186   3.039  10.610 -0.6843 -0.0440 -0.2071
  468MPD2    C2 6964   2.172   2.911  10.655  0.7234  0.3943  0.0493
  468MPD2    C3 6965   2.071   2.831  10.619  0.6450 -0.3391  0.0905
  468MPD2    C4 6966   1.985   2.876  10.521 -0.0012  0.3655  0.9670
  468MPD2    C5 6967   1.999   3.000  10.465  0.5354 -0.2498 -0.1884
  468MPD2     H 6968   2.233   2.883  10.739 -1.5576 -1.2882  1.1431
  468MPD2    H1 6969   1.905   2.814  10.483 -1.0079  0.3276  3.0997
  468MPD2    H2 6970   2.129   3.170  10.447 -0.1175 -1.2599 -3.1533
  468MPD2    H3 6971   1.935   3.021  10.380  2.2922  0.9147 -1.2115
  468MPD2     N 6972   2.048   2.701  10.659 -0.7849  0.2301 -0.1934
  468MPD2    H5 6973   1.969   2.652  10.619 -0.7278 -1.3824  1.6567
  468MPD2    N1 6974   2.288   3.117  10.663  0.0764 -0.3250 -0.0465
  468MPD2    H7 6975   2.346   3.079  10.737 -0.3187  0.7446  0.8068
  469TMC3    C1 6976   2.412   3.314  10.712  0.0793 -0.2170 -0.0394
  469TMC3    C2 6977   2.518   3.246  10.760  0.0639 -0.1195 -0.0182
  469TMC3    C3 6978   2.615   3.310  10.839  0.3118  0.2089  0.3485
  469TMC3    C4 6979   2.386   3.445  10.755 -0.3262  0.5947 -0.5812
  469TMC3    C5 6980   2.469   3.498  10.852 -0.2311  0.1327  0.5803
  469TMC3    C6 6981   2.583   3.434  10.892  0.0225 -0.2827  0.1038
  469TMC3     C 6982   2.312   3.248  10.631  0.2340 -0.5791  0.1719
  469TMC3     O 6983   2.244   3.321  10.557 -0.0022 -0.5409 -0.5357
  469TMC3     H 6984   2.541   3.142  10.741  1.3550  0.1361  0.1622
  469TMC3    H1 6985   2.296   3.495  10.723 -0.1960 -0.1181 -2.0524
  469TMC3    H2 6986   2.658   3.479  10.956  0.3232 -0.0987 -0.3799
  469TMC3    C7 6987   2.416   3.598  10.939  0.5315 -0.0011  0.1170
  469TMC3    C8 6988   2.706   3.227  10.915  0.1401 -0.5686  0.1874
  469TMC3    O1 6989   2.313   3.657  10.900 -0.9338  0.4570  0.0343
  469TMC3    O2 6990   2.791   3.158  10.862 -0.0586 -0.1135  0.1505
  470TMC3    C1 6991   0.325   3.844   1.360 -0.1753  0.7452  0.5426
  470TMC3    C2 6992   0.356   3.915   1.247 -0.2027 -0.3014 -0.4520
  470TMC3    C3 6993   0.482   3.968   1.235 -0.3352 -0.4997 -0.2625
  470TMC3    C4 6994   0.430   3.800   1.433 -0.4518  0.3309  0.6138
  470TMC3    C5 6995   0.562   3.833   1.405  0.1736 -0.8877 -0.1890
  470TMC3    C6 6996   0.589   3.923   1.305 -0.2627  0.6657  0.6030
  470TMC3     C 6997   0.242   3.910   1.451  0.3596 -0.0988  0.2834
  470TMC3     O 6998   0.297   3.929   1.561 -0.3758 -0.2283  0.2363
  470TMC3     H 6999   0.278   3.974   1.199 -1.4787 -0.3537  1.5388
  470TMC3    H1 7000   0.415   3.732   1.516  4.5466  1.2543  2.2795
  470TMC3    H2 7001   0.688   3.963   1.288  0.9961 -2.3228  1.0063
  470TMC3    C7 7002   0.630   3.854   1.530  0.0656 -0.0051 -0.0469
  470TMC3    C8 7003   0.482   4.116   1.221 -0.6251 -0.0775 -0.4399
  470TMC3    O1 7004   0.747   3.816   1.530  0.5905  1.1099 -0.5697
  470TMC3    O2 7005   0.377   4.179   1.245 -0.3420 -0.0085  0.2496
  471MPD2     C 7006   0.208   0.202  16.498  0.1416 -0.2680 -0.6925
  471MPD2    C1 7007   0.246   0.068  16.519  0.0447  0.0871  0.1932
  471MPD2    C2 7008   0.259   0.024  16.651  0.0220 -0.7174 -0.6721
  471MPD2    C3 7009   0.255   0.107  16.760 -0.4848  0.2843 -0.1583
  471MPD2    C4 7010   0.218   0.233  16.734 -0.3126 -0.0741 -0.9367
  471MPD2    C5 7011   0.183   0.285  16.607 -0.4417  0.0579  0.5044
  471MPD2     H 7012   0.303   4.652  16.677 -1.9413 -1.5530 -0.4270
  471MPD2    H1 7013   0.220   0.302  16.817 -2.9493 -0.2431 -0.7304
  471MPD2    H2 7014   0.202   0.246  16.399 -0.3613  0.5103 -0.3106
  471MPD2    H3 7015   0.159   0.390  16.595 -1.6830 -0.0508  2.0723
  471MPD2     N 7016   0.290   0.058  16.885  0.7030  0.0530  0.0256
  471MPD2    H5 7017   0.323   4.687  16.902 -1.3960 -0.7532 -0.3430
  471MPD2    N1 7018   0.280   4.698  16.417 -0.1884  0.0425 -0.2216
  471MPD2    H7 7019   0.322   4.612  16.449  1.2027 -0.0242 -2.2360
  472TMC3    C1 7020   0.300   4.588  16.217 -0.6616 -0.2415  0.3230
  472TMC3    C2 7021   0.218   4.559  16.109  0.2523  0.8654  0.0142
  472TMC3    C3 7022   0.211   4.424  16.069 -0.0602 -0.3625  0.7288
  472TMC3    C4 7023   0.363   4.492  16.293 -0.2758 -0.3622 -0.3458
  472TMC3    C5 7024   0.349   4.366  16.256 -0.1460 -0.5572  0.8650
  472TMC3    C6 7025   0.281   4.329  16.139  0.0886  0.0105  0.6885
  472TMC3     C 7026   0.269   4.716  16.280 -0.1554 -0.2558  0.0822
  472TMC3     O 7027   0.213   0.087  16.222  0.1514  0.4562  0.5948
  472TMC3     H 7028   0.157   4.632  16.057  0.8050  0.5803 -1.0397
  472TMC3    H1 7029   0.436   4.519  16.368  1.4228  0.0078 -2.1446
  472TMC3    H2 7030   0.283   4.228  16.098 -0.0325  1.0369 -1.8341
  472TMC3    C7 7031   0.322   4.274  16.363  0.6713  0.0020  0.7605
  472TMC3    C8 7032   0.088   4.382  16.009  0.7184 -0.0819 -0.3891
  472TMC3    O1 7033   0.401   4.271  16.457 -0.0002  0.1348 -0.0388
  472TMC3    O2 7034   0.011   4.470  15.980 -0.1835  0.7006  0.9274
  473MPD2     C 7035   0.504   2.095  13.969 -0.7842  0.0247  0.0340
  473MPD2    C1 7036   0.491   2.214  13.903 -0.8058  0.1457 -0.0340
  473MPD2    C2 7037   0.509   2.336  13.967  0.0705  0.3301  0.4685
  473MPD2    C3 7038   0.534   2.335  14.101  0.2442  0.6991  0.0749
  473MPD2    C4 7039   0.539   2.216  14.164  0.2225 -0.6863  0.1263
  473MPD2    C5 7040   0.534   2.098  14.103  0.2592  0.1971  0.2484
  473MPD2     H 7041   0.501   2.429  13.912  0.4262  1.4517  2.3399
  473MPD2    H1 7042   0.556   2.209  14.271 -1.3458  0.2544  0.4484
  473MPD2    H2 7043   0.478   2.002  13.921 -0.6508 -0.5650  1.1022
  473MPD2    H3 7044   0.555   2.004  14.152 -2.9602  0.7543  2.6692
  473MPD2     N 7045   0.544   2.451  14.181 -0.3523  0.0389  0.3112
  473MPD2    H5 7046   0.610   2.445  14.258 -0.4473 -1.1691  0.2941
  473MPD2    N1 7047   0.470   2.225  13.766  0.0858  0.0250 -0.5884
  473MPD2    H7 7048   0.461   2.316  13.723 -2.9438  0.4335  0.9406
  474TMC3    C1 7049   0.517   2.674  14.247 -0.3898 -0.0793 -0.0928
  474TMC3    C2 7050   0.446   2.789  14.238 -0.8398  0.2419  0.7658
  474TMC3    C3 7051   0.504   2.905  14.277 -0.1664  0.3131 -0.1022
  474TMC3    C4 7052   0.635   2.669  14.314 -1.1232  0.2709 -0.3175
  474TMC3    C5 7053   0.685   2.787  14.351  0.0400  0.1254  0.6394
  474TMC3    C6 7054   0.620   2.908  14.345  0.2710 -0.3979 -0.0466
  474TMC3     C 7055   0.494   2.576  14.144 -0.2018  0.6266 -0.3451
  474TMC3     O 7056   0.430   2.605  14.043 -0.3707  0.1287  0.4100
  474TMC3     H 7057   0.366   2.788  14.164  0.0049 -2.1501 -0.1209
  474TMC3    H1 7058   0.701   2.583  14.316  0.2220  1.3125  0.2458
  474TMC3    H2 7059   0.662   2.999  14.386 -1.7119 -0.0061  1.1136
  474TMC3    C7 7060   0.807   2.790  14.425  0.0262 -0.5626  1.1347
  474TMC3    C8 7061   0.453   3.029  14.235  0.5177  0.3239 -0.0779
  474TMC3    O1 7062   0.903   2.731  14.377 -0.4380  0.5179  0.0869
  474TMC3    O2 7063   0.329   3.041  14.236  0.2778  0.5679 -0.2411
  475MPD2     C 7064   3.491   0.286  10.484 -0.2837 -0.8098  0.2325
  475MPD2    C1 7065   3.554   0.388  10.554  0.1619 -0.2183  0.5864
  475MPD2    C2 7066   3.482   0.440  10.670  0.1677  0.0309 -0.3757
  475MPD2    C3 7067   3.352   0.401  10.697 -0.0853  0.7927  0.3894
  475MPD2    C4 7068   3.294   0.317  10.605 -0.0765  0.3852  0.2395
  475MPD2    C5 7069   3.363   0.259  10.502 -0.1855  0.5287 -0.2648
  475MPD2     H 7070   3.526   0.509  10.741 -1.2469  0.4374  0.1007
  475MPD2    H1 7071   3.192   0.284  10.617  0.2609 -0.6931  0.1326
  475MPD2    H2 7072   3.528   0.234  10.396  0.2492  1.8774 -1.1372
  475MPD2    H3 7073   3.319   0.177  10.446  2.0397 -1.5148  0.9581
  475MPD2     N 7074   3.283   0.456  10.805  0.6941 -0.1388 -0.7326
  475MPD2    H5 7075   3.339   0.517  10.864 -1.2925  1.2681 -0.3187
  475MPD2    N1 7076   3.675   0.441  10.506 -0.1906 -0.6923  0.1820
  475MPD2    H7 7077   3.707   0.394  10.421  2.0458  2.4299 -0.7085
  476TMC3    C1 7078   3.707   0.650  10.619 -0.1891 -0.4055 -0.0592
  476TMC3    C2 7079   3.585   0.705  10.582  0.4217 -0.7596  0.2344
  476TMC3    C3 7080   3.548   0.818  10.648  0.2759  0.1880  0.5700
  476TMC3    C4 7081   3.797   0.710  10.703  1.0322 -0.2161  0.0344
  476TMC3    C5 7082   3.754   0.834  10.755  0.4219 -0.5460  1.2898
  476TMC3    C6 7083   3.630   0.883  10.733  0.4428  0.1583  0.2710
  476TMC3     C 7084   3.763   0.534  10.552  0.0865  0.0076 -0.1783
  476TMC3     O 7085   3.875   0.560  10.502  0.3354  0.0130  0.2224
  476TMC3     H 7086   3.516   0.656  10.515  1.5819 -1.2437 -0.6081
  476TMC3    H1 7087   3.893   0.666  10.729  1.2473  0.4971  0.4578
  476TMC3    H2 7088   3.592   0.976  10.775 -0.5312  0.3582 -1.0396
  476TMC3    C7 7089   3.852   0.895  10.837  0.5582  0.1197 -0.2215
  476TMC3    C8 7090   3.414   0.868  10.626 -0.4687 -0.6690  0.3414
  476TMC3    O1 7091   3.966   0.845  10.838 -0.1815  0.1147  0.0865
  476TMC3    O2 7092   3.387   0.981  10.665 -0.5393  0.3101 -0.1250
  477MPD2     C 7093   1.399   2.306  11.467 -0.6673  0.7219  0.6046
  477MPD2    C1 7094   1.286   2.266  11.403 -0.1326 -0.9873 -0.2911
  477MPD2    C2 7095   1.211   2.160  11.454 -0.4222  0.4218 -0.7946
  477MPD2    C3 7096   1.263   2.091  11.562 -0.0257  0.9365  0.5160
  477MPD2    C4 7097   1.391   2.119  11.617  0.0484  0.1693  0.0235
  477MPD2    C5 7098   1.448   2.234  11.572 -0.1982 -0.5213  0.0401
  477MPD2     H 7099   1.120   2.122  11.409 -1.2789  1.3250  0.1806
  477MPD2    H1 7100   1.452   2.078  11.697  0.2820 -1.4678 -1.0010
  477MPD2    H2 7101   1.458   2.392  11.439  1.7984 -1.0958  0.2685
  477MPD2    H3 7102   1.547   2.269  11.600  0.1894  1.6132 -3.9468
  477MPD2     N 7103   1.182   1.985  11.602  0.1006  0.0733  0.0146
  477MPD2    H5 7104   1.095   1.976  11.551 -0.9616  1.4287  1.6135
  477MPD2    N1 7105   1.221   2.353  11.307  0.4246 -0.3295  0.3500
  477MPD2    H7 7106   1.242   2.452  11.312 -1.2429 -0.0069  0.8899
  478TMC3    C1 7107   1.019   2.412  11.190  0.7982 -0.3513  0.2626
  478TMC3    C2 7108   0.994   2.508  11.280 -0.3641  0.8254 -0.0623
  478TMC3    C3 7109   0.874   2.571  11.265 -0.4534 -0.6661  0.2875
  478TMC3    C4 7110   0.936   2.381  11.089 -0.2653 -0.0942 -0.2835
  478TMC3    C5 7111   0.828   2.459  11.068 -0.3693  0.2713 -0.4727
  478TMC3    C6 7112   0.782   2.543  11.169  0.4780 -0.6791 -0.2986
  478TMC3     C 7113   1.113   2.311  11.235  0.1030  0.2044 -0.0732
  478TMC3     O 7114   1.102   2.199  11.187  0.1045 -0.2885 -0.3394
  478TMC3     H 7115   1.068   2.527  11.357  1.7064  2.7319 -2.5326
  478TMC3    H1 7116   0.969   2.304  11.020  0.4292 -2.2626  2.4633
  478TMC3    H2 7117   0.690   2.599  11.159  0.8917  0.4983  2.4069
  478TMC3    C7 7118   0.816   2.514  10.934 -0.8207  0.7335 -0.4779
  478TMC3    C8 7119   0.836   2.655  11.377  0.0300  0.6526 -0.5936
  478TMC3    O1 7120   0.920   2.554  10.893 -0.5392  0.5491  0.4150
  478TMC3    O2 7121   0.888   2.618  11.480  0.5146 -0.1374 -0.2830
  479MPD2     C 7122   4.626   4.230  14.692  0.2170 -0.4001 -0.1233
  479MPD2    C1 7123   4.595   4.143  14.792  0.4913  0.2879 -0.0908
  479MPD2    C2 7124   4.638   4.170  14.920  0.0457 -0.2377  0.3675
  479MPD2    C3 7125   4.713   4.281  14.943  0.2353  0.6563 -0.7149
  479MPD2    C4 7126   0.040   4.355  14.837 -0.1319 -0.3662 -0.3915
  479MPD2    C5 7127   4.710   4.335  14.712  0.2497  0.0564  0.3362
  479MPD2     H 7128   4.608   4.100  14.996  0.0530 -0.2271  0.3801
  479MPD2    H1 7129   0.105   4.439  14.858 -0.2186 -0.4156  0.0766
  479MPD2    H2 7130   4.578   4.219  14.595 -0.3238 -1.2357  0.2461
  479MPD2    H3 7131   0.017   4.401  14.631 -0.0183 -0.8392 -0.4904
  479MPD2     N 7132   0.032   4.313  15.069 -0.1823  0.7558 -0.0769
  479MPD2    H5 7133   0.096   4.391  15.073 -1.6312  1.9697 -0.8082
  479MPD2    N1 7134   4.499   4.041  14.768  0.1827  0.0225  0.2562
  479MPD2    H7 7135   4.454   4.046  14.677 -0.0011 -2.2020  0.2406
  480TMC3    C1 7136   4.433   4.052  15.215  0.4608  0.0998  0.1792
  480TMC3    C2 7137   4.331   4.114  15.139  0.1721  0.1256  0.2223
  480TMC3    C3 7138   4.358   4.232  15.088 -0.7540  0.6442 -0.1449
  480TMC3    C4 7139   4.536   4.128  15.261  0.1181  0.7199 -0.1205
  480TMC3    C5 7140   4.557   4.242  15.196  1.2859 -0.5382 -0.2276
  480TMC3    C6 7141   4.469   4.303  15.112  0.0864 -0.2107 -0.2973
  480TMC3     C 7142   4.413   3.918  15.265 -0.7101 -0.7529  0.2672
  480TMC3     O 7143   4.496   3.873  15.343  0.0688 -0.6208 -0.2120
  480TMC3     H 7144   4.243   4.058  15.110  0.3525 -1.5473  2.9430
  480TMC3    H1 7145   4.612   4.082  15.323 -0.4631 -0.8550 -0.5743
  480TMC3    H2 7146   4.493   4.392  15.055 -0.4031 -0.3283 -0.6917
  480TMC3    C7 7147   4.702   4.273  15.191 -0.5146  0.3959  0.1035
  480TMC3    C8 7148   4.273   4.271  14.970 -0.3073 -0.2464 -0.2819
  480TMC3    O1 7149   0.042   4.274  15.296  0.7028 -0.4860  0.3870
  480TMC3    O2 7150   4.159   4.233  14.971  0.3336 -0.4058  0.6365
  481MPD2     C 7151   1.999   3.689  14.373 -0.0570  0.2760  1.0240
  481MPD2    C1 7152   1.897   3.766  14.425  0.3636  0.0415 -0.7937
  481MPD2    C2 7153   1.880   3.779  14.562 -0.9298  0.5210  0.0663
  481MPD2    C3 7154   1.951   3.703  14.651 -0.0556  0.0194  0.1175
  481MPD2    C4 7155   2.062   3.624  14.606 -0.2372 -0.5250 -0.2759
  481MPD2    C5 7156   2.075   3.622  14.468 -0.2536 -0.0541 -0.7226
  481MPD2     H 7157   1.791   3.832  14.594 -0.1726  0.4901  2.2280
  481MPD2    H1 7158   2.123   3.556  14.665  0.0633  0.0521  0.0821
  481MPD2    H2 7159   2.011   3.673  14.267 -0.6848  0.8214  0.8672
  481MPD2    H3 7160   2.157   3.564  14.427  0.4812  1.8075 -1.8936
  481MPD2     N 7161   1.925   3.694  14.791 -0.3404 -0.2209  0.1946
  481MPD2    H5 7162   1.977   3.630  14.850  2.1281  0.8081 -0.8651
  481MPD2    N1 7163   1.806   3.829  14.326  0.5427  0.0136  0.6726
  481MPD2    H7 7164   1.835   3.815  14.230 -1.0809  1.4371 -0.0105
  482TMC3    C1 7165   1.596   3.897  14.233 -0.3515  0.4660  0.6751
  482TMC3    C2 7166   1.461   3.867  14.229  0.3671  0.1093 -0.3058
  482TMC3    C3 7167   1.370   3.940  14.157  0.1704  0.4021  0.3746
  482TMC3    C4 7168   1.642   3.984  14.146  0.5038 -0.4032 -0.2531
  482TMC3    C5 7169   1.551   4.054  14.067 -0.5538 -0.2009  0.3302
  482TMC3    C6 7170   1.414   4.041  14.073 -0.6414  0.2196 -0.3823
  482TMC3     C 7171   1.678   3.859  14.351  0.1558 -0.6051  0.1238
  482TMC3     O 7172   1.619   3.854  14.459 -0.3695  0.0402  0.4686
  482TMC3     H 7173   1.423   3.790  14.295  1.4681  0.4349  0.6892
  482TMC3    H1 7174   1.748   4.007  14.151  0.3909  0.2859 -0.9668
  482TMC3    H2 7175   1.358   4.116  14.019  0.2668 -0.6910 -2.5832
  482TMC3    C7 7176   1.598   4.088  13.934  0.3579 -0.4425 -0.8773
  482TMC3    C8 7177   1.274   3.855  14.089  0.1563  0.1957 -0.4047
  482TMC3    O1 7178   1.715   4.124  13.925  0.0158  0.1755  1.2526
  482TMC3    O2 7179   1.288   3.736  14.117  0.0883  0.1405  0.6527
  483TMC3    C1 7180   0.266   3.456   1.148 -0.3648 -0.1185  0.4416
  483TMC3    C2 7181   0.361   3.520   1.085  0.2165  0.0945 -0.8963
  483TMC3    C3 7182   0.486   3.492   1.128 -0.1049  0.0410 -0.0226
  483TMC3    C4 7183   0.287   3.367   1.248  0.0855  0.0423 -0.1111
  483TMC3    C5 7184   0.413   3.348   1.290 -0.0296  0.3972  0.0170
  483TMC3    C6 7185   0.518   3.409   1.233 -0.3787  0.5435  0.1075
  483TMC3     C 7186   0.140   3.447   1.073 -0.8016  0.6049 -0.1924
  483TMC3     O 7187   0.094   3.553   1.027  0.9070 -0.1387  0.4811
  483TMC3     H 7188   0.349   3.575   0.992 -1.5979  1.7972  0.3632
  483TMC3    H1 7189   0.204   3.328   1.305  0.9920  1.0083  1.8490
  483TMC3    H2 7190   0.617   3.398   1.276 -0.7417  0.4668  0.9080
  483TMC3    C7 7191   0.445   3.243   1.392 -0.1466  0.6586 -0.4645
  483TMC3    C8 7192   0.602   3.579   1.080 -0.6327 -0.2240  0.3528
  483TMC3    O1 7193   0.540   3.172   1.370 -0.0798 -0.1167  0.6281
  483TMC3    O2 7194   0.582   3.636   0.970  0.4001 -0.1729  0.1485
  484MPD2     C 7195   1.758   1.112  12.497 -0.2778 -0.1117  0.3736
  484MPD2    C1 7196   1.841   1.010  12.540  0.8278 -0.3141 -0.1777
  484MPD2    C2 7197   1.978   1.025  12.549  0.7815 -0.0696  0.0145
  484MPD2    C3 7198   2.040   1.146  12.518  0.2554 -0.0006 -0.5382
  484MPD2    C4 7199   1.958   1.253  12.479  0.2950  0.9623  0.6798
  484MPD2    C5 7200   1.824   1.224  12.463 -0.1680  0.2975  0.5557
  484MPD2     H 7201   2.028   0.933  12.575 -0.4116 -0.8651 -0.5032
  484MPD2    H1 7202   1.982   1.352  12.442 -0.0067  0.9661  0.4914
  484MPD2    H2 7203   1.649   1.110  12.499 -0.2255 -1.8243  1.0624
  484MPD2    H3 7204   1.772   1.307  12.417 -0.4369 -0.1117  0.1144
  484MPD2     N 7205   2.181   1.167  12.527  0.3432  0.2195 -0.3431
  484MPD2    H5 7206   2.223   1.245  12.477 -1.4592  0.3478 -1.6806
  484MPD2    N1 7207   1.784   0.887  12.579  0.3472 -0.1999  0.1571
  484MPD2    H7 7208   1.685   0.891  12.555  0.1745  0.2139  0.9197
  485TMC3    C1 7209   2.399   1.113  12.572 -0.1796 -0.2735 -0.0409
  485TMC3    C2 7210   2.482   1.098  12.677  0.7621  0.2586  0.2525
  485TMC3    C3 7211   2.616   1.129  12.664  0.2147  0.5352 -0.5190
  485TMC3    C4 7212   2.446   1.174  12.454  0.0634  0.0814 -0.1738
  485TMC3    C5 7213   2.580   1.208  12.449 -0.6788 -0.1798  0.2018
  485TMC3    C6 7214   2.660   1.198  12.557  0.6845 -1.7778 -0.0252
  485TMC3     C 7215   2.260   1.092  12.606  0.6256 -0.4408 -0.2348
  485TMC3     O 7216   2.231   1.008  12.682 -0.1476  0.5239  0.7147
  485TMC3     H 7217   2.438   1.070  12.773 -0.1675 -0.5859 -0.4150
  485TMC3    H1 7218   2.389   1.210  12.369  1.1704  2.6339  0.1472
  485TMC3    H2 7219   2.761   1.238  12.554 -0.5017  1.3945  1.7477
  485TMC3    C7 7220   2.653   1.172  12.326  0.3408  0.7503  0.3282
  485TMC3    C8 7221   2.706   1.022  12.678  0.2248  0.2508 -0.0049
  485TMC3    O1 7222   2.605   1.213  12.221 -0.4204  0.2328 -0.3079
  485TMC3    O2 7223   2.802   1.022  12.598  0.0094  0.2030  0.5903
  486MPD2     C 7224   4.300   4.480  13.298  0.2450  0.2946  0.0735
  486MPD2    C1 7225   4.252   4.498  13.175 -0.4754 -0.3226  0.1285
  486MPD2    C2 7226   4.265   4.621  13.116  0.0219  0.1219 -0.3756
  486MPD2    C3 7227   4.334   0.001  13.172 -0.9996 -0.8428  0.2687
  486MPD2    C4 7228   4.386   4.702  13.298 -0.2877  0.0515 -0.0125
  486MPD2    C5 7229   4.362   4.584  13.362  0.2910  0.4492 -0.5679
  486MPD2     H 7230   4.208   4.646  13.027  0.8119  1.3155 -0.5541
  486MPD2    H1 7231   4.455   0.055  13.331  1.5972 -1.2297 -0.9800
  486MPD2    H2 7232   4.300   4.386  13.351  1.6723  0.3779  0.2277
  486MPD2    H3 7233   4.415   4.561  13.454  1.2586 -1.2184 -1.5489
  486MPD2     N 7234   4.347   0.112  13.092  0.3262  0.5182 -0.3415
  486MPD2    H5 7235   4.301   0.110  13.002  0.1690  0.7417 -0.2642
  486MPD2    N1 7236   4.195   4.381  13.117 -0.4029  0.7834  0.1565
  486MPD2    H7 7237   4.190   4.292  13.166  1.6297  1.2432  1.1882
  487TMC3    C1 7238   4.101   4.244  12.943 -0.8195 -1.1088  0.5683
  487TMC3    C2 7239   4.013   4.235  12.841 -0.2061  0.4541  0.5123
  487TMC3    C3 7240   4.006   4.117  12.768  0.2307  0.3599  0.5403
  487TMC3    C4 7241   4.168   4.136  12.996 -0.3597 -0.5393  0.7723
  487TMC3    C5 7242   4.171   4.021  12.919 -0.6177  0.0267 -0.0179
  487TMC3    C6 7243   4.087   4.010  12.805 -0.6646 -0.9605 -0.0098
  487TMC3     C 7244   4.135   4.378  12.990  0.0666  0.9324 -0.5369
  487TMC3     O 7245   4.106   4.472  12.915 -0.5252  0.0554 -0.2833
  487TMC3     H 7246   3.936   4.301  12.805 -1.5513 -2.3611 -1.7814
  487TMC3    H1 7247   4.224   4.145  13.088  1.2784  4.7934 -0.7371
  487TMC3    H2 7248   4.128   3.941  12.732  0.2433 -0.6149  0.1718
  487TMC3    C7 7249   4.208   3.890  12.981 -0.1431 -0.6003  0.6381
  487TMC3    C8 7250   3.866   4.076  12.746  0.4021  0.2200 -0.2106
  487TMC3    O1 7251   4.250   3.897  13.097  0.6440  0.2053 -0.5963
  487TMC3    O2 7252   3.776   4.133  12.800  0.0242 -0.1708 -0.3474
  488MPD2     C 7253   0.197   1.609  16.742 -0.0717  0.4714  0.0411
  488MPD2    C1 7254   0.201   1.741  16.792 -0.9498 -0.0988 -0.5734
  488MPD2    C2 7255   0.183   1.764  16.927 -0.1945  0.2553 -0.3203
  488MPD2    C3 7256   0.156   1.663  17.008 -0.7297  0.5484  0.6456
  488MPD2    C4 7257   0.126   1.537  16.956 -0.0078 -0.0344  0.4961
  488MPD2    C5 7258   0.155   1.503  16.821 -0.0974 -0.1243 -0.3267
  488MPD2     H 7259   0.210   1.859  16.973  0.5592 -0.5283  0.8486
  488MPD2    H1 7260   0.087   1.464  17.025 -0.8464 -0.0185  0.0459
  488MPD2    H2 7261   0.210   1.580  16.639 -0.8438  0.4736 -0.0575
  488MPD2    H3 7262   0.131   1.401  16.795  0.2598 -0.8260  2.1172
  488MPD2     N 7263   0.143   1.688  17.143  0.6188 -0.0316 -0.2386
  488MPD2    H5 7264   0.142   1.785  17.170 -1.2090  0.0081 -0.4195
  488MPD2    N1 7265   0.235   1.846  16.705 -0.0740 -0.8647 -0.1446
  488MPD2    H7 7266   0.226   1.938  16.746  0.4066 -0.3308 -1.2478
  489TMC3    C1 7267   0.128   1.679  17.364  0.0899  0.3698  0.2415
  489TMC3    C2 7268   0.196   1.797  17.366 -0.6634 -0.7311  0.4261
  489TMC3    C3 7269   0.180   1.871  17.482 -1.0521  0.6227 -0.1698
  489TMC3    C4 7270   0.057   1.635  17.470  0.0808  0.6406 -0.3954
  489TMC3    C5 7271   0.034   1.719  17.573  0.5409  0.1116  0.4824
  489TMC3    C6 7272   0.102   1.837  17.588 -0.7129 -0.3277  0.1497
  489TMC3     C 7273   0.118   1.604  17.248 -0.5948  0.6961 -0.0355
  489TMC3     O 7274   0.076   1.489  17.250  0.6893  0.3852  0.6322
  489TMC3     H 7275   0.265   1.824  17.287  1.1991 -1.1081  1.9080
  489TMC3    H1 7276   4.718   1.547  17.460 -2.5252  2.2985  0.9234
  489TMC3    H2 7277   0.114   1.877  17.688 -4.9785  2.3917 -0.3841
  489TMC3    C7 7278   4.695   1.661  17.692 -0.0074 -0.6334  1.1353
  489TMC3    C8 7279   0.213   2.015  17.463  0.1065  0.1845 -0.3833
  489TMC3    O1 7280   4.703   1.542   0.012 -0.8511 -0.6629  0.3193
  489TMC3    O2 7281   0.278   2.038  17.363  0.1232 -0.0659  0.0679
  490MPD2     C 7282   0.750   1.256   0.064  0.1632  0.0226  0.6510
  490MPD2    C1 7283   0.710   1.163   0.155 -0.4510  1.0743  0.0243
  490MPD2    C2 7284   0.804   1.116   0.240 -0.3460 -0.0446  0.3438
  490MPD2    C3 7285   0.931   1.155   0.236 -0.2754  0.4383  0.0318
  490MPD2    C4 7286   0.967   1.238   0.134 -0.4242  0.3780 -0.1828
  490MPD2    C5 7287   0.881   1.291   0.042 -0.2512  0.4555  0.0369
  490MPD2     H 7288   0.781   1.041   0.315  0.4841  0.2865  0.9248
  490MPD2    H1 7289   1.073   1.246   0.117 -0.1933 -1.6464  0.3271
  490MPD2    H2 7290   0.690   1.309  17.685 -0.0012 -0.5734  0.3539
  490MPD2    H3 7291   0.918   1.362  17.663  0.7390 -0.3383 -0.2359
  490MPD2     N 7292   1.026   1.084   0.309 -0.8022  0.0634 -0.0781
  490MPD2    H5 7293   1.123   1.078   0.280 -0.9620 -0.6330 -0.4812
  490MPD2    N1 7294   0.584   1.092   0.161  0.4155 -0.0931  0.6792
  490MPD2    H7 7295   0.575   1.035   0.245 -2.4231 -0.5251  0.0798
  491TMC3    C1 7296   0.380   1.001   0.083  0.1786  0.3598 -1.0477
  491TMC3    C2 7297   0.363   0.947   0.210 -0.1962  0.0851 -0.4073
  491TMC3    C3 7298   0.313   0.821   0.222 -0.2035  0.4709 -0.1461
  491TMC3    C4 7299   0.335   0.934  17.663  0.6440 -0.5398 -0.1409
  491TMC3    C5 7300   0.278   0.811  17.682 -0.8322  0.1601 -0.4709
  491TMC3    C6 7301   0.273   0.745   0.115  0.0022  0.9709 -0.0052
  491TMC3     C 7302   0.484   1.103   0.066 -0.1306 -0.0678  0.4607
  491TMC3     O 7303   0.490   1.167  17.654  0.3721  0.0599 -0.4913
  491TMC3     H 7304   0.389   1.010   0.294  2.5446 -1.4725 -0.0936
  491TMC3    H1 7305   0.344   0.986  17.569  0.4734  0.9725  0.6885
  491TMC3    H2 7306   0.261   0.638   0.121 -0.5847  1.1007  1.1024
  491TMC3    C7 7307   0.228   0.732  17.572  0.1064 -0.2093  0.0595
  491TMC3    C8 7308   0.368   0.751   0.333 -0.1505  0.6921 -0.0747
  491TMC3    O1 7309   0.150   0.644  17.596  0.2703 -0.0558  0.0377
  491TMC3    O2 7310   0.373   0.816   0.437 -0.0579  0.6317 -0.2869
  492MPD2     C 7311   0.555   0.818  11.185 -0.6451 -0.3339  0.0340
  492MPD2    C1 7312   0.470   0.723  11.129 -0.1713  0.2197 -0.4206
  492MPD2    C2 7313   0.400   0.628  11.211 -0.8496 -0.5380  0.1478
  492MPD2    C3 7314   0.429   0.627  11.346 -0.5893  0.4904  0.0154
  492MPD2    C4 7315   0.520   0.720  11.399  0.2126  0.6455 -0.1195
  492MPD2    C5 7316   0.580   0.813  11.319 -0.1499 -0.2887 -0.0046
  492MPD2     H 7317   0.341   0.549  11.166  0.4810 -1.3984 -0.0805
  492MPD2    H1 7318   0.541   0.718  11.506  0.5323  2.4978 -0.1521
  492MPD2    H2 7319   0.606   0.893  11.125  0.6516 -1.3960 -0.1742
  492MPD2    H3 7320   0.657   0.876  11.363  0.5545 -0.8066 -0.4946
  492MPD2     N 7321   0.373   0.533  11.442 -0.2078 -0.6059 -0.1596
  492MPD2    H5 7322   0.402   0.548  11.538  0.4864 -2.9237 -0.0117
  492MPD2    N1 7323   0.458   0.721  10.989 -0.1184  0.0632 -0.0526
  492MPD2    H7 7324   0.504   0.800  10.947  0.9205 -0.1708  0.6525
  493TMC3    C1 7325   0.392   0.678  10.775 -0.6918  0.5603 -0.0963
  493TMC3    C2 7326   0.501   0.743  10.740 -0.3258 -0.4331 -0.1734
  493TMC3    C3 7327   0.504   0.800  10.611 -0.0620  1.0264 -0.1620
  493TMC3    C4 7328   0.281   0.660  10.691  0.4574  0.6882 -0.0181
  493TMC3    C5 7329   0.295   0.701  10.564 -0.2304  0.7946 -0.0330
  493TMC3    C6 7330   0.403   0.783  10.526  0.1661  0.3574 -0.1304
  493TMC3     C 7331   0.378   0.644  10.914 -0.2627 -0.1172 -0.5260
  493TMC3     O 7332   0.299   0.556  10.940 -0.3901  0.1254  0.6400
  493TMC3     H 7333   0.594   0.737  10.796  0.1668 -0.1091 -0.9426
  493TMC3    H1 7334   0.183   0.626  10.721 -0.2558  2.5167 -0.2462
  493TMC3    H2 7335   0.412   0.831  10.429  2.7894 -0.6129 -0.3794
  493TMC3    C7 7336   0.211   0.643  10.462 -0.3119  0.4034  0.3887
  493TMC3    C8 7337   0.635   0.848  10.559 -0.3497 -0.5135 -0.6280
  493TMC3    O1 7338   0.099   0.606  10.502  0.3385 -0.4373 -0.1606
  493TMC3    O2 7339   0.738   0.817  10.620 -0.3520 -0.5547 -0.1485
  494TMC3    C1 7340   1.324   2.322   0.982  1.2782  0.0395  0.3488
  494TMC3    C2 7341   1.359   2.209   1.040 -0.1796 -0.6456 -0.6332
  494TMC3    C3 7342   1.447   2.132   0.977 -0.2835  0.4626  0.0908
  494TMC3    C4 7343   1.368   2.363   0.863  0.3463  0.1191  1.0078
  494TMC3    C5 7344   1.448   2.275   0.790  0.7054  0.1591  0.0879
  494TMC3    C6 7345   1.494   2.162   0.850 -0.0264 -0.6238 -0.1552
  494TMC3     C 7346   1.231   2.397   1.066 -0.3142  0.1307 -0.5522
  494TMC3     O 7347   1.242   2.382   1.185 -0.0142 -0.2744  0.9975
  494TMC3     H 7348   1.307   2.178   1.130 -0.7692  0.4298 -0.6020
  494TMC3    H1 7349   1.328   2.454   0.821  2.3084  0.1491 -0.8017
  494TMC3    H2 7350   1.550   2.089   0.793 -0.9376 -2.5518  1.4111
  494TMC3    C7 7351   1.493   2.315   0.653  0.8925 -0.2551  0.4461
  494TMC3    C8 7352   1.518   2.026   1.047  0.2838  0.1377 -0.2444
  494TMC3    O1 7353   1.491   2.236   0.560  0.0702 -0.3336 -0.4948
  494TMC3    O2 7354   1.568   1.934   0.984 -0.7127 -0.6580  0.2508
  495TMC3    C1 7355   0.108   4.452  14.303 -0.4111 -0.0362  0.5355
  495TMC3    C2 7356   0.048   4.435  14.183 -0.1517 -0.0128  0.2767
  495TMC3    C3 7357   4.656   4.498  14.150 -0.1723 -0.3162 -0.2293
  495TMC3    C4 7358   0.052   4.535  14.392 -0.4313 -0.5875 -0.5606
  495TMC3    C5 7359   4.657   4.594  14.362 -0.9697  0.3146  1.2927
  495TMC3    C6 7360   4.603   4.589  14.233  0.7658 -0.1822  0.1958
  495TMC3     C 7361   0.109   4.320  14.355 -0.4090 -0.2623  0.9896
  495TMC3     O 7362   0.034   4.243  14.299 -0.4447 -0.0164 -0.4869
  495TMC3     H 7363   0.098   4.365  14.118 -0.0848 -0.5105  0.8665
  495TMC3    H1 7364   0.096   4.554  14.490  1.8077 -0.0394 -1.6704
  495TMC3    H2 7365   4.503   4.628  14.219  0.6479 -0.2116  0.9216
  495TMC3    C7 7366   4.561   4.591  14.475 -0.0256 -0.1091  0.0625
  495TMC3    C8 7367   4.557   4.402  14.115 -0.0362 -0.5115 -0.8784
  495TMC3    O1 7368   4.610   4.623  14.583  0.9210  0.3268  0.7396
  495TMC3    O2 7369   4.446   4.417  14.155 -0.0615  0.6995 -0.1520
  496MPD2     C 7370   1.721   4.439  15.642  0.6968  0.4262 -0.4508
  496MPD2    C1 7371   1.838   4.385  15.694  0.3230 -0.2887  0.2494
  496MPD2    C2 7372   1.848   4.331  15.826 -0.0467 -0.0307  0.1906
  496MPD2    C3 7373   1.737   4.345  15.901  0.3040 -0.2676 -0.0341
  496MPD2    C4 7374   1.623   4.413  15.853 -0.9276  0.7025 -0.1196
  496MPD2    C5 7375   1.610   4.464  15.731 -0.5656  0.2516 -0.1304
  496MPD2     H 7376   1.941   4.285  15.856  0.1351  1.7205  2.3006
  496MPD2    H1 7377   1.540   4.427  15.922 -0.3389  0.0951  0.7193
  496MPD2    H2 7378   1.714   4.484  15.543  0.5112 -1.5474 -1.3380
  496MPD2    H3 7379   1.520   4.515  15.701 -1.0380 -0.1141  0.6852
  496MPD2     N 7380   1.740   4.281  16.025  0.2752 -0.5461  0.5740
  496MPD2    H5 7381   1.651   4.282  16.074 -0.4026  2.0988 -0.7171
  496MPD2    N1 7382   1.957   4.364  15.616 -0.0029  0.1470 -0.5598
  496MPD2    H7 7383   2.034   4.310  15.653 -0.5551 -0.2688 -0.0081
  497TMC3    C1 7384   1.792   4.128  16.182  0.4679 -0.7101  0.5948
  497TMC3    C2 7385   1.698   4.046  16.135  0.0304 -0.2902  0.1501
  497TMC3    C3 7386   1.623   3.977  16.231 -0.3211 -0.3008 -0.2263
  497TMC3    C4 7387   1.839   4.130  16.308  0.1662  0.4100  0.4696
  497TMC3    C5 7388   1.762   4.058  16.403  0.7537  0.4144  0.0341
  497TMC3    C6 7389   1.650   3.988  16.365 -0.4758  0.3692  0.0261
  497TMC3     C 7390   1.848   4.230  16.093 -0.0564 -0.5695 -0.0398
  497TMC3     O 7391   1.971   4.239  16.085 -0.0783 -0.8325 -0.1167
  497TMC3     H 7392   1.673   4.041  16.030 -1.5004 -1.1638  0.5570
  497TMC3    H1 7393   1.915   4.202  16.335  0.2965 -0.2646  1.8753
  497TMC3    H2 7394   1.576   3.945  16.430 -0.0631 -1.8218 -0.9632
  497TMC3    C7 7395   1.787   4.072  16.543  0.4777 -0.2073  0.1781
  497TMC3    C8 7396   1.503   3.919  16.178 -0.1081 -0.3321  0.0326
  497TMC3    O1 7397   1.688   4.081  16.614  0.1484  0.0536 -0.6163
  497TMC3    O2 7398   1.399   3.937  16.237  0.2196 -0.3142  0.0723
  498MPD2     C 7399   2.045   0.810   9.982  0.6466  0.5087 -0.6544
  498MPD2    C1 7400   2.105   0.749  10.088 -0.5619 -0.1183  0.1094
  498MPD2    C2 7401   2.034   0.659  10.166  0.1961 -0.1149  0.6704
  498MPD2    C3 7402   1.905   0.624  10.123 -0.4912  0.0623  0.0408
  498MPD2    C4 7403   1.844   0.681  10.016 -0.3009  0.8972 -0.0567
  498MPD2    C5 7404   1.916   0.781   9.951  0.1080  0.7606  1.3391
  498MPD2     H 7405   2.078   0.607  10.250  1.8539 -1.9051 -1.2849
  498MPD2    H1 7406   1.746   0.645   9.987 -0.4526  1.4562 -0.2293
  498MPD2    H2 7407   2.090   0.882   9.915 -0.6093  0.0365 -2.0083
  498MPD2    H3 7408   1.862   0.836   9.875 -0.3332  2.0809  2.6188
  498MPD2     N 7409   1.846   0.519  10.195  0.3736  0.2496 -0.5473
  498MPD2    H5 7410   1.886   0.498  10.286 -0.8361 -1.4316 -0.3920
  498MPD2    N1 7411   2.236   0.782  10.120  0.6884 -0.4501  0.1670
  498MPD2    H7 7412   2.276   0.731  10.199 -2.1885 -0.6680  1.4631
  499TMC3    C1 7413   2.446   0.859  10.128 -0.2555 -0.4900  0.2496
  499TMC3    C2 7414   2.489   0.733  10.154 -0.3566  0.0679 -0.3227
  499TMC3    C3 7415   2.605   0.714  10.227 -0.4225 -0.7014  0.6041
  499TMC3    C4 7416   2.527   0.968  10.164 -0.5466 -0.6096  0.2486
  499TMC3    C5 7417   2.635   0.943  10.250  0.1722 -0.4624  1.0412
  499TMC3    C6 7418   2.677   0.817  10.281  0.5490  0.0993 -0.1884
  499TMC3     C 7419   2.320   0.875  10.064 -0.0666  0.4633  0.0298
  499TMC3     O 7420   2.293   0.981  10.007  0.4606 -0.3227 -0.8937
  499TMC3     H 7421   2.435   0.653  10.104 -4.0137  0.6658  2.6371
  499TMC3    H1 7422   2.495   1.071  10.153 -1.7029 -0.9963  0.0673
  499TMC3    H2 7423   2.744   0.788  10.361 -0.9128  1.1071  1.3836
  499TMC3    C7 7424   2.707   1.050  10.317 -0.2400 -0.2354 -0.4385
  499TMC3    C8 7425   2.668   0.579  10.218 -0.3253 -0.7722 -0.7329
  499TMC3    O1 7426   2.753   1.009  10.422 -0.8706  0.3831  0.7980
  499TMC3    O2 7427   2.585   0.495  10.179 -0.2873  0.4611  0.0496
  500MPD2     C 7428   4.189   1.988  10.966 -0.1152  0.1590  0.1982
  500MPD2    C1 7429   4.189   2.025  10.833 -0.2130 -0.2764 -0.1798
  500MPD2    C2 7430   4.069   2.047  10.776 -0.8068 -0.0001  0.0397
  500MPD2    C3 7431   3.960   2.057  10.851 -0.0911  0.5113  0.7528
  500MPD2    C4 7432   3.955   2.019  10.984 -0.4938 -0.1641 -0.2315
  500MPD2    C5 7433   4.074   1.990  11.041 -0.1870  0.1393  0.2260
  500MPD2     H 7434   4.065   2.080  10.672  0.7470  3.0573  0.9545
  500MPD2    H1 7435   3.868   2.013  11.048  0.3953  1.2641  1.1183
  500MPD2    H2 7436   4.280   1.956  11.014  0.4734  2.1955  0.4276
  500MPD2    H3 7437   4.081   1.961  11.145 -0.2712 -3.2907 -0.7334
  500MPD2     N 7438   3.837   2.104  10.795 -0.0752  0.3250 -0.3429
  500MPD2    H5 7439   3.754   2.111  10.853  0.0043  0.4377 -0.2446
  500MPD2    N1 7440   4.300   2.037  10.750  0.5103 -0.5021 -0.2663
  500MPD2    H7 7441   4.287   2.069  10.654 -1.2802  3.2344  1.2105
  501TMC3    C1 7442   4.523   2.017  10.677  0.3338 -0.2607 -0.4293
  501TMC3    C2 7443   4.505   2.123  10.602  0.6787  0.6128 -0.1553
  501TMC3    C3 7444   4.597   2.155  10.502  0.6937  0.0743 -0.3907
  501TMC3    C4 7445   4.635   1.934  10.659  0.1466 -0.1047  0.2416
  501TMC3    C5 7446   4.718   1.965  10.556  0.4799 -0.3858  0.0505
  501TMC3    C6 7447   4.711   2.078  10.481  0.0377  0.1089 -0.0387
  501TMC3     C 7448   4.431   1.995  10.787 -0.5211 -0.2141  0.3274
  501TMC3     O 7449   4.476   1.930  10.881  0.4839  0.1596  0.3924
  501TMC3     H 7450   4.428   2.198  10.618 -1.4716 -1.4349 -0.8844
  501TMC3    H1 7451   4.663   1.850  10.722  1.4954 -0.3193 -0.6176
  501TMC3    H2 7452   0.052   2.108  10.399 -1.1279 -0.5298 -1.1821
  501TMC3    C7 7453   0.112   1.883  10.550 -0.9503  0.2187  0.9083
  501TMC3    C8 7454   4.583   2.275  10.437 -0.3075  0.9495  0.1494
  501TMC3    O1 7455   0.108   1.777  10.609 -0.3805 -0.0789  0.1655
  501TMC3    O2 7456   4.693   2.320  10.412  0.2645  0.0747 -0.3147
  502TMC3    C1 7457   4.252   0.322  15.447 -0.2907  0.7249 -0.5417
  502TMC3    C2 7458   4.252   0.444  15.393 -0.6840 -0.0787  0.0217
  502TMC3    C3 7459   4.126   0.500  15.370 -0.2616 -0.0662  0.4160
  502TMC3    C4 7460   4.137   0.248  15.475 -0.1874  0.2497  0.1750
  502TMC3    C5 7461   4.018   0.311  15.463  0.8922 -0.1128 -1.0258
  502TMC3    C6 7462   4.011   0.434  15.402 -0.2619  0.0830 -1.0205
  502TMC3     C 7463   4.375   0.278  15.494  0.0684 -0.0683 -0.1779
  502TMC3     O 7464   4.472   0.352  15.476  0.0368  0.9577 -0.6641
  502TMC3     H 7465   4.337   0.510  15.380  1.4629 -3.1271 -1.2452
  502TMC3    H1 7466   4.145   0.145  15.509  1.0562  0.2922  0.0186
  502TMC3    H2 7467   3.910   0.471  15.387  0.5133  3.3066  1.7314
  502TMC3    C7 7468   3.900   0.224  15.471  0.1412 -0.1379 -0.9520
  502TMC3    C8 7469   4.127   0.642  15.363  0.5586  0.9783 -0.8786
  502TMC3    O1 7470   3.930   0.105  15.489  0.1510 -0.2879 -0.2989
  502TMC3    O2 7471   4.229   0.691  15.310  0.3849 -0.8590  0.3897
  503MPD2     C 7472   1.633   0.901  17.141 -0.7011  0.4412  0.2968
  503MPD2    C1 7473   1.740   0.963  17.206  0.3363 -0.5747  0.7642
  503MPD2    C2 7474   1.852   0.889  17.245 -0.7340  0.1000 -0.2706
  503MPD2    C3 7475   1.861   0.766  17.196  0.6044 -0.2647  0.5254
  503MPD2    C4 7476   1.754   0.701  17.125  0.2929 -0.5898  0.1559
  503MPD2    C5 7477   1.635   0.767  17.101  0.2205  0.1433  0.2510
  503MPD2     H 7478   1.925   0.934  17.311 -0.1798 -0.5661 -0.4180
  503MPD2    H1 7479   1.779   0.603  17.085  0.1651 -0.8091  0.6064
  503MPD2    H2 7480   1.545   0.961  17.123 -0.9294 -0.4327 -1.4513
  503MPD2    H3 7481   1.547   0.725  17.055  0.9332  0.9261 -1.8228
  503MPD2     N 7482   1.969   0.687  17.238 -0.5541 -0.0663  0.2316
  503MPD2    H5 7483   2.042   0.741  17.283  0.1624 -0.0389 -0.9674
  503MPD2    N1 7484   1.741   1.098  17.244  0.1137  0.7917  0.7569
  503MPD2    H7 7485   1.816   1.121  17.307 -0.8728  2.3791  1.3368
  504TMC3    C1 7486   2.123   0.532  17.295  0.5636  0.6338 -0.3495
  504TMC3    C2 7487   2.119   0.569  17.429 -0.3154  0.2490 -0.9571
  504TMC3    C3 7488   2.222   0.534  17.513  0.3027  0.6257 -0.2900
  504TMC3    C4 7489   2.220   0.458  17.243  0.0471  0.8690 -0.1169
  504TMC3    C5 7490   2.320   0.428  17.326 -0.2704  0.2226 -0.6225
  504TMC3    C6 7491   2.327   0.467  17.458 -0.6140  0.0521 -0.3359
  504TMC3     C 7492   1.998   0.554  17.214  1.1155 -0.1381  0.4679
  504TMC3     O 7493   1.947   0.477  17.132  0.0124 -0.0474  0.0896
  504TMC3     H 7494   2.036   0.634  17.457 -0.6101 -0.5129 -0.0669
  504TMC3    H1 7495   2.224   0.425  17.140 -1.6984  1.3792 -0.3440
  504TMC3    H2 7496   2.419   0.450  17.511 -0.7729  0.9368  0.2227
  504TMC3    C7 7497   2.442   0.370  17.264 -0.6109  0.7215 -0.3209
  504TMC3    C8 7498   2.222   0.586  17.646 -0.0121  0.2445  0.7020
  504TMC3    O1 7499   2.456   0.407  17.148  0.2430  0.2811 -0.4340
  504TMC3    O2 7500   2.141   0.675  17.666 -0.1232  0.3523  0.3894
  505MPD2     C 7501   1.346   4.147  11.054 -0.1843  0.3586 -0.5403
  505MPD2    C1 7502   1.433   4.082  10.971  0.1895  0.8102  0.2548
  505MPD2    C2 7503   1.573   4.095  10.992 -0.7029 -0.1135 -0.1265
  505MPD2    C3 7504   1.621   4.179  11.090 -0.3799  0.2726  0.0928
  505MPD2    C4 7505   1.534   4.252  11.171  0.4189  0.3316 -0.2809
  505MPD2    C5 7506   1.391   4.238  11.148 -0.9677  0.3515 -0.0548
  505MPD2     H 7507   1.646   4.051  10.925  1.1707  0.1687  1.7336
  505MPD2    H1 7508   1.568   4.324  11.245 -0.3251 -0.8759  1.2569
  505MPD2    H2 7509   1.240   4.148  11.033 -0.6557 -0.3991  1.7387
  505MPD2    H3 7510   1.311   4.295  11.193 -0.7165  0.1657  0.6300
  505MPD2     N 7511   1.756   4.206  11.104 -0.4121 -0.3528  0.3619
  505MPD2    H5 7512   1.779   4.277  11.172  1.0000 -0.3474 -0.1180
  505MPD2    N1 7513   1.381   4.023  10.857  0.2257 -0.3137 -0.9094
  505MPD2    H7 7514   1.286   4.050  10.834 -0.4402 -0.0504  2.1790
  506TMC3    C1 7515   1.389   3.901  10.651  0.3474  0.7284 -0.1218
  506TMC3    C2 7516   1.356   4.012  10.577 -0.2347  0.0808  0.1671
  506TMC3    C3 7517   1.373   3.998  10.442  0.0817  0.7315 -0.0708
  506TMC3    C4 7518   1.452   3.795  10.585  0.1982  0.2813 -0.3000
  506TMC3    C5 7519   1.486   3.798  10.453 -0.1188 -0.0517  0.5372
  506TMC3    C6 7520   1.430   3.897  10.370  0.9641  0.1322  0.8855
  506TMC3     C 7521   1.450   3.929  10.781 -0.4397  0.5946  0.6137
  506TMC3     O 7522   1.551   3.863  10.808  0.0527 -0.2761  0.7415
  506TMC3     H 7523   1.292   4.092  10.612  1.6517  1.0361  1.4063
  506TMC3    H1 7524   1.478   3.705  10.640 -1.1380 -0.9953 -1.7950
  506TMC3    H2 7525   1.445   3.913  10.264  2.0573 -3.5911  0.4772
  506TMC3    C7 7526   1.625   3.801  10.425  0.2055  0.1862  0.7506
  506TMC3    C8 7527   1.301   4.094  10.363 -0.7109 -0.9700 -0.0226
  506TMC3    O1 7528   1.653   3.843  10.314 -0.1781 -0.0225 -0.3462
  506TMC3    O2 7529   1.237   4.056  10.268 -0.6953 -0.3511  0.0790
  507TMC3    C1 7530   2.890   0.706  14.351  0.2045  0.3580 -0.9829
  507TMC3    C2 7531   2.944   0.700  14.222  0.3443 -0.1882  0.0641
  507TMC3    C3 7532   2.997   0.812  14.165 -0.1580 -0.5055 -0.0139
  507TMC3    C4 7533   2.909   0.816  14.426 -0.6723 -0.7729 -0.4918
  507TMC3    C5 7534   2.976   0.925  14.371  0.2766 -0.0887  0.6712
  507TMC3    C6 7535   3.026   0.919  14.246 -0.0441  0.0144 -1.0705
  507TMC3     C 7536   2.769   0.622  14.365  0.1957 -0.3480  0.0218
  507TMC3     O 7537   2.730   0.567  14.258  0.0491  0.4379 -0.9780
  507TMC3     H 7538   2.933   0.607  14.168  1.2983 -1.1056  1.4507
  507TMC3    H1 7539   2.850   0.833  14.516  0.4786 -2.5195  0.5978
  507TMC3    H2 7540   3.072   1.009  14.207 -2.5670  1.2826 -1.1114
  507TMC3    C7 7541   2.926   1.051  14.407 -0.1659  0.3124 -0.7843
  507TMC3    C8 7542   2.918   0.866  14.060 -0.2545 -0.0291  0.5496
  507TMC3    O1 7543   2.943   1.074  14.527 -0.5726 -0.2132  0.0041
  507TMC3    O2 7544   2.912   0.988  14.061  0.1978  0.1614 -0.4697
  508MPD2     C 7545   3.011   2.915  16.121  0.0659  0.2755 -0.7047
  508MPD2    C1 7546   3.131   2.911  16.064  0.6309 -0.0885  0.8506
  508MPD2    C2 7547   3.143   2.965  15.941 -0.0222 -0.5426  0.4015
  508MPD2    C3 7548   3.033   3.015  15.872  0.2866  0.0758  0.2010
  508MPD2    C4 7549   2.909   3.016  15.929 -0.4932  0.2199  0.2554
  508MPD2    C5 7550   2.897   2.968  16.054  0.5686  0.1182 -0.4375
  508MPD2     H 7551   3.235   2.966  15.884  1.6989 -0.9127  3.1694
  508MPD2    H1 7552   2.822   3.064  15.884 -0.7376 -0.4511  0.0108
  508MPD2    H2 7553   2.999   2.862  16.215 -0.0707  1.6698  0.0699
  508MPD2    H3 7554   2.799   2.960  16.100  1.5890 -0.3647  1.6697
  508MPD2     N 7555   3.057   3.084  15.752 -0.1015 -0.2334  0.2031
  508MPD2    H5 7556   3.153   3.110  15.731  0.4175 -0.4739  2.2096
  508MPD2    N1 7557   3.231   2.845  16.132  0.4537  0.4960  0.3408
  508MPD2    H7 7558   3.211   2.792  16.216  0.6867 -0.8097 -0.4242
  509TMC3    C1 7559   3.034   3.305  15.354 -0.2567 -0.6868 -0.3178
  509TMC3    C2 7560   3.156   3.250  15.309  0.7246 -0.4377 -0.0643
  509TMC3    C3 7561   3.216   3.164  15.396 -0.0258 -0.0792  0.0637
  509TMC3    C4 7562   2.972   3.260  15.463  0.0701 -0.3461  0.3533
  509TMC3    C5 7563   3.037   3.170  15.541  0.3532  0.0171  0.2468
  509TMC3    C6 7564   3.161   3.118  15.513  0.1782  0.8093 -0.0936
  509TMC3     C 7565   2.955   3.383  15.263  0.4373 -0.6313  0.3144
  509TMC3     O 7566   2.836   3.379  15.291 -0.0010  0.2662 -0.3381
  509TMC3     H 7567   3.209   3.276  15.218  0.7448  3.1669  0.9541
  509TMC3    H1 7568   2.874   3.298  15.490  1.1010  3.1348 -0.8170
  509TMC3    H2 7569   3.215   3.051  15.578 -1.6546 -0.4585  0.1360
  509TMC3    C7 7570   2.967   3.113  15.655  0.2113  0.1242 -0.0533
  509TMC3    C8 7571   3.359   3.147  15.399 -0.5452  0.8523  0.5654
  509TMC3    O1 7572   2.841   3.102  15.651  0.1271 -0.0473 -0.4125
  509TMC3    O2 7573   3.407   3.039  15.439  0.0460 -0.2927 -0.1486
  510MPD2     C 7574   1.708   0.395  14.647 -0.2485 -0.1590 -0.3925
  510MPD2    C1 7575   1.737   0.273  14.703 -0.7183 -0.7447  0.2447
  510MPD2    C2 7576   1.848   0.210  14.656 -0.2482  0.0155  0.0647
  510MPD2    C3 7577   1.919   0.264  14.545 -0.0621 -0.4602  0.3620
  510MPD2    C4 7578   1.882   0.384  14.492  0.0738  0.2046 -0.0220
  510MPD2    C5 7579   1.781   0.455  14.547 -0.1806 -0.0203  0.5964
  510MPD2     H 7580   1.871   0.109  14.688  2.4794  1.0490  1.3710
  510MPD2    H1 7581   1.910   0.414  14.392 -3.7140 -1.1151 -1.4963
  510MPD2    H2 7582   1.615   0.442  14.675 -0.1739 -0.8501  1.0144
  510MPD2    H3 7583   1.742   0.542  14.496  1.4636  2.1809  3.1410
  510MPD2     N 7584   2.030   0.202  14.484  0.3545 -0.5449  0.5246
  510MPD2    H5 7585   2.074   0.257  14.412  0.7063 -0.7379  0.5921
  510MPD2    N1 7586   1.642   0.221  14.797  0.2509  0.5376 -1.0363
  510MPD2    H7 7587   1.560   0.278  14.814 -0.6931 -0.2407 -3.0253
  511TMC3    C1 7588   1.511   0.056  14.894 -0.5350  0.2959  0.0329
  511TMC3    C2 7589   1.455   0.123  14.999  0.3391  0.3455 -0.6190
  511TMC3    C3 7590   1.334   0.085  15.047 -0.2887 -0.2483 -0.0758
  511TMC3    C4 7591   1.455   4.660  14.852  0.6578  0.0760  0.5658
  511TMC3    C5 7592   1.331   4.623  14.901 -0.4095 -0.2926  0.0552
  511TMC3    C6 7593   1.264   4.703  14.998  0.0322  0.0974 -0.2883
  511TMC3     C 7594   1.643   0.092  14.847 -0.2055  0.2036  0.1494
  511TMC3     O 7595   1.722   0.003  14.830  0.0185 -0.0517  0.7765
  511TMC3     H 7596   1.507   0.216  15.021  0.1486  0.7791 -2.0210
  511TMC3    H1 7597   1.516   4.607  14.780  1.6861  2.3387 -0.2465
  511TMC3    H2 7598   1.167   4.674  15.038  0.9630 -2.4585  0.0782
  511TMC3    C7 7599   1.266   4.511  14.831 -0.4685 -0.0082  0.5219
  511TMC3    C8 7600   1.284   0.148  15.167  0.4380  0.5110 -0.2492
  511TMC3    O1 7601   1.330   4.478  14.726  0.1024  0.2116 -0.2193
  511TMC3    O2 7602   1.165   0.171  15.181  0.2192 -0.0850 -0.2093
  512TMC3    C1 7603   0.127   4.200  13.125 -0.2505 -0.0892  0.3858
  512TMC3    C2 7604   0.219   4.161  13.218 -0.6427  0.9615 -0.2061
  512TMC3    C3 7605   0.240   4.030  13.252  0.3744 -0.1254 -0.9228
  512TMC3    C4 7606   0.048   4.100  13.074  0.7140 -0.5317 -0.3165
  512TMC3    C5 7607   0.075   3.974  13.111 -0.1737 -0.0963 -0.1862
  512TMC3    C6 7608   0.169   3.932  13.198 -0.6530 -0.0312  0.0194
  512TMC3     C 7609   0.098   4.338  13.108 -0.1626 -0.1556  0.5348
  512TMC3     O 7610   0.187   4.426  13.130 -0.2038  0.1712  0.3485
  512TMC3     H 7611   0.274   4.243  13.263 -0.9349  0.7540  0.5395
  512TMC3    H1 7612   4.691   4.121  13.004  0.3244  2.0625  0.8984
  512TMC3    H2 7613   0.196   3.829  13.217 -1.5572 -0.3637 -0.5241
  512TMC3    C7 7614   4.697   3.877  13.071  0.9971  0.3751  0.0142
  512TMC3    C8 7615   0.353   3.999  13.339 -0.5173 -0.1697 -0.0580
  512TMC3    O1 7616   4.592   3.926  13.038  0.2586  0.7412 -0.3019
  512TMC3    O2 7617   0.374   3.879  13.351 -0.2604 -0.7513  0.3294
  513MPD2     C 7618   1.491   3.665  13.673 -0.5013 -0.2462  0.6119
  513MPD2    C1 7619   1.607   3.649  13.595  0.8148  0.1984 -0.1502
  513MPD2    C2 7620   1.729   3.676  13.646  0.1751 -0.3521 -0.0024
  513MPD2    C3 7621   1.744   3.727  13.776  0.0358 -0.6029 -0.8766
  513MPD2    C4 7622   1.633   3.740  13.853 -0.4299  0.4931  0.6316
  513MPD2    C5 7623   1.505   3.707  13.805  0.4538  0.9471 -0.1671
  513MPD2     H 7624   1.821   3.671  13.588  0.8893  0.0502  1.0979
  513MPD2    H1 7625   1.647   3.760  13.958  0.6672 -0.9143  0.7622
  513MPD2    H2 7626   1.389   3.652  13.639 -0.7544 -2.5728  2.3105
  513MPD2    H3 7627   1.419   3.699  13.869  0.9813 -0.0530  0.4080
  513MPD2     N 7628   1.877   3.758  13.823 -0.3804  0.2429  0.5226
  513MPD2    H5 7629   1.945   3.757  13.748 -2.1158 -1.9887 -1.0412
  513MPD2    N1 7630   1.611   3.614  13.455  0.0027  0.3372  0.3204
  513MPD2    H7 7631   1.700   3.610  13.406  1.1389  1.2093  2.3385
  514TMC3    C1 7632   1.557   3.620  13.222  0.2207  0.3375 -0.3461
  514TMC3    C2 7633   1.542   3.747  13.173 -0.0593  0.8538  0.3280
  514TMC3    C3 7634   1.637   3.796  13.081 -0.0025 -0.4089 -0.7903
  514TMC3    C4 7635   1.678   3.548  13.204 -0.2494 -0.6888 -0.0775
  514TMC3    C5 7636   1.779   3.613  13.129 -0.7248  1.0340 -0.3898
  514TMC3    C6 7637   1.758   3.724  13.056 -0.6403  1.3199  0.3543
  514TMC3     C 7638   1.504   3.622  13.359  0.2067 -0.0909 -0.4344
  514TMC3     O 7639   1.388   3.659  13.371 -0.2128 -0.5341  0.4189
  514TMC3     H 7640   1.441   3.787  13.169 -0.5241 -0.3951 -0.2572
  514TMC3    H1 7641   1.693   3.454  13.257 -1.1257 -1.5210 -1.2878
  514TMC3    H2 7642   1.832   3.770  12.992 -0.7786  1.5188  0.3380
  514TMC3    C7 7643   1.886   3.633  13.214 -0.1112 -0.2694 -0.1737
  514TMC3    C8 7644   1.617   3.938  13.029  0.3047 -0.2064 -0.5944
  514TMC3    O1 7645   1.861   3.611  13.334 -0.4011  0.0761 -0.0649
  514TMC3    O2 7646   1.512   3.992  13.061  0.6278  0.2226 -0.5924
  515MPD2     C 7647   4.685   1.477  15.064 -0.5251  0.1231 -0.4736
  515MPD2    C1 7648   4.713   1.345  15.085 -0.1756  0.5445  0.8992
  515MPD2    C2 7649   0.091   1.311  15.177  0.5071 -0.3638  0.0005
  515MPD2    C3 7650   0.152   1.406  15.260  0.2646  0.2952  0.2338
  515MPD2    C4 7651   0.114   1.534  15.239 -0.0611 -0.6628 -0.3202
  515MPD2    C5 7652   0.025   1.567  15.141 -0.0315  0.3758 -0.3930
  515MPD2     H 7653   0.124   1.209  15.189  1.0981 -0.3149 -1.2128
  515MPD2    H1 7654   0.168   1.607  15.298  1.4786 -2.1302  0.1010
  515MPD2    H2 7655   4.618   1.504  14.983  1.2557  1.0846 -1.6019
  515MPD2    H3 7656   0.004   1.672  15.128  1.2189  0.4800 -1.6162
  515MPD2     N 7657   0.247   1.377  15.362  0.0444  0.3105 -0.0658
  515MPD2    H5 7658   0.273   1.451  15.427  2.3976  0.8120 -1.5955
  515MPD2    N1 7659   4.654   1.240  15.014 -0.2494  0.9963  0.9456
  515MPD2    H7 7660   4.679   1.146  15.041 -0.8283  0.5447 -0.0761
  516TMC3    C1 7661   4.561   1.131  14.830 -0.0951 -0.3439  0.3890
  516TMC3    C2 7662   4.520   1.140  14.696 -0.6802  0.0295  0.7655
  516TMC3    C3 7663   4.468   1.029  14.633  0.4459  0.0120 -0.7445
  516TMC3    C4 7664   4.561   1.006  14.892 -0.0973  0.4769  0.1399
  516TMC3    C5 7665   4.489   0.906  14.829  0.0323 -1.0816  0.0915
  516TMC3    C6 7666   4.447   0.911  14.699  0.5429 -0.4540  0.2574
  516TMC3     C 7667   4.606   1.248  14.889  0.4006  1.1485 -0.6129
  516TMC3     O 7668   4.602   1.351  14.822  0.1248  0.2233 -0.6120
  516TMC3     H 7669   4.532   1.228  14.634  1.5708 -2.6305 -2.6011
  516TMC3    H1 7670   4.583   0.997  14.998 -1.2556 -0.6847  0.2841
  516TMC3    H2 7671   4.405   0.822  14.652  0.9468 -0.3703 -0.2684
  516TMC3    C7 7672   4.476   0.780  14.894  0.4719 -0.4376 -0.6805
  516TMC3    C8 7673   4.430   1.034  14.497  0.4952 -0.3989 -0.3923
  516TMC3    O1 7674   4.556   0.763  14.982 -0.0990  0.1161 -0.2206
  516TMC3    O2 7675   4.353   0.945  14.457  0.0764 -0.0465  0.6548
  517MPD2     C 7676   0.620   3.067   0.373 -0.0734 -0.1482  0.4097
  517MPD2    C1 7677   0.744   3.015   0.346  0.5421  0.1146 -0.1795
  517MPD2    C2 7678   0.855   3.090   0.385 -0.1975  0.0777  0.0906
  517MPD2    C3 7679   0.840   3.204   0.461 -0.5595 -0.7477 -0.4237
  517MPD2    C4 7680   0.717   3.244   0.501 -0.6054 -0.0049  0.0575
  517MPD2    C5 7681   0.609   3.174   0.461  0.2927  0.3131 -0.4846
  517MPD2     H 7682   0.956   3.067   0.354 -0.3820 -2.0702  1.1011
  517MPD2    H1 7683   0.701   3.327   0.569 -1.6000 -1.3099  1.3989
  517MPD2    H2 7684   0.529   3.021   0.336 -0.4560  0.4907  0.5476
  517MPD2    H3 7685   0.512   3.196   0.504  0.3471 -0.9063  0.2518
  517MPD2     N 7686   0.945   3.292   0.500 -0.1789 -0.1969  0.1732
  517MPD2    H5 7687   0.916   3.370   0.557  0.1358  0.8396 -1.0982
  517MPD2    N1 7688   0.774   2.903   0.268 -0.2191  0.1435  0.4951
  517MPD2    H7 7689   0.872   2.885   0.250 -0.1054 -0.1821  1.3815
  518TMC3    C1 7690   0.728   2.692   0.163  0.2976  1.4232  0.1827
  518TMC3    C2 7691   0.635   2.592   0.163 -0.0125  0.5550 -0.3149
  518TMC3    C3 7692   0.676   2.481   0.099 -0.2950  0.1316 -0.1372
  518TMC3    C4 7693   0.858   2.687   0.112  0.0675 -0.4541 -0.7314
  518TMC3    C5 7694   0.897   2.567   0.069  0.8153  0.6371 -0.0589
  518TMC3    C6 7695   0.803   2.472   0.048 -0.3413  0.6903 -0.1272
  518TMC3     C 7696   0.675   2.816   0.228 -0.2789 -0.3011 -0.4024
  518TMC3     O 7697   0.559   2.816   0.260  0.1606  0.2881  0.1839
  518TMC3     H 7698   0.531   2.609   0.188  0.1655  3.2119 -1.4097
  518TMC3    H1 7699   0.922   2.774   0.104  0.1293 -0.4229  0.1142
  518TMC3    H2 7700   0.837   2.385  17.688  0.3790  1.3633 -0.7373
  518TMC3    C7 7701   1.021   2.560  17.687  0.3454 -0.2667 -0.1767
  518TMC3    C8 7702   0.608   2.358   0.102 -0.3248 -0.4002 -0.6927
  518TMC3    O1 7703   1.062   2.664  17.635 -0.3410 -0.4014 -0.2326
  518TMC3    O2 7704   0.685   2.257   0.097  0.1327  0.3288 -0.0066
  519MPD2     C 7705   1.519   1.009  14.624 -0.7298  0.7960  0.2609
  519MPD2    C1 7706   1.474   0.985  14.499  0.5226 -0.8435  0.2110
  519MPD2    C2 7707   1.557   0.918  14.408  0.3399 -0.6882  0.4710
  519MPD2    C3 7708   1.689   0.907  14.441 -0.4018  0.2040 -0.0249
  519MPD2    C4 7709   1.742   0.947  14.560 -0.3659 -0.6049  0.2586
  519MPD2    C5 7710   1.655   0.992  14.649 -0.0684 -0.2221 -0.7839
  519MPD2     H 7711   1.525   0.902  14.305  1.7699  1.0258 -0.2278
  519MPD2    H1 7712   1.845   0.968  14.587 -0.9630 -0.3752  2.3219
  519MPD2    H2 7713   1.459   1.047  14.705 -0.1833  1.5246  0.3240
  519MPD2    H3 7714   1.689   1.011  14.749  0.3630  1.7335 -1.3081
  519MPD2     N 7715   1.769   0.862  14.337  0.7880  0.1002 -0.1159
  519MPD2    H5 7716   1.719   0.846  14.249 -1.1870  1.9888  0.6441
  519MPD2    N1 7717   1.341   0.996  14.465 -0.5857  0.2266  0.3569
  519MPD2    H7 7718   1.319   0.962  14.372  1.8942 -0.4264 -0.0021
  520TMC3    C1 7719   1.969   0.830  14.218 -0.5286  0.1858 -0.3323
  520TMC3    C2 7720   1.891   0.857  14.109  0.2104 -0.5894  0.1028
  520TMC3    C3 7721   1.947   0.825  13.996 -0.0698 -0.5349 -0.4145
  520TMC3    C4 7722   2.092   0.779  14.209 -0.4824  0.0708  0.2378
  520TMC3    C5 7723   2.153   0.757  14.094  0.5672  1.0419  0.0552
  520TMC3    C6 7724   2.076   0.773  13.983  0.3875  0.2020 -0.2144
  520TMC3     C 7725   1.906   0.853  14.344 -0.3709  0.0578 -0.2664
  520TMC3     O 7726   1.982   0.852  14.441  0.8141 -0.5957  0.4230
  520TMC3     H 7727   1.801   0.917  14.112  1.1322  0.7827  0.7542
  520TMC3    H1 7728   2.138   0.739  14.298 -2.2732  0.4478  1.3321
  520TMC3    H2 7729   2.108   0.763  13.880 -0.7318  1.2794 -0.6544
  520TMC3    C7 7730   2.277   0.681  14.089  0.4562 -0.3676 -0.1365
  520TMC3    C8 7731   1.862   0.834  13.874 -0.1960 -0.1059 -0.2693
  520TMC3    O1 7732   2.362   0.695  14.178  0.0679 -0.1076  0.1476
  520TMC3    O2 7733   1.918   0.862  13.773  0.1037 -0.8466 -0.2807
  521MPD2     C 7734   2.745   3.576   0.050 -0.4566 -0.5043 -0.1946
  521MPD2    C1 7735   2.688   3.455   0.014 -0.1595 -0.4955  0.4312
  521MPD2    C2 7736   2.763   3.371  17.621 -0.4826 -0.1160 -0.0301
  521MPD2    C3 7737   2.886   3.416  17.574  0.9252 -0.4760  0.7495
  521MPD2    C4 7738   2.933   3.545  17.600 -0.6828  0.2489  0.1843
  521MPD2    C5 7739   2.851   3.630  17.678 -0.2706  0.0322  0.1849
  521MPD2     H 7740   2.725   3.272  17.598 -0.8081  0.5661 -2.4085
  521MPD2    H1 7741   3.017   3.590  17.550  0.7259 -0.8573  1.5445
  521MPD2    H2 7742   2.691   3.641   0.117 -1.1819  0.1205 -1.3946
  521MPD2    H3 7743   2.885   3.729   0.012 -0.7367  0.2272  0.0621
  521MPD2     N 7744   2.956   3.323  17.494 -0.0797  0.0814 -0.3696
  521MPD2    H5 7745   2.909   3.237  17.471  0.9172 -0.8432  1.0854
  521MPD2    N1 7746   2.564   3.417   0.064  0.0605 -0.3359 -0.3200
  521MPD2    H7 7747   2.534   3.465   0.148  0.8513  1.0367 -0.8288
  522TMC3    C1 7748   3.100   3.223  17.343  0.3318 -0.3968 -0.3693
  522TMC3    C2 7749   3.222   3.203  17.290 -0.2740 -0.1005  0.4185
  522TMC3    C3 7750   3.245   3.105  17.195 -0.6016  0.4622 -1.1848
  522TMC3    C4 7751   2.993   3.136  17.306 -0.1417 -0.8150  0.2009
  522TMC3    C5 7752   3.025   3.033  17.226 -0.6765 -0.0967  0.0885
  522TMC3    C6 7753   3.151   3.016  17.169  0.0382 -1.0042  0.2205
  522TMC3     C 7754   3.084   3.337  17.437  0.5079 -0.2694  0.1922
  522TMC3     O 7755   3.164   3.428  17.436 -0.0363  0.0044  0.3374
  522TMC3     H 7756   3.299   3.272  17.322  0.9277 -1.5041  0.5484
  522TMC3    H1 7757   2.891   3.156  17.335 -0.3197 -1.1872 -0.1672
  522TMC3    H2 7758   3.177   2.923  17.120 -1.5450 -1.4086  0.1352
  522TMC3    C7 7759   2.923   2.985  17.139  0.3838 -1.0524  0.4138
  522TMC3    C8 7760   3.380   3.070  17.163  0.5068  0.8773 -0.1442
  522TMC3    O1 7761   2.962   2.883  17.089  0.0728  0.1244 -0.1901
  522TMC3    O2 7762   3.468   3.094  17.251 -0.1745  0.0854  0.2578
  523MPD2     C 7763   3.912   2.940   9.947  0.3909  0.0586  0.1370
  523MPD2    C1 7764   3.994   3.058   9.959  0.5052 -0.4260  0.5486
  523MPD2    C2 7765   3.936   3.181   9.976 -0.0745 -0.6041  0.2526
  523MPD2    C3 7766   3.808   3.194   9.947 -0.0721 -0.2437  0.0916
  523MPD2    C4 7767   3.727   3.086   9.921 -0.5898  0.2316 -0.3248
  523MPD2    C5 7768   3.774   2.961   9.926 -1.0408  0.3471 -0.2250
  523MPD2     H 7769   4.008   3.259   9.996 -0.3501 -0.6811  1.5372
  523MPD2    H1 7770   3.626   3.110   9.890  0.3130  1.9068 -1.9409
  523MPD2    H2 7771   3.944   2.838   9.933 -1.9964 -0.6399 -0.2482
  523MPD2    H3 7772   3.708   2.876   9.910 -0.2953 -0.0722 -1.0592
  523MPD2     N 7773   3.744   3.313   9.936 -0.2722  0.0458 -0.1845
  523MPD2    H5 7774   3.661   3.314   9.878 -0.5707 -0.1216  0.2420
  523MPD2    N1 7775   4.131   3.033   9.964  0.1490  0.4863 -0.2930
  523MPD2    H7 7776   4.155   2.935   9.955 -3.4575 -0.5058  0.7307
  524TMC3    C1 7777   3.740   3.555   9.949 -0.1369  0.5959  0.6660
  524TMC3    C2 7778   3.717   3.583   9.813  0.5292  0.3220  0.0893
  524TMC3    C3 7779   3.685   3.711   9.776  0.0666 -0.2900  0.1901
  524TMC3    C4 7780   3.743   3.652  10.048 -0.2956 -0.0819 -0.4680
  524TMC3    C5 7781   3.713   3.777  10.005 -0.8975 -0.0971  0.6738
  524TMC3    C6 7782   3.687   3.809   9.874 -0.0102 -0.4331 -0.3338
  524TMC3     C 7783   3.808   3.428   9.982 -0.3759  0.2975  0.0066
  524TMC3     O 7784   3.876   3.430  10.086 -0.4792 -0.4001 -0.2724
  524TMC3     H 7785   3.741   3.511   9.736 -0.5121  1.0348 -0.9095
  524TMC3    H1 7786   3.758   3.615  10.149  0.0608 -1.0664 -0.8797
  524TMC3    H2 7787   3.675   3.914   9.847 -2.0495 -0.3238  0.9491
  524TMC3    C7 7788   3.651   3.855  10.111 -0.1302  0.2321  0.3318
  524TMC3    C8 7789   3.699   3.748   9.639 -0.1575  0.2624  0.1134
  524TMC3    O1 7790   3.624   3.800  10.215  0.2390 -0.0197 -0.2479
  524TMC3    O2 7791   3.752   3.662   9.569 -0.2272  0.5266  0.0149
  525MPD2     C 7792   3.529   0.344  14.299 -0.5463 -0.1453 -1.2135
  525MPD2    C1 7793   3.451   0.362  14.414 -0.2344 -0.6172 -0.0289
  525MPD2    C2 7794   3.428   0.496  14.452  0.3596  0.3394  0.3138
  525MPD2    C3 7795   3.468   0.603  14.372  0.5924 -0.1761 -0.1391
  525MPD2    C4 7796   3.541   0.578  14.255 -0.0454  0.5592 -0.0477
  525MPD2    C5 7797   3.563   0.451  14.222 -0.3998 -0.3282 -0.0404
  525MPD2     H 7798   3.369   0.523  14.539 -0.6230 -0.1158 -0.2059
  525MPD2    H1 7799   3.602   0.656  14.211 -0.5551  1.9650  1.7323
  525MPD2    H2 7800   3.565   0.255  14.250  1.3125  0.3163 -0.7021
  525MPD2    H3 7801   3.622   0.445  14.131  2.2886  1.7019  1.5633
  525MPD2     N 7802   3.433   0.735  14.404 -0.1639  0.2481  0.1257
  525MPD2    H5 7803   3.457   0.803  14.333 -0.8099 -0.5836 -0.8892
  525MPD2    N1 7804   3.414   0.257  14.495 -0.1151  0.1521  0.2083
  525MPD2    H7 7805   3.458   0.169  14.471 -0.8000  0.6280 -2.7318
  526TMC3    C1 7806   3.332   0.149  14.699 -0.1546 -0.3783  0.8487
  526TMC3    C2 7807   3.221   0.144  14.776  0.0077  0.0061 -0.6374
  526TMC3    C3 7808   3.196   0.032  14.838  0.5589  0.7935  0.2861
  526TMC3    C4 7809   3.426   0.047  14.691 -0.0949 -0.4822  0.3446
  526TMC3    C5 7810   3.394   4.659  14.771  0.3050  0.3341 -0.2265
  526TMC3    C6 7811   3.272   4.640  14.828 -0.1681  0.3947  0.1135
  526TMC3     C 7812   3.339   0.270  14.611 -0.2915  0.3694 -0.5556
  526TMC3     O 7813   3.250   0.355  14.636 -0.0103  0.2088  0.1852
  526TMC3     H 7814   3.150   0.227  14.780 -0.4824 -0.4345 -0.0948
  526TMC3    H1 7815   3.524   0.082  14.661 -0.0502 -0.4715  0.5035
  526TMC3    H2 7816   3.257   4.558  14.898  1.5810  1.3401  1.6161
  526TMC3    C7 7817   3.489   4.562  14.831 -0.3652 -0.2953 -0.1913
  526TMC3    C8 7818   3.103   0.039  14.949 -0.2799 -0.3931  0.7348
  526TMC3    O1 7819   3.485   4.538  14.951 -0.1589 -0.3215  0.2073
  526TMC3    O2 7820   3.107   0.135  15.022 -0.3151 -0.1700 -0.4083
  527MPD2     C 7821   1.156   3.034   1.354 -0.2789  0.0192  0.2150
  527MPD2    C1 7822   1.227   3.031   1.471 -0.1997  0.3808 -0.0021
  527MPD2    C2 7823   1.334   2.946   1.480 -0.0354 -0.1914 -0.1261
  527MPD2    C3 7824   1.371   2.869   1.374  0.6183  0.5026  0.1239
  527MPD2    C4 7825   1.296   2.865   1.255  0.0605 -0.3211  0.7435
  527MPD2    C5 7826   1.190   2.956   1.250  0.2951  0.5330 -0.6823
  527MPD2     H 7827   1.398   2.965   1.566  0.5519 -1.7245 -0.2383
  527MPD2    H1 7828   1.304   2.793   1.175  0.3149  0.9124 -0.3471
  527MPD2    H2 7829   1.074   3.105   1.346 -2.2398 -2.3499 -0.9873
  527MPD2    H3 7830   1.131   2.970   1.161 -1.8891 -0.7595  0.5617
  527MPD2     N 7831   1.493   2.803   1.387 -0.2617 -0.2292 -0.5496
  527MPD2    H5 7832   1.541   2.812   1.475  0.4947 -0.2127 -0.9674
  527MPD2    N1 7833   1.209   3.113   1.588  0.1967 -0.4127  0.4665
  527MPD2    H7 7834   1.296   3.122   1.638 -0.1089 -2.6396  1.3849
  528TMC3    C1 7835   1.105   3.267   1.734  0.3864 -0.8221 -0.5451
  528TMC3    C2 7836   1.222   3.276   1.804 -0.0004 -0.3750  0.4314
  528TMC3    C3 7837   1.205   3.312   1.935  0.0316 -0.6234  0.2882
  528TMC3    C4 7838   0.985   3.312   1.781  0.8089 -0.4071 -0.2494
  528TMC3    C5 7839   0.984   3.365   1.908  0.1355 -0.5164  0.3942
  528TMC3    C6 7840   1.089   3.348   1.995  0.0362  0.0627 -0.4456
  528TMC3     C 7841   1.092   3.186   1.611  0.3719 -0.2401 -0.0776
  528TMC3     O 7842   0.986   3.180   1.553 -0.2545 -0.4237  0.2579
  528TMC3     H 7843   1.317   3.230   1.778 -0.0044 -0.6554  0.9095
  528TMC3    H1 7844   0.906   3.311   1.708  0.2633 -2.1917  0.3721
  528TMC3    H2 7845   1.078   3.375   2.099 -1.0087  1.2132 -0.8481
  528TMC3    C7 7846   0.860   3.425   1.953 -0.2581  0.0359 -0.1471
  528TMC3    C8 7847   1.322   3.307   2.017  0.6697  0.1945 -0.2729
  528TMC3    O1 7848   0.854   3.487   2.059  0.6281 -0.0463  0.0652
  528TMC3    O2 7849   1.429   3.345   1.962  0.1955  0.3585  0.0288
  529MPD2     C 7850   3.897   0.802   0.389  0.4760 -0.3002  0.0870
  529MPD2    C1 7851   3.850   0.900   0.479 -0.6107 -0.4538 -0.1087
  529MPD2    C2 7852   3.832   1.026   0.424 -0.1203  0.0796 -0.3874
  529MPD2    C3 7853   3.843   1.052   0.286 -0.4766 -0.0782 -0.3697
  529MPD2    C4 7854   3.875   0.948   0.206  0.1490  0.1792 -0.1849
  529MPD2    C5 7855   3.906   0.828   0.255 -0.6784 -0.1602 -0.6736
  529MPD2     H 7856   3.808   1.109   0.490 -0.9037 -1.5194  1.3323
  529MPD2    H1 7857   3.865   0.952   0.098  1.3686 -2.7919 -0.4040
  529MPD2    H2 7858   3.930   0.704   0.420  2.3761  0.3117  0.0236
  529MPD2    H3 7859   3.922   0.743   0.190  0.0219 -0.4898 -0.0712
  529MPD2     N 7860   3.814   1.177   0.226 -0.1511 -0.1485 -1.1311
  529MPD2    H5 7861   3.820   1.176   0.124 -1.3740 -2.8476 -1.1890
  529MPD2    N1 7862   3.839   0.883   0.617 -0.0406 -0.2704 -0.6743
  529MPD2    H7 7863   3.803   0.961   0.671  1.0274  0.4863 -1.0449
  530TMC3    C1 7864   3.832   0.763   0.824  0.0846 -0.2883 -0.3047
  530TMC3    C2 7865   3.820   0.884   0.888 -0.1709  0.1408  0.1787
  530TMC3    C3 7866   3.845   0.883   1.017  0.3465  0.3985 -0.2167
  530TMC3    C4 7867   3.840   0.645   0.894 -0.1922  0.1577 -0.3497
  530TMC3    C5 7868   3.864   0.653   1.028  0.5230  0.2662  0.1968
  530TMC3    C6 7869   3.868   0.772   1.093 -0.2684  0.5673 -0.0463
  530TMC3     C 7870   3.860   0.764   0.682  0.5383  0.3596 -0.6473
  530TMC3     O 7871   3.901   0.660   0.641  0.1953 -0.4518  0.3849
  530TMC3     H 7872   3.793   0.973   0.833 -0.9058 -0.1611  0.0471
  530TMC3    H1 7873   3.852   0.548   0.848 -0.2894  0.4462 -0.9890
  530TMC3    H2 7874   3.875   0.785   1.200 -0.2126 -0.2222  0.0419
  530TMC3    C7 7875   3.860   0.531   1.105 -0.0458  0.2009 -0.8175
  530TMC3    C8 7876   3.864   1.014   1.084 -0.1548 -0.0825  0.7385
  530TMC3    O1 7877   3.913   0.439   1.046  0.7351 -0.0038  0.0666
  530TMC3    O2 7878   3.801   1.109   1.038 -0.5945  0.0419 -0.4711
  531MPD2     C 7879   2.358   3.794  13.315  0.5734  0.0853  0.1306
  531MPD2    C1 7880   2.251   3.774  13.395  0.0279 -0.1046  0.5120
  531MPD2    C2 7881   2.135   3.718  13.347 -0.0728 -0.6324  0.1358
  531MPD2    C3 7882   2.127   3.698  13.211 -0.3529  1.2367 -0.0480
  531MPD2    C4 7883   2.245   3.713  13.127  0.0532 -0.1942 -0.3459
  531MPD2    C5 7884   2.362   3.761  13.180 -0.6984  0.7797 -0.3410
  531MPD2     H 7885   2.053   3.687  13.411  0.2669 -2.1692 -0.1638
  531MPD2    H1 7886   2.241   3.700  13.020  2.5317 -0.4947 -0.3977
  531MPD2    H2 7887   2.452   3.834  13.352  0.6756 -1.0186  1.0722
  531MPD2    H3 7888   2.445   3.777  13.111  0.2921 -1.6783  0.2942
  531MPD2     N 7889   2.001   3.666  13.151  0.0820 -0.1238  0.4647
  531MPD2    H5 7890   1.997   3.666  13.050  0.0639  2.4896  0.4584
  531MPD2    N1 7891   2.269   3.815  13.530  0.8950  0.0618  0.0792
  531MPD2    H7 7892   2.355   3.849  13.570  1.8192 -2.0178 -0.1767
  532TMC3    C1 7893   2.189   3.876  13.751  0.2216  0.2827  0.0514
  532TMC3    C2 7894   2.066   3.905  13.803  0.1357 -0.2362  0.1633
  532TMC3    C3 7895   2.038   3.857  13.932  0.6495 -0.4009  1.1099
  532TMC3    C4 7896   2.284   3.815  13.823 -0.7287 -0.3485  0.3094
  532TMC3    C5 7897   2.262   3.784  13.950  0.6476 -0.6938  0.0376
  532TMC3    C6 7898   2.141   3.806  14.016  0.8930 -0.8063 -0.0026
  532TMC3     C 7899   2.168   3.814  13.620 -0.4287 -0.3294 -0.2205
  532TMC3     O 7900   2.053   3.769  13.614  0.0445 -0.0953  0.6089
  532TMC3     H 7901   1.992   3.960  13.746 -0.4466 -0.2203  0.9394
  532TMC3    H1 7902   2.377   3.793  13.771 -0.3737 -1.3828  1.3906
  532TMC3    H2 7903   2.123   3.764  14.115  2.5856  1.0967  1.1014
  532TMC3    C7 7904   2.373   3.722  14.021 -0.1510 -0.3977 -0.8580
  532TMC3    C8 7905   1.909   3.807  13.946  0.4503 -0.0707  0.1705
  532TMC3    O1 7906   2.388   3.769  14.132 -0.1916 -0.4106  0.1984
  532TMC3    O2 7907   1.871   3.787  14.059  0.4431  0.0527 -0.0934
  533TMC3    C1 7908   3.363   0.927  14.517  0.7049 -0.0116  0.0792
  533TMC3    C2 7909   3.491   0.976  14.530 -0.0346 -0.2484 -0.1758
  533TMC3    C3 7910   3.505   1.097  14.593 -0.1345  0.4084 -0.1499
  533TMC3    C4 7911   3.264   0.989  14.587  0.0468 -0.2597 -0.2288
  533TMC3    C5 7912   3.288   1.107  14.657  0.3431  0.3775 -0.6172
  533TMC3    C6 7913   3.408   1.167  14.658 -0.4141  0.1020  0.9486
  533TMC3     C 7914   3.360   0.781  14.514 -0.0006  0.3548  0.0510
  533TMC3     O 7915   3.274   0.724  14.578  0.0946 -0.5295 -0.1325
  533TMC3     H 7916   3.580   0.933  14.484  0.0755 -1.6234  1.3157
  533TMC3    H1 7917   3.164   0.947  14.599 -0.0368  0.0870  0.2999
  533TMC3    H2 7918   3.427   1.261  14.708 -1.5220  1.8025 -1.8131
  533TMC3    C7 7919   3.223   1.086  14.786  0.0561 -0.5438  0.1936
  533TMC3    C8 7920   3.635   1.116  14.655  0.0535 -0.2698 -0.6079
  533TMC3    O1 7921   3.116   1.022  14.794  0.0846 -0.1995 -0.1347
  533TMC3    O2 7922   3.637   1.146  14.773  0.8665 -0.2452  0.0624
  534MPD2     C 7923   1.624   1.733   1.999 -0.2132  0.3456  0.0886
  534MPD2    C1 7924   1.575   1.855   1.981 -0.1013 -0.0447  0.9830
  534MPD2    C2 7925   1.460   1.872   1.894  0.1922 -0.5466  0.7505
  534MPD2    C3 7926   1.409   1.771   1.822  0.0094  0.0726 -0.2536
  534MPD2    C4 7927   1.468   1.646   1.842  0.1526  0.0711  0.2656
  534MPD2    C5 7928   1.569   1.628   1.934 -0.2903  0.2244 -0.0688
  534MPD2     H 7929   1.413   1.969   1.894  1.5457  0.1120 -1.5659
  534MPD2    H1 7930   1.446   1.570   1.767  0.3036  1.1923 -0.9152
  534MPD2    H2 7931   1.710   1.719   2.064 -0.1383  0.4436  0.0130
  534MPD2    H3 7932   1.614   1.529   1.942 -0.4203  0.0502 -1.5273
  534MPD2     N 7933   1.315   1.792   1.715 -0.4176 -0.3496 -0.2334
  534MPD2    H5 7934   1.296   1.714   1.652 -3.0272 -0.9826  1.3319
  534MPD2    N1 7935   1.636   1.970   2.038 -0.0748 -0.3147  0.0677
  534MPD2    H7 7936   1.597   2.054   1.996  0.7378 -0.4614 -0.9994
  535TMC3    C1 7937   1.163   1.887   1.571  0.1122  0.1455  0.5422
  535TMC3    C2 7938   1.034   1.926   1.586 -0.1257  0.4111 -0.1111
  535TMC3    C3 7939   0.943   1.908   1.487  0.3124  0.0353  0.3772
  535TMC3    C4 7940   1.203   1.827   1.449 -0.2212  0.4436 -0.3528
  535TMC3    C5 7941   1.110   1.802   1.354  0.2165 -0.6249  0.8303
  535TMC3    C6 7942   0.973   1.840   1.374 -0.4673 -0.5759 -0.0580
  535TMC3     C 7943   1.252   1.908   1.679  0.2863 -0.7931 -0.0983
  535TMC3     O 7944   1.236   2.004   1.752  0.1586 -0.6627 -0.1897
  535TMC3     H 7945   1.004   1.976   1.677  0.8051  0.9282 -0.0980
  535TMC3    H1 7946   1.300   1.778   1.444 -0.5729 -0.4293  1.4910
  535TMC3    H2 7947   0.899   1.837   1.295  0.3527 -0.5759 -0.8203
  535TMC3    C7 7948   1.163   1.808   1.219 -0.0241 -0.5768  0.5153
  535TMC3    C8 7949   0.813   1.975   1.488  0.1694 -0.5616  0.2950
  535TMC3    O1 7950   1.244   1.724   1.183  0.2554  0.0338  0.3004
  535TMC3    O2 7951   0.733   1.920   1.415  0.0648  0.0534 -0.1284
  536MPD2     C 7952   0.060   4.469  16.767  0.2423  0.3235  0.1483
  536MPD2    C1 7953   4.697   4.581  16.766  0.5237 -0.3008  0.3981
  536MPD2    C2 7954   4.632   4.607  16.644  0.2138  0.1598  0.0786
  536MPD2    C3 7955   4.648   4.528  16.535  0.2033 -0.2743  0.1063
  536MPD2    C4 7956   0.013   4.423  16.533  0.4501  0.7412 -0.1894
  536MPD2    C5 7957   0.072   4.392  16.653 -0.1700  0.0530  0.9297
  536MPD2     H 7958   4.566   4.692  16.643  1.2411  0.9574  0.9684
  536MPD2    H1 7959   0.009   4.352  16.451 -0.6172  0.7378 -0.1297
  536MPD2    H2 7960   0.122   4.453  16.854 -1.2982  0.0071  1.1791
  536MPD2    H3 7961   0.130   4.301  16.660 -1.1840 -0.5846  0.9871
  536MPD2     N 7962   4.558   4.537  16.425 -0.0308 -0.5619  0.6179
  536MPD2    H5 7963   4.582   4.478  16.346  0.3128 -0.0418  0.3338
  536MPD2    N1 7964   4.680   4.655  16.879  0.1241  0.8543 -0.0300
  536MPD2    H7 7965   4.687   4.598  16.963 -0.7336  0.7628 -0.0189
  537TMC3    C1 7966   4.627   0.108  17.025  0.7697  0.1323  0.5694
  537TMC3    C2 7967   4.654   0.242  17.041  0.1982  0.2088  0.0988
  537TMC3    C3 7968   4.620   0.292  17.170 -0.3088 -0.0754 -0.2245
  537TMC3    C4 7969   4.546   0.031  17.111  0.1602  0.0833 -0.5626
  537TMC3    C5 7970   4.509   0.097  17.220 -0.4564  0.6295  0.2567
  537TMC3    C6 7971   4.548   0.219  17.256 -0.0104  0.1392  0.1666
  537TMC3     C 7972   4.647   0.067  16.889  0.3739 -0.2336 -0.4712
  537TMC3     O 7973   4.643   0.147  16.798 -0.5253  0.7061 -0.2102
  537TMC3     H 7974   4.719   0.299  16.976 -0.0589  1.3192  0.8085
  537TMC3    H1 7975   4.506   4.656  17.086  1.5623 -0.2055 -1.7565
  537TMC3    H2 7976   4.510   0.260  17.349 -2.7326 -1.4551 -0.2191
  537TMC3    C7 7977   4.431   0.028  17.323 -0.1674 -0.5376 -0.8580
  537TMC3    C8 7978   4.689   0.398  17.229  0.5064 -0.0131  0.1655
  537TMC3    O1 7979   4.389   0.098  17.414 -0.4966 -0.3481 -0.4530
  537TMC3    O2 7980   4.693   0.395  17.354 -0.4556 -0.5615 -0.2014
  538TMC3    C1 7981   0.821   3.427  10.833  0.0644  0.4248 -0.1564
  538TMC3    C2 7982   0.881   3.329  10.758  0.6269 -0.7291  0.9524
  538TMC3    C3 7983   0.877   3.343  10.623 -0.1424 -0.0770 -0.9178
  538TMC3    C4 7984   0.741   3.521  10.780 -0.1408 -0.9818  0.2779
  538TMC3    C5 7985   0.727   3.524  10.646 -0.9114 -0.1363  0.0515
  538TMC3    C6 7986   0.794   3.431  10.566 -0.2020  0.2237 -0.1521
  538TMC3     C 7987   0.823   3.409  10.974 -1.1341  0.8722 -0.1255
  538TMC3     O 7988   0.718   3.421  11.030  0.0018 -0.3441  0.3699
  538TMC3     H 7989   0.930   3.241  10.798  1.2629 -0.4087  0.8704
  538TMC3    H1 7990   0.707   3.596  10.850 -3.5848 -0.5986 -1.8416
  538TMC3    H2 7991   0.789   3.438  10.458  0.2903  0.8104 -0.1348
  538TMC3    C7 7992   0.638   3.609  10.590 -0.3179  0.3383 -0.9306
  538TMC3    C8 7993   0.954   3.259  10.541  0.4634 -0.9350 -0.7370
  538TMC3    O1 7994   0.675   3.649  10.483 -0.4318 -0.0414  0.5787
  538TMC3    O2 7995   1.008   3.308  10.440  0.5528  0.2250 -0.2559
  539MPD2     C 7996   0.701   2.837  11.563  0.1307 -0.1559 -0.3222
  539MPD2    C1 7997   0.713   2.859  11.427 -0.5217  0.2197  0.2380
  539MPD2    C2 7998   0.649   2.962  11.369  0.2439  0.3523 -0.1865
  539MPD2    C3 7999   0.574   3.057  11.452  0.1889  0.0394  0.6618
  539MPD2    C4 8000   0.561   3.030  11.586 -0.1474 -0.3263 -0.0177
  539MPD2    C5 8001   0.627   2.922  11.638 -0.3894 -0.1054 -0.5933
  539MPD2     H 8002   0.648   2.974  11.261 -1.2606  0.7109 -0.1284
  539MPD2    H1 8003   0.496   3.090  11.649 -0.9347 -1.3876  0.1944
  539MPD2    H2 8004   0.750   2.750  11.604  2.8463  1.6594  0.2920
  539MPD2    H3 8005   0.621   2.904  11.745 -2.9748 -1.1682 -0.9136
  539MPD2     N 8006   0.499   3.170  11.401  0.4401 -0.1451  0.4099
  539MPD2    H5 8007   0.446   3.223  11.469 -1.5130 -2.6423  0.7964
  539MPD2    N1 8008   0.773   2.765  11.336 -0.7170  0.4762 -0.4072
  539MPD2    H7 8009   0.770   2.785  11.237 -0.4400  0.0554 -0.5027
  540TMC3    C1 8010   0.414   3.323  11.266 -0.0709 -0.1273  0.5750
  540TMC3    C2 8011   0.342   3.319  11.151  0.5923  0.1098  0.0640
  540TMC3    C3 8012   0.254   3.421  11.144  0.2442 -0.8431  0.0489
  540TMC3    C4 8013   0.401   3.418  11.363 -0.0727  0.6272  0.3851
  540TMC3    C5 8014   0.325   3.525  11.339  0.0984 -0.7682 -0.6196
  540TMC3    C6 8015   0.256   3.535  11.222  0.2575  0.4677  0.4970
  540TMC3     C 8016   0.501   3.214  11.273 -0.3302  0.1197 -0.0796
  540TMC3     O 8017   0.538   3.162  11.172 -0.1026  0.1840 -0.1881
  540TMC3     H 8018   0.354   3.245  11.072 -0.4707  1.3573 -1.2734
  540TMC3    H1 8019   0.452   3.404  11.457  0.7049  3.2632  0.3652
  540TMC3    H2 8020   0.174   3.606  11.227 -0.9086 -0.8996  0.7355
  540TMC3    C7 8021   0.262   3.576  11.466  0.3265  0.2320 -0.0675
  540TMC3    C8 8022   0.183   3.429  11.022  0.1316 -0.3419  0.4350
  540TMC3    O1 8023   0.244   3.498  11.560  0.3239  0.0688 -0.2170
  540TMC3    O2 8024   0.160   3.540  10.975  0.3905  0.6048 -0.3487
  541MPD2     C 8025   3.817   4.149  13.538  0.0790 -0.1312 -1.2928
  541MPD2    C1 8026   3.732   4.137  13.437 -0.1101 -0.1011 -0.5276
  541MPD2    C2 8027   3.721   4.235  13.332  1.2107  0.1480 -0.4896
  541MPD2    C3 8028   3.802   4.345  13.331  0.7073 -0.2187 -0.4783
  541MPD2    C4 8029   3.886   4.353  13.437  0.4744  0.1376  0.1991
  541MPD2    C5 8030   3.897   4.258  13.535 -0.1301 -0.2706 -0.1633
  541MPD2     H 8031   3.655   4.208  13.251 -0.2739  1.7376  0.1754
  541MPD2    H1 8032   3.964   4.428  13.448  1.3320 -0.3602 -2.5358
  541MPD2    H2 8033   3.831   4.076  13.616  0.5453  1.8144  0.4630
  541MPD2    H3 8034   3.975   4.274  13.609  2.0472  1.0822 -2.7595
  541MPD2     N 8035   3.811   4.437  13.229 -0.0222  0.7944  0.0191
  541MPD2    H5 8036   3.880   4.510  13.247  1.2842 -0.5268  0.3597
  541MPD2    N1 8037   3.653   4.022  13.413  0.3671 -0.2079 -0.4107
  541MPD2    H7 8038   3.590   4.024  13.334 -1.7079 -0.7685  1.2079
  542TMC3    C1 8039   3.786   4.548  13.023 -0.8101  0.5770 -0.5328
  542TMC3    C2 8040   3.762   4.540  12.883 -0.3726 -0.1080 -0.9308
  542TMC3    C3 8041   3.821   4.617  12.791  0.1169 -0.3952 -0.5066
  542TMC3    C4 8042   3.876   4.649  13.057  0.8714 -0.5959 -0.6243
  542TMC3    C5 8043   3.935   0.004  12.958 -0.6805  0.0482 -0.7636
  542TMC3    C6 8044   3.915   4.712  12.824  0.4019 -0.5891 -0.3750
  542TMC3     C 8045   3.759   4.431  13.100 -0.0162 -0.2923  0.4834
  542TMC3     O 8046   3.703   4.337  13.040  0.0331  0.4229  0.0612
  542TMC3     H 8047   3.681   4.475  12.850  0.7050 -1.9670  0.0769
  542TMC3    H1 8048   3.903   4.664  13.161 -1.5054  1.7611 -0.3333
  542TMC3    H2 8049   3.972   0.031  12.742  1.4280 -1.5044 -0.1368
  542TMC3    C7 8050   3.994   0.131  13.007 -0.3278 -0.2180 -1.2633
  542TMC3    C8 8051   3.841   4.545  12.669  0.3556 -0.1962  0.8598
  542TMC3    O1 8052   4.034   0.129  13.121 -0.1075 -0.2719 -0.0828
  542TMC3    O2 8053   3.738   4.512  12.611 -0.1816  0.1095  0.5794
  543TMC3    C1 8054   3.351   0.670  17.312 -0.4615  0.0768  0.3084
  543TMC3    C2 8055   3.416   0.563  17.352  0.1762  0.3081 -0.4683
  543TMC3    C3 8056   3.430   0.524  17.482  0.3532 -0.0645  0.9052
  543TMC3    C4 8057   3.282   0.753  17.399  0.1978 -0.9172  0.8431
  543TMC3    C5 8058   3.303   0.722  17.532 -0.6921  0.1050 -0.7924
  543TMC3    C6 8059   3.374   0.610  17.577 -0.0694 -0.6012 -0.1741
  543TMC3     C 8060   3.421   0.736  17.206  0.4719 -0.1800  0.3474
  543TMC3     O 8061   3.525   0.682  17.168  0.4519 -0.6729 -0.0653
  543TMC3     H 8062   3.477   0.507  17.283 -0.0896 -3.8735  2.6970
  543TMC3    H1 8063   3.215   0.828  17.358  0.1566 -1.5826 -0.3023
  543TMC3    H2 8064   3.390   0.590  17.682 -1.0182 -0.7624 -0.0634
  543TMC3    C7 8065   3.233   0.791  17.645 -0.0294  0.7675  1.4283
  543TMC3    C8 8066   3.506   0.404  17.517  0.7989 -0.3017  1.2775
  543TMC3    O1 8067   3.217   0.724   0.052 -0.7451  0.4599  1.3678
  543TMC3    O2 8068   3.561   0.346  17.428  0.0743  0.2586  0.3359
  544MPD2     C 8069   3.620   0.028   0.157  0.5352  0.0513 -0.2367
  544MPD2    C1 8070   3.653   0.026   0.022 -0.1946  0.3295 -0.4700
  544MPD2    C2 8071   3.605   0.137  17.641  0.1129  0.2851  0.1859
  544MPD2    C3 8072   3.541   0.245   0.014  0.5686  0.4749  0.0413
  544MPD2    C4 8073   3.515   0.237   0.147  0.3922 -0.2715 -0.1954
  544MPD2    C5 8074   3.558   0.127   0.214  0.0823  0.3490  0.5136
  544MPD2     H 8075   3.608   0.137  17.532 -0.1919  1.7488  0.1789
  544MPD2    H1 8076   3.453   0.305   0.204  1.3995 -1.2954  2.0909
  544MPD2    H2 8077   3.651   4.671   0.224  0.4516 -0.2284 -0.5324
  544MPD2    H3 8078   3.538   0.116   0.320  3.1678 -1.1348  0.9251
  544MPD2     N 8079   3.491   0.361  17.643  0.0285  0.0877  0.1076
  544MPD2    H5 8080   3.432   0.416   0.011 -1.5833  0.9270 -2.1840
  544MPD2    N1 8081   3.724   4.644  17.656 -0.6736  0.0099 -0.0377
  544MPD2    H7 8082   3.755   4.570   0.024  1.7396 -0.2081 -1.5338
  545TMC3    C1 8083   3.811   4.502  17.492  0.6145 -0.1820 -0.1438
  545TMC3    C2 8084   3.884   4.495  17.377  0.4062  0.1477  0.4413
  545TMC3    C3 8085   3.942   4.373  17.349  0.0375 -0.3209  0.2051
  545TMC3    C4 8086   3.809   4.397  17.589  0.6140 -0.1459 -0.1046
  545TMC3    C5 8087   3.869   4.281  17.556 -0.9429 -0.1115  0.0627
  545TMC3    C6 8088   3.944   4.268  17.442 -0.6921 -0.2430 -0.7818
  545TMC3     C 8089   3.773   4.638  17.524  0.3250  0.0948 -0.4591
  545TMC3     O 8090   3.761   4.719  17.434  0.5426 -0.2090  0.4049
  545TMC3     H 8091   3.897   4.586  17.319  0.5127  0.2057  0.5575
  545TMC3    H1 8092   3.732   4.391  17.665 -0.3339  1.7906 -0.9216
  545TMC3    H2 8093   4.003   4.179  17.423 -0.8562 -0.5800  0.2569
  545TMC3    C7 8094   3.890   4.177  17.653  0.4524  0.4983 -0.0427
  545TMC3    C8 8095   4.043   4.365  17.246  0.7087 -0.1298 -0.6391
  545TMC3    O1 8096   3.930   4.071  17.608  0.5026  0.1581 -0.3287
  545TMC3    O2 8097   4.071   4.251  17.209  0.4708 -0.0579  0.5678
  546MPD2     C 8098   4.716   0.969   0.327 -0.6117  0.4475 -0.0955
  546MPD2    C1 8099   4.703   1.004   0.196  0.3366  0.4620  0.1378
  546MPD2    C2 8100   0.032   1.117   0.145 -0.4403 -0.1602  0.1911
  546MPD2    C3 8101   0.114   1.205   0.227 -0.0257  0.3384  0.2262
  546MPD2    C4 8102   0.114   1.178   0.363  0.3532 -0.1978  0.0392
  546MPD2    C5 8103   0.050   1.061   0.412 -0.7154 -0.5621 -0.3781
  546MPD2     H 8104   0.032   1.136   0.038  2.1867 -0.5141  0.1263
  546MPD2    H1 8105   0.162   1.244   0.434 -0.9262  0.2389  0.4849
  546MPD2    H2 8106   4.675   0.876   0.363 -0.2307  0.2321 -0.2082
  546MPD2    H3 8107   0.045   1.046   0.520  0.3497 -0.4705 -0.3157
  546MPD2     N 8108   0.192   1.306   0.175  0.0148  0.0747 -0.2567
  546MPD2    H5 8109   0.242   1.364   0.242 -1.9307 -0.9226  2.1100
  546MPD2    N1 8110   4.646   0.899   0.116 -0.2338 -0.7295  0.5965
  546MPD2    H7 8111   4.641   0.812   0.169 -0.1775 -1.4526 -0.5872
  547TMC3    C1 8112   4.566   0.792  17.619  0.0813  0.0691  0.3781
  547TMC3    C2 8113   4.496   0.794  17.502 -0.5159 -0.1493 -0.0109
  547TMC3    C3 8114   4.464   0.670  17.449  0.6924  0.0537 -0.5413
  547TMC3    C4 8115   4.587   0.673  17.692 -0.4020 -0.0181  0.2407
  547TMC3    C5 8116   4.571   0.557  17.625  0.0487  0.5075  0.3997
  547TMC3    C6 8117   4.500   0.547  17.511  0.0381  0.1892  0.6392
  547TMC3     C 8118   4.591   0.920  17.686 -0.1508  0.2731 -0.0395
  547TMC3     O 8119   4.574   1.026  17.630  0.2485 -0.1086  0.1085
  547TMC3     H 8120   4.482   0.892  17.457  0.8745 -0.5343 -1.3136
  547TMC3    H1 8121   4.657   0.666   0.081 -1.0150  1.2187  0.8580
  547TMC3    H2 8122   4.499   0.452  17.458  2.0474  0.4747  0.0627
  547TMC3    C7 8123   4.580   0.437   0.008 -0.2833 -0.3512 -0.0330
  547TMC3    C8 8124   4.388   0.665  17.327 -0.3070 -0.4445 -0.2695
  547TMC3    O1 8125   4.554   0.445   0.126 -0.3789  0.0792 -0.2751
  547TMC3    O2 8126   4.380   0.770  17.264  0.3970  0.2884 -0.4346
  548MPD2     C 8127   4.505   1.410  11.995  0.2428  0.1186  0.0198
  548MPD2    C1 8128   4.527   1.360  12.119  0.0373 -0.1802  0.3310
  548MPD2    C2 8129   4.615   1.260  12.133  0.2233 -0.0255 -0.8073
  548MPD2    C3 8130   4.682   1.208  12.026 -0.4331  0.7876 -0.8251
  548MPD2    C4 8131   4.667   1.267  11.907  0.3720 -1.4490  0.9176
  548MPD2    C5 8132   4.583   1.371  11.890  0.7197  0.0449  0.3894
  548MPD2     H 8133   4.639   1.224  12.233 -0.0882  0.5369 -0.5275
  548MPD2    H1 8134   4.718   1.223  11.822  1.3347  1.0765  0.1815
  548MPD2    H2 8135   4.430   1.488  11.988 -1.4317 -1.5514 -0.7959
  548MPD2    H3 8136   4.569   1.424  11.796  0.8110 -1.7543 -0.6377
  548MPD2     N 8137   0.035   1.094  12.051  0.0234 -0.5085 -0.3527
  548MPD2    H5 8138   0.045   1.068  12.149 -0.3657 -1.1929 -0.4909
  548MPD2    N1 8139   4.446   1.406  12.226 -0.1174 -0.3173  0.1249
  548MPD2    H7 8140   4.396   1.493  12.208  1.4256  0.9351  1.8930
  549TMC3    C1 8141   4.341   1.395  12.440  0.3792  0.0503  0.2438
  549TMC3    C2 8142   4.237   1.470  12.391 -0.2032  0.6402  0.5187
  549TMC3    C3 8143   4.122   1.487  12.460 -0.0701  0.0368  0.5867
  549TMC3    C4 8144   4.320   1.319  12.552  0.3149  0.8297  0.4463
  549TMC3    C5 8145   4.193   1.340  12.620 -1.0812 -0.1940  0.4427
  549TMC3    C6 8146   4.097   1.418  12.574  0.0278  0.3969 -0.4062
  549TMC3     C 8147   4.424   1.330  12.343  0.1621 -0.4264 -0.1714
  549TMC3     O 8148   4.464   1.220  12.379 -0.5250  0.5149 -0.5136
  549TMC3     H 8149   4.237   1.531  12.301 -2.2004  0.3307  0.3135
  549TMC3    H1 8150   4.398   1.258  12.596 -0.3504 -0.3483 -0.0014
  549TMC3    H2 8151   4.002   1.428  12.627 -0.2946 -0.1301 -0.8752
  549TMC3    C7 8152   4.160   1.270  12.740  0.7193 -0.3330 -0.2072
  549TMC3    C8 8153   4.018   1.572  12.410  0.2345 -0.4996  0.1938
  549TMC3    O1 8154   4.055   1.306  12.798  0.5613  0.3303  0.0526
  549TMC3    O2 8155   4.007   1.588  12.288  0.4549 -0.1169  0.1769
  550TMC3    C1 8156   2.965   4.363  12.977  0.6052  0.2094  0.5626
  550TMC3    C2 8157   2.896   4.430  13.078  0.5195  0.1972 -0.9282
  550TMC3    C3 8158   2.825   4.545  13.049 -0.2471  0.4776  0.1377
  550TMC3    C4 8159   2.940   4.393  12.845  0.3128 -0.3117  0.4345
  550TMC3    C5 8160   2.871   4.504  12.812 -0.5565  1.0674 -0.2112
  550TMC3    C6 8161   2.822   4.579  12.915  0.1115  0.6547 -0.8327
  550TMC3     C 8162   3.021   4.244  13.024  0.6192 -0.1442 -0.4575
  550TMC3     O 8163   2.989   4.198  13.133  0.3028  0.1728  0.1174
  550TMC3     H 8164   2.923   4.398  13.178  1.0047 -0.7152 -1.3593
  550TMC3    H1 8165   2.980   4.334  12.763 -0.3954  0.4271 -0.4444
  550TMC3    H2 8166   2.757   4.657  12.878 -2.5671 -0.6588  1.0521
  550TMC3    C7 8167   2.790   4.491  12.695 -0.1289  0.1371  0.1059
  550TMC3    C8 8168   2.693   4.540  13.104 -0.1334 -0.2258  0.0820
  550TMC3    O1 8169   2.769   4.377  12.653 -0.0675  0.5201 -0.1583
  550TMC3    O2 8170   2.613   4.599  13.032  0.6874 -0.0575  0.5284
  551TMC3    C1 8171   0.700   1.833  13.076 -0.1997 -0.2764 -0.1507
  551TMC3    C2 8172   0.750   1.909  12.979  0.2194 -0.9750 -0.1198
  551TMC3    C3 8173   0.782   2.037  13.008 -0.0693 -0.1316  0.5248
  551TMC3    C4 8174   0.695   1.876  13.203 -0.0180 -0.0034  0.0030
  551TMC3    C5 8175   0.740   2.004  13.233  0.4865  0.1722  0.2771
  551TMC3    C6 8176   0.791   2.086  13.134 -0.3833  0.0594  0.1695
  551TMC3     C 8177   0.638   1.710  13.044 -0.5275  0.8048 -0.5302
  551TMC3     O 8178   0.596   1.698  12.927  0.4345 -0.5114 -0.2890
  551TMC3     H 8179   0.737   1.882  12.875  2.1448  2.0769 -1.1336
  551TMC3    H1 8180   0.626   1.823  13.268  0.9682 -0.8208  0.3913
  551TMC3    H2 8181   0.833   2.180  13.168  0.2388 -0.7300  1.5801
  551TMC3    C7 8182   0.778   2.032  13.368  0.4231  0.2992 -0.4123
  551TMC3    C8 8183   0.848   2.112  12.897  0.5759 -0.2639 -0.1162
  551TMC3    O1 8184   0.768   1.939  13.444  0.2631 -0.1414 -0.3840
  551TMC3    O2 8185   0.927   2.050  12.825  0.5891 -0.2203 -0.2165
  552MPD2     C 8186   2.390   3.393  14.364 -0.1538 -0.7832 -0.7318
  552MPD2    C1 8187   2.455   3.334  14.255  0.0542  0.2709 -0.6332
  552MPD2    C2 8188   2.587   3.285  14.277 -0.3086  0.2320 -0.3406
  552MPD2    C3 8189   2.648   3.294  14.402  0.4398 -0.4166 -0.1283
  552MPD2    C4 8190   2.578   3.351  14.501  0.4511 -0.0004 -0.3093
  552MPD2    C5 8191   2.454   3.398  14.485  0.1340  0.0508 -0.1573
  552MPD2     H 8192   2.638   3.236  14.195 -0.0196  0.7590 -0.4782
  552MPD2    H1 8193   2.627   3.361  14.598  0.1686 -0.0736 -0.1573
  552MPD2    H2 8194   2.291   3.435  14.352 -0.2287 -0.6635  0.2862
  552MPD2    H3 8195   2.406   3.456  14.564  1.2739 -0.6526  1.0510
  552MPD2     N 8196   2.784   3.258  14.425 -0.2976  0.4710 -0.1993
  552MPD2    H5 8197   2.819   3.245  14.519 -0.3059 -1.9591 -0.5235
  552MPD2    N1 8198   2.394   3.309  14.126 -0.0494 -0.7876 -0.1386
  552MPD2    H7 8199   2.454   3.266  14.056  0.8439  1.3940 -0.7349
  553TMC3    C1 8200   2.238   3.324  13.952 -0.1947 -0.0592  0.0083
  553TMC3    C2 8201   2.191   3.414  13.864  0.3372 -0.5089 -0.5271
  553TMC3    C3 8202   2.193   3.383  13.727 -0.8770 -0.1568  0.4749
  553TMC3    C4 8203   2.276   3.197  13.913 -0.0090 -0.7628 -0.1832
  553TMC3    C5 8204   2.261   3.166  13.782  0.2012 -0.2641  0.1156
  553TMC3    C6 8205   2.216   3.254  13.689  0.2308 -0.5604 -0.3428
  553TMC3     C 8206   2.273   3.364  14.086  0.3298 -0.4760 -0.6165
  553TMC3     O 8207   2.200   3.441  14.150  0.2723 -0.6504 -0.3152
  553TMC3     H 8208   2.199   3.518  13.892 -1.9755 -0.4406 -0.0721
  553TMC3    H1 8209   2.299   3.124  13.989  0.0445  1.7662  2.2569
  553TMC3    H2 8210   2.218   3.216  13.588 -0.4129  0.8407 -0.8669
  553TMC3    C7 8211   2.296   3.033  13.741  0.2709  0.6134  0.3353
  553TMC3    C8 8212   2.263   3.478  13.644  0.4506 -0.6480 -0.1448
  553TMC3    O1 8213   2.244   2.995  13.638 -0.2423  0.3512 -0.0036
  553TMC3    O2 8214   2.368   3.522  13.692  0.8031 -0.0899  0.1819
  554TMC3    C1 8215   4.395   2.747  11.578 -0.1784  0.2492  0.3091
  554TMC3    C2 8216   4.292   2.718  11.492  0.4945 -0.0956  0.2945
  554TMC3    C3 8217   4.318   2.740  11.362  0.2796 -0.0658  0.4225
  554TMC3    C4 8218   4.513   2.800  11.534 -0.0443 -0.2445  0.4047
  554TMC3    C5 8219   4.526   2.830  11.400  0.0873 -0.3901 -0.3515
  554TMC3    C6 8220   4.433   2.789  11.313  0.6597  0.4364  0.0140
  554TMC3     C 8221   4.396   2.702  11.720 -0.2652  0.3714 -0.4252
  554TMC3     O 8222   4.280   2.689  11.768  0.3371 -0.1098  0.8236
  554TMC3     H 8223   4.199   2.694  11.543  0.4499 -1.5131 -0.4686
  554TMC3    H1 8224   4.583   2.843  11.605 -0.7947  0.7345  0.5594
  554TMC3    H2 8225   4.441   2.791  11.204  0.0785  0.1251 -0.0341
  554TMC3    C7 8226   4.578   2.955  11.355 -0.2250  0.0049 -0.1634
  554TMC3    C8 8227   4.193   2.754  11.283  0.2410 -0.2683  0.1892
  554TMC3    O1 8228   4.603   2.974  11.235 -0.0899  0.0592 -0.1588
  554TMC3    O2 8229   4.205   2.798  11.169 -0.4799  0.2241 -0.1896
  555TMC3    C1 8230   3.475   2.029  15.278 -0.5110 -0.2109  0.5046
  555TMC3    C2 8231   3.462   2.131  15.367 -0.5439  0.5363 -0.3196
  555TMC3    C3 8232   3.504   2.104  15.495  0.6137  0.8606  0.5345
  555TMC3    C4 8233   3.525   1.910  15.315  0.4640 -0.8693 -0.1074
  555TMC3    C5 8234   3.564   1.887  15.440 -0.6101  0.3603  0.1096
  555TMC3    C6 8235   3.555   1.981  15.535 -0.3997 -0.0173 -0.1045
  555TMC3     C 8236   3.468   2.059  15.134  0.7237  0.1279  0.3483
  555TMC3     O 8237   3.523   1.979  15.057  0.1234 -0.1812 -1.2419
  555TMC3     H 8238   3.438   2.231  15.333 -0.1204  0.8796  0.4059
  555TMC3    H1 8239   3.518   1.830  15.242 -0.3749 -0.4782 -0.4564
  555TMC3    H2 8240   3.569   1.953  15.639 -2.0236 -0.8560 -0.1157
  555TMC3    C7 8241   3.599   1.756  15.487  0.7996 -0.2269 -0.0298
  555TMC3    C8 8242   3.506   2.213  15.584 -0.0712  0.0457  0.2240
  555TMC3    O1 8243   3.577   1.726  15.604  0.2054 -0.2171 -0.5150
  555TMC3    O2 8244   3.446   2.315  15.558  0.4000 -0.0178  0.2348
  556MPD2     C 8245   1.163   3.561  10.765  0.4108 -0.1751 -0.7177
  556MPD2    C1 8246   1.270   3.550  10.848  0.6397 -0.3830  0.2810
  556MPD2    C2 8247   1.382   3.479  10.808  0.0327 -0.8685  0.6579
  556MPD2    C3 8248   1.397   3.437  10.677  0.0772  0.2046 -0.0261
  556MPD2    C4 8249   1.295   3.462  10.588 -0.2698 -0.9914  0.2551
  556MPD2    C5 8250   1.177   3.517  10.631 -0.1000 -0.1129  0.4631
  556MPD2     H 8251   1.469   3.478  10.873  1.2700 -0.4372 -0.9905
  556MPD2    H1 8252   1.302   3.427  10.486  3.2856  0.6341 -0.0771
  556MPD2    H2 8253   1.072   3.609  10.800 -0.9648 -1.6948 -2.2180
  556MPD2    H3 8254   1.092   3.520  10.564  1.4629  2.2734 -1.4093
  556MPD2     N 8255   1.514   3.366  10.634 -0.0178  0.0062  0.0618
  556MPD2    H5 8256   1.587   3.351  10.704 -0.0353 -0.2990  0.0166
  556MPD2    N1 8257   1.274   3.617  10.971 -0.1254  0.0345 -0.6399
  556MPD2    H7 8258   1.359   3.599  11.024 -0.8470  0.1247  0.5323
  557TMC3    C1 8259   1.665   3.255  10.482  0.2909 -0.4510  0.2106
  557TMC3    C2 8260   1.727   3.287  10.361 -0.6692  0.1609 -0.3308
  557TMC3    C3 8261   1.740   3.187  10.266 -0.6589  0.3900 -0.7098
  557TMC3    C4 8262   1.634   3.128  10.500  0.8619  0.7266 -0.4814
  557TMC3    C5 8263   1.644   3.033  10.406 -0.0019  0.1425 -0.9946
  557TMC3    C6 8264   1.694   3.060  10.283  0.3896 -0.2100 -0.6227
  557TMC3     C 8265   1.547   3.340  10.501  0.3435 -0.3675 -0.1952
  557TMC3     O 8266   1.481   3.349  10.394  0.2925 -0.0319  0.0543
  557TMC3     H 8267   1.735   3.389  10.326  2.9325 -0.7011 -1.9836
  557TMC3    H1 8268   1.584   3.112  10.595 -0.5928  2.9645 -0.8638
  557TMC3    H2 8269   1.682   2.986  10.205 -0.0386  0.0076 -0.7658
  557TMC3    C7 8270   1.527   2.960  10.406 -0.5326  0.2745  0.0976
  557TMC3    C8 8271   1.743   3.242  10.129 -0.5612 -0.0274 -0.1517
  557TMC3    O1 8272   1.541   2.851  10.352 -0.7439  0.3499 -0.6662
  557TMC3    O2 8273   1.814   3.341  10.111  0.4215 -0.1520 -0.3300
  558TMC3    C1 8274   3.666   2.163  10.651 -0.1661 -0.2913  0.8458
  558TMC3    C2 8275   3.593   2.075  10.733 -0.4500  0.2091  0.1136
  558TMC3    C3 8276   3.453   2.095  10.723 -0.6082 -0.4017  0.5067
  558TMC3    C4 8277   3.611   2.241  10.557  0.5371 -0.1616  0.3254
  558TMC3    C5 8278   3.476   2.240  10.541 -1.0637  0.5209  0.5466
  558TMC3    C6 8279   3.393   2.181  10.634 -0.0103  0.3404  0.0103
  558TMC3     C 8280   3.807   2.139  10.663 -0.6332 -0.7098  0.3313
  558TMC3     O 8281   3.874   2.128  10.564  0.4739 -0.2554  0.0273
  558TMC3     H 8282   3.641   1.991  10.783 -0.6118 -1.2352 -2.1222
  558TMC3    H1 8283   3.679   2.297  10.494 -1.7687  1.8387 -0.4052
  558TMC3    H2 8284   3.285   2.184  10.627 -0.0648 -1.0045  0.2035
  558TMC3    C7 8285   3.418   2.257  10.418  0.7778  0.6214 -0.6890
  558TMC3    C8 8286   3.364   2.010  10.798  0.0731  0.2106 -0.2903
  558TMC3    O1 8287   3.294   2.242  10.413  0.4075 -0.1482  0.5510
  558TMC3    O2 8288   3.259   1.974  10.748  0.0145  0.0062 -0.2213
  559MPD2     C 8289   3.537   2.564  10.683 -0.1351 -0.4895  0.3517
  559MPD2    C1 8290   3.522   2.494  10.797  0.3436 -0.1857  0.4382
  559MPD2    C2 8291   3.631   2.451  10.867  0.4890 -0.1326  0.3520
  559MPD2    C3 8292   3.757   2.495  10.823 -0.2867  0.1424 -0.2982
  559MPD2    C4 8293   3.770   2.579  10.717  0.6365 -0.0616 -0.2270
  559MPD2    C5 8294   3.662   2.603  10.641  0.5995  0.3004 -0.3081
  559MPD2     H 8295   3.611   2.389  10.953  0.3392 -1.6143 -0.7652
  559MPD2    H1 8296   3.863   2.617  10.676 -1.0193  3.2248 -0.9235
  559MPD2    H2 8297   3.453   2.607  10.631 -0.2441 -0.8079  0.2644
  559MPD2    H3 8298   3.675   2.653  10.545  1.0109 -1.3737 -1.1280
  559MPD2     N 8299   3.869   2.448  10.901 -0.0934  0.3048 -0.0134
  559MPD2    H5 8300   3.848   2.396  10.986 -2.6438  1.6780  0.2131
  559MPD2    N1 8301   3.389   2.463  10.835 -0.5308  0.0051  0.1519
  559MPD2    H7 8302   3.314   2.526  10.809  0.6980  1.3277 -0.2236
  560TMC3    C1 8303   4.092   2.420  10.984  0.1797  0.0825 -0.2497
  560TMC3    C2 8304   4.046   2.354  11.093  0.1782 -0.0118 -0.3716
  560TMC3    C3 8305   4.140   2.344  11.190 -0.2926 -0.4666  0.0985
  560TMC3    C4 8306   4.221   2.477  10.974  0.2192 -0.2836  0.0749
  560TMC3    C5 8307   4.308   2.464  11.081 -0.0572 -0.1833 -0.8698
  560TMC3    C6 8308   4.272   2.393  11.191  0.2854  0.3543  0.0056
  560TMC3     C 8309   4.001   2.479  10.883  0.4352  0.1653  0.1571
  560TMC3     O 8310   4.050   2.552  10.797  0.1868  0.0933 -0.4498
  560TMC3     H 8311   3.951   2.301  11.099  0.5116 -0.3436  1.8329
  560TMC3    H1 8312   4.264   2.521  10.884 -2.2823  0.1605 -0.8923
  560TMC3    H2 8313   4.335   2.387  11.278 -0.6210  0.1062  0.6452
  560TMC3    C7 8314   4.438   2.532  11.072 -0.1601  0.4031 -0.3629
  560TMC3    C8 8315   4.100   2.242  11.293  0.5345 -0.6940 -0.2187
  560TMC3    O1 8316   4.447   2.618  10.985 -0.8648  0.2203  0.1870
  560TMC3    O2 8317   3.982   2.208  11.301  0.0475 -0.3140  0.2474
  561TMC3    C1 8318   1.119   1.781  10.595 -0.7489 -0.3164 -0.0264
  561TMC3    C2 8319   0.987   1.746  10.633  0.2302 -0.6939 -0.1057
  561TMC3    C3 8320   0.924   1.814  10.726 -0.0917  0.7414 -0.7628
  561TMC3    C4 8321   1.181   1.893  10.651 -0.3837  0.0872 -0.1138
  561TMC3    C5 8322   1.106   1.968  10.730 -0.4602  0.6755  0.4214
  561TMC3    C6 8323   0.985   1.929  10.770  0.0864  1.0147 -0.4011
  561TMC3     C 8324   1.199   1.667  10.556 -0.9152  0.6426  0.5458
  561TMC3     O 8325   1.165   1.610  10.453  0.8282 -0.2033  0.0039
  561TMC3     H 8326   0.953   1.649  10.600 -1.1145  0.2236 -1.4229
  561TMC3    H1 8327   1.287   1.913  10.634 -0.0409  1.2727  3.4253
  561TMC3    H2 8328   0.921   1.973  10.846 -2.5789 -2.2603 -0.7239
  561TMC3    C7 8329   1.155   2.086  10.808  0.4834  0.4129 -0.0028
  561TMC3    C8 8330   0.847   1.735  10.817 -0.8418  0.5985  0.5987
  561TMC3    O1 8331   1.073   2.136  10.888 -0.3718 -0.1655 -0.1719
  561TMC3    O2 8332   0.774   1.649  10.769 -0.0726 -0.1169  0.1979
  562TMC3    C1 8333   3.543   2.345  16.158  0.2482  0.0848  0.4268
  562TMC3    C2 8334   3.434   2.412  16.117 -0.2805 -0.2848  0.1216
  562TMC3    C3 8335   3.351   2.343  16.036  0.5676 -0.3389  0.2468
  562TMC3    C4 8336   3.583   2.227  16.109 -0.1564  0.1793  0.2548
  562TMC3    C5 8337   3.493   2.163  16.031 -1.3071  0.8189  0.1382
  562TMC3    C6 8338   3.377   2.216  15.989 -0.3001 -0.1039  0.5615
  562TMC3     C 8339   3.602   2.393  16.281 -0.2815 -0.5928 -0.1049
  562TMC3     O 8340   3.718   2.353  16.297 -0.1822 -0.3919  0.0683
  562TMC3     H 8341   3.412   2.510  16.158 -0.7914 -0.6651  0.7337
  562TMC3    H1 8342   3.675   2.178  16.137  0.4470  1.0506 -0.1886
  562TMC3    H2 8343   3.302   2.172  15.925  1.1517 -0.1487 -1.0993
  562TMC3    C7 8344   3.513   2.025  15.987 -0.0450 -0.5167  0.3736
  562TMC3    C8 8345   3.213   2.391  16.058  0.0884  0.2503  0.8597
  562TMC3    O1 8346   3.444   1.988  15.896  0.1053  0.3966 -0.3929
  562TMC3    O2 8347   3.193   2.417  16.175  0.0545 -0.3325 -0.0097
  563MPD2     C 8348   0.566   3.481  16.062  0.5358 -0.4353  0.0092
  563MPD2    C1 8349   0.598   3.609  16.096 -0.0187 -0.1205  0.4449
  563MPD2    C2 8350   0.721   3.643  16.150  0.1772  0.0560  0.7524
  563MPD2    C3 8351   0.811   3.543  16.177  0.8165  0.0159 -0.5711
  563MPD2    C4 8352   0.775   3.411  16.164  0.1453  0.0573 -0.6286
  563MPD2    C5 8353   0.662   3.376  16.091 -1.0535  0.0299  0.2460
  563MPD2     H 8354   0.743   3.747  16.168  3.6273 -0.6072  0.2853
  563MPD2    H1 8355   0.846   3.328  16.168  0.0968 -0.1386 -3.9051
  563MPD2    H2 8356   0.469   3.458  16.019  1.6306 -0.2746 -2.5376
  563MPD2    H3 8357   0.657   3.277  16.047  1.7056 -0.0571  0.1452
  563MPD2     N 8358   0.928   3.577  16.242 -0.2058 -0.3813 -0.7204
  563MPD2    H5 8359   0.937   3.678  16.247 -0.8531 -0.3730  0.2646
  563MPD2    N1 8360   0.491   3.703  16.094  0.3092 -0.6502 -0.2126
  563MPD2    H7 8361   0.397   3.665  16.097 -0.1842  0.5936  0.2574
  564TMC3    C1 8362   0.423   3.877  16.223 -0.6062  0.2984 -0.0254
  564TMC3    C2 8363   0.302   3.810  16.232  0.8331 -0.4425  0.0258
  564TMC3    C3 8364   0.269   3.759  16.354 -1.4192 -0.0519  0.5741
  564TMC3    C4 8365   0.499   3.896  16.339 -0.4333  0.3745  0.4564
  564TMC3    C5 8366   0.458   3.844  16.460 -0.5537  0.5815  0.0182
  564TMC3    C6 8367   0.343   3.774  16.466 -0.4832  0.6357 -0.2611
  564TMC3     C 8368   0.507   3.832  16.114  0.1659  0.5070  0.4855
  564TMC3     O 8369   0.594   3.905  16.075  0.3877  0.2269 -0.3244
  564TMC3     H 8370   0.232   3.806  16.150 -1.8806  1.6221  2.2229
  564TMC3    H1 8371   0.600   3.934  16.325 -0.4444  0.2550  0.0525
  564TMC3    H2 8372   0.309   3.740  16.563  0.3728 -0.4697 -0.3393
  564TMC3    C7 8373   0.562   3.752  16.509 -0.1668 -0.0840 -0.2113
  564TMC3    C8 8374   0.211   3.629  16.355 -1.0863 -0.1331 -0.2481
  564TMC3    O1 8375   0.677   3.791  16.521  0.7185 -0.2761 -0.3523
  564TMC3    O2 8376   0.187   3.569  16.462 -0.2171 -0.8601  0.0985
  565TMC3    C1 8377   1.029   0.705  10.334 -0.7407 -0.1306 -0.2623
  565TMC3    C2 8378   1.024   0.619  10.442  0.5268  0.3672 -0.1345
  565TMC3    C3 8379   0.903   0.563  10.470  0.1368 -0.4531 -0.0490
  565TMC3    C4 8380   0.920   0.741  10.258 -0.1744 -0.0567  0.6084
  565TMC3    C5 8381   0.805   0.687  10.292  0.9291  0.8160  0.4509
  565TMC3    C6 8382   0.787   0.595  10.392  0.7424  1.3591  0.1531
  565TMC3     C 8383   1.149   0.784  10.329  0.2713 -0.4855 -0.1029
  565TMC3     O 8384   1.171   0.837  10.221 -0.2575  0.1856  0.2153
  565TMC3     H 8385   1.109   0.597  10.505 -0.6784  1.8952  2.0551
  565TMC3    H1 8386   0.927   0.800  10.167 -0.2219  0.8966  1.2203
  565TMC3    H2 8387   0.688   0.573  10.431  1.3075  1.6611  1.7751
  565TMC3    C7 8388   0.684   0.722  10.216 -0.6334 -0.6537  0.0423
  565TMC3    C8 8389   0.889   0.433  10.531 -0.1240  1.3149  0.0236
  565TMC3    O1 8390   0.573   0.718  10.270 -0.4207  0.1134  0.2328
  565TMC3    O2 8391   0.978   0.401  10.607  0.1189  0.4640 -0.0385
  566MPD2     C 8392   3.005   1.635  14.126  0.4480 -0.1431  0.2653
  566MPD2    C1 8393   3.037   1.753  14.068 -0.2815 -0.2868 -0.1715
  566MPD2    C2 8394   2.941   1.825  14.000 -0.4815 -0.4761 -0.5388
  566MPD2    C3 8395   2.808   1.781  13.985  0.2925 -0.1453 -0.6294
  566MPD2    C4 8396   2.776   1.659  14.040  0.4891  0.1459  0.1763
  566MPD2    C5 8397   2.878   1.589  14.107 -0.2136  0.0857 -0.1907
  566MPD2     H 8398   2.973   1.921  13.959  1.3006 -0.1164  1.7349
  566MPD2    H1 8399   2.677   1.618  14.022  0.9723 -1.2285  0.5878
  566MPD2    H2 8400   3.071   1.568  14.180  0.5362  0.1272  0.4935
  566MPD2    H3 8401   2.858   1.491  14.149  0.4686  1.5442  3.4923
  566MPD2     N 8402   2.702   1.833  13.904  0.1476 -0.2728 -0.0087
  566MPD2    H5 8403   2.609   1.813  13.940  0.2927 -3.1875 -1.2939
  566MPD2    N1 8404   3.174   1.781  14.079 -0.2386 -0.6130  0.3572
  566MPD2    H7 8405   3.225   1.718  14.140  1.0367  0.7735  0.7082
  567TMC3    C1 8406   3.374   1.907  14.036  0.1809 -0.1961  0.4760
  567TMC3    C2 8407   3.439   2.006  13.973  0.1402 -0.2570  0.6578
  567TMC3    C3 8408   3.574   2.008  13.968  1.0477  0.2440 -0.1551
  567TMC3    C4 8409   3.454   1.812  14.093  0.3055 -0.2648  0.5238
  567TMC3    C5 8410   3.586   1.816  14.092  0.3593 -0.2435 -0.4833
  567TMC3    C6 8411   3.653   1.904  14.013 -0.6050 -0.1688 -0.5112
  567TMC3     C 8412   3.237   1.879  13.998 -0.3953  0.0928 -0.5617
  567TMC3     O 8413   3.192   1.943  13.902 -0.0104 -0.2497 -0.3470
  567TMC3     H 8414   3.380   2.081  13.921  0.8416  0.4032  0.8150
  567TMC3    H1 8415   3.413   1.719  14.132 -0.5568 -0.6493 -1.2853
  567TMC3    H2 8416   3.761   1.904  14.013 -0.5935 -0.7438  1.5476
  567TMC3    C7 8417   3.647   1.797  14.222 -0.2105 -0.3858 -0.2441
  567TMC3    C8 8418   3.640   2.115  13.895  0.0109 -0.7453 -1.1166
  567TMC3    O1 8419   3.767   1.823  14.230  0.0486 -0.3508  0.8082
  567TMC3    O2 8420   3.567   2.143  13.799  0.2336 -0.0298  0.1182
  568MPD2     C 8421   1.125   2.736  16.615  0.0655  0.1159  0.1807
  568MPD2    C1 8422   1.044   2.702  16.719  0.0888 -0.6151  0.3167
  568MPD2    C2 8423   0.908   2.738  16.706 -0.3128 -0.9396 -0.2607
  568MPD2    C3 8424   0.863   2.813  16.597 -0.4297  0.6754  1.1302
  568MPD2    C4 8425   0.952   2.848  16.499  0.0224 -0.2426  0.7937
  568MPD2    C5 8426   1.087   2.815  16.507  0.8532 -0.0995  0.7045
  568MPD2     H 8427   0.841   2.714  16.787  2.0001 -2.4708  1.1857
  568MPD2    H1 8428   0.931   2.893  16.403 -3.0110  0.3131  1.7424
  568MPD2    H2 8429   1.223   2.689  16.616  0.6282  1.2940  0.3636
  568MPD2    H3 8430   1.156   2.856  16.434 -1.3417 -0.8517 -1.8055
  568MPD2     N 8431   0.729   2.848  16.587 -0.1032  0.6679  0.3654
  568MPD2    H5 8432   0.669   2.826  16.666 -0.5425 -0.7211 -0.3585
  568MPD2    N1 8433   1.104   2.630  16.826  0.1999  0.3013 -0.2996
  568MPD2    H7 8434   1.205   2.623  16.822  0.4230  2.4154  1.9466
  569TMC3    C1 8435   0.525   2.913  16.505 -0.6446  0.0171 -1.0015
  569TMC3    C2 8436   0.499   3.012  16.594 -0.1812 -0.0540 -0.2717
  569TMC3    C3 8437   0.367   3.036  16.610 -0.1955 -0.6055 -0.4067
  569TMC3    C4 8438   0.442   2.869  16.408 -0.0822 -0.0407  0.1146
  569TMC3    C5 8439   0.314   2.913  16.416  0.5272 -0.0703  0.3977
  569TMC3    C6 8440   0.273   2.978  16.530  0.1259  0.0161  0.0384
  569TMC3     C 8441   0.664   2.894  16.475  0.4056  0.6942  0.2929
  569TMC3     O 8442   0.708   2.921  16.360  0.1925  0.0726 -0.1868
  569TMC3     H 8443   0.573   3.040  16.669  1.6984 -2.7715 -1.1001
  569TMC3    H1 8444   0.469   2.809  16.321  1.1986  0.1397  0.3856
  569TMC3    H2 8445   0.166   2.992  16.541  0.2799  0.1063  1.3724
  569TMC3    C7 8446   0.279   2.983  16.294 -0.3195 -0.2922 -0.1214
  569TMC3    C8 8447   0.319   3.160  16.672  0.2495  0.1063 -0.4558
  569TMC3    O1 8448   0.328   2.938  16.194 -0.3184  0.3604  0.2096
  569TMC3    O2 8449   0.222   3.198  16.614 -0.0305 -0.0463  0.4431
  570TMC3    C1 8450   0.291   1.964  16.512  0.4326 -0.1856 -0.5688
  570TMC3    C2 8451   0.343   1.970  16.385 -0.3572 -0.7663 -0.9416
  570TMC3    C3 8452   0.361   2.093  16.324  0.2635  0.4668  0.1570
  570TMC3    C4 8453   0.255   2.080  16.578  0.0008 -0.2791  0.5900
  570TMC3    C5 8454   0.262   2.198  16.506 -0.5432 -0.4130  0.2007
  570TMC3    C6 8455   0.322   2.209  16.386 -0.5528 -0.0612 -0.2673
  570TMC3     C 8456   0.282   1.834  16.576 -0.2981  0.0006  0.7007
  570TMC3     O 8457   0.311   1.734  16.518 -0.1766  0.2476  0.2057
  570TMC3     H 8458   0.387   1.881  16.342  0.8228 -0.5337 -0.2148
  570TMC3    H1 8459   0.197   2.079  16.670  1.4941  3.3685  1.5474
  570TMC3    H2 8460   0.335   2.305  16.337  1.5210 -0.4924 -0.6036
  570TMC3    C7 8461   0.181   2.309  16.557  0.0491 -0.4043  0.4810
  570TMC3    C8 8462   0.420   2.115  16.197 -0.1328 -0.4807  0.1578
  570TMC3    O1 8463   0.148   2.299  16.673 -0.0570  0.6431 -0.1060
  570TMC3    O2 8464   0.469   2.224  16.163 -0.1041  0.5733 -0.0186
  571MPD2     C 8465   3.209   2.969  17.634  0.7583 -0.4585  0.1199
  571MPD2    C1 8466   3.087   2.970   0.005 -0.0376 -0.2150  0.2725
  571MPD2    C2 8467   3.054   3.088   0.066 -0.0672 -0.4077  0.0381
  571MPD2    C3 8468   3.133   3.206   0.069  0.0076  0.2534  0.6925
  571MPD2    C4 8469   3.246   3.206  17.687 -0.8840 -0.5041 -1.2114
  571MPD2    C5 8470   3.285   3.083  17.621  0.2769 -0.4808 -0.3400
  571MPD2     H 8471   2.956   3.092   0.112 -0.2900 -1.3299 -0.3440
  571MPD2    H1 8472   3.307   3.295  17.692 -1.3948 -0.3930  3.1417
  571MPD2    H2 8473   3.244   2.875  17.594  2.2011  0.5136 -0.8876
  571MPD2    H3 8474   3.383   3.069  17.578  0.4084  2.2199 -0.9079
  571MPD2     N 8475   3.108   3.326   0.138  0.2747 -0.0616  0.2235
  571MPD2    H5 8476   3.164   3.408   0.118 -1.8538  1.0713 -1.1532
  571MPD2    N1 8477   3.014   2.852   0.019  0.8536 -0.4786 -0.1630
  571MPD2    H7 8478   3.045   2.771  17.661 -0.1032 -0.4615 -0.7578
  572TMC3    C1 8479   2.985   3.459   0.293  0.4677  0.3760 -0.5329
  572TMC3    C2 8480   2.864   3.481   0.347 -0.5415 -0.5248 -0.1846
  572TMC3    C3 8481   2.824   3.611   0.376  0.3778 -0.5116  0.2456
  572TMC3    C4 8482   3.069   3.562   0.285 -0.2277 -0.6049 -0.2148
  572TMC3    C5 8483   3.023   3.693   0.309 -0.1181 -0.5827  0.0833
  572TMC3    C6 8484   2.897   3.718   0.350 -0.2438  0.3197  0.4295
  572TMC3     C 8485   3.018   3.323   0.239  0.5859  0.2053 -0.2204
  572TMC3     O 8486   2.936   3.242   0.274  0.1343  0.2708 -0.9056
  572TMC3     H 8487   2.792   3.405   0.323  0.9589 -1.3259 -2.1520
  572TMC3    H1 8488   3.167   3.543   0.241 -0.7852 -2.0055 -0.8511
  572TMC3    H2 8489   2.856   3.814   0.377 -2.3765 -0.0368 -1.5105
  572TMC3    C7 8490   3.085   3.809   0.246 -0.1550 -0.3973 -0.1123
  572TMC3    C8 8491   2.682   3.623   0.411 -0.6060 -0.4420 -0.4362
  572TMC3    O1 8492   3.007   3.900   0.217  0.0149 -0.1937 -0.5529
  572TMC3    O2 8493   2.600   3.569   0.337 -0.0625 -0.6489 -0.4797
  573MPD2     C 8494   3.802   4.092   1.558  0.3999  0.0957  0.5501
  573MPD2    C1 8495   3.928   4.137   1.552 -0.1776  0.1632 -1.3477
  573MPD2    C2 8496   3.993   4.143   1.431 -0.2907  0.2410  0.3836
  573MPD2    C3 8497   3.927   4.104   1.312 -0.0334 -0.0630  0.1204
  573MPD2    C4 8498   3.797   4.063   1.324  0.2246 -0.1768 -0.1043
  573MPD2    C5 8499   3.735   4.046   1.447 -0.5033  1.0366 -0.1158
  573MPD2     H 8500   4.097   4.173   1.420 -0.7139  1.9099  1.0029
  573MPD2    H1 8501   3.738   4.039   1.236  1.0960  0.4456 -0.8609
  573MPD2    H2 8502   3.748   4.086   1.652 -2.5844 -1.0530 -1.2582
  573MPD2    H3 8503   3.637   4.000   1.458 -1.2182  2.7936  0.8946
  573MPD2     N 8504   3.978   4.127   1.184  0.1488  0.3129 -0.0768
  573MPD2    H5 8505   3.899   4.126   1.120  0.8974  0.2991 -0.9957
  573MPD2    N1 8506   3.977   4.177   1.679  0.2529  0.0152 -0.2822
  573MPD2    H7 8507   3.903   4.184   1.748 -1.0619  0.9933 -1.7860
  574TMC3    C1 8508   4.106   4.212   1.008 -0.2049 -0.3051 -0.3007
  574TMC3    C2 8509   4.017   4.162   0.922  0.2063  0.3092  0.6066
  574TMC3    C3 8510   4.011   4.223   0.802 -0.1283  1.0613 -0.0073
  574TMC3    C4 8511   4.178   4.322   0.978  0.5628 -0.3931  0.3146
  574TMC3    C5 8512   4.161   4.381   0.856  0.4865 -0.0811 -0.3093
  574TMC3    C6 8513   4.076   4.336   0.764  0.7262  0.4136 -0.6546
  574TMC3     C 8514   4.098   4.171   1.146  0.5096  0.0211 -0.0014
  574TMC3     O 8515   4.197   4.182   1.216 -0.4775 -0.5102  0.6476
  574TMC3     H 8516   3.954   4.078   0.949 -2.5087  1.4795 -1.9530
  574TMC3    H1 8517   4.250   4.357   1.051 -0.2605 -0.2758  1.0793
  574TMC3    H2 8518   4.076   4.381   0.665  0.1249  0.6840 -0.5291
  574TMC3    C7 8519   4.210   4.523   0.835  0.1171 -0.5318  0.7014
  574TMC3    C8 8520   3.975   4.138   0.690 -0.5810 -0.0420 -0.5234
  574TMC3    O1 8521   4.184   4.591   0.736  0.4924 -0.4279 -0.3159
  574TMC3    O2 8522   3.975   4.016   0.709 -0.0520 -0.1007 -0.0359
  575TMC3    C1 8523   1.082   4.470  11.027 -0.2347 -0.4788  0.2004
  575TMC3    C2 8524   1.055   4.344  10.983  0.2360 -0.0217 -0.1063
  575TMC3    C3 8525   1.021   4.338  10.847  1.2044 -0.4520  0.1309
  575TMC3    C4 8526   1.068   4.593  10.960 -0.2184  0.1353 -0.9378
  575TMC3    C5 8527   1.024   4.574  10.831  0.3854 -1.1491 -0.4437
  575TMC3    C6 8528   1.001   4.454  10.777  0.2597  1.1505 -0.1083
  575TMC3     C 8529   1.099   4.480  11.175 -0.3404  0.1743  0.4684
  575TMC3     O 8530   1.072   4.372  11.226 -0.8561  0.4579 -0.2457
  575TMC3     H 8531   1.078   4.252  11.035  0.4606  1.1091  1.7771
  575TMC3    H1 8532   1.087   4.692  10.998  1.6787 -0.0021 -1.5624
  575TMC3    H2 8533   0.969   4.455  10.674 -0.7334 -0.4742  0.1816
  575TMC3    C7 8534   0.961   4.683  10.771  0.5347  0.3890 -0.4342
  575TMC3    C8 8535   1.058   4.213  10.776  0.1034  0.1733 -0.1512
  575TMC3    O1 8536   1.011   0.068  10.798 -0.2759 -0.2593  0.1398
  575TMC3    O2 8537   1.136   4.131  10.828  0.0635  0.1589  0.1356
  576MPD2     C 8538   0.797   1.682  12.295 -0.0073 -0.9634  0.0382
  576MPD2    C1 8539   0.832   1.795  12.222 -0.0051  0.0160 -0.2164
  576MPD2    C2 8540   0.800   1.918  12.283 -0.2524  0.4957  0.8850
  576MPD2    C3 8541   0.733   1.932  12.399 -0.1080 -0.2932  0.4874
  576MPD2    C4 8542   0.709   1.811  12.479 -0.4615  0.1349  0.3671
  576MPD2    C5 8543   0.746   1.692  12.425  0.2221  0.2670 -0.1357
  576MPD2     H 8544   0.824   2.014  12.240 -0.4469 -0.5433 -1.5302
  576MPD2    H1 8545   0.663   1.806  12.576  0.9610  0.9519  1.0795
  576MPD2    H2 8546   0.821   1.586  12.252  1.3015 -0.4898 -0.2898
  576MPD2    H3 8547   0.720   1.596  12.469 -2.2373  0.8447 -0.3554
  576MPD2     N 8548   0.702   2.058  12.443  0.1911 -0.0842 -0.8115
  576MPD2    H5 8549   0.708   2.133  12.374  0.9293  0.9337  0.3455
  576MPD2    N1 8550   0.884   1.792  12.086  0.1838 -0.0537  0.3504
  576MPD2    H7 8551   0.908   1.881  12.044 -0.7311 -0.6982 -1.5368
  577TMC3    C1 8552   0.953   1.703  11.877 -0.3376 -0.0984 -0.4868
  577TMC3    C2 8553   0.906   1.629  11.778 -0.5034 -0.0711 -0.6142
  577TMC3    C3 8554   0.948   1.663  11.649 -0.4164  0.5837 -0.0828
  577TMC3    C4 8555   1.046   1.807  11.856 -0.5866 -0.6842 -0.2442
  577TMC3    C5 8556   1.093   1.825  11.730  0.8966  1.0081  0.4618
  577TMC3    C6 8557   1.035   1.763  11.625 -0.3559  0.4752 -0.2012
  577TMC3     C 8558   0.890   1.679  12.002  0.3921  0.6494  0.2538
  577TMC3     O 8559   0.867   1.561  12.016  0.0205 -0.1200  0.0535
  577TMC3     H 8560   0.832   1.550  11.787 -0.3255 -0.3816 -1.8795
  577TMC3    H1 8561   1.088   1.864  11.938 -1.8407  2.3715 -1.7194
  577TMC3    H2 8562   1.087   1.779  11.531  1.1111  1.2263  0.7315
  577TMC3    C7 8563   1.211   1.909  11.713  0.5865 -0.0940 -0.1514
  577TMC3    C8 8564   0.893   1.582  11.536  0.1206  0.0908 -0.0417
  577TMC3    O1 8565   1.292   1.923  11.808  0.3047  0.1142 -0.6373
  577TMC3    O2 8566   0.857   1.466  11.557  0.1953 -0.4128 -0.6681
  578MPD2     C 8567   4.225   2.354   1.122 -0.3608  0.6064 -0.3879
  578MPD2    C1 8568   4.361   2.356   1.107  0.6040 -0.3004  0.8219
  578MPD2    C2 8569   4.448   2.291   1.192  0.4035 -0.3386  0.7866
  578MPD2    C3 8570   4.393   2.202   1.286  0.4987 -0.4603  0.0940
  578MPD2    C4 8571   4.249   2.189   1.300  0.0319  0.1250  0.1732
  578MPD2    C5 8572   4.170   2.264   1.214  0.7872 -0.3981  0.2948
  578MPD2     H 8573   4.555   2.303   1.192  0.3996 -0.2010 -0.5917
  578MPD2    H1 8574   4.203   2.133   1.380 -1.0549  1.6599  0.6205
  578MPD2    H2 8575   4.159   2.413   1.059 -1.7466 -0.2218  0.2631
  578MPD2    H3 8576   4.063   2.245   1.215  1.4051 -3.7197  2.5606
  578MPD2     N 8577   4.482   2.136   1.371  0.1651  0.3555 -0.4153
  578MPD2    H5 8578   4.578   2.166   1.355 -0.4578  2.9526  0.8033
  578MPD2    N1 8579   4.408   2.430   0.988 -0.0896 -0.9474 -0.2151
  578MPD2    H7 8580   4.337   2.490   0.947 -0.8823 -0.4192  1.9551
  579TMC3    C1 8581   4.564   1.975   1.519  0.3967  0.3517  0.0701
  579TMC3    C2 8582   4.671   2.056   1.545  0.2782 -0.3383  0.1772
  579TMC3    C3 8583   0.070   2.001   1.578 -0.2931  0.3314 -0.0015
  579TMC3    C4 8584   4.578   1.840   1.533 -0.3774  0.1101 -0.0328
  579TMC3    C5 8585   4.705   1.785   1.551 -0.3094  0.2955 -0.4794
  579TMC3    C6 8586   0.089   1.864   1.575 -0.7645 -0.3367  0.3980
  579TMC3     C 8587   4.453   2.022   1.440 -0.5350  0.5387 -0.2287
  579TMC3     O 8588   4.349   1.955   1.446 -0.7648 -0.4140 -0.4979
  579TMC3     H 8589   4.660   2.164   1.546 -0.4575 -0.3974 -1.1535
  579TMC3    H1 8590   4.489   1.778   1.531  0.4780 -1.1383  0.1697
  579TMC3    H2 8591   0.190   1.824   1.581 -1.2350 -1.0285  3.7974
  579TMC3    C7 8592   0.007   1.653   1.497  0.0294  0.5766 -0.4120
  579TMC3    C8 8593   0.180   2.089   1.604 -1.2959  0.3943  0.9099
  579TMC3    O1 8594   0.124   1.618   1.516 -0.1000  0.7049  0.1183
  579TMC3    O2 8595   0.159   2.211   1.626  0.1927  0.1358 -0.3903
  580TMC3    C1 8596   3.524   0.796  12.374  0.2591  0.0451  0.3510
  580TMC3    C2 8597   3.507   0.775  12.245 -0.4657  0.6117 -0.5565
  580TMC3    C3 8598   3.573   0.678  12.181  0.0876  0.4020 -0.7760
  580TMC3    C4 8599   3.588   0.701  12.449 -0.2054 -0.0015  0.0205
  580TMC3    C5 8600   3.653   0.598  12.386 -0.5950  0.0640  0.1734
  580TMC3    C6 8601   3.643   0.581  12.251  0.5361 -0.1470  0.3028
  580TMC3     C 8602   3.597   0.924  12.392  0.3254  0.1945  0.2480
  580TMC3     O 8603   3.558   1.014  12.320 -0.2039 -0.4514  0.0419
  580TMC3     H 8604   3.476   0.858  12.182 -1.0389  2.3474  1.9986
  580TMC3    H1 8605   3.607   0.715  12.555 -0.2912  0.0989  0.0225
  580TMC3    H2 8606   3.726   0.530  12.204 -1.3506 -2.8802 -0.0361
  580TMC3    C7 8607   3.731   0.501  12.458  0.1365 -0.4168  0.0832
  580TMC3    C8 8608   3.641   0.707  12.059 -0.1976 -0.3910  0.7361
  580TMC3    O1 8609   3.761   0.542  12.569  0.2148 -0.4004 -0.6081
  580TMC3    O2 8610   3.559   0.751  11.980  0.3848 -0.1192 -0.2206
  581MPD2     C 8611   1.877   1.118  15.558 -0.4211 -0.5191  0.1344
  581MPD2    C1 8612   1.918   1.037  15.453  1.0634  0.5709  0.2360
  581MPD2    C2 8613   1.830   1.009  15.350 -0.0839 -0.4981  0.7203
  581MPD2    C3 8614   1.700   1.055  15.359  0.0035 -0.6165 -0.8980
  581MPD2    C4 8615   1.663   1.129  15.467 -0.2080  0.0951 -1.5151
  581MPD2    C5 8616   1.753   1.170  15.563 -0.0461 -0.2705 -0.5779
  581MPD2     H 8617   1.852   0.943  15.267  0.7667  0.8135 -0.1029
  581MPD2    H1 8618   1.560   1.162  15.474 -0.3146 -0.5681  0.1601
  581MPD2    H2 8619   1.950   1.132  15.637 -0.7857 -0.4043  0.4488
  581MPD2    H3 8620   1.726   1.219  15.656  1.3182 -2.1313  0.8100
  581MPD2     N 8621   1.611   1.012  15.253 -0.1143  0.0596 -0.2242
  581MPD2    H5 8622   1.653   0.975  15.168 -1.8573 -1.2572 -0.5175
  581MPD2    N1 8623   2.052   0.983  15.466  0.3768  0.6756  0.7169
  581MPD2    H7 8624   2.103   1.017  15.547  1.9889  1.8416 -0.7842
  582TMC3    C1 8625   2.208   0.817  15.439 -0.2903 -0.3367  0.0233
  582TMC3    C2 8626   2.186   0.785  15.577  0.1569 -0.2301 -0.4709
  582TMC3    C3 8627   2.199   0.653  15.615  0.1097  0.0023  0.6219
  582TMC3    C4 8628   2.264   0.724  15.359 -0.5498 -0.0784 -0.0064
  582TMC3    C5 8629   2.274   0.594  15.392 -0.0974  0.3909  0.0706
  582TMC3    C6 8630   2.250   0.558  15.528 -0.3084 -0.0016 -0.0659
  582TMC3     C 8631   2.111   0.903  15.376  0.4237  0.2473 -0.0229
  582TMC3     O 8632   2.085   0.866  15.263  0.3579  0.0034 -0.2681
  582TMC3     H 8633   2.147   0.858  15.646  1.2626 -0.7013  0.6526
  582TMC3    H1 8634   2.289   0.760  15.260  1.1260  1.1107  0.8327
  582TMC3    H2 8635   2.263   0.454  15.557  0.7687  0.0267 -0.4455
  582TMC3    C7 8636   2.216   0.507  15.289 -0.2042  0.7984 -0.6967
  582TMC3    C8 8637   2.133   0.621  15.745 -0.7270  0.1521  0.3837
  582TMC3    O1 8638   2.222   0.388  15.320 -0.0428  0.0225  0.7398
  582TMC3    O2 8639   2.051   0.703  15.783  0.4089  0.1525  0.4903
  583MPD2     C 8640   1.929   1.877  17.047 -1.0211 -0.1548 -0.0901
  583MPD2    C1 8641   1.880   1.995  16.984  1.0089 -0.5774  0.2391
  583MPD2    C2 8642   1.828   2.086  17.071  0.0828 -0.3861 -0.4298
  583MPD2    C3 8643   1.849   2.080  17.211 -0.3341 -0.3072 -0.1136
  583MPD2    C4 8644   1.904   1.967  17.267 -0.0118  0.0652  0.1511
  583MPD2    C5 8645   1.941   1.868  17.180  0.0213  0.3223  0.0822
  583MPD2     H 8646   1.779   2.173  17.031 -1.1935 -0.1769  1.5704
  583MPD2    H1 8647   1.941   1.950  17.367 -1.3999  0.1437  0.6687
  583MPD2    H2 8648   1.966   1.793  16.989 -0.0257  0.8319 -0.8872
  583MPD2    H3 8649   1.976   1.778  17.228 -0.8237  0.2299  0.5277
  583MPD2     N 8650   1.803   2.184  17.290 -0.2696  0.6451  0.2595
  583MPD2    H5 8651   1.761   2.266  17.249  0.6768  0.2429 -1.5100
  583MPD2    N1 8652   1.893   2.019  16.845 -0.3300  0.2358  0.3431
  583MPD2    H7 8653   1.877   2.112  16.807 -1.8982 -0.7813 -1.5150
  584TMC3    C1 8654   1.757   2.307  17.489  0.1619  0.4611  0.8709
  584TMC3    C2 8655   1.752   2.429  17.427 -0.7611 -0.0904 -0.0336
  584TMC3    C3 8656   1.731   2.536  17.506 -0.0365 -0.0677  0.1935
  584TMC3    C4 8657   1.735   2.293  17.623 -0.2346 -0.6188 -0.1866
  584TMC3    C5 8658   1.707   2.406  17.693  0.0869 -0.1966 -0.1613
  584TMC3    C6 8659   1.717   2.536  17.637 -0.4172 -0.8651  0.1962
  584TMC3     C 8660   1.811   2.193  17.426  0.2635  0.4167 -0.9989
  584TMC3     O 8661   1.847   2.099  17.499  0.0388 -0.1697 -0.2966
  584TMC3     H 8662   1.771   2.447  17.322 -2.3005 -1.3870 -0.5480
  584TMC3    H1 8663   1.736   2.194  17.666 -1.0684 -0.2437  0.6893
  584TMC3    H2 8664   1.688   2.625  17.693  0.6850 -0.2046 -0.2769
  584TMC3    C7 8665   1.675   2.408   0.141  0.0618  0.4168  0.2839
  584TMC3    C8 8666   1.739   2.658  17.435 -0.2460 -0.1287  0.8040
  584TMC3    O1 8667   1.629   2.308   0.187 -0.4063 -0.0710  0.2840
  584TMC3    O2 8668   1.694   2.662  17.319 -0.2142  0.3219 -0.2407
  585MPD2     C 8669   1.582   1.322   0.927 -0.5452  0.0944  0.1910
  585MPD2    C1 8670   1.577   1.340   0.787  0.4186  0.1805 -0.5976
  585MPD2    C2 8671   1.538   1.235   0.712 -0.6800  0.0041  0.4434
  585MPD2    C3 8672   1.482   1.121   0.769  0.0692 -0.6348 -0.6984
  585MPD2    C4 8673   1.489   1.109   0.903  0.0653 -0.0771  1.3125
  585MPD2    C5 8674   1.537   1.208   0.985  0.3744  0.6127  0.4770
  585MPD2     H 8675   1.532   1.237   0.604 -1.1023  0.2657  0.4717
  585MPD2    H1 8676   1.461   1.015   0.949 -1.2808 -0.3791 -0.1075
  585MPD2    H2 8677   1.626   1.389   1.000 -1.7851  1.8976 -0.6939
  585MPD2    H3 8678   1.548   1.185   1.090 -1.2431 -1.7117  0.1369
  585MPD2     N 8679   1.428   1.020   0.687 -0.1615 -0.0500 -0.1725
  585MPD2    H5 8680   1.454   1.019   0.589  2.0661 -3.7913  0.4363
  585MPD2    N1 8681   1.624   1.460   0.737  0.6718  0.1279  0.2443
  585MPD2    H7 8682   1.631   1.531   0.809 -1.5787  1.8677 -1.2407
  586TMC3    C1 8683   1.261   0.869   0.617  0.3055  0.0921 -0.0036
  586TMC3    C2 8684   1.347   0.826   0.516  0.4004  0.6530 -0.3729
  586TMC3    C3 8685   1.303   0.825   0.389  0.6665  0.1393 -0.2413
  586TMC3    C4 8686   1.137   0.916   0.591 -0.0015  0.0415  0.3847
  586TMC3    C5 8687   1.101   0.918   0.460 -0.2406 -0.5241 -0.5719
  586TMC3    C6 8688   1.181   0.874   0.355 -0.0544  0.8487 -0.4882
  586TMC3     C 8689   1.332   0.933   0.731  0.1202  0.1858  0.0466
  586TMC3     O 8690   1.260   0.945   0.832 -0.3859 -0.5163 -0.4818
  586TMC3     H 8691   1.448   0.799   0.544  0.3468  1.0639  0.2188
  586TMC3    H1 8692   1.078   0.969   0.665  0.9365  1.2923  0.2335
  586TMC3    H2 8693   1.138   0.871   0.255 -0.7905 -1.6981 -0.1006
  586TMC3    C7 8694   0.995   1.013   0.428  0.0047  0.3300  0.0263
  586TMC3    C8 8695   1.392   0.763   0.292  0.2365  0.6718  0.0334
  586TMC3    O1 8696   0.895   1.021   0.503 -0.5194  0.1956 -0.3547
  586TMC3    O2 8697   1.468   0.673   0.340 -0.1379 -0.5240 -0.0688
  587TMC3    C1 8698   3.259   3.917  16.097  0.0311 -0.6653 -0.0600
  587TMC3    C2 8699   3.232   4.040  16.152  0.1851  0.5883  0.8761
  587TMC3    C3 8700   3.331   4.137  16.164  0.4888  0.8247  0.3006
  587TMC3    C4 8701   3.389   3.893  16.054  0.2904 -0.8106  0.8101
  587TMC3    C5 8702   3.490   3.990  16.069  0.0470  0.2486  0.0867
  587TMC3    C6 8703   3.458   4.114  16.124 -0.2094 -0.0291 -0.2218
  587TMC3     C 8704   3.175   3.808  16.132 -0.5172 -0.3475 -0.4463
  587TMC3     O 8705   3.180   3.705  16.070  0.5378  0.3213  0.0766
  587TMC3     H 8706   3.132   4.072  16.181 -0.5244 -0.8628 -0.0033
  587TMC3    H1 8707   3.408   3.793  16.019 -1.2683 -0.1019 -2.0937
  587TMC3    H2 8708   3.540   4.181  16.146 -1.7520  1.4485  0.9898
  587TMC3    C7 8709   3.610   3.976  15.990 -0.1722 -0.0261  0.0380
  587TMC3    C8 8710   3.291   4.257  16.220  0.0876  0.1523 -0.3935
  587TMC3    O1 8711   3.647   3.863  15.962  0.2237 -0.0577 -0.3262
  587TMC3    O2 8712   3.170   4.279  16.241  0.0360  0.4122  0.3227
  588TMC3    C1 8713   0.320   2.457   9.681  0.2252  0.1750  0.3812
  588TMC3    C2 8714   0.242   2.351   9.696  0.2729  0.8930  0.7601
  588TMC3    C3 8715   0.307   2.237   9.748 -0.3300  0.1112  0.1204
  588TMC3    C4 8716   0.444   2.472   9.729  0.4060 -0.1242  0.4360
  588TMC3    C5 8717   0.502   2.366   9.784 -0.0726  0.4544 -0.7246
  588TMC3    C6 8718   0.437   2.239   9.785  0.8911  0.1985  0.5807
  588TMC3     C 8719   0.252   2.585   9.669 -0.1452 -0.1651 -0.0172
  588TMC3     O 8720   0.156   2.596   9.594 -0.1419 -0.6132 -0.0088
  588TMC3     H 8721   0.136   2.348   9.676  0.6299  0.0268 -1.0042
  588TMC3    H1 8722   0.510   2.548   9.688  1.4135 -0.2644  1.7891
  588TMC3    H2 8723   0.489   2.161   9.839 -0.3299 -1.7489 -1.0478
  588TMC3    C7 8724   0.602   2.390   9.884 -0.1115  1.1252 -0.4828
  588TMC3    C8 8725   0.214   2.125   9.774 -0.6742 -0.0625  0.0708
  588TMC3    O1 8726   0.629   2.285   9.948 -0.2148  0.0474  0.7770
  588TMC3    O2 8727   0.093   2.140   9.762 -0.3935  0.3503 -0.2978
  589TMC3    C1 8728   0.185   0.170   1.505  0.5858  0.2637 -0.8872
  589TMC3    C2 8729   0.240   0.191   1.635  0.2975  0.3340 -0.0575
  589TMC3    C3 8730   0.362   0.137   1.662 -0.2827 -0.5939  0.7928
  589TMC3    C4 8731   0.248   0.082   1.420  0.2784 -0.8562 -0.4929
  589TMC3    C5 8732   0.368   0.027   1.455  1.1331  0.5286  0.5506
  589TMC3    C6 8733   0.423   0.044   1.582  0.8489 -1.2469 -0.3046
  589TMC3     C 8734   0.073   0.247   1.450  0.3016 -1.0379 -0.1700
  589TMC3     O 8735   0.036   0.204   1.343 -0.5929 -0.1725 -0.5206
  589TMC3     H 8736   0.180   0.248   1.705  0.6227  1.6492 -0.8475
  589TMC3    H1 8737   0.209   0.071   1.319 -0.8046 -1.0407 -0.0599
  589TMC3    H2 8738   0.519   4.722   1.604  2.5087  2.2496 -0.4076
  589TMC3    C7 8739   0.412   4.640   1.371  0.5631  0.7154 -0.1406
  589TMC3    C8 8740   0.441   0.199   1.768 -0.3546  0.8472 -0.3566
  589TMC3    O1 8741   0.324   4.581   1.307 -0.1472  0.0471  0.0060
  589TMC3    O2 8742   0.374   0.272   1.840 -0.3579  0.4358  0.2946
  590MPD2     C 8743   4.070   3.093  16.351 -0.1283 -0.0897 -0.5754
  590MPD2    C1 8744   4.006   3.063  16.235 -0.5644  0.8802  0.2500
  590MPD2    C2 8745   4.071   3.055  16.110 -0.3251  0.1820 -0.1565
  590MPD2    C3 8746   4.207   3.086  16.106 -0.1378  0.7935  0.0012
  590MPD2    C4 8747   4.274   3.108  16.224 -0.1656 -0.0825 -0.5344
  590MPD2    C5 8748   4.205   3.110  16.343  1.1230 -0.3838 -0.3390
  590MPD2     H 8749   4.016   3.027  16.020  1.4782  0.3890 -1.3087
  590MPD2    H1 8750   4.379   3.129  16.234 -0.2951 -0.8387  2.6810
  590MPD2    H2 8751   4.020   3.101  16.447 -0.6817 -0.3911 -0.8451
  590MPD2    H3 8752   4.265   3.144  16.426 -2.5929  1.0593  1.7598
  590MPD2     N 8753   4.264   3.112  15.983 -0.4409 -0.0586 -0.5078
  590MPD2    H5 8754   4.198   3.096  15.907 -1.6264  1.1862  0.2481
  590MPD2    N1 8755   3.866   3.029  16.254 -0.2143  0.1326 -0.0687
  590MPD2    H7 8756   3.837   3.016  16.351 -1.2016  3.1023  0.0326
  591TMC3    C1 8757   4.421   3.190  15.818 -0.5179 -0.7592  0.1060
  591TMC3    C2 8758   4.551   3.230  15.801  0.0938  0.0023  0.2469
  591TMC3    C3 8759   4.591   3.300  15.691  0.0045  0.7420  0.8384
  591TMC3    C4 8760   4.325   3.218  15.717  0.4814 -0.4447  0.1093
  591TMC3    C5 8761   4.376   3.277  15.608  0.4251 -0.7117 -0.0992
  591TMC3    C6 8762   4.504   3.329  15.595  0.2534  1.1504  0.7718
  591TMC3     C 8763   4.394   3.162  15.960 -0.2582 -0.0555 -0.1895
  591TMC3     O 8764   4.477   3.200  16.039  0.3214  0.0022  0.5827
  591TMC3     H 8765   4.618   3.190  15.876  0.5611 -0.6795 -0.5374
  591TMC3    H1 8766   4.221   3.191  15.734  0.4483 -0.3238  0.1000
  591TMC3    H2 8767   4.537   3.367  15.499 -2.1915 -2.4913 -1.5012
  591TMC3    C7 8768   4.289   3.320  15.502 -0.2296 -0.4864 -0.4745
  591TMC3    C8 8769   0.007   3.307  15.667  0.1032  0.5653 -0.2498
  591TMC3    O1 8770   4.187   3.248  15.487  0.2011  0.1244 -0.6427
  591TMC3    O2 8771   0.070   3.207  15.703  0.7265 -0.6237  0.2160
  592MPD2     C 8772   4.599   0.372  11.258 -0.1528  0.1087 -0.0137
  592MPD2    C1 8773   4.616   0.431  11.380 -0.5873  0.0530  0.2792
  592MPD2    C2 8774   4.530   0.403  11.487  1.0137  0.7652 -0.2898
  592MPD2    C3 8775   4.438   0.296  11.468  0.7634  0.1970  0.3857
  592MPD2    C4 8776   4.433   0.230  11.351  0.0293 -0.1823  0.6849
  592MPD2    C5 8777   4.511   0.268  11.244 -0.2403  0.1444  0.2467
  592MPD2     H 8778   4.531   0.466  11.575  4.3927  0.7682 -0.3208
  592MPD2    H1 8779   4.356   0.158  11.325 -0.5869  0.5288  0.5541
  592MPD2    H2 8780   4.656   0.414  11.176 -0.4385  1.1673  0.3209
  592MPD2    H3 8781   4.497   0.213  11.151  3.3585  1.8546 -1.2795
  592MPD2     N 8782   4.361   0.269  11.585 -0.5606  0.1928 -0.1212
  592MPD2    H5 8783   4.378   0.330  11.664  1.3400 -1.2068  0.5475
  592MPD2    N1 8784   4.703   0.533  11.384 -0.0302  0.2939 -0.1169
  592MPD2    H7 8785   0.025   0.554  11.295  0.6786  0.0207  0.1786
  593TMC3    C1 8786   0.099   0.713  11.469 -0.0268  0.4399  0.2600
  593TMC3    C2 8787   0.177   0.755  11.571 -0.6175  0.1323 -1.0878
  593TMC3    C3 8788   0.244   0.876  11.554  0.5523 -0.3575  0.4038
  593TMC3    C4 8789   0.090   0.775  11.348  0.0057  0.8802 -0.0774
  593TMC3    C5 8790   0.176   0.885  11.330  0.9921 -0.3950  0.1325
  593TMC3    C6 8791   0.249   0.935  11.429 -0.1074 -0.0717 -0.2220
  593TMC3     C 8792   0.016   0.603  11.495 -0.1323 -0.2060 -0.4642
  593TMC3     O 8793   0.012   0.570  11.614 -0.1219  0.7439 -0.0101
  593TMC3     H 8794   0.188   0.713  11.670  0.3364  0.6123 -0.9857
  593TMC3    H1 8795   0.032   0.735  11.265 -0.4766 -1.4636  1.3660
  593TMC3    H2 8796   0.324   1.013  11.420  2.0040 -2.1276 -0.3434
  593TMC3    C7 8797   0.200   0.944  11.195 -0.9263  0.0749  0.4880
  593TMC3    C8 8798   0.319   0.951  11.657 -0.2263 -0.8300 -0.4389
  593TMC3    O1 8799   0.291   1.030  11.182  0.1309  0.3633  0.0172
  593TMC3    O2 8800   0.323   1.071  11.643 -0.8758  0.0476  0.4358
  594MPD2     C 8801   3.346   3.536  13.953 -0.3986  0.5795  0.2611
  594MPD2    C1 8802   3.390   3.498  14.081  0.7156  0.3797  0.5081
  594MPD2    C2 8803   3.495   3.568  14.133 -1.0067 -0.1421 -0.6905
  594MPD2    C3 8804   3.555   3.674  14.072 -0.2616  0.0442  0.3355
  594MPD2    C4 8805   3.519   3.716  13.947 -0.5593  0.7301  0.3025
  594MPD2    C5 8806   3.412   3.645  13.892  0.5039 -0.2175 -0.1240
  594MPD2     H 8807   3.522   3.547  14.236 -1.3652 -0.6954 -0.7071
  594MPD2    H1 8808   3.566   3.799  13.896  0.7935  1.1417  2.2558
  594MPD2    H2 8809   3.262   3.488  13.904  0.1692  1.5796 -1.7242
  594MPD2    H3 8810   3.370   3.670  13.795 -0.9353  0.4873  0.6971
  594MPD2     N 8811   3.650   3.745  14.144  0.3603  0.5368  0.0429
  594MPD2    H5 8812   3.646   3.741  14.245  2.2600  0.3181  0.1104
  594MPD2    N1 8813   3.322   3.388  14.148  0.9789  0.0412 -0.6489
  594MPD2    H7 8814   3.247   3.340  14.099  1.4795 -1.3503 -0.0523
  595TMC3    C1 8815   4.031   3.995  14.230 -0.5143  0.0181 -0.2589
  595TMC3    C2 8816   3.966   3.900  14.158 -0.3824 -0.1456 -0.5241
  595TMC3    C3 8817   3.841   3.868  14.190  0.0600 -0.1016  0.0536
  595TMC3    C4 8818   3.985   4.049  14.338  0.2216 -0.2067 -0.3781
  595TMC3    C5 8819   3.855   4.020  14.370 -0.4250 -0.2326  0.6689
  595TMC3    C6 8820   3.783   3.929  14.294  0.2481  0.0267  0.7425
  595TMC3     C 8821   4.151   4.053  14.179  0.0774 -0.0423 -0.1177
  595TMC3     O 8822   4.174   4.172  14.218 -0.0597  0.2671 -0.1516
  595TMC3     H 8823   3.999   3.855  14.065 -1.7578  1.4708 -1.7955
  595TMC3    H1 8824   4.037   4.130  14.388  0.2356  0.8177 -2.0697
  595TMC3    H2 8825   3.676   3.923  14.313  0.0385  0.5519 -0.2546
  595TMC3    C7 8826   3.779   4.119  14.439  0.3638  0.8129  0.0341
  595TMC3    C8 8827   3.761   3.794  14.089  0.1549 -0.0504 -0.0074
  595TMC3    O1 8828   3.668   4.147  14.401  0.0924 -0.0095 -0.2994
  595TMC3    O2 8829   3.794   3.799  13.970 -0.3814  0.2487  0.2406
  596MPD2     C 8830   2.734   1.631  16.898  0.1839 -0.2421  0.1089
  596MPD2    C1 8831   2.744   1.761  16.849 -0.4480 -0.4320 -0.0560
  596MPD2    C2 8832   2.734   1.781  16.718 -0.4358  0.1536  0.6655
  596MPD2    C3 8833   2.699   1.676  16.631  0.3016  0.2343 -0.0135
  596MPD2    C4 8834   2.680   1.545  16.687 -0.4202  1.1014 -0.3939
  596MPD2    C5 8835   2.710   1.520  16.815 -0.5750 -0.1096 -0.0470
  596MPD2     H 8836   2.755   1.881  16.683  2.1027 -1.4306 -2.3990
  596MPD2    H1 8837   2.663   1.462  16.620  2.5203 -0.1238  0.3788
  596MPD2    H2 8838   2.740   1.601  17.002  0.1820  2.9648  1.0240
  596MPD2    H3 8839   2.700   1.420  16.854  1.9805 -0.1939  0.3555
  596MPD2     N 8840   2.677   1.689  16.488  0.4735 -0.0934  0.2213
  596MPD2    H5 8841   2.652   1.608  16.432 -1.7799  0.8037 -0.0719
  596MPD2    N1 8842   2.751   1.875  16.930 -0.1829 -0.0124  0.3200
  596MPD2    H7 8843   2.772   1.962  16.882  0.2578 -0.8505 -1.0323
  597TMC3    C1 8844   2.714   2.015  17.108  0.6745  0.7722  0.3044
  597TMC3    C2 8845   2.797   2.117  17.057  0.4575  0.2193 -0.2024
  597TMC3    C3 8846   2.764   2.247  17.084  0.1361 -0.2288  0.5826
  597TMC3    C4 8847   2.609   2.046  17.200  0.3099 -0.3184  0.2324
  597TMC3    C5 8848   2.581   2.180  17.217 -0.4346 -0.5632 -0.0106
  597TMC3    C6 8849   2.648   2.280  17.156  0.1292 -0.7349  1.2939
  597TMC3     C 8850   2.727   1.877  17.066  0.2989 -0.3987  0.3452
  597TMC3     O 8851   2.677   1.788  17.138 -0.0124 -0.1655 -0.1403
  597TMC3     H 8852   2.889   2.087  17.008  1.8080 -0.3341  2.6201
  597TMC3    H1 8853   2.539   1.972  17.235 -1.8021  0.9812 -1.2116
  597TMC3    H2 8854   2.622   2.380  17.188  2.0671 -0.4966  2.0742
  597TMC3    C7 8855   2.481   2.204  17.316  0.1331  0.6207  0.5372
  597TMC3    C8 8856   2.850   2.357  17.043 -0.0371  0.2940 -0.2947
  597TMC3    O1 8857   2.448   2.104  17.380  0.2082 -0.1935  0.5271
  597TMC3    O2 8858   2.860   2.448  17.121  0.8315 -0.5882  0.1018
  598TMC3    C1 8859   0.670   3.851  15.240  0.1455  0.1952  0.1133
  598TMC3    C2 8860   0.571   3.762  15.207  0.1477 -0.3331 -0.0424
  598TMC3    C3 8861   0.522   3.775  15.078  0.2292 -0.1021 -0.0563
  598TMC3    C4 8862   0.707   3.961  15.164  0.3650  0.2643  0.3413
  598TMC3    C5 8863   0.641   3.979  15.044 -0.6847 -0.4368  0.3237
  598TMC3    C6 8864   0.554   3.883  14.995 -0.9053  0.5077  0.3834
  598TMC3     C 8865   0.710   3.858  15.376 -1.0494  0.2298 -0.4808
  598TMC3     O 8866   0.733   3.970  15.424 -0.0575  0.6726 -0.3203
  598TMC3     H 8867   0.537   3.680  15.270  0.8978  0.1634  1.0156
  598TMC3    H1 8868   0.779   4.028  15.210 -0.1176  1.8419 -1.2083
  598TMC3    H2 8869   0.512   3.893  14.895  1.3613 -2.1148 -0.8526
  598TMC3    C7 8870   0.727   4.028  14.942 -0.0830  0.1693 -0.2559
  598TMC3    C8 8871   0.447   3.667  15.017 -0.0539  0.2191  0.1516
  598TMC3    O1 8872   0.691   4.016  14.824 -0.5827  0.2829 -0.4890
  598TMC3    O2 8873   0.449   3.667  14.895  0.3589 -0.9999  0.4536
  599MPD2     C 8874   0.995   1.381  16.207 -0.3084 -0.0683 -0.9253
  599MPD2    C1 8875   0.975   1.311  16.322  0.6880 -0.2296 -0.1398
  599MPD2    C2 8876   0.882   1.363  16.407  0.2100 -0.1386 -0.5793
  599MPD2    C3 8877   0.809   1.479  16.387 -0.0813 -0.3221  0.6787
  599MPD2    C4 8878   0.847   1.549  16.277 -0.3252  0.1598 -0.1107
  599MPD2    C5 8879   0.934   1.505  16.184  0.1133  0.1800  0.4449
  599MPD2     H 8880   0.859   1.311  16.500 -0.1747 -0.8891 -1.0847
  599MPD2    H1 8881   0.801   1.640  16.240 -1.8153 -0.6942 -0.3754
  599MPD2    H2 8882   1.063   1.341  16.133  0.6727  0.3356 -0.2432
  599MPD2    H3 8883   0.958   1.571  16.102  0.3359  0.0773  0.4280
  599MPD2     N 8884   0.729   1.543  16.489  0.6331 -0.6819  0.7782
  599MPD2    H5 8885   0.693   1.634  16.464 -0.4474 -1.1349  0.7073
  599MPD2    N1 8886   1.051   1.195  16.337  0.5468 -0.2771 -0.0163
  599MPD2    H7 8887   1.097   1.159  16.254  3.1830  0.2432  1.2479
  600TMC3    C1 8888   0.626   1.566  16.702  0.4567  0.0918 -0.6622
  600TMC3    C2 8889   0.568   1.499  16.803  0.5859  0.9573  0.3384
  600TMC3    C3 8890   0.504   1.569  16.904  0.2022 -0.5881  0.5693
  600TMC3    C4 8891   0.619   1.700  16.695  1.2894  0.2459  0.4027
  600TMC3    C5 8892   0.565   1.770  16.802  0.3210  0.6382  0.1708
  600TMC3    C6 8893   0.508   1.707  16.907  0.2212 -0.7969  0.4795
  600TMC3     C 8894   0.684   1.478  16.607  0.2134  0.2878  0.2879
  600TMC3     O 8895   0.668   1.356  16.621 -0.6623 -0.2150 -0.3647
  600TMC3     H 8896   0.582   1.392  16.810  0.4564  0.8806 -0.5762
  600TMC3    H1 8897   0.637   1.756  16.604 -1.6006  2.0270  0.9250
  600TMC3    H2 8898   0.472   1.755  16.998 -0.1280 -0.0235 -0.0645
  600TMC3    C7 8899   0.555   1.916  16.803 -0.9659 -0.0174  0.3363
  600TMC3    C8 8900   0.479   1.494  17.026 -0.1514  0.4111  0.3601
  600TMC3    O1 8901   0.474   1.961  16.885 -0.5394 -0.1649  0.5478
  600TMC3    O2 8902   0.509   1.540  17.132  0.5937 -0.7474 -0.0872
  601MPD2     C 8903   3.483   4.051   0.037  0.5150 -0.3236  0.5556
  601MPD2    C1 8904   3.350   4.091   0.036  0.0088 -0.3024  0.1758
  601MPD2    C2 8905   3.262   4.003   0.098  0.1432  0.1492  0.6968
  601MPD2    C3 8906   3.310   3.893   0.170  0.3659 -1.1197 -0.5785
  601MPD2    C4 8907   3.443   3.870   0.195  0.2977 -0.2629  0.6036
  601MPD2    C5 8908   3.525   3.953   0.123  0.1204 -0.4089  0.5843
  601MPD2     H 8909   3.156   4.025   0.103 -0.5429 -3.1102  0.6923
  601MPD2    H1 8910   3.485   3.792   0.258 -2.4817 -0.5034  2.1252
  601MPD2    H2 8911   3.563   4.114   0.002 -0.2881  0.1381 -0.4304
  601MPD2    H3 8912   3.633   3.949   0.125  0.0795  0.1587  3.4742
  601MPD2     N 8913   3.223   3.803   0.236  0.1297 -0.3267 -0.0808
  601MPD2    H5 8914   3.261   3.729   0.295  2.8132 -0.8571 -2.4831
  601MPD2    N1 8915   3.302   4.207  17.654  0.1128  0.1718  0.2879
  601MPD2    H7 8916   3.203   4.224  17.644 -0.3590 -2.6091  0.2208
  602TMC3    C1 8917   3.315   4.386  17.487  0.2125  0.1685  0.1770
  602TMC3    C2 8918   3.368   4.393  17.359  0.9299 -0.2112 -0.6688
  602TMC3    C3 8919   3.282   4.449  17.267 -0.4327  0.4014 -0.5753
  602TMC3    C4 8920   3.190   4.433  17.519 -0.3890  0.0573 -0.5430
  602TMC3    C5 8921   3.116   4.498  17.423  1.0661  0.4218 -0.3231
  602TMC3    C6 8922   3.165   4.503  17.297 -0.9162 -0.5868 -0.4539
  602TMC3     C 8923   3.384   4.289  17.576  0.0671 -0.3579  0.1360
  602TMC3     O 8924   3.507   4.290  17.575 -0.0069  0.2006 -0.2662
  602TMC3     H 8925   3.458   4.341  17.329  0.5295 -0.7321 -0.9621
  602TMC3    H1 8926   3.146   4.409  17.615 -0.3259  0.6966 -0.3577
  602TMC3    H2 8927   3.112   4.570  17.231  0.6087  0.4420 -0.6323
  602TMC3    C7 8928   2.969   4.517  17.434 -0.2361 -0.8038 -0.2283
  602TMC3    C8 8929   3.321   4.424  17.126  0.1011  0.4707  0.8087
  602TMC3    O1 8930   2.927   4.564  17.533 -0.1345 -0.8232 -0.2249
  602TMC3    O2 8931   3.439   4.410  17.107  0.0023 -0.9418 -0.3670
  603TMC3    C1 8932   0.715   4.407  11.180  0.0222  0.1400  0.5023
  603TMC3    C2 8933   0.730   4.385  11.315  0.0032  0.1142  0.3242
  603TMC3    C3 8934   0.787   4.489  11.386  0.6626  0.2089 -0.0715
  603TMC3    C4 8935   0.748   4.525  11.119 -0.2325 -0.1995 -0.0582
  603TMC3    C5 8936   0.794   4.625  11.197 -0.0191 -0.4720 -0.0767
  603TMC3    C6 8937   0.830   4.602  11.330 -0.2686  0.3177 -0.1143
  603TMC3     C 8938   0.683   4.284  11.103 -1.2413 -0.5006  0.6652
  603TMC3     O 8939   0.689   4.183  11.165  0.1285 -0.0573 -0.5609
  603TMC3     H 8940   0.715   4.287  11.360 -0.6769 -0.1756 -0.5339
  603TMC3    H1 8941   0.740   4.538  11.011  0.2068  1.2495  0.0877
  603TMC3    H2 8942   0.817   4.696  11.383 -2.0741  0.2496 -0.4263
  603TMC3    C7 8943   0.804   0.040  11.152 -1.1229 -0.4266 -1.0754
  603TMC3    C8 8944   0.785   4.485  11.530  0.4663  0.6973 -0.1643
  603TMC3    O1 8945   0.901   0.102  11.191 -0.2464  0.5171 -0.2237
  603TMC3    O2 8946   0.701   4.411  11.582  0.6819 -0.5886  0.0461
  604MPD2     C 8947   1.574   2.847  16.567 -0.1596 -0.4886  0.4544
  604MPD2    C1 8948   1.512   2.946  16.497 -0.6898 -0.3613 -0.1033
  604MPD2    C2 8949   1.536   2.953  16.362  0.1625 -0.5194  0.0857
  604MPD2    C3 8950   1.631   2.870  16.302  0.0462  0.1067 -0.3484
  604MPD2    C4 8951   1.698   2.775  16.376 -1.0855  0.0495  0.3737
  604MPD2    C5 8952   1.664   2.768  16.508  0.1872 -0.4415 -0.1372
  604MPD2     H 8953   1.483   3.023  16.297  0.2372 -0.0082  0.5803
  604MPD2    H1 8954   1.778   2.713  16.334 -0.1010  0.3365  1.8222
  604MPD2    H2 8955   1.562   2.825  16.673 -2.6245  2.2780  0.7297
  604MPD2    H3 8956   1.727   2.700  16.564 -0.1015 -2.4010 -2.1754
  604MPD2     N 8957   1.683   2.915  16.176  0.0915 -0.1752 -0.2674
  604MPD2    H5 8958   1.642   2.996  16.130 -0.3390 -0.5195 -0.4982
  604MPD2    N1 8959   1.424   3.032  16.568 -0.4324  0.2201 -0.3772
  604MPD2    H7 8960   1.424   3.023  16.669  1.0066  1.6048 -0.2506
  605TMC3    C1 8961   1.311   3.228  16.602  0.2225  0.4529 -0.2924
  605TMC3    C2 8962   1.394   3.271  16.698  0.3205  0.9660  0.0687
  605TMC3    C3 8963   1.369   3.384  16.770 -0.1641 -0.3300  0.4542
  605TMC3    C4 8964   1.195   3.291  16.589 -0.0096  0.1644  0.0929
  605TMC3    C5 8965   1.162   3.391  16.675 -0.6665  0.6420 -0.1051
  605TMC3    C6 8966   1.255   3.456  16.751  0.2148  0.4431 -0.2378
  605TMC3     C 8967   1.346   3.124  16.506  0.4377  0.1891  0.3392
  605TMC3     O 8968   1.285   3.128  16.399  0.3088 -0.2228  0.0310
  605TMC3     H 8969   1.499   3.245  16.687  0.3401  0.5792  1.1472
  605TMC3    H1 8970   1.134   3.267  16.503  0.7990  0.2930 -0.5244
  605TMC3    H2 8971   1.231   3.536  16.820 -0.2112 -1.1632  1.4741
  605TMC3    C7 8972   1.029   3.450  16.657 -1.1049 -0.0645 -0.1015
  605TMC3    C8 8973   1.482   3.439  16.848 -0.5338 -0.0202  0.7710
  605TMC3    O1 8974   1.024   3.564  16.694  0.1277 -0.0308 -0.4786
  605TMC3    O2 8975   1.582   3.365  16.863 -0.4026 -0.2316  0.0665
  606TMC3    C1 8976   3.145   1.584  16.792  0.3071 -0.3469  0.3796
  606TMC3    C2 8977   3.229   1.577  16.901 -0.2897  0.2476 -0.1520
  606TMC3    C3 8978   3.281   1.455  16.939  0.0045 -0.0787  0.5493
  606TMC3    C4 8979   3.106   1.477  16.721 -0.4217  0.3928 -0.7100
  606TMC3    C5 8980   3.152   1.353  16.770 -0.6221 -0.4788  0.0079
  606TMC3    C6 8981   3.243   1.345  16.871  0.3261 -0.2385 -0.0912
  606TMC3     C 8982   3.110   1.714  16.747  0.3877 -0.2215  0.1968
  606TMC3     O 8983   3.117   1.805  16.825 -0.1998 -0.7454  0.1982
  606TMC3     H 8984   3.255   1.668  16.954 -0.9858 -0.2548  1.0503
  606TMC3    H1 8985   3.026   1.474  16.649  0.5123  2.0873 -1.8036
  606TMC3    H2 8986   3.266   1.242  16.898  0.0483 -0.1900  0.3168
  606TMC3    C7 8987   3.057   1.248  16.749  0.6866  0.5851 -0.4041
  606TMC3    C8 8988   3.373   1.439  17.053  0.9108  0.5195 -0.1348
  606TMC3    O1 8989   3.010   1.220  16.641  0.0848 -0.1619 -0.5820
  606TMC3    O2 8990   3.353   1.507  17.153 -0.1653 -0.3321 -0.0719
  607MPD2     C 8991   4.530   4.600  11.709 -0.1991 -0.3005 -0.0645
  607MPD2    C1 8992   4.571   4.706  11.783 -0.0672  0.0086  0.0784
  607MPD2    C2 8993   4.552   4.709  11.919 -0.0318  0.2303 -0.5318
  607MPD2    C3 8994   4.506   4.603  11.996 -0.1343 -0.3468 -0.2102
  607MPD2    C4 8995   4.464   4.495  11.922  0.6797  0.5950  0.4197
  607MPD2    C5 8996   4.476   4.497  11.788 -0.3757  0.2867 -0.2883
  607MPD2     H 8997   4.577   0.079  11.968  0.6650 -1.6997  2.7860
  607MPD2    H1 8998   4.438   4.398  11.961  2.9032  0.7222  2.1861
  607MPD2    H2 8999   4.546   4.602  11.601  0.6589 -2.2094  0.0417
  607MPD2    H3 9000   4.458   4.408  11.729  0.5269 -0.3163  0.3579
  607MPD2     N 9001   4.508   4.609  12.133  0.1108  0.5659  0.1930
  607MPD2    H5 9002   4.563   4.686  12.172 -0.2063  0.7359  0.3066
  607MPD2    N1 9003   4.636   0.096  11.723 -0.1917 -0.6267  0.2563
  607MPD2    H7 9004   4.657   0.172  11.786 -0.2155  0.3753 -0.9517
  608TMC3    C1 9005   0.090   0.204  11.612 -0.0835 -0.3298 -0.0207
  608TMC3    C2 9006   0.146   0.228  11.738  0.8173  0.4812 -0.2650
  608TMC3    C3 9007   0.266   0.295  11.741 -0.1550 -0.2806 -0.5228
  608TMC3    C4 9008   0.149   0.261  11.499 -0.5829  0.8539 -0.1833
  608TMC3    C5 9009   0.259   0.338  11.514 -0.5044 -0.8403  0.1572
  608TMC3    C6 9010   0.328   0.347  11.635  0.1484  0.1258  0.1134
  608TMC3     C 9011   4.698   0.108  11.598 -0.3649 -1.1293  0.4091
  608TMC3     O 9012   4.691   0.041  11.497 -0.2975  0.3061  0.1448
  608TMC3     H 9013   0.102   0.195  11.831 -0.2550  2.9481  0.0957
  608TMC3    H1 9014   0.098   0.253  11.403  1.0882  0.3116 -1.0217
  608TMC3    H2 9015   0.424   0.397  11.647 -0.7688  2.0323 -0.6689
  608TMC3    C7 9016   0.293   0.430  11.405 -1.2158 -0.0750 -0.2677
  608TMC3    C8 9017   0.311   0.340  11.867 -0.5537  0.3962 -0.4686
  608TMC3    O1 9018   0.244   0.405  11.297 -0.4724  0.2940 -0.2549
  608TMC3    O2 9019   0.354   0.453  11.876 -0.2984 -0.0892  0.5512
  609TMC3    C1 9020   2.454   4.136   8.984 -0.0467 -0.3685  0.6589
  609TMC3    C2 9021   2.485   4.256   8.929 -0.1059 -0.0067 -0.0146
  609TMC3    C3 9022   2.604   4.268   8.867 -0.2544  0.0595 -0.6260
  609TMC3    C4 9023   2.547   4.037   8.987 -0.0725  0.0263 -0.1880
  609TMC3    C5 9024   2.666   4.048   8.921  0.0388  0.7721  0.1393
  609TMC3    C6 9025   2.701   4.170   8.870  0.0757  0.1518  0.1591
  609TMC3     C 9026   2.341   4.123   9.076 -0.0572  0.2684 -0.9319
  609TMC3     O 9027   2.356   4.052   9.174 -0.2457 -0.0448 -0.0362
  609TMC3     H 9028   2.409   4.332   8.914 -0.1783 -0.1388 -0.3180
  609TMC3    H1 9029   2.519   3.942   9.033 -1.3935  1.1248  1.3120
  609TMC3    H2 9030   2.802   4.194   8.840  0.4204  1.9288  2.6829
  609TMC3    C7 9031   2.765   3.954   8.945 -0.5170  0.0156  0.4513
  609TMC3    C8 9032   2.645   4.396   8.812 -0.2986 -0.0538  0.5169
  609TMC3    O1 9033   2.766   3.902   9.055  0.4060  0.4454  0.4728
  609TMC3    O2 9034   2.754   4.402   8.760 -0.2122 -0.2771  0.1012
  610TMC3    C1 9035   0.363   0.049  12.719 -0.3502 -0.2454  0.3583
  610TMC3    C2 9036   0.381   0.042  12.581 -0.0053 -0.1538  0.1153
  610TMC3    C3 9037   0.456   4.662  12.527  0.1296 -0.3392  0.2154
  610TMC3    C4 9038   0.418   4.677  12.802 -0.2568  0.2134  0.3842
  610TMC3    C5 9039   0.489   4.570  12.737  0.5234  0.5153  0.1643
  610TMC3    C6 9040   0.509   4.565  12.602 -0.3262  0.3840  0.1776
  610TMC3     C 9041   0.332   0.177  12.779 -0.1091  0.3496  0.2622
  610TMC3     O 9042   0.306   0.180  12.898 -0.4138  0.1356 -0.5304
  610TMC3     H 9043   0.342   0.113  12.509 -0.1090 -1.3130 -0.9766
  610TMC3    H1 9044   0.391   4.684  12.907 -3.5235 -0.2673 -0.4181
  610TMC3    H2 9045   0.569   4.486  12.558 -1.0832 -0.6568  1.0113
  610TMC3    C7 9046   0.555   4.467  12.820 -1.0120 -0.4048 -0.0340
  610TMC3    C8 9047   0.494   4.669  12.385 -0.0439 -0.2716  0.5534
  610TMC3    O1 9048   0.632   4.385  12.768  0.2163 -0.0501  0.3500
  610TMC3    O2 9049   0.512   0.057  12.337 -0.0913 -0.2004 -0.5960
  611MPD2     C 9050   4.238   0.172  10.874  0.0845  0.6957 -0.6318
  611MPD2    C1 9051   4.278   0.084  10.780 -0.2989 -0.1283 -0.3702
  611MPD2    C2 9052   4.393   0.116  10.712 -0.6673  0.0273  0.1988
  611MPD2    C3 9053   4.477   0.220  10.744 -0.1687  0.3601  0.5820
  611MPD2    C4 9054   4.438   0.305  10.851  0.2356  0.2173 -0.0808
  611MPD2    C5 9055   4.325   0.271  10.919  0.6008  0.1178  0.2502
  611MPD2     H 9056   4.412   0.053  10.626 -0.8731  0.1396  0.0713
  611MPD2    H1 9057   4.493   0.389  10.892  0.7787 -0.9476  1.5864
  611MPD2    H2 9058   4.142   0.168  10.923 -0.6709  0.5240 -2.1447
  611MPD2    H3 9059   4.284   0.335  10.996 -1.0755  0.5803 -1.0017
  611MPD2     N 9060   4.600   0.223  10.680 -0.4964  0.2876  0.0215
  611MPD2    H5 9061   4.617   0.164  10.599 -0.3440 -0.2396  0.4421
  611MPD2    N1 9062   4.184   4.702  10.747 -0.0533  0.4881 -0.2975
  611MPD2    H7 9063   4.096   4.698  10.796  0.3889  0.3627  0.4876
  612TMC3    C1 9064   0.091   0.303  10.624  0.0397  0.2245 -0.0951
  612TMC3    C2 9065   0.214   0.332  10.661 -0.2548  0.4497  0.6766
  612TMC3    C3 9066   0.313   0.316  10.568 -0.0284 -0.7249  0.3482
  612TMC3    C4 9067   0.072   0.249  10.495  0.0968  0.4182  0.7602
  612TMC3    C5 9068   0.179   0.224  10.410  0.3719  0.1051  0.0681
  612TMC3    C6 9069   0.301   0.272  10.438 -0.7221  0.0904 -0.4781
  612TMC3     C 9070   4.700   0.312  10.711 -0.1045  0.5355  0.4278
  612TMC3     O 9071   4.710   0.404  10.789 -0.1140  0.2304 -0.6389
  612TMC3     H 9072   0.236   0.371  10.760  0.0378 -1.3155  1.2932
  612TMC3    H1 9073   4.692   0.253  10.463 -0.6382 -0.8648  3.0040
  612TMC3    H2 9074   0.376   0.267  10.359  3.0125 -1.2370  3.1690
  612TMC3    C7 9075   0.149   0.169  10.276 -0.2739  0.0742 -0.2059
  612TMC3    C8 9076   0.440   0.360  10.613 -0.2220 -0.8096 -0.7727
  612TMC3    O1 9077   0.245   0.170  10.200 -0.0763  0.0885  0.2374
  612TMC3    O2 9078   0.504   0.442  10.546 -0.2144 -0.6639 -0.0739
  613MPD2     C 9079   4.076   2.235  16.772  0.2732  0.6028 -0.3685
  613MPD2    C1 9080   4.084   2.190  16.642  0.2233  0.9147  0.6267
  613MPD2    C2 9081   4.057   2.053  16.617  0.1865  0.2943 -0.4975
  613MPD2    C3 9082   4.034   1.964  16.725  0.2010  0.3393  0.0439
  613MPD2    C4 9083   4.037   2.018  16.856  0.2121 -0.0336 -0.0154
  613MPD2    C5 9084   4.040   2.151  16.871  0.3851 -0.0447 -0.4266
  613MPD2     H 9085   4.048   2.011  16.517 -0.1874 -2.7290  0.7893
  613MPD2    H1 9086   4.004   1.956  16.939 -0.3205  0.2204 -0.0424
  613MPD2    H2 9087   4.076   2.342  16.790 -1.9077  0.2992  1.4196
  613MPD2    H3 9088   4.006   2.195  16.965  2.1168  1.0032 -0.2942
  613MPD2     N 9089   4.003   1.829  16.715 -0.2671 -0.3144 -0.2417
  613MPD2    H5 9090   4.022   1.768  16.794  2.8168  1.2483  0.2464
  613MPD2    N1 9091   4.117   2.282  16.538  0.3995  0.0479  0.2845
  613MPD2    H7 9092   4.109   2.383  16.544 -1.1724 -0.0865  0.5065
  614TMC3    C1 9093   4.233   2.343  16.343 -0.0814  0.5080 -0.2088
  614TMC3    C2 9094   4.337   2.292  16.266 -0.3310  0.1643  0.1757
  614TMC3    C3 9095   4.330   2.269  16.130 -0.6024 -0.7814  0.3351
  614TMC3    C4 9096   4.111   2.368  16.273 -0.6156 -0.1371 -0.1655
  614TMC3    C5 9097   4.107   2.337  16.141  0.0041 -0.2163  0.7410
  614TMC3    C6 9098   4.212   2.288  16.063 -0.3934 -0.2487 -0.1871
  614TMC3     C 9099   4.208   2.243  16.443 -0.4661  0.2594  1.0923
  614TMC3     O 9100   4.250   2.131  16.421  0.1151 -0.3732 -0.5222
  614TMC3     H 9101   4.434   2.280  16.314  0.4698  0.2284 -1.4109
  614TMC3    H1 9102   4.026   2.416  16.320 -0.7506 -0.4201 -0.1176
  614TMC3    H2 9103   4.190   2.265  15.960 -0.9417 -0.5539  0.0025
  614TMC3    C7 9104   3.994   2.401  16.085 -0.1167 -0.0776  0.0398
  614TMC3    C8 9105   4.389   2.148  16.087 -0.1651 -0.0704 -0.1451
  614TMC3    O1 9106   3.979   2.523  16.105 -0.1626 -0.2680 -0.3940
  614TMC3    O2 9107   4.411   2.134  15.966 -0.6010 -0.9931 -0.7082
  615MPD2     C 9108   2.917   3.308  16.025  0.5487 -0.5295  0.4932
  615MPD2    C1 9109   3.053   3.336  15.998 -0.6559 -0.0764 -0.4663
  615MPD2    C2 9110   3.088   3.409  15.889  0.2193  0.3324  0.6692
  615MPD2    C3 9111   2.985   3.444  15.800  0.0204 -0.0065  0.2936
  615MPD2    C4 9112   2.853   3.415  15.825 -0.1499  0.0034 -0.0122
  615MPD2    C5 9113   2.824   3.343  15.935  0.1136 -0.7598  0.1607
  615MPD2     H 9114   3.189   3.446  15.878 -0.3530  1.6503 -0.2537
  615MPD2    H1 9115   2.777   3.427  15.749  0.4528  1.1264 -0.4449
  615MPD2    H2 9116   2.882   3.257  16.114 -1.1986 -0.0163  0.1177
  615MPD2    H3 9117   2.721   3.326  15.962 -0.0396  2.5351  1.5477
  615MPD2     N 9118   3.015   3.525  15.697  0.7979  0.8723 -0.5871
  615MPD2    H5 9119   2.941   3.577  15.651  0.0159 -1.4645 -1.9842
  615MPD2    N1 9120   3.163   3.295  16.071  0.8198  0.1178  0.3644
  615MPD2    H7 9121   3.254   3.313  16.029  1.4795  1.4557  2.3021
  616TMC3    C1 9122   3.297   3.189  16.222 -0.6177  0.1550 -0.0812
  616TMC3    C2 9123   3.387   3.186  16.110  0.2315 -0.2615 -0.6145
  616TMC3    C3 9124   3.519   3.218  16.137  0.0631 -0.1020  0.4122
  616TMC3    C4 9125   3.336   3.212  16.349 -0.3622 -0.0191  0.8010
  616TMC3    C5 9126   3.467   3.246  16.366 -0.1626  0.0610 -0.0128
  616TMC3    C6 9127   3.561   3.245  16.265 -0.0331 -0.0991  0.9593
  616TMC3     C 9128   3.163   3.225  16.192 -0.0175  0.0574 -0.4886
  616TMC3     O 9129   3.076   3.222  16.278  0.6095  0.4253  0.1894
  616TMC3     H 9130   3.353   3.175  16.008  0.1122  1.8629 -0.8168
  616TMC3    H1 9131   3.261   3.199  16.426 -1.1687 -2.2826 -0.3683
  616TMC3    H2 9132   3.663   3.277  16.281  0.0662  0.2887 -0.4815
  616TMC3    C7 9133   3.518   3.257  16.503 -0.1434  0.5319  0.4650
  616TMC3    C8 9134   3.607   3.235  16.021 -0.1681 -0.8971 -1.1277
  616TMC3    O1 9135   3.634   3.230  16.516  0.8374  0.0668 -0.1322
  616TMC3    O2 9136   3.567   3.215  15.908 -0.7914  0.0230  0.4927
  617MPD2     C 9137   1.222   1.783  13.896  0.7495 -0.3792 -0.2029
  617MPD2    C1 9138   1.234   1.720  14.015  0.0591  0.0805  0.2100
  617MPD2    C2 9139   1.134   1.639  14.059  0.1159 -0.0076 -0.5289
  617MPD2    C3 9140   1.016   1.620  13.986  0.6197 -0.3766 -0.6708
  617MPD2    C4 9141   1.008   1.680  13.866 -0.1214  0.3829  0.5715
  617MPD2    C5 9142   1.107   1.767  13.825  0.1401  0.2835  0.1481
  617MPD2     H 9143   1.143   1.596  14.158  1.3832 -0.7132 -0.9595
  617MPD2    H1 9144   0.926   1.670  13.796  0.3169  0.1960  0.0841
  617MPD2    H2 9145   1.279   1.870  13.865 -1.2029 -0.1999 -3.2406
  617MPD2    H3 9146   1.105   1.823  13.732  0.5553 -0.7031 -0.4531
  617MPD2     N 9147   0.911   1.538  14.024  0.3502 -0.0547  0.4205
  617MPD2    H5 9148   0.821   1.536  13.978  1.3537  2.7462 -1.6752
  617MPD2    N1 9149   1.354   1.736  14.088 -0.3689 -0.0341 -0.4048
  617MPD2    H7 9150   1.422   1.809  14.066 -0.5886  0.0411 -0.8464
  618TMC3    C1 9151   1.535   1.710  14.224 -0.9104 -0.3082 -0.0690
  618TMC3    C2 9152   1.640   1.628  14.192  0.0165 -0.1564 -1.4454
  618TMC3    C3 9153   1.755   1.678  14.152  0.7414 -0.0134  0.2630
  618TMC3    C4 9154   1.547   1.846  14.212 -0.8214 -0.1162  0.3106
  618TMC3    C5 9155   1.673   1.895  14.176  1.6414 -0.4863  0.1537
  618TMC3    C6 9156   1.777   1.814  14.159  0.0875 -0.0636  0.4618
  618TMC3     C 9157   1.402   1.656  14.187  0.2979 -0.4542 -0.3101
  618TMC3     O 9158   1.375   1.539  14.209 -0.3468 -0.5548  0.3682
  618TMC3     H 9159   1.626   1.521  14.178 -1.3901 -0.4729  2.2957
  618TMC3    H1 9160   1.460   1.904  14.240  1.4991  2.9776  1.0895
  618TMC3    H2 9161   1.871   1.859  14.132  0.2869  0.1635  1.5355
  618TMC3    C7 9162   1.691   2.033  14.193  0.5249  0.0338 -0.3396
  618TMC3    C8 9163   1.809   1.612  14.029 -0.2525  0.0433  0.6525
  618TMC3    O1 9164   1.630   2.078  14.288  0.2451 -0.2528 -0.1319
  618TMC3    O2 9165   1.740   1.525  13.981 -0.0036 -0.1171  0.2159
  619MPD2     C 9166   2.782   2.794  13.414  0.0382 -0.9219  0.0793
  619MPD2    C1 9167   2.727   2.920  13.389  0.0766  1.3012 -0.1365
  619MPD2    C2 9168   2.599   2.939  13.334  0.7896  0.7295 -0.5882
  619MPD2    C3 9169   2.524   2.820  13.311  0.7383 -0.3683 -0.9225
  619MPD2    C4 9170   2.589   2.698  13.327 -0.2971  0.4604 -0.6362
  619MPD2    C5 9171   2.714   2.681  13.375  0.1506 -0.0638 -0.0862
  619MPD2     H 9172   2.558   3.039  13.323 -3.0689 -0.8388 -0.3206
  619MPD2    H1 9173   2.537   2.603  13.323 -0.0394  0.2841  0.1275
  619MPD2    H2 9174   2.880   2.774  13.457 -0.0519  0.9367  1.1640
  619MPD2    H3 9175   2.756   2.583  13.394  0.7111 -0.1674 -1.8449
  619MPD2     N 9176   2.391   2.815  13.271  0.2753  0.3771 -0.0637
  619MPD2    H5 9177   2.348   2.726  13.249  1.4911 -0.7346  2.0514
  619MPD2    N1 9178   2.789   3.039  13.424  0.1586 -0.4941  0.0908
  619MPD2    H7 9179   2.739   3.123  13.399 -1.3805 -1.5853 -0.5142
  620TMC3    C1 9180   2.946   3.199  13.495  0.1542  0.3187 -0.4898
  620TMC3    C2 9181   2.890   3.285  13.413  0.2156  0.5264 -0.2007
  620TMC3    C3 9182   2.894   3.416  13.444 -0.5302 -0.1703 -0.4788
  620TMC3    C4 9183   3.018   3.240  13.610  0.2678  0.0749 -0.1799
  620TMC3    C5 9184   3.016   3.370  13.643  0.0547  0.5677 -0.0392
  620TMC3    C6 9185   2.954   3.465  13.554  0.0920 -0.9076 -0.0245
  620TMC3     C 9186   2.907   3.057  13.493 -0.6229  0.2544  0.4993
  620TMC3     O 9187   2.988   2.979  13.546  0.7183  0.5028 -0.0458
  620TMC3     H 9188   2.836   3.250  13.326 -0.6748  0.3558  0.4119
  620TMC3    H1 9189   3.067   3.163  13.669  1.6646  2.7373  2.1222
  620TMC3    H2 9190   2.958   3.569  13.583  0.6353 -0.9719  0.1374
  620TMC3    C7 9191   2.986   3.406  13.781 -0.1693 -0.0964 -0.2326
  620TMC3    C8 9192   2.764   3.482  13.445 -0.5716 -0.1654 -0.0779
  620TMC3    O1 9193   3.056   3.364  13.870 -0.1240 -0.2346  0.1861
  620TMC3    O2 9194   2.736   3.552  13.542 -0.6121  0.1833 -0.0505
  621MPD2     C 9195   2.811   3.612   9.647  0.1685  0.3139 -0.2992
  621MPD2    C1 9196   2.763   3.487   9.689  0.4118 -0.2449 -0.4309
  621MPD2    C2 9197   2.786   3.447   9.818 -0.1412  0.0621  0.0443
  621MPD2    C3 9198   2.874   3.521   9.891 -0.2539 -0.2305 -0.5148
  621MPD2    C4 9199   2.917   3.649   9.859  0.1805  0.0014 -0.7138
  621MPD2    C5 9200   2.886   3.691   9.729  0.0732 -0.2147 -0.2469
  621MPD2     H 9201   2.750   3.355   9.862  0.8062  0.2289  1.1594
  621MPD2    H1 9202   2.970   3.710   9.931 -1.5491  0.5461  0.0856
  621MPD2    H2 9203   2.795   3.653   9.548 -0.9147 -1.0403 -0.6917
  621MPD2    H3 9204   2.916   3.787   9.688  3.6608 -0.3058  2.2280
  621MPD2     N 9205   2.916   3.476  10.013  0.2546 -0.5668  0.1118
  621MPD2    H5 9206   2.878   3.387  10.045 -0.6769 -0.6650 -1.2785
  621MPD2    N1 9207   2.700   3.393   9.603 -0.2845 -0.2143 -0.3676
  621MPD2    H7 9208   2.673   3.306   9.647  2.3632 -0.0136  1.6983
  622TMC3    C1 9209   2.683   3.270   9.405  0.4430 -0.0987 -0.5370
  622TMC3    C2 9210   2.761   3.176   9.461  0.3365  0.1395 -0.1647
  622TMC3    C3 9211   2.826   3.084   9.383 -0.5872 -0.0044  0.0395
  622TMC3    C4 9212   2.681   3.281   9.269 -0.1502  0.4271 -0.0074
  622TMC3    C5 9213   2.755   3.188   9.198 -0.0010 -0.4703 -0.1500
  622TMC3    C6 9214   2.825   3.091   9.255 -0.2420  0.4631 -0.9380
  622TMC3     C 9215   2.678   3.403   9.467 -0.1522 -0.0605  0.8054
  622TMC3     O 9216   2.685   3.503   9.398 -0.2319 -0.1273 -0.2493
  622TMC3     H 9217   2.761   3.164   9.569  1.6906  2.8609  0.1353
  622TMC3    H1 9218   2.623   3.362   9.226  1.0182  1.5612  0.5717
  622TMC3    H2 9219   2.885   3.023   9.195  0.3583  1.7575 -1.7981
  622TMC3    C7 9220   2.748   3.183   9.049  0.1216  1.0609 -0.0005
  622TMC3    C8 9221   2.825   2.940   9.422 -0.2242 -0.4492  0.3929
  622TMC3    O1 9222   2.849   3.149   8.992  0.1376 -0.1060 -0.0596
  622TMC3    O2 9223   2.788   2.853   9.345  0.3001  0.5883 -0.0905
  623MPD2     C 9224   1.663   3.285  16.320  0.0125 -0.0653  0.4031
  623MPD2    C1 9225   1.630   3.384  16.413  0.1509  0.3725  0.8806
  623MPD2    C2 9226   1.699   3.397  16.536 -0.1916  0.2830  0.1507
  623MPD2    C3 9227   1.788   3.305  16.573  0.4184  0.8426 -0.8204
  623MPD2    C4 9228   1.810   3.202  16.484  0.9622 -0.1516 -0.4598
  623MPD2    C5 9229   1.753   3.194  16.356 -0.2229 -0.8833  0.3025
  623MPD2     H 9230   1.672   3.480  16.599 -1.0799 -0.7095  1.0800
  623MPD2    H1 9231   1.878   3.120  16.500  0.3966 -0.6974 -0.8677
  623MPD2    H2 9232   1.619   3.291  16.221 -0.4254  1.3139  0.6795
  623MPD2    H3 9233   1.779   3.115  16.285 -1.7284 -1.8080  0.7872
  623MPD2     N 9234   1.852   3.308  16.696 -0.1167  0.2256 -1.2457
  623MPD2    H5 9235   1.839   3.394  16.750 -2.2876 -1.0024  0.1814
  623MPD2    N1 9236   1.529   3.471  16.375  0.0018  0.6372 -0.2777
  623MPD2    H7 9237   1.479   3.445  16.290  0.2639 -0.7071 -0.0150
  624TMC3    C1 9238   2.158   3.254  17.040 -1.3957 -0.0024  0.2508
  624TMC3    C2 9239   2.096   3.351  17.110  0.4841 -0.2720  0.3075
  624TMC3    C3 9240   1.977   3.396  17.066  0.3007 -0.2228 -0.6421
  624TMC3    C4 9241   2.105   3.211  16.919 -0.4714  0.2750 -0.7117
  624TMC3    C5 9242   1.988   3.264  16.875 -0.5820 -0.1981 -0.3509
  624TMC3    C6 9243   1.921   3.364  16.944  0.0396  0.2781 -0.2803
  624TMC3     C 9244   2.297   3.211  17.082  0.0152  0.3859  0.7195
  624TMC3     O 9245   2.364   3.285  17.156  0.8072 -0.6085  0.3351
  624TMC3     H 9246   2.152   3.394  17.194 -1.3241  1.5247  0.5934
  624TMC3    H1 9247   2.160   3.141  16.857  1.8813  0.8535  0.6892
  624TMC3    H2 9248   1.818   3.395  16.928 -0.4720 -0.9813  0.5237
  624TMC3    C7 9249   1.936   3.217  16.751 -0.6491  0.5447  0.3333
  624TMC3    C8 9250   1.891   3.458  17.156 -0.5276  0.3595 -0.3718
  624TMC3    O1 9251   1.968   3.099  16.717 -0.4632 -0.4638  0.5378
  624TMC3    O2 9252   1.803   3.377  17.187  0.0772 -0.6410 -0.1076
  625MPD2     C 9253   3.078   4.463   0.617 -0.3388  0.5570 -0.0941
  625MPD2    C1 9254   3.105   4.589   0.672  0.0135 -0.4232 -0.2814
  625MPD2    C2 9255   3.215   4.598   0.764  0.4028  0.3813 -0.2494
  625MPD2    C3 9256   3.292   4.489   0.786  0.2766  0.2951  1.5351
  625MPD2    C4 9257   3.259   4.366   0.735 -0.0683 -0.5526 -0.5884
  625MPD2    C5 9258   3.156   4.352   0.650  0.5114 -0.4866  0.3332
  625MPD2     H 9259   3.249   4.694   0.801 -0.8133  0.3618  0.9565
  625MPD2    H1 9260   3.320   4.287   0.777 -0.5462 -0.8031 -0.3723
  625MPD2    H2 9261   3.009   4.445   0.536  0.8694 -0.6547 -0.8660
  625MPD2    H3 9262   3.139   4.257   0.600 -1.2228  0.5258 -1.0046
  625MPD2     N 9263   3.408   4.515   0.861  0.5906 -0.1389 -0.0149
  625MPD2    H5 9264   3.408   4.602   0.913 -1.5075 -0.2138  0.0879
  625MPD2    N1 9265   3.043   4.710   0.635 -0.2120 -0.2876 -0.3607
  625MPD2    H7 9266   3.079   0.069   0.683 -0.5782  0.5840 -1.5586
  626TMC3    C1 9267   2.900   0.141   0.531 -0.2967  0.0021  0.2918
  626TMC3    C2 9268   2.771   0.164   0.499 -0.6177 -0.5302 -0.3670
  626TMC3    C3 9269   2.727   0.289   0.511  0.1448  0.3938 -0.4574
  626TMC3    C4 9270   2.984   0.240   0.572  0.3350  0.8509 -0.2527
  626TMC3    C5 9271   2.933   0.360   0.591  0.1935  0.3910 -0.4091
  626TMC3    C6 9272   2.803   0.391   0.563 -0.1984 -0.5573 -0.1031
  626TMC3     C 9273   2.946   0.005   0.538  0.1611 -1.0649 -0.6895
  626TMC3     O 9274   2.886   4.648   0.470  0.0365 -0.6969  0.6228
  626TMC3     H 9275   2.708   0.091   0.450 -0.1445  0.3085 -2.2057
  626TMC3    H1 9276   3.087   0.217   0.597 -0.5172 -0.1827  2.2964
  626TMC3    H2 9277   2.772   0.495   0.562  2.6665  0.3019 -0.6860
  626TMC3    C7 9278   3.001   0.442   0.682 -0.9437  0.0813 -0.8782
  626TMC3    C8 9279   2.613   0.327   0.432  0.1336 -0.2983  0.1276
  626TMC3    O1 9280   3.116   0.409   0.703 -0.3762  0.0430  0.2948
  626TMC3    O2 9281   2.570   0.249   0.350  0.3496  0.0407 -0.0734
  627MPD2     C 9282   1.447   0.629  14.593  0.4234 -0.4101  0.1002
  627MPD2    C1 9283   1.333   0.629  14.671  0.1205 -0.1041 -0.3450
  627MPD2    C2 9284   1.222   0.551  14.632 -0.3352 -0.4341 -0.1731
  627MPD2    C3 9285   1.230   0.484  14.513  0.3066 -0.0811  0.7914
  627MPD2    C4 9286   1.343   0.489  14.432 -0.2105  0.3415  0.2581
  627MPD2    C5 9287   1.456   0.558  14.477 -0.0230 -0.0120 -0.2398
  627MPD2     H 9288   1.137   0.553  14.700 -0.9033 -0.3297 -0.8881
  627MPD2    H1 9289   1.344   0.441  14.335 -0.7804  1.9262 -0.5385
  627MPD2    H2 9290   1.541   0.677  14.620  1.0523 -0.6894 -1.5941
  627MPD2    H3 9291   1.546   0.570  14.418  0.8616  0.4496  1.2030
  627MPD2     N 9292   1.112   0.414  14.483 -0.1024  0.2334  0.0173
  627MPD2    H5 9293   1.033   0.437  14.543 -1.1487 -1.1145 -0.8453
  627MPD2    N1 9294   1.320   0.715  14.784 -0.3077 -0.0385  0.0343
  627MPD2    H7 9295   1.227   0.715  14.824 -0.1130  2.4976  0.4697
  628TMC3    C1 9296   1.367   0.875  14.938  0.9267  0.2078  0.0291
  628TMC3    C2 9297   1.442   0.900  15.049 -0.5225 -0.2473 -0.3304
  628TMC3    C3 9298   1.394   0.991  15.137  0.8898 -0.0791 -0.4849
  628TMC3    C4 9299   1.250   0.932  14.914  0.5664  0.4825 -0.6549
  628TMC3    C5 9300   1.207   1.016  15.008 -0.3304  0.0753 -0.2224
  628TMC3    C6 9301   1.270   1.046  15.124  0.4953  0.2774  0.0660
  628TMC3     C 9302   1.425   0.783  14.839 -0.0656 -0.3233 -0.8154
  628TMC3     O 9303   1.545   0.760  14.849 -0.7661  0.4568  0.6160
  628TMC3     H 9304   1.545   0.868  15.058 -0.3831  0.2454 -0.1243
  628TMC3    H1 9305   1.184   0.911  14.830 -0.6286 -2.6053  1.0473
  628TMC3    H2 9306   1.240   1.132  15.184 -2.1845 -1.2945  1.0013
  628TMC3    C7 9307   1.073   1.072  14.999  0.2921  0.3121  0.0440
  628TMC3    C8 9308   1.473   1.037  15.252  0.0570  0.3013 -0.7022
  628TMC3    O1 9309   1.013   1.110  15.098 -1.1365  0.3350  0.2046
  628TMC3    O2 9310   1.401   1.081  15.345 -0.0682 -0.3349 -0.5670
  629MPD2     C 9311   4.067   3.382  15.819 -0.4490 -0.5231  0.1565
  629MPD2    C1 9312   4.072   3.394  15.957 -0.1568 -1.0195 -0.3558
  629MPD2    C2 9313   3.960   3.355  16.032  0.8112  0.5563 -0.4626
  629MPD2    C3 9314   3.847   3.308  15.973  0.4096  0.3456 -0.3992
  629MPD2    C4 9315   3.846   3.302  15.839 -0.1559 -0.2467 -0.4666
  629MPD2    C5 9316   3.952   3.338  15.762 -0.3429 -0.1019 -0.4239
  629MPD2     H 9317   3.957   3.358  16.140  0.6440  3.6582 -0.5423
  629MPD2    H1 9318   3.754   3.282  15.785 -0.9366  0.4616  0.5831
  629MPD2    H2 9319   4.151   3.410  15.757 -1.4502 -1.3334 -1.5701
  629MPD2    H3 9320   3.958   3.326  15.655 -0.0206 -1.1707 -0.2873
  629MPD2     N 9321   3.734   3.284  16.058 -0.4933  0.0539  0.2409
  629MPD2    H5 9322   3.752   3.311  16.154  0.8277  0.0064  0.0013
  629MPD2    N1 9323   4.189   3.440  16.028  0.0703 -0.3508  0.0681
  629MPD2    H7 9324   4.271   3.425  15.970 -3.0970  0.4606 -4.6013
  630TMC3    C1 9325   4.330   3.513  16.200  0.2178 -0.4983  0.7852
  630TMC3    C2 9326   4.396   3.615  16.133  0.2200 -0.7080  0.5167
  630TMC3    C3 9327   4.510   3.664  16.201 -0.4170  0.5733 -0.2237
  630TMC3    C4 9328   4.368   3.471  16.326 -0.7607  0.1779  0.1477
  630TMC3    C5 9329   4.459   3.542  16.398 -0.3468 -0.3183  0.8404
  630TMC3    C6 9330   4.535   3.634  16.331 -0.6292 -0.0538 -0.6816
  630TMC3     C 9331   4.196   3.478  16.160  0.4323  0.9907 -0.8433
  630TMC3     O 9332   4.110   3.495  16.245  0.3879  0.0424  0.3252
  630TMC3     H 9333   4.373   3.640  16.030  1.1827 -1.8139  0.0252
  630TMC3    H1 9334   4.293   3.421  16.385  0.8338  0.4143  2.3524
  630TMC3    H2 9335   4.613   3.686  16.386 -2.6972  2.1726  0.1334
  630TMC3    C7 9336   4.472   3.539  16.540 -0.4404  0.3069 -0.0158
  630TMC3    C8 9337   4.578   3.776  16.143 -0.1889  0.4007 -0.6823
  630TMC3    O1 9338   4.499   3.634  16.605  0.3149 -0.1920  0.2843
  630TMC3    O2 9339   4.690   3.801  16.176 -0.6583  0.3984 -0.1181
  631MPD2     C 9340   2.443   4.045  15.773 -0.6941 -0.0656 -0.1559
  631MPD2    C1 9341   2.471   4.097  15.651 -0.0788 -0.7986  0.4526
  631MPD2    C2 9342   2.568   4.032  15.573 -0.2188  1.0562 -0.2404
  631MPD2    C3 9343   2.627   3.917  15.611  0.5832  0.5562  0.0381
  631MPD2    C4 9344   2.586   3.853  15.727  0.0818  0.3816 -0.0937
  631MPD2    C5 9345   2.501   3.924  15.804  0.3703 -0.1806  0.0460
  631MPD2     H 9346   2.591   4.069  15.473  0.5263  0.9833 -0.1004
  631MPD2    H1 9347   2.635   3.764  15.765 -1.5463 -0.4011  0.1712
  631MPD2    H2 9348   2.388   4.095  15.852 -1.3075 -2.8887  1.1872
  631MPD2    H3 9349   2.487   3.885  15.904 -1.2847 -1.0715 -0.5371
  631MPD2     N 9350   2.718   3.867  15.520  0.7032  0.0447  0.6227
  631MPD2    H5 9351   2.723   3.918  15.432  3.1557 -1.6340 -0.1931
  631MPD2    N1 9352   2.406   4.218  15.618 -0.7401 -0.1214  0.2466
  631MPD2    H7 9353   2.336   4.256  15.681  0.8862  1.5615  1.0297
  632TMC3    C1 9354   2.343   4.406  15.473  0.3683 -0.2129 -0.6684
  632TMC3    C2 9355   2.215   4.383  15.523 -0.3268 -0.7081 -0.6189
  632TMC3    C3 9356   2.111   4.395  15.438  0.0398  0.1175  0.1770
  632TMC3    C4 9357   2.359   4.433  15.336 -0.9322 -0.0635 -0.0157
  632TMC3    C5 9358   2.255   4.450  15.252  0.7768  0.1965 -1.0361
  632TMC3    C6 9359   2.130   4.433  15.307 -0.0258  0.3408 -0.2826
  632TMC3     C 9360   2.437   4.295  15.506 -0.0224  0.4904  0.2239
  632TMC3     O 9361   2.532   4.284  15.428 -0.6564 -0.4214  0.3028
  632TMC3     H 9362   2.208   4.355  15.628 -0.0813 -0.8972 -0.6538
  632TMC3    H1 9363   2.457   4.467  15.304 -0.8209 -0.0170  0.3760
  632TMC3    H2 9364   2.042   4.425  15.244  0.1223 -1.3840 -0.2595
  632TMC3    C7 9365   2.266   4.371  15.127  0.2602  0.2414  0.1115
  632TMC3    C8 9366   1.976   4.418  15.492 -0.8005 -0.2877 -0.3183
  632TMC3    O1 9367   2.197   4.394  15.027  0.4398  0.4851 -0.0431
  632TMC3    O2 9368   1.910   4.501  15.427  0.0391 -0.5552  0.2223
  633MPD2     C 9369   2.237   1.680  17.579  0.6783  0.0269  0.1867
  633MPD2    C1 9370   2.291   1.625  17.463 -0.5002  0.6779  0.0379
  633MPD2    C2 9371   2.341   1.499  17.472  0.2875 -0.6335 -0.3821
  633MPD2    C3 9372   2.352   1.430  17.592  0.2243  0.1857 -0.7296
  633MPD2    C4 9373   2.285   1.486   0.005  0.2497  0.4610  0.1126
  633MPD2    C5 9374   2.235   1.607   0.002 -0.5864 -0.3524 -0.7392
  633MPD2     H 9375   2.390   1.458  17.384  2.0811 -1.1250  0.8380
  633MPD2    H1 9376   2.280   1.436   0.101 -1.6730  0.4737  0.0284
  633MPD2    H2 9377   2.182   1.773  17.588  0.7291  0.0282  0.4751
  633MPD2    H3 9378   2.197   1.648   0.095  0.6101  0.6925 -0.6991
  633MPD2     N 9379   2.401   1.293  17.590  0.9633  0.2404  0.4972
  633MPD2    H5 9380   2.369   1.236  17.668 -1.4606  1.1528  0.1664
  633MPD2    N1 9381   2.300   1.696  17.339 -0.5658  0.0340 -0.0141
  633MPD2    H7 9382   2.353   1.653  17.264  0.7606  0.7916  0.5041
  634TMC3    C1 9383   2.274   1.870  17.178  0.1200 -0.0768  0.0405
  634TMC3    C2 9384   2.326   1.787  17.084 -0.2060 -0.6381 -0.4583
  634TMC3    C3 9385   2.337   1.826  16.954  0.2643 -0.2732  0.6765
  634TMC3    C4 9386   2.248   1.997  17.150 -0.9504 -0.1314 -0.2620
  634TMC3    C5 9387   2.273   2.042  17.022  0.2424  0.1722  0.2636
  634TMC3    C6 9388   2.308   1.959  16.921  0.1704 -0.0956 -0.5207
  634TMC3     C 9389   2.256   1.823  17.316 -0.2125  0.2228  0.0543
  634TMC3     O 9390   2.209   1.902  17.397  0.4088  0.1733  0.1483
  634TMC3     H 9391   2.336   1.680  17.103 -1.5964 -0.5560  0.7378
  634TMC3    H1 9392   2.232   2.065  17.233  1.9401 -0.7276  0.7674
  634TMC3    H2 9393   2.302   2.001  16.821 -0.3980 -0.2913 -0.5685
  634TMC3    C7 9394   2.235   2.179  16.975  0.0726  0.4349  0.6096
  634TMC3    C8 9395   2.299   1.721  16.862  0.1330 -0.7174  0.4901
  634TMC3    O1 9396   2.275   2.218  16.865 -0.0513 -0.2014 -0.1640
  634TMC3    O2 9397   2.236   1.628  16.908 -0.1887 -0.3231 -0.2725
  635TMC3    C1 9398   2.866   2.686   0.105 -0.5638 -0.1693 -0.0863
  635TMC3    C2 9399   2.946   2.589   0.048 -0.5721  0.1107  0.6464
  635TMC3    C3 9400   2.930   2.461   0.089 -0.4120 -0.1571  0.2090
  635TMC3    C4 9401   2.755   2.657   0.176 -0.7346  0.0741  0.2380
  635TMC3    C5 9402   2.733   2.525   0.203  0.0631  0.1030  0.0788
  635TMC3    C6 9403   2.820   2.423   0.167 -0.4289 -0.0557 -0.2413
  635TMC3     C 9404   2.906   2.827   0.102  0.1545 -0.0191  0.1063
  635TMC3     O 9405   2.851   2.902   0.178  0.0766  0.0786 -0.1862
  635TMC3     H 9406   3.041   2.611  17.694 -0.3084 -0.8553  0.7314
  635TMC3    H1 9407   2.689   2.739   0.201 -0.7043  0.4534 -0.9218
  635TMC3    H2 9408   2.810   2.322   0.204 -2.7138  0.9109  1.7849
  635TMC3    C7 9409   2.636   2.506   0.315  0.5545 -0.7123  0.0312
  635TMC3    C8 9410   2.993   2.354   0.016  0.2461  0.3751  0.4477
  635TMC3    O1 9411   2.620   2.599   0.390 -0.1975  0.0961 -0.5848
  635TMC3    O2 9412   2.978   2.356  17.590  0.3490  0.0378 -0.5930
  636MPD2     C 9413   3.642   1.761  15.939  0.2733  0.3052 -0.0839
  636MPD2    C1 9414   3.652   1.835  16.055 -0.0569 -1.3702 -0.3709
  636MPD2    C2 9415   3.718   1.783  16.157  0.1094 -0.0280  0.3377
  636MPD2    C3 9416   3.790   1.668  16.151  0.1222 -0.6098 -0.0796
  636MPD2    C4 9417   3.783   1.594  16.038 -0.3199 -0.1739  0.0049
  636MPD2    C5 9418   3.717   1.648  15.928  0.4843  0.3078  0.5433
  636MPD2     H 9419   3.720   1.831  16.255 -2.7500  1.4574 -0.3152
  636MPD2    H1 9420   3.819   1.492  16.037 -2.5344 -0.9450 -1.1517
  636MPD2    H2 9421   3.588   1.792  15.850 -0.8976  0.1815  0.5868
  636MPD2    H3 9422   3.703   1.585  15.841  0.6183  1.2299 -0.1453
  636MPD2     N 9423   3.855   1.622  16.264  0.0766  0.3172 -0.6073
  636MPD2    H5 9424   3.850   1.680  16.347 -0.9906  1.6349 -1.5927
  636MPD2    N1 9425   3.585   1.962  16.081 -0.2637 -0.5639  0.0940
  636MPD2    H7 9426   3.606   2.006  16.170  0.4807  0.9544 -0.8389
  637TMC3    C1 9427   3.975   1.493  16.411 -0.9418  0.1466 -0.1156
  637TMC3    C2 9428   3.916   1.567  16.505 -0.8025 -0.8333  0.6497
  637TMC3    C3 9429   3.988   1.628  16.603 -0.5149 -0.0455 -0.0015
  637TMC3    C4 9430   4.112   1.479  16.406 -0.3272 -0.4904 -1.0783
  637TMC3    C5 9431   4.183   1.540  16.509  0.0130 -0.0249 -0.0532
  637TMC3    C6 9432   4.120   1.605  16.609 -0.7350  0.0669  1.1867
  637TMC3     C 9433   3.920   1.503  16.276  0.1287 -0.0962 -0.3916
  637TMC3     O 9434   3.949   1.413  16.195  0.7791  0.9109  0.6695
  637TMC3     H 9435   3.810   1.584  16.518 -0.5827  0.5925  0.5496
  637TMC3    H1 9436   4.158   1.452  16.311 -2.4999  0.5680 -2.4207
  637TMC3    H2 9437   4.166   1.649  16.697 -1.2875  2.7288  0.1246
  637TMC3    C7 9438   4.274   1.649  16.465  0.8552  0.1087  0.0724
  637TMC3    C8 9439   3.963   1.768  16.603 -0.5518 -0.7429  0.2918
  637TMC3    O1 9440   4.273   1.752  16.528  0.1196 -0.2153 -0.0971
  637TMC3    O2 9441   3.944   1.816  16.494 -0.3043 -0.0550 -0.5797
  638MPD2     C 9442   3.346   1.174  15.124  0.1144 -0.6207 -0.8319
  638MPD2    C1 9443   3.286   1.103  15.027 -0.5172  0.5551 -0.3878
  638MPD2    C2 9444   3.224   0.982  15.060 -0.7333 -0.5077  0.3812
  638MPD2    C3 9445   3.217   0.939  15.190 -0.2980  0.2741  0.9300
  638MPD2    C4 9446   3.272   1.025  15.286 -0.0559  0.4435  0.2881
  638MPD2    C5 9447   3.335   1.138  15.253 -0.2273 -0.0969  0.3264
  638MPD2     H 9448   3.178   0.918  14.986  0.9678 -0.2768 -0.8667
  638MPD2    H1 9449   3.277   1.005  15.392 -0.4899  0.8419  0.3863
  638MPD2    H2 9450   3.398   1.265  15.096  1.7535 -1.1473  0.4621
  638MPD2    H3 9451   3.366   1.211  15.327  2.1171 -0.8799  0.1136
  638MPD2     N 9452   3.152   0.820  15.232  0.1413  0.1425  0.2906
  638MPD2    H5 9453   3.115   0.771  15.150  0.4401  1.0253 -0.3677
  638MPD2    N1 9454   3.303   1.134  14.889  0.1934  0.3794  0.1997
  638MPD2    H7 9455   3.383   1.191  14.863  0.1037  0.7838  0.8180
  639TMC3    C1 9456   3.112   0.610  15.323 -0.0321 -0.6391  0.2295
  639TMC3    C2 9457   3.022   0.588  15.222 -0.2661  0.0170  0.0933
  639TMC3    C3 9458   2.969   0.460  15.206  0.3430 -0.1178  0.0057
  639TMC3    C4 9459   3.160   0.508  15.401 -0.5211  0.6292  0.5400
  639TMC3    C5 9460   3.092   0.387  15.388 -0.1292 -0.4360 -0.3714
  639TMC3    C6 9461   2.998   0.361  15.291  1.3805  0.2658  0.2382
  639TMC3     C 9462   3.187   0.736  15.337 -0.0832 -0.4811  0.7187
  639TMC3     O 9463   3.274   0.750  15.423 -1.0503 -0.0439 -0.1844
  639TMC3     H 9464   2.970   0.661  15.161  0.2701 -1.1060 -1.7081
  639TMC3    H1 9465   3.223   0.513  15.489 -0.4841  0.5344  0.5184
  639TMC3    H2 9466   2.979   0.256  15.272 -0.2233  0.9799 -2.1082
  639TMC3    C7 9467   3.173   0.269  15.423  0.5721  0.4418  0.0080
  639TMC3    C8 9468   2.906   0.438  15.073  0.6294 -0.1298  1.0438
  639TMC3    O1 9469   3.125   0.156  15.409 -0.3308  0.5561 -0.4279
  639TMC3    O2 9470   2.912   0.527  14.992 -0.3179  0.4122 -0.3564
  640MPD2     C 9471   3.418   4.651  10.617 -0.3554 -0.4004  0.4997
  640MPD2    C1 9472   3.333   4.633  10.514 -0.1181 -0.2438 -0.0204
  640MPD2    C2 9473   3.201   4.655  10.530 -0.0608 -0.2162 -0.3602
  640MPD2    C3 9474   3.156   4.717  10.654  0.6074 -0.0628  0.0090
  640MPD2    C4 9475   3.249   0.014  10.756  0.4256  0.5634  0.1559
  640MPD2    C5 9476   3.383   4.703  10.736  0.3685 -0.0731  0.6689
  640MPD2     H 9477   3.134   4.638  10.446  1.4654 -0.1130 -1.5869
  640MPD2    H1 9478   3.226   0.062  10.850  3.2325  2.6387 -0.2391
  640MPD2    H2 9479   3.521   4.624  10.597 -0.0915  2.3937 -1.9197
  640MPD2    H3 9480   3.460   0.008  10.807  1.3293 -1.0376 -0.0088
  640MPD2     N 9481   3.029   0.062  10.668 -0.7097 -0.3276 -0.4830
  640MPD2    H5 9482   3.019   0.124  10.747  3.1347 -1.5323  0.9350
  640MPD2    N1 9483   3.390   4.600  10.391  0.0753 -0.1070  0.0890
  640MPD2    H7 9484   3.491   4.591  10.388  0.1604  0.8194  0.0474
  641TMC3    C1 9485   3.399   4.551  10.162 -0.3048  0.9013 -0.0773
  641TMC3    C2 9486   3.350   4.449  10.083  0.5799  0.0381 -0.2094
  641TMC3    C3 9487   3.412   4.445   9.958 -0.9010  0.4423  0.4106
  641TMC3    C4 9488   3.492   4.640  10.123 -0.2223  0.1958 -0.3140
  641TMC3    C5 9489   3.559   4.619  10.004  0.7740 -0.3587  0.2316
  641TMC3    C6 9490   3.512   4.530   9.919 -0.9071 -0.0483 -0.0679
  641TMC3     C 9491   3.317   4.565  10.278 -0.0391 -0.1481  0.7225
  641TMC3     O 9492   3.205   4.519  10.273  0.1819  0.1631 -0.4287
  641TMC3     H 9493   3.269   4.380  10.106 -0.7641  1.2176 -1.4083
  641TMC3    H1 9494   3.527   4.722  10.184 -0.0834  0.2914 -0.5224
  641TMC3    H2 9495   3.555   4.508   9.822 -0.2613  2.3092 -0.3005
  641TMC3    C7 9496   3.616   0.018   9.949  0.5096 -0.6565  0.4631
  641TMC3    C8 9497   3.408   4.318   9.895 -0.3693  0.4867 -0.6511
  641TMC3    O1 9498   3.587   0.122  10.005  0.3460 -0.0020  0.3049
  641TMC3    O2 9499   3.452   4.312   9.781  0.5143  0.2313 -0.1759
  642TMC3    C1 9500   0.150   0.900  12.009 -0.1515  0.0071 -1.0105
  642TMC3    C2 9501   0.231   0.936  12.117 -0.1597  0.4782  0.3228
  642TMC3    C3 9502   0.264   0.840  12.210  0.3478 -0.1530  0.1182
  642TMC3    C4 9503   0.088   0.782  12.006 -0.2331  0.2475 -0.0592
  642TMC3    C5 9504   0.113   0.692  12.109  0.2013  1.0344 -0.0407
  642TMC3    C6 9505   0.200   0.721  12.207  0.3526 -0.2007 -0.3494
  642TMC3     C 9506   0.075   1.009  11.957 -0.0343 -0.4151 -0.6202
  642TMC3     O 9507   0.061   1.003  11.839  0.4126  0.0722 -0.2938
  642TMC3     H 9508   0.280   1.033  12.109 -3.2005  2.2180  2.5937
  642TMC3    H1 9509   0.014   0.767  11.928  0.5571 -0.4187 -0.6751
  642TMC3    H2 9510   0.218   0.651  12.288  2.0289 -1.4628 -1.8076
  642TMC3    C7 9511   0.017   0.584  12.108  0.6912  0.8650  0.7593
  642TMC3    C8 9512   0.398   0.854  12.270  0.1336 -0.9071 -0.1045
  642TMC3    O1 9513   4.691   0.561  11.998  0.1094 -0.6538  0.4066
  642TMC3    O2 9514   0.458   0.752  12.291 -0.0209 -0.2521 -0.1050
  643TMC3    C1 9515   4.409   0.336   0.509 -0.6141 -0.2526 -0.2739
  643TMC3    C2 9516   4.316   0.372   0.420  0.3876 -0.1486 -0.3022
  643TMC3    C3 9517   4.307   0.304   0.300 -0.2379 -0.3536 -0.4989
  643TMC3    C4 9518   4.487   0.233   0.486  0.7374 -0.7221 -0.7511
  643TMC3    C5 9519   4.482   0.167   0.366  0.0966 -0.1106  0.1490
  643TMC3    C6 9520   4.379   0.194   0.270  0.8971 -0.3318  0.2143
  643TMC3     C 9521   4.434   0.439   0.609  0.3051  0.6286 -0.3430
  643TMC3     O 9522   4.373   0.545   0.609  0.4673  0.2102 -0.5203
  643TMC3     H 9523   4.246   0.453   0.439  1.6435  0.9279 -0.2327
  643TMC3    H1 9524   4.564   0.198   0.554  0.5171  0.8334  0.2996
  643TMC3    H2 9525   4.366   0.133   0.181 -0.0602 -0.3275  0.3453
  643TMC3    C7 9526   4.532   0.032   0.373 -0.7396 -0.0473 -0.5540
  643TMC3    C8 9527   4.267   0.379   0.184 -0.0256  0.3575 -0.1471
  643TMC3    O1 9528   4.523   4.699   0.476 -0.3987 -0.1647  0.1595
  643TMC3    O2 9529   4.265   0.316   0.079 -0.1571 -0.6794  0.3759
  644MPD2     C 9530   3.928   0.589  10.050  0.0466 -0.7194 -0.0536
  644MPD2    C1 9531   3.835   0.502  10.107 -0.0875 -0.0433  0.9860
  644MPD2    C2 9532   3.723   0.561  10.168 -0.6115  0.2662  0.2283
  644MPD2    C3 9533   3.699   0.697  10.157 -0.1603  0.3380 -0.0332
  644MPD2    C4 9534   3.785   0.778  10.092  0.0194  0.0026  0.1634
  644MPD2    C5 9535   3.901   0.720  10.046  0.1347 -0.4780  0.7670
  644MPD2     H 9536   3.650   0.493  10.210 -1.2494  1.3629  0.8923
  644MPD2    H1 9537   3.763   0.880  10.063  1.8332  1.3306  3.4116
  644MPD2    H2 9538   4.029   0.557  10.029  0.3893  0.2076  0.1855
  644MPD2    H3 9539   3.978   0.788  10.012 -0.5699 -0.2100 -0.2999
  644MPD2     N 9540   3.578   0.752  10.207  0.7051  0.7039  0.6926
  644MPD2    H5 9541   3.496   0.694  10.223  0.8040  0.0495 -1.1388
  644MPD2    N1 9542   3.875   0.367  10.117  0.4587 -0.0164  1.1670
  644MPD2    H7 9543   3.951   0.340  10.056 -1.5171 -0.4451 -1.1031
  645TMC3    C1 9544   3.433   0.930  10.273 -0.0061  0.3528  0.2294
  645TMC3    C2 9545   3.427   1.056  10.331 -0.3081  0.1075  0.3831
  645TMC3    C3 9546   3.302   1.111  10.345  0.7319 -0.1948 -0.2764
  645TMC3    C4 9547   3.315   0.867  10.231  0.1856  0.0165  0.8029
  645TMC3    C5 9548   3.200   0.935  10.239 -0.6163 -1.0293  0.5125
  645TMC3    C6 9549   3.189   1.054  10.294 -0.1428 -0.0439 -0.7549
  645TMC3     C 9550   3.561   0.885  10.231  0.3406  0.1407 -0.2464
  645TMC3     O 9551   3.644   0.973  10.232  0.6385 -0.0153 -0.5589
  645TMC3     H 9552   3.512   1.120  10.353  0.9390 -1.4593  0.1464
  645TMC3    H1 9553   3.329   0.782  10.164 -1.8628 -0.3474  0.8356
  645TMC3    H2 9554   3.097   1.111  10.299 -0.9322 -1.2778 -1.1283
  645TMC3    C7 9555   3.090   0.889  10.162 -0.5087  0.8822  0.0193
  645TMC3    C8 9556   3.295   1.237  10.402 -0.1829 -0.6219 -0.9498
  645TMC3    O1 9557   3.077   0.763  10.152 -0.4296  0.3575  0.3938
  645TMC3    O2 9558   3.250   1.324  10.331 -0.2538  0.0533 -0.5130
  646MPD2     C 9559   3.508   4.457  14.304  0.6469 -0.0711  0.6871
  646MPD2    C1 9560   3.405   4.452  14.389  0.4430 -0.7902 -0.0983
  646MPD2    C2 9561   3.324   4.564  14.399  0.0302  0.6349 -0.3338
  646MPD2    C3 9562   3.336   4.671  14.310  0.1291  0.4632  0.9408
  646MPD2    C4 9563   3.450   4.676  14.225  0.5908 -0.0710 -0.3177
  646MPD2    C5 9564   3.535   4.569  14.226 -0.3868 -0.2592 -0.1071
  646MPD2     H 9565   3.236   4.569  14.463 -0.3585 -0.6269 -0.7604
  646MPD2    H1 9566   3.463   0.035  14.156  1.7757  0.3137  0.3667
  646MPD2    H2 9567   3.573   4.372  14.285  0.6458 -0.0978  0.8036
  646MPD2    H3 9568   3.608   4.572  14.147 -1.1706  0.4906 -0.8052
  646MPD2     N 9569   3.241   0.055  14.313 -0.2713 -0.5049  0.5432
  646MPD2    H5 9570   3.166   0.052  14.382  0.5148  1.2668  1.4725
  646MPD2    N1 9571   3.389   4.342  14.471 -0.2680  0.0769 -0.3286
  646MPD2    H7 9572   3.443   4.262  14.441  3.3937  1.5678  2.3150
  647TMC3    C1 9573   3.305   4.186  14.631  0.4985 -0.5830  0.0509
  647TMC3    C2 9574   3.202   4.159  14.715 -0.1633 -0.3164 -0.3767
  647TMC3    C3 9575   3.208   4.041  14.784 -0.2213 -0.0197  0.2337
  647TMC3    C4 9576   3.412   4.099  14.606 -0.0849  0.4584 -0.7184
  647TMC3    C5 9577   3.413   3.983  14.669  0.5451  0.0265  0.1355
  647TMC3    C6 9578   3.313   3.950  14.759 -0.1225  0.6699  0.2316
  647TMC3     C 9579   3.303   4.322  14.574  1.3398  0.1687  0.6696
  647TMC3     O 9580   3.219   4.397  14.621  0.6359  0.0608  0.5024
  647TMC3     H 9581   3.120   4.229  14.720 -0.5368 -0.9153  2.0062
  647TMC3    H1 9582   3.493   4.112  14.536  0.7822 -3.1065 -0.4064
  647TMC3    H2 9583   3.326   3.864  14.825  0.3637  0.7542  0.2488
  647TMC3    C7 9584   3.540   3.909  14.681 -0.2332 -0.1098 -0.3554
  647TMC3    C8 9585   3.087   3.973  14.843 -0.7064  0.3678  0.2269
  647TMC3    O1 9586   3.627   3.940  14.763  0.8124  0.5893 -0.6840
  647TMC3    O2 9587   2.981   4.031  14.832  0.1861  0.0819 -0.0560
  648TMC3    C1 9588   2.613   1.771  16.285  1.0894 -0.1598  0.5511
  648TMC3    C2 9589   2.651   1.649  16.226  0.8347  0.4135 -0.0572
  648TMC3    C3 9590   2.623   1.650  16.090  0.5994 -0.0849  0.0708
  648TMC3    C4 9591   2.545   1.871  16.221  1.1985  0.8486  0.1411
  648TMC3    C5 9592   2.513   1.859  16.086 -0.5483  0.7618 -0.4770
  648TMC3    C6 9593   2.562   1.747  16.019 -0.5703  0.1059  0.2530
  648TMC3     C 9594   2.665   1.810  16.412  0.2060 -0.2361 -0.1248
  648TMC3     O 9595   2.680   1.925  16.452  0.4860  0.3922 -0.0707
  648TMC3     H 9596   2.721   1.577  16.265  2.5266  2.3061  0.3731
  648TMC3    H1 9597   2.534   1.966  16.271  1.1367  2.2784 -2.5474
  648TMC3    H2 9598   2.559   1.744  15.911  0.7506  2.6255  0.1325
  648TMC3    C7 9599   2.472   1.975  16.005  0.4332 -0.3926  0.3842
  648TMC3    C8 9600   2.675   1.545  16.013 -0.0167  0.2181 -0.1146
  648TMC3    O1 9601   2.485   1.968  15.881 -0.5585  0.2596 -0.2078
  648TMC3    O2 9602   2.712   1.559  15.897 -0.0748 -0.5544  0.2966
  649TMC3    C1 9603   1.322   3.074  12.825  0.6893 -0.5840  0.6109
  649TMC3    C2 9604   1.454   3.090  12.845  0.8209  0.6204 -0.1484
  649TMC3    C3 9605   1.499   3.043  12.964  0.8837  0.4152 -0.1924
  649TMC3    C4 9606   1.242   3.009  12.916 -0.3640  0.4582 -0.3507
  649TMC3    C5 9607   1.297   2.956  13.026 -0.0625 -0.7803 -0.0409
  649TMC3    C6 9608   1.428   2.972  13.050  0.0565  1.2001  0.2802
  649TMC3     C 9609   1.265   3.123  12.705  0.3854  0.7442 -0.7675
  649TMC3     O 9610   1.149   3.152  12.701 -0.2834  0.6152  0.5193
  649TMC3     H 9611   1.499   3.163  12.778 -0.7315  2.8882  1.2833
  649TMC3    H1 9612   1.135   3.003  12.897 -0.2162  2.9345 -2.0429
  649TMC3    H2 9613   1.469   2.936  13.144 -0.6576  0.8703  0.4653
  649TMC3    C7 9614   1.212   2.924  13.133  0.0639 -0.0942  0.7066
  649TMC3    C8 9615   1.640   3.066  13.002  0.1326  0.6460  0.1820
  649TMC3    O1 9616   1.095   2.963  13.123 -0.2949  0.1666 -0.1606
  649TMC3    O2 9617   1.689   3.004  13.096  0.0015  0.3218 -0.2672
  650TMC3    C1 9618   4.419   0.289  12.978 -0.3154  0.1863  0.1520
  650TMC3    C2 9619   4.430   0.427  12.975 -0.1161 -0.7636  0.2180
  650TMC3    C3 9620   4.386   0.488  12.857  0.0158 -0.1500 -0.2379
  650TMC3    C4 9621   4.391   0.210  12.870  0.8926  0.3204  0.0268
  650TMC3    C5 9622   4.352   0.277  12.754 -0.5976  0.1465  0.0283
  650TMC3    C6 9623   4.341   0.416  12.751 -0.0130  0.6436  0.2386
  650TMC3     C 9624   4.427   0.220  13.104 -0.3223  0.6509  0.0750
  650TMC3     O 9625   4.468   0.276  13.203 -0.4380 -0.0531 -0.5596
  650TMC3     H 9626   4.473   0.487  13.054 -1.5851  0.7129 -0.1053
  650TMC3    H1 9627   4.383   0.102  12.870  2.3451  0.2003 -0.9724
  650TMC3    H2 9628   4.336   0.454  12.650  0.7523 -2.0259 -0.8054
  650TMC3    C7 9629   4.263   0.201  12.669 -0.8080 -0.3261 -0.5800
  650TMC3    C8 9630   4.386   0.638  12.847  0.2073  0.1179 -0.2854
  650TMC3    O1 9631   4.276   0.081  12.675 -0.3665  0.1509  0.7450
  650TMC3    O2 9632   4.375   0.666  12.729  0.3793  0.2032  0.5034
  651MPD2     C 9633   2.460   2.002  10.953 -0.3907 -0.0540 -1.0560
  651MPD2    C1 9634   2.466   2.140  10.926  0.7285 -0.2012  0.2810
  651MPD2    C2 9635   2.589   2.204  10.935  0.4289 -0.3342  0.2767
  651MPD2    C3 9636   2.698   2.131  10.985  0.6149  0.3653  0.3966
  651MPD2    C4 9637   2.692   1.998  11.012 -0.3121 -0.2095  0.3172
  651MPD2    C5 9638   2.572   1.936  10.994 -0.1477 -0.1059  0.1268
  651MPD2     H 9639   2.599   2.306  10.902 -2.2227 -0.3255 -0.4513
  651MPD2    H1 9640   2.781   1.946  11.047 -1.0024 -2.2644 -1.0476
  651MPD2    H2 9641   2.373   1.939  10.935  0.2513 -1.3555  0.4117
  651MPD2    H3 9642   2.557   1.834  11.024 -0.0128  0.1635  1.1021
  651MPD2     N 9643   2.814   2.213  11.004  0.2431  0.5095  1.1698
  651MPD2    H5 9644   2.810   2.310  10.975  1.6961 -0.5571 -2.6034
  651MPD2    N1 9645   2.357   2.224  10.891  0.3603 -0.0129 -0.4157
  651MPD2    H7 9646   2.381   2.322  10.888 -0.7012  0.3077  1.3993
  652TMC3    C1 9647   3.207   2.384  10.941 -0.3644 -0.3282 -0.4564
  652TMC3    C2 9648   3.138   2.272  10.971  0.8453  0.2579  0.1534
  652TMC3    C3 9649   3.031   2.282  11.049 -0.6000  0.3272 -0.0848
  652TMC3    C4 9650   3.161   2.503  10.993  0.2891  0.1987 -0.7266
  652TMC3    C5 9651   3.047   2.514  11.069 -0.5874 -0.5587 -0.3590
  652TMC3    C6 9652   2.975   2.399  11.095  0.4709 -0.0825  0.5538
  652TMC3     C 9653   3.351   2.369  10.921 -0.3039  0.7913  0.0212
  652TMC3     O 9654   3.419   2.273  10.962 -0.0598 -0.8219  0.4393
  652TMC3     H 9655   3.185   2.175  10.966  1.9912  0.7509  1.5616
  652TMC3    H1 9656   3.217   2.592  10.968  1.2907 -0.9083 -2.4476
  652TMC3    H2 9657   2.882   2.405  11.149  1.2088 -0.9990  1.9371
  652TMC3    C7 9658   3.071   2.585  11.197 -0.0562  0.1487 -0.2634
  652TMC3    C8 9659   2.941   2.174  11.039 -0.4517  0.1562 -0.3172
  652TMC3    O1 9660   3.028   2.540  11.301  0.3452 -0.8703 -0.0323
  652TMC3    O2 9661   2.992   2.064  11.032  0.0689 -0.2226 -1.4548
  653MPD2     C 9662   1.997   1.660   0.326  0.5244 -0.5938 -0.2915
  653MPD2    C1 9663   1.964   1.764   0.237 -1.4106  0.1452 -0.4651
  653MPD2    C2 9664   1.930   1.717   0.111  0.0153  0.7361 -0.0971
  653MPD2    C3 9665   1.923   1.591   0.068  0.4557  0.3719  0.2195
  653MPD2    C4 9666   1.966   1.492   0.157 -0.3622 -0.2683  0.5170
  653MPD2    C5 9667   1.990   1.530   0.289 -0.0377  0.0712 -0.5041
  653MPD2     H 9668   1.914   1.792   0.034  0.6416  3.4463  2.4010
  653MPD2    H1 9669   1.974   1.386   0.138  0.6897 -0.0917 -0.0261
  653MPD2    H2 9670   2.030   1.686   0.426  1.2451  1.1595 -0.9960
  653MPD2    H3 9671   2.015   1.454   0.362  0.4711 -1.8192 -2.6623
  653MPD2     N 9672   1.858   1.564  17.640 -0.6363  0.1119  0.1689
  653MPD2    H5 9673   1.819   1.645  17.593 -1.4157  1.2963  2.8685
  653MPD2    N1 9674   1.974   1.904   0.262 -0.0169 -0.7139 -0.6077
  653MPD2    H7 9675   1.941   1.974   0.196 -0.8266 -0.2216  0.3134
  654TMC3    C1 9676   1.781   1.447  17.453  0.1192  0.9657 -0.4278
  654TMC3    C2 9677   1.742   1.567  17.387 -1.3645 -0.4850  0.1955
  654TMC3    C3 9678   1.677   1.555  17.266  0.5505 -0.3609  0.1968
  654TMC3    C4 9679   1.758   1.327  17.395 -0.0174  0.3845  0.4180
  654TMC3    C5 9680   1.695   1.323  17.272 -0.0946 -0.0957 -0.6949
  654TMC3    C6 9681   1.640   1.433  17.210  0.2536  0.2983 -0.1744
  654TMC3     C 9682   1.851   1.444  17.575  0.3995 -0.8188 -1.0528
  654TMC3     O 9683   1.904   1.340  17.601 -0.6098 -0.0653 -0.1129
  654TMC3     H 9684   1.776   1.667  17.411  0.1554 -0.9344 -0.0531
  654TMC3    H1 9685   1.790   1.235  17.444  1.1009  0.4564 -0.1843
  654TMC3    H2 9686   1.590   1.420  17.115 -2.6565 -0.1656  1.3985
  654TMC3    C7 9687   1.657   1.200  17.212  0.1736  0.4589  0.1634
  654TMC3    C8 9688   1.636   1.683  17.208  0.5117  0.1820 -0.2521
  654TMC3    O1 9689   1.573   1.208  17.123  0.0184 -0.5303  0.1392
  654TMC3    O2 9690   1.621   1.777  17.282 -0.0536 -0.0790 -0.5364
  655MPD2     C 9691   3.158   1.976  15.703 -0.5387 -0.6696  0.7336
  655MPD2    C1 9692   3.058   2.037  15.636 -0.5489 -0.6004  0.2594
  655MPD2    C2 9693   3.042   2.018  15.500 -0.0157  0.6334 -0.5310
  655MPD2    C3 9694   3.118   1.920  15.440  0.7749  0.1774  0.4702
  655MPD2    C4 9695   3.216   1.850  15.504 -0.6111  0.7426  0.0655
  655MPD2    C5 9696   3.241   1.884  15.639  0.0108 -0.7616  0.0137
  655MPD2     H 9697   2.956   2.057  15.448 -1.1675  2.4092  2.6691
  655MPD2    H1 9698   3.278   1.777  15.454  1.0387  2.5373 -0.5240
  655MPD2    H2 9699   3.178   1.998  15.807 -2.7830 -0.6525  1.1750
  655MPD2    H3 9700   3.313   1.829  15.699 -1.1917  1.0543  3.0837
  655MPD2     N 9701   3.089   1.891  15.304 -0.6299  0.0296  0.8138
  655MPD2    H5 9702   3.013   1.944  15.262 -1.8829  0.1627  3.2184
  655MPD2    N1 9703   2.975   2.131  15.705  0.3882  0.1590  0.4132
  655MPD2    H7 9704   2.907   2.168  15.639  0.6928 -1.5978 -0.8822
  656TMC3    C1 9705   2.846   2.220  15.879 -0.4906 -0.9289  0.0857
  656TMC3    C2 9706   2.806   2.211  16.006  0.2964  0.2675 -0.6736
  656TMC3    C3 9707   2.708   2.303  16.048 -0.2245 -0.8328  0.4697
  656TMC3    C4 9708   2.788   2.302  15.791 -0.4023  0.3413  0.3114
  656TMC3    C5 9709   2.695   2.394  15.843 -0.3351 -0.2378 -1.4467
  656TMC3    C6 9710   2.657   2.397  15.969  1.0455 -0.8010 -0.0047
  656TMC3     C 9711   2.956   2.138  15.842  0.3579  0.0188 -0.3915
  656TMC3     O 9712   3.007   2.066  15.924 -0.7149 -0.0831 -0.1826
  656TMC3     H 9713   2.855   2.153  16.082 -2.2541 -0.0151  0.7413
  656TMC3    H1 9714   2.807   2.302  15.684  1.2757  2.2626  0.6145
  656TMC3    H2 9715   2.575   2.462  15.996  2.4365  1.3809 -1.0698
  656TMC3    C7 9716   2.607   2.448  15.741 -0.0605  0.3966 -0.3088
  656TMC3    C8 9717   2.656   2.283  16.182  0.1863 -0.1022 -0.3120
  656TMC3    O1 9718   2.623   2.398  15.631  0.3593 -0.1735 -0.4606
  656TMC3    O2 9719   2.650   2.170  16.232  0.5667 -0.3536 -0.4992
  657TMC3    C1 9720   2.828   1.692  14.500  1.7347 -0.1137 -0.2044
  657TMC3    C2 9721   2.708   1.673  14.578  0.0951 -0.0553  1.1533
  657TMC3    C3 9722   2.591   1.723  14.530 -0.1081  0.0761 -0.3704
  657TMC3    C4 9723   2.832   1.777  14.393  0.1255  0.5617  0.0461
  657TMC3    C5 9724   2.710   1.831  14.361  0.2902  0.6649 -0.4804
  657TMC3    C6 9725   2.585   1.803  14.418  0.2928  0.0634 -0.3527
  657TMC3     C 9726   2.963   1.647  14.542  0.2048 -0.4829 -1.0086
  657TMC3     O 9727   3.057   1.666  14.473 -0.0056 -0.4585  0.4649
  657TMC3     H 9728   2.705   1.591  14.649 -0.6306  0.0261  1.2182
  657TMC3    H1 9729   2.922   1.799  14.338  0.8326 -1.7647  0.2605
  657TMC3    H2 9730   2.494   1.856  14.391 -0.6287 -0.9248  0.8586
  657TMC3    C7 9731   2.700   1.945  14.271 -0.2367 -0.1739  0.2569
  657TMC3    C8 9732   2.477   1.686  14.609  0.2235 -0.4259  1.1372
  657TMC3    O1 9733   2.594   1.970  14.213 -0.4654  0.5673  0.0556
  657TMC3    O2 9734   2.495   1.620  14.710  0.6648  0.3469  0.7440
  658MPD2     C 9735   3.610   1.878  14.731  0.6839 -0.2767  0.3517
  658MPD2    C1 9736   3.481   1.874  14.683  0.1390  0.3449 -0.5505
  658MPD2    C2 9737   3.464   1.844  14.543  0.3252  0.2404  0.2412
  658MPD2    C3 9738   3.572   1.821  14.464  0.6110 -0.3589 -0.5454
  658MPD2    C4 9739   3.697   1.840  14.516 -0.5481  0.5748 -0.2682
  658MPD2    C5 9740   3.719   1.867  14.645 -0.5623 -0.2783 -0.4855
  658MPD2     H 9741   3.364   1.824  14.507  0.1446 -0.3214  1.0412
  658MPD2    H1 9742   3.791   1.832  14.462  1.2282 -0.2627  2.9453
  658MPD2    H2 9743   3.627   1.905  14.834 -2.9193 -0.0250  0.8774
  658MPD2    H3 9744   3.819   1.879  14.686 -0.9630 -0.0847  0.4216
  658MPD2     N 9745   3.553   1.798  14.323 -0.2226 -0.1967  0.2932
  658MPD2    H5 9746   3.456   1.787  14.295 -0.0360 -0.3615 -0.2758
  658MPD2    N1 9747   3.386   1.888  14.783  0.4815  0.1590 -0.2494
  658MPD2    H7 9748   3.417   1.900  14.879  0.2813  0.9112 -0.2840
  659TMC3    C1 9749   3.158   1.919  14.861  0.0039  0.0268 -0.3907
  659TMC3    C2 9750   3.200   1.870  14.985 -0.1878  0.2125 -0.8231
  659TMC3    C3 9751   3.108   1.861  15.084  0.0492 -0.5276 -0.4557
  659TMC3    C4 9752   3.028   1.952  14.841 -0.4306  1.1561 -0.0999
  659TMC3    C5 9753   2.937   1.935  14.939 -0.2445  0.0330  0.3509
  659TMC3    C6 9754   2.976   1.901  15.071  0.3487 -0.0227  0.1910
  659TMC3     C 9755   3.251   1.909  14.749 -0.5778 -0.7491 -0.0113
  659TMC3     O 9756   3.206   1.916  14.633 -0.5646  0.6994 -0.1264
  659TMC3     H 9757   3.292   1.814  14.998 -0.1751  0.6543  0.9803
  659TMC3    H1 9758   3.010   1.997  14.744  1.2781 -0.3886 -1.1471
  659TMC3    H2 9759   2.906   1.886  15.151  1.7335 -0.1882  1.3772
  659TMC3    C7 9760   2.791   1.954  14.934 -0.1677 -0.5640  1.1962
  659TMC3    C8 9761   3.157   1.820  15.216 -0.3077  0.6500 -0.2574
  659TMC3    O1 9762   2.735   1.953  15.044  0.2114  0.1897  0.7604
  659TMC3    O2 9763   3.256   1.748  15.225  0.0074 -0.2396  0.2687
  660MPD2     C 9764   1.320   0.834  12.665 -0.6138  0.2015 -0.2253
  660MPD2    C1 9765   1.210   0.776  12.611  0.2625 -0.3733 -0.2290
  660MPD2    C2 9766   1.117   0.717  12.700 -0.8368  0.6402 -1.3342
  660MPD2    C3 9767   1.147   0.719  12.835  0.0566  0.7058  0.2701
  660MPD2    C4 9768   1.260   0.783  12.882 -0.1099 -0.4466  0.3754
  660MPD2    C5 9769   1.350   0.839  12.802  0.0573 -0.0412  0.2098
  660MPD2     H 9770   1.022   0.676  12.668 -2.0025 -0.3269  3.3343
  660MPD2    H1 9771   1.270   0.792  12.990  1.2563 -3.1167  0.4682
  660MPD2    H2 9772   1.380   0.897  12.602  1.9539 -0.6463  1.3563
  660MPD2    H3 9773   1.443   0.882  12.838  1.1947 -0.8934 -1.6756
  660MPD2     N 9774   1.044   0.686  12.932 -0.1401  0.2299 -0.2260
  660MPD2    H5 9775   1.072   0.695  13.030  0.4966  0.8481 -0.4592
  660MPD2    N1 9776   1.198   0.778  12.470 -0.5838  0.0079  0.6000
  660MPD2    H7 9777   1.267   0.832  12.420 -1.0281 -1.3475 -1.4830
  661TMC3    C1 9778   1.127   0.710  12.257  0.3345  0.5467  0.4062
  661TMC3    C2 9779   1.256   0.727  12.218 -0.4365  0.2393 -0.1413
  661TMC3    C3 9780   1.263   0.766  12.086 -0.7043 -0.6361  0.4904
  661TMC3    C4 9781   1.016   0.730  12.174 -0.5003  0.3017 -0.6611
  661TMC3    C5 9782   1.030   0.777  12.048  0.0270  0.9449 -0.6551
  661TMC3    C6 9783   1.157   0.801  12.005 -0.2815  0.2100 -0.4806
  661TMC3     C 9784   1.100   0.713  12.396  0.4035 -0.6931 -0.7202
  661TMC3     O 9785   0.995   0.665  12.424  0.7069 -0.2978 -0.0979
  661TMC3     H 9786   1.344   0.706  12.277 -1.1663  2.2334  1.6447
  661TMC3    H1 9787   0.919   0.737  12.223  0.6166  3.5784  1.0629
  661TMC3    H2 9788   1.158   0.822  11.898 -2.3068  1.0553 -0.3334
  661TMC3    C7 9789   0.931   0.871  11.998  0.6064 -1.2139 -0.6963
  661TMC3    C8 9790   1.393   0.779  12.030 -0.5023  0.6864  0.2609
  661TMC3    O1 9791   0.973   0.984  11.980  0.3157  0.5141 -0.0036
  661TMC3    O2 9792   1.479   0.712  12.084 -0.1038 -0.0093  0.3391
  662MPD2     C 9793   1.570   0.725  17.505 -0.5226 -0.0949 -0.3718
  662MPD2    C1 9794   1.592   0.652  17.613  0.2795  0.3045 -0.4683
  662MPD2    C2 9795   1.523   0.675   0.040  0.4867  0.0299 -0.3663
  662MPD2    C3 9796   1.423   0.777   0.044 -0.0875  0.4373  0.1712
  662MPD2    C4 9797   1.408   0.850  17.624  0.3660 -0.5594  0.2004
  662MPD2    C5 9798   1.479   0.826  17.511  0.1819 -0.5596 -0.8364
  662MPD2     H 9799   1.529   0.610   0.127  0.7532  0.1893 -0.2665
  662MPD2    H1 9800   1.346   0.939  17.633  0.6670 -0.4660  1.3765
  662MPD2    H2 9801   1.617   0.703  17.410  0.3146 -0.5148  0.1447
  662MPD2    H3 9802   1.454   0.887  17.426  0.6511  2.0597  0.8996
  662MPD2     N 9803   1.363   0.813   0.166 -0.4374  0.4643  0.6596
  662MPD2    H5 9804   1.296   0.889   0.166  1.1821  1.8957  0.6906
  662MPD2    N1 9805   1.687   0.546  17.613 -0.3735 -0.2304  0.0240
  662MPD2    H7 9806   1.700   0.507   0.012  1.9753 -0.4464 -0.4040
  663TMC3    C1 9807   1.842   0.382  17.547 -0.8692 -0.0310 -0.0266
  663TMC3    C2 9808   1.902   0.381  17.672  0.4900  0.6946 -0.1256
  663TMC3    C3 9809   2.013   0.309  17.686 -0.8540  0.5836  0.4779
  663TMC3    C4 9810   1.852   0.270  17.466  0.1666  0.0322 -0.8874
  663TMC3    C5 9811   1.946   0.179  17.500 -0.0939 -0.5367 -0.3002
  663TMC3    C6 9812   2.035   0.204  17.602  0.1629 -0.6212 -0.3122
  663TMC3     C 9813   1.736   0.473  17.503 -0.0158 -0.0300  0.0863
  663TMC3     O 9814   1.705   0.476  17.383  0.0790 -0.5952 -0.1556
  663TMC3     H 9815   1.899   0.469   0.040 -0.4230  0.3667  0.2895
  663TMC3    H1 9816   1.809   0.268  17.366 -3.0181  0.5767  0.4805
  663TMC3    H2 9817   2.096   0.122  17.639  1.2637 -0.2122 -1.2520
  663TMC3    C7 9818   1.908   0.041  17.499 -0.3009 -0.3262  1.1676
  663TMC3    C8 9819   2.050   0.280   0.122  0.0395  0.1921 -0.3319
  663TMC3    O1 9820   1.985   4.674  17.538 -0.0539  0.3724  0.1438
  663TMC3    O2 9821   2.156   0.223   0.142 -0.8240 -0.7201  0.4132
  664MPD2     C 9822   4.134   3.534   0.037 -0.0680  0.1391 -1.0848
  664MPD2    C1 9823   4.188   3.655   0.034  0.3204  0.0005 -0.3706
  664MPD2    C2 9824   4.207   3.719   0.155  0.3429  0.0154  0.5769
  664MPD2    C3 9825   4.166   3.661   0.278  0.5789  0.1844 -0.2061
  664MPD2    C4 9826   4.117   3.531   0.281 -0.6793 -0.4955  0.6866
  664MPD2    C5 9827   4.100   3.469   0.162  0.0024  0.1453  0.1245
  664MPD2     H 9828   4.240   3.821   0.171  1.2419 -0.0131 -1.1198
  664MPD2    H1 9829   4.093   3.470   0.367 -1.4453 -2.3992 -0.8727
  664MPD2    H2 9830   4.102   3.485  17.640 -1.7356 -2.8391  1.1194
  664MPD2    H3 9831   4.045   3.375   0.165  1.6943 -0.9358 -2.2789
  664MPD2     N 9832   4.191   3.732   0.396 -0.1527  1.0014 -0.1633
  664MPD2    H5 9833   4.258   3.808   0.391 -1.1548  1.8275 -1.1666
  664MPD2    N1 9834   4.208   3.731  17.611  0.0779  0.2359  0.2052
  664MPD2    H7 9835   4.263   3.816  17.618  0.9433 -0.2375 -0.9857
  665TMC3    C1 9836   4.204   3.755   0.630  0.3155  0.6330 -0.2569
  665TMC3    C2 9837   4.145   3.737   0.755 -0.3266 -0.2592 -0.7416
  665TMC3    C3 9838   4.181   3.806   0.861 -0.6630  1.2578  0.3628
  665TMC3    C4 9839   4.295   3.861   0.618 -0.5921 -0.1585  0.5991
  665TMC3    C5 9840   4.337   3.925   0.734  0.7048  0.4785  0.9060
  665TMC3    C6 9841   4.276   3.899   0.855 -0.9334 -0.3925  0.1355
  665TMC3     C 9842   4.154   3.675   0.518 -0.0479  1.1655 -0.2140
  665TMC3     O 9843   4.081   3.579   0.548 -0.1971  0.2669 -0.0560
  665TMC3     H 9844   4.074   3.655   0.752 -0.1820 -0.4058 -0.0036
  665TMC3    H1 9845   4.322   3.903   0.523  0.3155 -1.5325  0.2435
  665TMC3    H2 9846   4.269   3.963   0.943 -1.8451 -0.2019 -0.0747
  665TMC3    C7 9847   4.387   4.058   0.713  1.1616  0.4773 -0.8429
  665TMC3    C8 9848   4.094   3.813   0.977  0.9641  0.2855 -0.0543
  665TMC3    O1 9849   4.385   4.110   0.604  0.4358 -0.3000 -0.2078
  665TMC3    O2 9850   4.145   3.860   1.080 -0.3890 -0.2907 -0.3800
  666TMC3    C1 9851   3.032   3.491  10.214 -0.3278  0.3459 -0.2118
  666TMC3    C2 9852   3.149   3.436  10.258  0.8448 -0.0722  0.5748
  666TMC3    C3 9853   3.151   3.402  10.386 -0.7182  0.2425  0.3092
  666TMC3    C4 9854   2.915   3.486  10.286 -0.3284 -0.1206 -0.1690
  666TMC3    C5 9855   2.919   3.454  10.417 -1.0468 -0.0490 -0.4805
  666TMC3    C6 9856   3.044   3.420  10.467  0.4186 -0.0130 -0.0363
  666TMC3     C 9857   3.037   3.511  10.068  0.2222  0.0692 -0.9927
  666TMC3     O 9858   3.133   3.554  10.007  0.4436  0.2631  0.1347
  666TMC3     H 9859   3.239   3.441  10.196  1.1512 -0.2632  1.0047
  666TMC3    H1 9860   2.829   3.535  10.241 -0.2683 -0.4962 -0.6904
  666TMC3    H2 9861   3.059   3.409  10.573  0.5952  1.2734  0.0608
  666TMC3    C7 9862   2.824   3.513  10.510 -0.9091  0.4113 -1.0686
  666TMC3    C8 9863   3.268   3.347  10.453 -0.2688 -0.3899  0.6836
  666TMC3    O1 9864   2.853   3.534  10.624 -0.3363  0.1357  0.5337
  666TMC3    O2 9865   3.254   3.300  10.565 -0.2420  0.3808  0.7267
  667MPD2     C 9866   0.157   3.375  14.538  0.1582 -0.0491 -0.1360
  667MPD2    C1 9867   0.028   3.366  14.596 -0.2256 -0.8843 -0.1521
  667MPD2    C2 9868   4.662   3.279  14.538 -0.5592 -0.0460 -0.4579
  667MPD2    C3 9869   4.690   3.225  14.413  0.2264 -0.0907 -0.9067
  667MPD2    C4 9870   0.088   3.243  14.356 -0.5157  0.7087 -0.1841
  667MPD2    C5 9871   0.190   3.308  14.426  0.5995 -0.6071 -0.4728
  667MPD2     H 9872   4.564   3.258  14.580 -1.7372  1.4327 -2.4662
  667MPD2    H1 9873   0.121   3.186  14.269 -2.7577 -0.2970 -0.3682
  667MPD2    H2 9874   0.240   3.431  14.578  1.2163 -0.0535 -2.3243
  667MPD2    H3 9875   0.290   3.321  14.388  0.3498  1.3715 -0.4620
  667MPD2     N 9876   4.597   3.157  14.338 -0.5000 -0.0903  0.8791
  667MPD2    H5 9877   4.635   3.098  14.265  0.8397  0.7156  0.9160
  667MPD2    N1 9878   4.710   3.442  14.711 -0.0573 -0.6244  0.1015
  667MPD2    H7 9879   4.617   3.419  14.745  0.8819 -1.2032  2.2250
  668TMC3    C1 9880   0.011   3.587  14.894 -0.1816  0.1793 -0.0294
  668TMC3    C2 9881   0.058   3.711  14.944 -0.1582  0.4577 -0.2301
  668TMC3    C3 9882   0.021   3.743  15.072  0.1969  0.2365  0.1055
  668TMC3    C4 9883   4.672   3.504  14.980 -0.0110  0.2085  0.3383
  668TMC3    C5 9884   4.645   3.542  15.108  0.7684 -0.2264  0.2849
  668TMC3    C6 9885   4.677   3.664  15.157  0.0972 -0.3654 -0.8539
  668TMC3     C 9886   0.061   3.539  14.766 -0.1323 -0.5254  0.3646
  668TMC3     O 9887   0.155   3.607  14.717  0.2352 -0.2804 -0.1359
  668TMC3     H 9888   0.108   3.774  14.872 -1.0257 -1.7337 -2.7357
  668TMC3    H1 9889   4.641   3.407  14.943 -0.7960  0.4857  0.2806
  668TMC3    H2 9890   4.647   3.702  15.254 -0.7514  0.9035 -1.6221
  668TMC3    C7 9891   4.610   3.443  15.208 -0.7399 -0.1775  0.1376
  668TMC3    C8 9892   0.100   3.847  15.140  0.3036  0.5039  0.2970
  668TMC3    O1 9893   4.640   3.460  15.325 -0.5404 -0.4461 -0.0212
  668TMC3    O2 9894   0.121   3.838  15.257 -0.4533 -0.2229  0.2723
  669TMC3    C1 9895   3.172   3.127  14.501 -0.6092  0.2977  0.3763
  669TMC3    C2 9896   3.043   3.149  14.477 -0.0719  0.3644  0.5592
  669TMC3    C3 9897   3.014   3.230  14.371 -0.2781  0.2334 -0.0630
  669TMC3    C4 9898   3.274   3.178  14.432 -0.1743 -0.4462  0.6967
  669TMC3    C5 9899   3.241   3.259  14.320 -0.1581  0.5899 -0.2839
  669TMC3    C6 9900   3.110   3.292  14.287  0.6543 -0.6906  0.4218
  669TMC3     C 9901   3.205   3.042  14.606  0.5510 -0.4913  0.5251
  669TMC3     O 9902   3.320   3.013  14.613 -0.4912 -0.2911  0.3426
  669TMC3     H 9903   2.973   3.077  14.519 -1.0275  1.1509  0.3062
  669TMC3    H1 9904   3.380   3.166  14.455 -0.0108 -2.1734 -0.9559
  669TMC3    H2 9905   3.087   3.376  14.222  0.0905 -1.0889  0.1133
  669TMC3    C7 9906   3.348   3.340  14.271  0.0298 -0.3913 -0.1669
  669TMC3    C8 9907   2.880   3.237  14.330 -0.1491 -0.4620  0.1698
  669TMC3    O1 9908   3.441   3.359  14.348  0.2176  0.6220 -0.0107
  669TMC3    O2 9909   2.874   3.284  14.219 -0.2460 -0.3414  0.5251
  670MPD2     C 9910   1.044   1.362  13.736  0.0692  0.6946  0.5666
  670MPD2    C1 9911   1.152   1.374  13.814 -0.1125  0.4106 -0.2043
  670MPD2    C2 9912   1.152   1.322  13.937  0.2213 -0.3637  0.1675
  670MPD2    C3 9913   1.047   1.240  13.979  0.3704  0.2445 -0.3409
  670MPD2    C4 9914   0.944   1.218  13.889  0.0192  0.1618 -0.3410
  670MPD2    C5 9915   0.940   1.280  13.773  0.3877  0.2373  0.0683
  670MPD2     H 9916   1.236   1.338  14.004 -0.6184  0.1102  1.1072
  670MPD2    H1 9917   0.855   1.160  13.910  0.7268 -1.2177 -1.1465
  670MPD2    H2 9918   1.021   1.414  13.644 -3.3021 -0.7542  0.6261
  670MPD2    H3 9919   0.853   1.273  13.709 -0.6755 -2.9127  1.8633
  670MPD2     N 9920   1.037   1.191  14.114 -0.3188 -0.1362  0.1293
  670MPD2    H5 9921   1.116   1.218  14.171  0.0842 -1.1048  0.0198
  670MPD2    N1 9922   1.264   1.437  13.767 -0.2733  0.1800 -0.5558
  670MPD2    H7 9923   1.345   1.425  13.825 -0.4160 -0.1964 -0.4377
  671TMC3    C1 9924   0.959   1.078  14.307  0.2452  0.1058  0.2643
  671TMC3    C2 9925   1.082   1.103  14.367  0.4806  0.6467  0.1179
  671TMC3    C3 9926   1.117   1.023  14.467  0.3032  0.2281  0.4490
  671TMC3    C4 9927   0.862   0.985  14.364 -0.5403 -0.3654  0.7864
  671TMC3    C5 9928   0.913   0.904  14.458  0.4143  0.3386  0.4292
  671TMC3    C6 9929   1.036   0.922  14.517 -0.6303 -0.0384 -0.0604
  671TMC3     C 9930   0.935   1.111  14.169 -0.0736 -0.1877 -0.6718
  671TMC3     O 9931   0.836   1.061  14.118  0.5718 -0.1788 -0.2815
  671TMC3     H 9932   1.167   1.137  14.309 -0.1984  0.1476 -1.1713
  671TMC3    H1 9933   0.760   0.986  14.328 -0.3406 -0.9024  0.2052
  671TMC3    H2 9934   1.081   0.853  14.588  1.4379 -0.6266 -1.9278
  671TMC3    C7 9935   0.877   0.765  14.457 -0.3322 -0.0178  0.2866
  671TMC3    C8 9936   1.238   1.052  14.534  0.1473 -0.0228 -0.1232
  671TMC3    O1 9937   0.970   0.684  14.451  0.0980 -0.3127 -0.3034
  671TMC3    O2 9938   1.226   1.099  14.647 -0.3505 -0.2953  0.5653
  672MPD2     C 9939   1.886   1.271   1.954  0.0790  0.8018 -0.1030
  672MPD2    C1 9940   1.841   1.355   1.852  0.2190  0.6806 -0.5822
  672MPD2    C2 9941   1.869   1.493   1.870  0.6737 -0.0439 -0.1695
  672MPD2    C3 9942   1.958   1.536   1.969 -0.2819 -1.0462  0.4968
  672MPD2    C4 9943   2.010   1.449   2.058  0.5590  0.0859  0.2125
  672MPD2    C5 9944   1.973   1.319   2.050  0.1541 -0.3908 -1.0823
  672MPD2     H 9945   1.830   1.560   1.795  1.7246 -1.0206 -1.5890
  672MPD2    H1 9946   2.077   1.483   2.136  1.8317 -0.7979 -0.4968
  672MPD2    H2 9947   1.861   1.166   1.963  1.0066  0.7037  1.2876
  672MPD2    H3 9948   2.000   1.242   2.122 -2.4729 -0.8444 -0.5817
  672MPD2     N 9949   2.005   1.674   1.972 -0.1826  0.1058 -0.1975
  672MPD2    H5 9950   2.060   1.695   2.055 -0.9993  1.9453 -0.1386
  672MPD2    N1 9951   1.769   1.312   1.737 -0.0044  0.8218 -0.0412
  672MPD2    H7 9952   1.744   1.390   1.677  3.1667  0.5996 -1.6781
  673TMC3    C1 9953   1.694   1.190   1.568  0.2195  1.1336  0.3183
  673TMC3    C2 9954   1.767   1.149   1.464 -0.2996  0.5300 -0.1935
  673TMC3    C3 9955   1.772   1.219   1.344 -0.1121 -0.2449  0.0435
  673TMC3    C4 9956   1.616   1.303   1.548 -0.3487 -0.0329  0.0160
  673TMC3    C5 9957   1.621   1.373   1.427 -0.3895  0.6673 -0.0714
  673TMC3    C6 9958   1.700   1.335   1.326  0.8831  0.6173 -0.4854
  673TMC3     C 9959   1.755   1.183   1.696 -0.1622 -0.2041 -0.2904
  673TMC3     O 9960   1.795   1.075   1.727  0.0535  0.2473  0.1114
  673TMC3     H 9961   1.826   1.058   1.472 -0.4576  0.3054 -1.5654
  673TMC3    H1 9962   1.549   1.327   1.630 -0.8644 -0.2723 -0.3282
  673TMC3    H2 9963   1.722   1.404   1.245 -1.9311 -1.0394 -2.6949
  673TMC3    C7 9964   1.627   1.510   1.463 -0.1655  0.5919 -0.2092
  673TMC3    C8 9965   1.884   1.204   1.250  0.8545  0.6172 -0.6449
  673TMC3    O1 9966   1.672   1.519   1.576  0.0541  0.2132 -0.1232
  673TMC3    O2 9967   1.865   1.262   1.142 -0.2273 -0.2429 -0.0560
  674MPD2     C 9968   1.595   1.151   0.016 -0.4022 -0.0904 -0.5413
  674MPD2    C1 9969   1.615   1.145   0.159  0.4176  0.6629  0.2701
  674MPD2    C2 9970   1.596   1.262   0.236 -0.4182 -0.1969 -0.2417
  674MPD2    C3 9971   1.568   1.381   0.173 -0.6680 -0.2980 -0.4111
  674MPD2    C4 9972   1.529   1.378   0.036 -0.6789 -0.2372  0.0259
  674MPD2    C5 9973   1.546   1.264  17.658 -0.8025  0.8307 -0.6633
  674MPD2     H 9974   1.616   1.271   0.342 -2.0154  0.3021  0.0131
  674MPD2    H1 9975   1.485   1.464  17.682  1.1881  0.8315  0.2396
  674MPD2    H2 9976   1.593   1.066  17.643 -0.8722 -1.4770  1.2171
  674MPD2    H3 9977   1.508   1.267  17.556  1.5298  1.3145 -1.5087
  674MPD2     N 9978   1.563   1.496   0.259 -0.0287  0.2606  0.4488
  674MPD2    H5 9979   1.580   1.475   0.356  3.0521  1.6772  0.2477
  674MPD2    N1 9980   1.661   1.026   0.217 -0.1194  0.0526 -0.8676
  674MPD2    H7 9981   1.730   0.972   0.164  0.0500 -1.1121  0.5576
  675TMC3    C1 9982   1.764   0.927   0.406  0.0224 -0.9962  0.3872
  675TMC3    C2 9983   1.736   0.884   0.529 -0.2159  0.1761  0.2309
  675TMC3    C3 9984   1.832   0.872   0.625 -0.4449  0.3066  0.1911
  675TMC3    C4 9985   1.890   0.956   0.365 -0.2919  0.4482 -0.5616
  675TMC3    C5 9986   1.988   0.952   0.463  0.0890 -0.2210  0.4025
  675TMC3    C6 9987   1.960   0.903   0.596  0.3361 -0.2900 -0.2822
  675TMC3     C 9988   1.661   1.012   0.352  0.2072  0.2345 -0.1167
  675TMC3     O 9989   1.569   1.042   0.428  0.0528 -0.2541  0.2763
  675TMC3     H 9990   1.636   0.856   0.558 -0.1352 -0.2412  0.1020
  675TMC3    H1 9991   1.909   0.987   0.263 -2.2898  2.4840 -0.3183
  675TMC3    H2 9992   2.044   0.875   0.659 -0.1202 -0.9485  0.0298
  675TMC3    C7 9993   2.118   0.995   0.424  0.7407 -0.7475  0.0289
  675TMC3    C8 9994   1.787   0.827   0.753  0.7211  0.0153 -0.6602
  675TMC3    O1 9995   2.151   0.992   0.306  0.2879 -0.3849 -0.1698
  675TMC3    O2 9996   1.666   0.815   0.777  0.3384 -0.1114 -0.0864
  676MPD2     C 9997   3.809   0.100  11.188  0.3463  0.2980 -0.7799
  676MPD2    C1 9998   3.727   0.045  11.283 -0.1416  0.4787  0.4384
  676MPD2    C2 9999   3.710   4.631  11.283  0.1410 -0.1009 -0.8278
  676MPD2    C310000   3.767   4.544  11.182 -0.0032 -0.2458  0.1411
  676MPD2    C410001   3.844   4.595  11.090 -0.1801  0.6090  0.2932
  676MPD2    C510002   3.865   0.010  11.097 -0.0620 -0.1704 -0.1187
  676MPD2     H10003   3.651   4.578  11.356 -0.3765  2.1096  0.3547
  676MPD2    H110004   3.882   4.540  11.004 -2.0683 -0.6970  0.2976
  676MPD2    H210005   3.826   0.206  11.172 -2.1405  0.6092 -1.3912
  676MPD2    H310006   3.907   0.067  11.015 -1.5455 -0.2950 -0.9742
  676MPD2     N10007   3.754   4.401  11.187 -0.0545  0.1720  0.0387
  676MPD2    H510008   3.821   4.345  11.135  0.0768 -0.4214  0.8366
  676MPD2    N110009   3.661   0.122  11.383 -0.1034 -0.2223 -0.4896
  676MPD2    H710010   3.603   0.063  11.441 -0.2118  1.1078  0.7654
  677TMC3    C110011   3.585   0.296  11.516  0.1891 -0.2584  0.5941
  677TMC3    C210012   3.475   0.228  11.546  0.0515  0.3185 -0.3583
  677TMC3    C310013   3.424   0.238  11.672  0.9712  0.4021  0.1684
  677TMC3    C410014   3.640   0.380  11.609  0.0798 -0.8235 -0.3285
  677TMC3    C510015   3.591   0.391  11.733 -0.0706  0.9848  0.6324
  677TMC3    C610016   3.475   0.331  11.763  0.2852  0.9470 -0.9979
  677TMC3     C10017   3.674   0.253  11.408 -0.3943  0.4520 -0.2837
  677TMC3     O10018   3.758   0.334  11.369  0.2823  0.2255  0.4952
  677TMC3     H10019   3.424   0.156  11.483  1.2792 -0.9554  0.1057
  677TMC3    H110020   3.733   0.428  11.582  0.7909 -0.7269  2.3175
  677TMC3    H210021   3.425   0.346  11.858  0.3807  4.3017 -1.4672
  677TMC3    C710022   3.678   0.413  11.845  0.0390  0.5752  0.4483
  677TMC3    C810023   3.318   0.140  11.698  0.8918  1.1865 -0.0007
  677TMC3    O110024   3.629   0.387  11.954 -0.0955 -0.6134 -0.1584
  677TMC3    O210025   3.223   0.168  11.618 -0.3686  0.1997 -0.3543
  678MPD2     C10026   0.871   0.418   1.953 -0.0277 -0.7342  0.2756
  678MPD2    C110027   0.903   0.335   1.849  0.4125  0.0030  0.3700
  678MPD2    C210028   0.814   0.263   1.781 -0.3373  0.5811  0.4697
  678MPD2    C310029   0.678   0.274   1.817 -0.3003 -0.1425  0.5417
  678MPD2    C410030   0.651   0.347   1.926 -0.1901 -0.3823 -0.0833
  678MPD2    C510031   0.740   0.430   1.993 -0.0211 -0.0258  0.1812
  678MPD2     H10032   0.835   0.195   1.699  0.8476  1.2313  0.2450
  678MPD2    H110033   0.550   0.342   1.964 -0.2687 -0.4253 -0.2945
  678MPD2    H210034   0.949   0.475   2.002  1.0086 -0.9631 -1.0881
  678MPD2    H310035   0.710   0.492   2.076 -0.4886  0.6875 -0.5233
  678MPD2     N10036   0.580   0.200   1.753 -0.1060 -1.1627  0.1615
  678MPD2    H510037   0.619   0.157   1.669  0.0435  0.4895 -0.6120
  678MPD2    N110038   1.035   0.326   1.798  0.2351 -0.4051  0.4127
  678MPD2    H710039   1.050   0.256   1.725  0.2698  0.4543 -0.3967
  679TMC3    C110040   1.432   0.176   1.779  0.4082  0.1214  0.6209
  679TMC3    C210041   1.300   0.209   1.793 -0.3832 -0.0413 -0.2867
  679TMC3    C310042   1.266   0.345   1.781 -0.6222  0.0028  0.8536
  679TMC3    C410043   1.530   0.268   1.769  0.5511  0.4881  0.6151
  679TMC3    C510044   1.485   0.390   1.721  0.4635  0.1346 -0.3689
  679TMC3    C610045   1.361   0.437   1.739 -0.0291 -0.1908  0.1320
  679TMC3     C10046   1.477   0.033   1.785  0.4272  0.1203  0.0373
  679TMC3     O10047   1.596   0.005   1.750 -0.0927  0.1871 -0.4845
  679TMC3     H10048   1.220   0.135   1.796  0.1201 -0.6173 -1.0541
  679TMC3    H110049   1.633   0.236   1.781  0.5593  0.3391  0.1417
  679TMC3    H210050   1.330   0.535   1.706 -1.8804  0.1827  2.9828
  679TMC3    C710051   1.563   0.463   1.624  0.1564 -0.3379 -0.2358
  679TMC3    C810052   1.142   0.403   1.831  0.1191 -0.7277  0.1549
  679TMC3    O110053   1.502   0.545   1.554  0.0710 -0.0776 -0.4642
  679TMC3    O210054   1.146   0.513   1.883  0.2266  0.0079  0.0285
  680MPD2     C10055   0.975   3.691  13.696  0.0485  0.1018  0.2850
  680MPD2    C110056   1.029   3.620  13.799  0.2378 -0.0881 -0.0404
  680MPD2    C210057   1.105   3.695  13.892 -0.7709  0.3042  0.2898
  680MPD2    C310058   1.134   3.833  13.884  0.2184 -0.4664  0.1585
  680MPD2    C410059   1.079   3.898  13.776  0.4775  0.7387 -0.3644
  680MPD2    C510060   1.004   3.824  13.685  0.1174  0.4283 -0.3998
  680MPD2     H10061   1.140   3.634  13.974 -0.8153 -0.2713 -0.1170
  680MPD2    H110062   1.100   4.003  13.760  0.5171  0.5472 -1.5914
  680MPD2    H210063   0.913   3.642  13.622 -0.4809  0.6890  0.3352
  680MPD2    H310064   0.965   3.877  13.598  1.1373  0.1027 -1.0577
  680MPD2     N10065   1.211   3.906  13.977 -0.2610  0.7468  0.5401
  680MPD2    H510066   1.207   4.006  13.960 -1.6050  0.1054 -2.9128
  680MPD2    N110067   1.008   3.483  13.821 -0.1508 -0.2154 -0.2641
  680MPD2    H710068   1.056   3.449  13.904  1.6512 -0.0125 -1.2387
  681TMC3    C110069   0.920   3.266  13.799 -0.0053  0.5126  0.4126
  681TMC3    C210070   0.884   3.257  13.933  0.3600 -0.7274 -0.5182
  681TMC3    C310071   0.838   3.127  13.979 -0.0605  0.3947  0.3658
  681TMC3    C410072   0.923   3.151  13.720  0.4290  0.3097  0.2971
  681TMC3    C510073   0.872   3.028  13.763 -0.2568  1.0201 -0.6519
  681TMC3    C610074   0.826   3.024  13.893 -0.0059 -0.2166 -0.5997
  681TMC3     C10075   0.931   3.397  13.744  0.4433 -0.0300 -0.7102
  681TMC3     O10076   0.911   3.409  13.625  0.8237  0.1965 -0.3328
  681TMC3     H10077   0.882   3.346  13.995 -0.5018 -2.3147  1.7501
  681TMC3    H110078   0.982   3.164  13.630  1.4999  1.0002  1.0932
  681TMC3    H210079   0.786   2.929  13.927 -1.2452  1.0124  1.3730
  681TMC3    C710080   0.937   2.912  13.720  0.0302  0.3309  0.3734
  681TMC3    C810081   0.882   3.103  14.109 -0.3015  0.1071  0.3240
  681TMC3    O110082   0.992   2.851  13.813  0.0607  0.0809 -0.2276
  681TMC3    O210083   0.832   3.008  14.166 -0.2429  0.6301  0.2539
  682MPD2     C10084   2.415   4.482  11.298  0.6761  0.7408  0.6254
  682MPD2    C110085   2.427   4.362  11.375 -0.4548  0.9005  0.4757
  682MPD2    C210086   2.441   4.384  11.508 -0.3166 -0.9746 -0.0099
  682MPD2    C310087   2.451   4.507  11.574 -0.2592  0.1119  0.4020
  682MPD2    C410088   2.459   4.620  11.497  0.1956  0.0047 -0.7444
  682MPD2    C510089   2.426   4.609  11.366 -0.5582  0.6540  0.2925
  682MPD2     H10090   2.429   4.291  11.562 -1.7323 -0.6750  0.1914
  682MPD2    H110091   2.486   4.715  11.541 -1.3687 -1.3554  3.1892
  682MPD2    H210092   2.406   4.473  11.190 -0.7105 -0.8187  0.8765
  682MPD2    H310093   2.399   4.699  11.311  4.7799  1.0594 -1.6147
  682MPD2     N10094   2.475   4.511  11.713  0.3437 -0.0447  0.0584
  682MPD2    H510095   2.511   4.594  11.761  1.0175  0.4172 -1.2530
  682MPD2    N110096   2.422   4.237  11.318 -0.2059  0.1296 -0.4104
  682MPD2    H710097   2.428   4.158  11.381  0.5832  0.5379  0.0315
  683TMC3    C110098   2.667   4.478  12.070  0.3965  0.0243  0.2875
  683TMC3    C210099   2.641   4.378  12.162 -0.7482 -0.0162  0.5394
  683TMC3    C310100   2.536   4.293  12.122  0.2964 -1.2869  0.0106
  683TMC3    C410101   2.591   4.509  11.960 -0.8341  0.2111 -0.0497
  683TMC3    C510102   2.484   4.420  11.930 -0.0522 -0.3805  0.6057
  683TMC3    C610103   2.450   4.311  12.014  0.5218  0.4287  0.5147
  683TMC3     C10104   2.774   4.568  12.108 -0.5099  1.0175 -0.3136
  683TMC3     O10105   2.777   4.678  12.056 -0.4474 -0.0937  0.0552
  683TMC3     H10106   2.676   4.358  12.263 -1.3075 -1.0240  0.5359
  683TMC3    H110107   2.622   4.597  11.905 -1.4737  0.4639 -0.0011
  683TMC3    H210108   2.400   4.224  11.975  2.3031  0.8139 -2.6101
  683TMC3    C710109   2.443   4.405  11.795  0.2617  0.5563 -0.5762
  683TMC3    C810110   2.545   4.156  12.163 -0.1396  0.2310  0.3520
  683TMC3    O110111   2.375   4.311  11.775  0.3358 -0.0646  0.0909
  683TMC3    O210112   2.439   4.096  12.173  0.3130 -0.1005 -0.7290
  684MPD2     C10113   1.134   4.204  16.567 -0.3068 -0.5231 -0.5551
  684MPD2    C110114   1.213   4.147  16.466 -1.4223  0.2495  0.5016
  684MPD2    C210115   1.306   4.229  16.399  0.6639  0.5269  0.0188
  684MPD2    C310116   1.315   4.363  16.437  0.4435 -0.0029 -1.2418
  684MPD2    C410117   1.235   4.418  16.537 -0.0281 -0.6036  0.1736
  684MPD2    C510118   1.141   4.341  16.586  0.2853 -0.0278 -0.4797
  684MPD2     H10119   1.366   4.186  16.319 -0.0035 -1.2052  0.4478
  684MPD2    H110120   1.245   4.522  16.566  2.3017 -0.4617 -1.1276
  684MPD2    H210121   1.070   4.146  16.632 -0.1919 -0.1170 -0.0790
  684MPD2    H310122   1.079   4.372  16.669  1.2874 -0.6024  0.4735
  684MPD2     N10123   1.401   4.457  16.376 -0.5000  0.1086  0.8256
  684MPD2    H510124   1.401   4.544  16.430  0.1228  0.7797 -0.2493
  684MPD2    N110125   1.198   4.010  16.433  0.7840 -0.0812 -0.3796
  684MPD2    H710126   1.258   3.977  16.358  0.5722 -2.4235  0.4553
  685TMC3    C110127   1.183   3.781  16.453 -0.2332  0.4958  0.0342
  685TMC3    C210128   1.086   3.701  16.410 -0.1879  1.0206 -0.7722
  685TMC3    C310129   1.128   3.576  16.364 -0.6896 -0.2214  0.4316
  685TMC3    C410130   1.312   3.744  16.456 -0.5027 -0.0883  0.8865
  685TMC3    C510131   1.350   3.621  16.403 -0.4417 -0.6058 -0.8629
  685TMC3    C610132   1.256   3.528  16.356 -0.3610 -0.0841  0.6134
  685TMC3     C10133   1.137   3.911  16.497 -0.0152 -0.3999 -0.3206
  685TMC3     O10134   1.060   3.919  16.591  0.1677 -0.3951  0.1011
  685TMC3     H10135   0.982   3.730  16.403 -0.0062  0.9524 -3.5810
  685TMC3    H110136   1.377   3.822  16.494  0.2577 -1.0147  1.5108
  685TMC3    H210137   1.277   3.423  16.336  0.1799  0.0692  0.3826
  685TMC3    C710138   1.480   3.577  16.449  0.2061  0.0743  0.2572
  685TMC3    C810139   1.035   3.499  16.288 -0.1586  0.5291 -0.1228
  685TMC3    O110140   1.540   3.643  16.530  0.2534 -0.3228 -0.8032
  685TMC3    O210141   1.066   3.385  16.266  1.4483 -0.0991  0.7724
  686MPD2     C10142   2.901   4.135  16.025 -0.2856 -0.1934 -1.1852
  686MPD2    C110143   2.841   4.013  15.996 -0.0109 -0.3600 -0.1733
  686MPD2    C210144   2.891   3.954  15.882  0.1964 -0.1227  0.3361
  686MPD2    C310145   2.984   4.015  15.806  0.2254 -0.4912 -0.1452
  686MPD2    C410146   3.041   4.133  15.840  1.3321 -0.3869 -0.3790
  686MPD2    C510147   2.999   4.194  15.950  0.2943 -0.8352 -0.9202
  686MPD2     H10148   2.851   3.856  15.856 -0.2982 -0.0250  0.7089
  686MPD2    H110149   3.126   4.174  15.786  1.6864  0.1226  0.5663
  686MPD2    H210150   2.882   4.188  16.118 -0.2017 -0.6139 -0.9260
  686MPD2    H310151   3.041   4.289  15.983 -1.3237 -1.2234  2.2293
  686MPD2     N10152   3.024   3.939  15.693 -0.0132  0.5256 -0.2026
  686MPD2    H510153   2.972   3.852  15.689 -0.2265  0.6073  0.8936
  686MPD2    N110154   2.738   3.965  16.085 -0.5900  0.4216 -0.3304
  686MPD2    H710155   2.712   4.021  16.165  1.6088  1.2881 -0.2278
  687TMC3    C110156   3.113   3.870  15.498  0.1960  0.8776  0.2009
  687TMC3    C210157   2.985   3.869  15.454  0.2537 -0.1329 -0.2481
  687TMC3    C310158   2.915   3.754  15.455 -1.1124 -0.3652  0.6856
  687TMC3    C410159   3.172   3.754  15.534 -0.0105  1.0033  0.0156
  687TMC3    C510160   3.102   3.639  15.524 -0.4010  0.1834 -0.2490
  687TMC3    C610161   2.972   3.636  15.483 -0.7626  0.8675 -0.0569
  687TMC3     C10162   3.121   3.971  15.603  0.9729  0.3041 -0.6231
  687TMC3     O10163   3.187   4.072  15.592  0.0793 -0.2689  0.3421
  687TMC3     H10164   2.939   3.965  15.437  3.4345  1.2310 -1.1660
  687TMC3    H110165   3.275   3.758  15.569  0.5656  0.2167 -1.6069
  687TMC3    H210166   2.906   3.551  15.473  2.9839 -2.0507  0.2148
  687TMC3    C710167   3.135   3.557  15.645 -0.5093  0.8617  0.3708
  687TMC3    C810168   2.806   3.768  15.547 -0.1574 -0.1546  0.0296
  687TMC3    O110169   3.254   3.530  15.671  0.3778 -0.0970 -0.2418
  687TMC3    O210170   2.816   3.708  15.651  0.5059  0.1323 -0.1664
  688MPD2     C10171   2.107   2.485  17.518  0.3428 -0.3585  0.2727
  688MPD2    C110172   2.166   2.369  17.563  0.0767 -0.5858  0.7317
  688MPD2    C210173   2.263   2.306  17.488  1.0301 -0.4379  0.9532
  688MPD2    C310174   2.299   2.359  17.360  0.3087  0.2195  0.6624
  688MPD2    C410175   2.236   2.474  17.311  0.2786  0.3310  0.0619
  688MPD2    C510176   2.143   2.535  17.394  0.1031  0.2224  0.2652
  688MPD2     H10177   2.319   2.222  17.527  3.0348 -0.7903 -2.6500
  688MPD2    H110178   2.279   2.517  17.222 -1.3885  0.7148 -0.5599
  688MPD2    H210179   2.045   2.554  17.574  0.2752 -0.5286  0.4083
  688MPD2    H310180   2.098   2.628  17.361  1.6004  1.1933  0.9428
  688MPD2     N10181   2.409   2.314  17.288  0.7683 -0.4083 -0.6587
  688MPD2    H510182   2.427   2.358  17.199  0.1283  1.0105 -0.0819
  688MPD2    N110183   2.141   2.315   0.003  0.1602  0.2658 -0.2581
  688MPD2    H710184   2.186   2.226   0.022 -4.6731 -2.1198 -0.0083
  689TMC3    C110185   2.046   2.299   0.222  0.2832  0.0096 -0.2505
  689TMC3    C210186   2.039   2.377   0.341  0.3188  0.2879 -0.0085
  689TMC3    C310187   2.006   2.314   0.461  0.0380 -0.0107  0.0168
  689TMC3    C410188   2.030   2.162   0.225 -0.1820  0.5162 -0.4757
  689TMC3    C510189   1.994   2.104   0.346 -0.1484  0.2621 -0.0930
  689TMC3    C610190   1.974   2.180   0.461  0.1534 -0.3371 -0.4034
  689TMC3     C10191   2.066   2.375   0.099 -0.6905 -0.0143  0.2517
  689TMC3     O10192   2.019   2.486   0.104 -0.9142 -0.4244 -0.8145
  689TMC3     H10193   2.048   2.485   0.333  2.1372 -0.0017 -1.7500
  689TMC3    H110194   2.078   2.107   0.145 -0.9853 -2.6228  1.1959
  689TMC3    H210195   1.966   2.129   0.557 -1.0175 -1.8295 -1.2856
  689TMC3    C710196   2.015   1.963   0.372  0.2602  0.4566 -0.0128
  689TMC3    C810197   2.013   2.382   0.587 -0.0249  0.2737 -0.3321
  689TMC3    O110198   2.022   1.920   0.487  0.1971  0.0931 -0.0144
  689TMC3    O210199   1.969   2.329   0.687  0.0349  0.4769 -0.3310
  690MPD2     C10200   4.385   4.137  15.588 -0.7213 -0.0343 -0.3510
  690MPD2    C110201   4.291   4.204  15.517 -0.3843 -0.6263 -0.0928
  690MPD2    C210202   4.330   4.331  15.472 -0.1142 -0.1681 -0.2123
  690MPD2    C310203   4.451   4.390  15.492  0.4415  0.2563  1.0551
  690MPD2    C410204   4.537   4.323  15.578 -0.0411  0.4120 -1.3152
  690MPD2    C510205   4.504   4.194  15.626  0.5569  0.3381  0.0863
  690MPD2     H10206   4.268   4.393  15.410  0.6902  1.2410  0.4027
  690MPD2    H110207   4.634   4.354  15.616  0.3514  0.7876 -2.6162
  690MPD2    H210208   4.359   4.044  15.637 -0.7659  1.1939  1.9564
  690MPD2    H310209   4.574   4.145  15.692  0.3657 -0.3881 -0.2496
  690MPD2     N10210   4.466   4.521  15.449  0.4608 -0.3867  0.3469
  690MPD2    H510211   4.385   4.559  15.402  0.0071 -1.9439 -0.1303
  690MPD2    N110212   4.167   4.144  15.475 -0.0742 -0.2613  0.2651
  690MPD2    H710213   4.113   4.201  15.410  0.4693 -1.3315 -1.1236
  691TMC3    C110214   4.022   3.970  15.409 -0.1358  0.7528 -0.6187
  691TMC3    C210215   3.922   4.055  15.370 -0.1398 -0.4806  0.4598
  691TMC3    C310216   3.816   3.994  15.304 -0.2297 -0.6027  0.1423
  691TMC3    C410217   4.011   3.834  15.389 -0.0368  0.4878  0.0530
  691TMC3    C510218   3.898   3.787  15.342 -0.5061 -0.1193 -0.3672
  691TMC3    C610219   3.803   3.860  15.286 -0.8719 -0.3900  0.0861
  691TMC3     C10220   4.137   4.012  15.483 -0.2928 -0.1395 -0.3387
  691TMC3     O10221   4.199   3.920  15.534  0.1586  0.2151 -0.1556
  691TMC3     H10222   3.915   4.160  15.393  3.6725 -0.0712 -0.2387
  691TMC3    H110223   4.099   3.774  15.409 -1.6176 -2.0135 -0.5850
  691TMC3    H210224   3.715   3.806  15.253 -1.9935  1.3636  0.2145
  691TMC3    C710225   3.879   3.649  15.373 -0.3488 -0.3401  0.0410
  691TMC3    C810226   3.714   4.082  15.241  0.3878  0.3714 -0.8430
  691TMC3    O110227   3.947   3.616  15.470 -0.0342 -0.0569 -0.3291
  691TMC3    O210228   3.678   4.033  15.133  0.3483 -0.2591 -0.0498
  692TMC3    C110229   1.118   0.994  16.444 -0.7041  0.5218 -0.2859
  692TMC3    C210230   1.127   0.927  16.563  0.2352 -0.0758  0.4322
  692TMC3    C310231   1.172   0.795  16.561 -0.1370  0.0396  0.4342
  692TMC3    C410232   1.149   0.935  16.324 -0.3491  0.8432  0.2382
  692TMC3    C510233   1.195   0.806  16.329 -0.0734  0.2825 -0.8359
  692TMC3    C610234   1.185   0.727  16.439  0.4186  1.2681  0.4901
  692TMC3     C10235   1.055   1.124  16.455 -0.0304 -0.0171  0.4067
  692TMC3     O10236   1.022   1.161  16.565  0.4204  0.0745  0.3016
  692TMC3     H10237   1.128   0.990  16.652 -1.8964  0.9856 -0.2822
  692TMC3    H110238   1.170   0.992  16.235  1.1436 -0.5539 -0.3087
  692TMC3    H210239   1.220   0.626  16.456  1.3358  1.6434  0.8164
  692TMC3    C710240   1.266   0.760  16.210  0.4918 -0.4999  0.3173
  692TMC3    C810241   1.109   0.713  16.655 -0.2114  0.1760 -0.0052
  692TMC3    O110242   1.264   0.834  16.113 -0.3457 -0.5890 -0.3592
  692TMC3    O210243   1.085   0.596  16.623  0.0166  0.2825  0.4891
  693MPD2     C10244   0.185   3.871  10.567 -0.1828 -0.1055 -0.4354
  693MPD2    C110245   0.193   3.811  10.694 -0.3901  0.6014  0.8400
  693MPD2    C210246   0.306   3.742  10.728 -0.3302  0.4819 -0.0859
  693MPD2    C310247   0.421   3.736  10.643 -0.2332  0.0776 -0.2990
  693MPD2    C410248   0.411   3.793  10.523 -0.3180  0.2148  0.1557
  693MPD2    C510249   0.289   3.850  10.481  0.2237  0.5733 -0.6358
  693MPD2     H10250   0.286   3.683  10.817  1.4051 -1.1976 -0.8362
  693MPD2    H110251   0.493   3.790  10.452 -0.2066 -3.1081  0.4311
  693MPD2    H210252   0.087   3.899  10.529 -0.3753 -0.3227 -0.1018
  693MPD2    H310253   0.274   3.875  10.376  0.5444 -0.7836 -1.0137
  693MPD2     N10254   0.532   3.645  10.674  0.0342 -0.3781  0.9806
  693MPD2    H510255   0.531   3.604  10.767  3.0312  0.2628  1.3043
  693MPD2    N110256   0.091   3.795  10.781  0.9672 -0.5990  0.0514
  693MPD2    H710257   0.108   3.732  10.859  3.1039 -0.7213 -0.5294
  694TMC3    C110258   4.588   3.776  10.837  0.1749 -0.0664 -0.1665
  694TMC3    C210259   4.490   3.712  10.766 -0.4415 -0.2310  0.6855
  694TMC3    C310260   4.433   3.599  10.819 -0.2378  0.9901  0.0198
  694TMC3    C410261   4.627   3.733  10.959  0.1527 -0.0788  0.1668
  694TMC3    C510262   4.555   3.636  11.018  0.4465 -0.1726  0.2177
  694TMC3    C610263   4.461   3.565  10.948 -0.4739  0.0480  0.0000
  694TMC3     C10264   4.685   3.845  10.763 -0.2913 -0.2254 -0.0691
  694TMC3     O10265   4.638   3.912  10.667 -0.5341 -0.1542 -0.0509
  694TMC3     H10266   4.474   3.739  10.662  0.2621  0.3862  0.7359
  694TMC3    H110267   4.711   3.776  11.012  0.9995 -0.3271 -0.9498
  694TMC3    H210268   4.392   3.490  10.984 -0.0920  0.8995  2.4694
  694TMC3    C710269   4.589   3.591  11.148 -0.7110 -0.0291  0.0117
  694TMC3    C810270   4.316   3.537  10.753 -0.1385 -0.6851  0.3352
  694TMC3    O110271   4.634   3.677  11.220  0.0293  0.3570 -0.5565
  694TMC3    O210272   4.233   3.482  10.822 -0.1899 -0.4814  0.8567
  695MPD2     C10273   1.642   0.897  13.682 -0.1343  0.8353  0.0977
  695MPD2    C110274   1.628   0.826  13.801  0.1578 -0.4966  0.0758
  695MPD2    C210275   1.507   0.769  13.826 -0.4852 -0.1448  0.5088
  695MPD2    C310276   1.408   0.765  13.731 -0.0586  0.8617  0.2463
  695MPD2    C410277   1.427   0.834  13.611 -0.8679  0.3753 -0.4371
  695MPD2    C510278   1.541   0.901  13.590  0.2793  0.4896  0.2457
  695MPD2     H10279   1.493   0.720  13.921  1.0671 -0.3349  0.6470
  695MPD2    H110280   1.357   0.827  13.529 -0.8972 -1.2138 -0.2771
  695MPD2    H210281   1.735   0.946  13.655 -0.0433  0.5612 -0.0856
  695MPD2    H310282   1.557   0.962  13.502  1.3103  1.5971  1.1991
  695MPD2     N10283   1.291   0.689  13.774 -0.5808 -0.5452 -0.3440
  695MPD2    H510284   1.302   0.619  13.846  0.8870 -1.7687 -1.7422
  695MPD2    N110285   1.727   0.800  13.894  0.0644 -0.0910  0.2527
  695MPD2    H710286   1.706   0.739  13.973  1.4760 -0.7768  0.1047
  696TMC3    C110287   1.064   0.614  13.763 -0.0172 -0.0988 -0.7342
  696TMC3    C210288   1.085   0.515  13.859 -0.6267 -0.4877 -0.0956
  696TMC3    C310289   0.972   0.432  13.884  0.0834  0.7345 -0.1765
  696TMC3    C410290   0.940   0.638  13.707  0.3928 -0.0378  0.2875
  696TMC3    C510291   0.841   0.556  13.728  0.3112 -0.4728  0.6644
  696TMC3    C610292   0.860   0.442  13.805 -0.1046  0.0910 -0.1760
  696TMC3     C10293   1.170   0.696  13.709  0.1251 -0.3923  0.2965
  696TMC3     O10294   1.135   0.770  13.617  0.1781  0.5647 -0.2000
  696TMC3     H10295   1.174   0.500  13.920  0.0464  0.0695 -0.9414
  696TMC3    H110296   0.922   0.728  13.649 -2.6890 -0.1711  1.0256
  696TMC3    H210297   0.777   0.372  13.811 -0.1622  0.2087  0.4111
  696TMC3    C710298   0.700   0.606  13.746 -0.1536  0.7814  0.6602
  696TMC3    C810299   0.949   0.457  14.033  0.5118 -0.5546 -0.2329
  696TMC3    O110300   0.607   0.539  13.713  0.1866  0.1524 -0.5718
  696TMC3    O210301   1.019   0.546  14.083  0.3568  0.7743 -0.3193
  697MPD2     C10302   1.093   2.913  15.787  0.2794 -0.4805 -0.1791
  697MPD2    C110303   1.050   2.845  15.671 -0.0815 -0.9087 -0.3359
  697MPD2    C210304   1.038   2.912  15.549 -0.9753  0.4657 -0.5193
  697MPD2    C310305   1.056   3.047  15.543 -0.1877 -0.2140 -0.8774
  697MPD2    C410306   1.112   3.111  15.651 -0.3248  0.4325 -0.6206
  697MPD2    C510307   1.133   3.046  15.771  0.0208 -0.0426 -0.6671
  697MPD2     H10308   1.000   2.864  15.460 -1.1203  1.1778 -0.8471
  697MPD2    H110309   1.138   3.216  15.645  1.6635  0.0365  0.8637
  697MPD2    H210310   1.116   2.856  15.876  1.4032 -0.1861 -0.2820
  697MPD2    H310311   1.183   3.102  15.849  0.4782  0.5186 -1.3636
  697MPD2     N10312   1.011   3.118  15.423 -0.7332 -0.1352 -0.2170
  697MPD2    H510313   0.989   3.057  15.345 -0.1869  1.1316 -1.3556
  697MPD2    N110314   1.029   2.706  15.678  0.2940 -0.8541  0.1175
  697MPD2    H710315   1.000   2.653  15.596 -1.7709  0.6955 -0.1684
  698TMC3    C110316   0.988   3.302  15.272 -0.3780 -0.3352 -0.2821
  698TMC3    C210317   0.953   3.433  15.258 -0.0947 -0.2492 -0.0088
  698TMC3    C310318   0.908   3.480  15.139 -0.8834 -0.5585 -0.0189
  698TMC3    C410319   0.986   3.223  15.164 -0.2664 -0.3964  0.2782
  698TMC3    C510320   0.952   3.273  15.040  0.1817  0.0598  0.1905
  698TMC3    C610321   0.916   3.404  15.025 -0.4442  0.3645  0.0940
  698TMC3     C10322   1.012   3.253  15.405 -1.0039  0.2619  0.4130
  698TMC3     O10323   1.042   3.343  15.484 -0.6319  0.0009 -0.7211
  698TMC3     H10324   0.942   3.502  15.342 -1.9148 -0.3055 -0.2048
  698TMC3    H110325   1.001   3.116  15.169  1.4553 -0.2684 -2.1267
  698TMC3    H210326   0.895   3.452  14.930 -2.0166 -0.1267  0.1893
  698TMC3    C710327   0.919   3.189  14.933  0.9892 -0.1604 -0.1714
  698TMC3    C810328   0.932   3.617  15.106 -0.2884  0.4732  0.1803
  698TMC3    O110329   0.859   3.242  14.844 -0.0437  0.2984 -0.2112
  698TMC3    O210330   0.863   3.668  15.020 -0.0423  0.4791 -0.1610
  699TMC3    C110331   0.825   0.634  13.034 -0.9141 -0.2652  0.2237
  699TMC3    C210332   0.883   0.554  13.129  0.6235 -0.1657 -1.1467
  699TMC3    C310333   0.799   0.501  13.224 -0.5917  0.2756  0.2836
  699TMC3    C410334   0.691   0.651  13.022  0.3326  0.1766  0.3958
  699TMC3    C510335   0.610   0.593  13.117  0.3873 -1.1231  0.0791
  699TMC3    C610336   0.660   0.518  13.223  0.0959  0.6220 -0.4476
  699TMC3     C10337   0.908   0.655  12.909 -0.1746 -0.1238  0.3308
  699TMC3     O10338   0.834   0.676  12.808 -0.0480  0.0960 -0.3989
  699TMC3     H10339   0.986   0.525  13.117  1.2221  0.7513  1.7999
  699TMC3    H110340   0.649   0.708  12.939  1.6917 -0.0213 -0.4330
  699TMC3    H210341   0.602   0.471  13.302  0.0419  1.0618 -0.2245
  699TMC3    C710342   0.473   0.616  13.124  0.2286 -0.8446 -0.7795
  699TMC3    C810343   0.856   0.429  13.334 -0.2311  0.3586 -0.5335
  699TMC3    O110344   0.440   0.726  13.082  0.7972  0.1830 -0.2505
  699TMC3    O210345   0.773   0.366  13.395  0.3344  0.0288  0.2990
  700TMC3    C110346   0.257   2.883  17.461  0.3369 -0.4361  0.0107
  700TMC3    C210347   0.332   2.772  17.454 -0.9014 -0.0745 -0.0202
  700TMC3    C310348   0.440   2.760  17.538  0.6294 -0.0927  0.4826
  700TMC3    C410349   0.293   2.986  17.537  0.5771 -0.5914 -0.6209
  700TMC3    C510350   0.409   2.969  17.614 -0.0921 -0.1907 -1.0595
  700TMC3    C610351   0.476   2.859  17.619 -0.3387  0.2955  0.4431
  700TMC3     C10352   0.187   2.918  17.342 -0.4629  1.2047 -0.0176
  700TMC3     O10353   0.137   2.830  17.279 -0.1778  0.0059  0.3626
  700TMC3     H10354   0.312   2.713  17.365 -0.2367  0.1020 -0.2875
  700TMC3    H110355   0.235   3.078  17.544  1.8069  0.2034 -0.8229
  700TMC3    H210356   0.565   2.857  17.680 -0.2391 -0.1084  0.2831
  700TMC3    C710357   0.461   3.089  17.689 -0.1031 -0.4767 -0.1059
  700TMC3    C810358   0.536   2.660  17.513  0.1108 -0.1791 -0.2844
  700TMC3    O110359   0.371   3.157   0.035 -0.0009 -0.2528 -0.0952
  700TMC3    O210360   0.653   2.699  17.505 -0.3164  0.1002  0.5521
  701TMC3    C110361   0.167   2.141  15.674 -0.4043 -0.4881 -0.2985
  701TMC3    C210362   0.124   2.087  15.560 -0.8871 -0.0599 -0.3915
  701TMC3    C310363   0.191   2.130  15.445  0.3019 -0.4533  0.4077
  701TMC3    C410364   0.268   2.229  15.684  0.1850 -0.2461 -0.0755
  701TMC3    C510365   0.342   2.259  15.578  0.4466  0.1628  0.0055
  701TMC3    C610366   0.297   2.216  15.452 -0.6415 -0.1356  0.4851
  701TMC3     C10367   0.104   2.093  15.801 -0.0297  0.2776  0.5140
  701TMC3     O10368   0.062   1.975  15.792  0.1261 -0.4957  0.4626
  701TMC3     H10369   0.030   2.034  15.555 -1.0427  0.0128  1.8892
  701TMC3    H110370   0.287   2.270  15.782 -3.4009  0.8132  0.1741
  701TMC3    H210371   0.359   2.234  15.364 -1.8695 -0.0298 -0.3478
  701TMC3    C710372   0.446   2.370  15.582 -0.0618 -0.5139  0.1948
  701TMC3    C810373   0.133   2.119  15.314 -0.3041  0.3079  0.3535
  701TMC3    O110374   0.484   2.421  15.477 -0.0641 -0.3082  0.2196
  701TMC3    O210375   0.164   2.207  15.234 -0.2846 -0.3898  0.0466
  702MPD2     C10376   3.745   3.882  10.699  0.2030 -0.1980 -0.0712
  702MPD2    C110377   3.824   3.986  10.741  0.2429  0.1071  1.1398
  702MPD2    C210378   3.897   4.064  10.646 -0.7663  0.3215  0.2505
  702MPD2    C310379   3.879   4.044  10.509  0.2095 -0.3832 -0.4709
  702MPD2    C410380   3.796   3.939  10.480  0.3738 -0.7777 -0.3966
  702MPD2    C510381   3.733   3.849  10.567  0.0447  0.0810 -0.5538
  702MPD2     H10382   3.974   4.130  10.686 -1.3433  1.8679 -1.2105
  702MPD2    H110383   3.790   3.918  10.374 -1.7911 -0.2927 -0.3757
  702MPD2    H210384   3.681   3.824  10.764  1.4845  0.6818  1.9922
  702MPD2    H310385   3.669   3.766  10.542 -0.3354 -0.1627  1.2447
  702MPD2     N10386   3.934   4.123  10.396  0.3580 -0.4468 -0.3536
  702MPD2    H510387   3.922   4.071  10.310 -1.4801 -1.4770  0.5193
  702MPD2    N110388   3.823   4.028  10.877  0.0601  0.1487  0.3834
  702MPD2    H710389   3.884   4.106  10.898 -0.6992  0.7801  0.2764
  703TMC3    C110390   4.007   4.330  10.508 -0.4904  0.9507 -0.3920
  703TMC3    C210391   3.886   4.346  10.570 -0.2901  0.1560  0.7341
  703TMC3    C310392   3.879   4.434  10.671 -0.1318 -0.0926 -0.4555
  703TMC3    C410393   4.119   4.410  10.544 -0.5868  0.2431 -0.1577
  703TMC3    C510394   4.103   4.508  10.639 -0.5981 -0.6038 -0.1912
  703TMC3    C610395   3.981   4.515  10.703 -0.4613  0.2146 -0.1356
  703TMC3     C10396   4.012   4.238  10.397  0.4372 -0.1026  0.5275
  703TMC3     O10397   4.077   4.281  10.304  0.3176 -0.4516  0.4902
  703TMC3     H10398   3.795   4.306  10.527 -0.0538 -1.8644  2.0960
  703TMC3    H110399   4.213   4.406  10.489  0.2584 -3.1793  1.4966
  703TMC3    H210400   3.972   4.581  10.788  0.1487 -1.5274  1.2901
  703TMC3    C710401   4.217   4.598  10.667 -0.9615 -0.6323 -0.4056
  703TMC3    C810402   3.762   4.432  10.753  0.1139 -0.5727 -0.4003
  703TMC3    O110403   4.325   4.577  10.610 -0.2428  0.2575  0.3165
  703TMC3    O210404   3.731   4.535  10.811  0.7311 -0.4812  0.0694
  704TMC3    C110405   1.662   2.342  12.246  0.2458  0.1888  0.1937
  704TMC3    C210406   1.778   2.404  12.273  0.0558  0.4462 -0.1008
  704TMC3    C310407   1.871   2.344  12.347  1.1776  0.1690 -0.2503
  704TMC3    C410408   1.623   2.224  12.310 -0.3108  1.3477 -0.1196
  704TMC3    C510409   1.720   2.166  12.383 -0.3879 -0.3801 -0.0889
  704TMC3    C610410   1.838   2.228  12.412 -0.0579  0.3370 -0.4659
  704TMC3     C10411   1.611   2.363  12.111 -0.2320  0.0585 -0.5374
  704TMC3     O10412   1.492   2.357  12.099 -0.1989 -0.3013  0.0540
  704TMC3     H10413   1.813   2.486  12.212  0.6404 -0.4047 -0.9127
  704TMC3    H110414   1.528   2.181  12.280  0.0139  0.4591  0.1123
  704TMC3    H210415   1.906   2.173  12.476 -2.7314  0.3775  2.3760
  704TMC3    C710416   1.724   2.025  12.400  0.0782 -0.1771  0.2992
  704TMC3    C810417   2.008   2.345  12.294 -0.0538 -0.7265  0.3045
  704TMC3    O110418   1.820   1.970  12.454  0.3822  0.6762 -0.4266
  704TMC3    O210419   2.014   2.391  12.179 -0.0660  0.4850 -0.0197
  705MPD2     C10420   1.295   0.269  16.796 -0.3598  0.3394  0.2211
  705MPD2    C110421   1.342   0.391  16.803  0.2948 -0.4856  0.4101
  705MPD2    C210422   1.325   0.464  16.919  0.8622 -0.3944  0.0636
  705MPD2    C310423   1.241   0.419  17.025 -0.2352  0.0589 -0.3086
  705MPD2    C410424   1.182   0.295  17.009 -0.5900  0.3353  0.3534
  705MPD2    C510425   1.215   0.227  16.904  0.0926 -0.4173 -0.0627
  705MPD2     H10426   1.371   0.562  16.925  0.5473 -0.3273  1.3532
  705MPD2    H110427   1.114   0.247  17.078 -1.1736 -0.0247 -0.4738
  705MPD2    H210428   1.304   0.209  16.706 -1.7016  0.6579 -0.1267
  705MPD2    H310429   1.167   0.130  16.898 -0.8796  0.0380  0.3560
  705MPD2     N10430   1.204   0.500  17.135 -0.1894  0.2682  0.3512
  705MPD2    H510431   1.124   0.463  17.185  1.0620 -2.1441  0.5356
  705MPD2    N110432   1.413   0.441  16.696 -0.1809  0.0642 -0.2358
  705MPD2    H710433   1.452   0.535  16.693 -1.0551  0.4569  0.4791
  706TMC3    C110434   1.729   0.458  16.354  0.2734 -0.2477 -0.7415
  706TMC3    C210435   1.708   0.591  16.329  0.2989  0.3577  0.5720
  706TMC3    C310436   1.605   0.647  16.404  0.5741 -0.1584 -0.1499
  706TMC3    C410437   1.662   0.385  16.446 -0.3763 -0.5343 -0.5413
  706TMC3    C510438   1.570   0.445  16.521 -0.3024 -0.5292 -0.7625
  706TMC3    C610439   1.536   0.577  16.501 -0.5647  0.0361  0.2841
  706TMC3     C10440   1.831   0.388  16.285  0.7259  0.4386  0.0449
  706TMC3     O10441   1.855   0.276  16.326 -0.2714 -0.5792 -0.3244
  706TMC3     H10442   1.768   0.647  16.257 -0.6839 -0.0850 -0.5958
  706TMC3    H110443   1.693   0.291  16.491 -0.6620  0.1693  1.1404
  706TMC3    H210444   1.461   0.618  16.568 -0.8068  1.5093 -0.8936
  706TMC3    C710445   1.479   0.365  16.603 -0.2726 -0.0565  0.3628
  706TMC3    C810446   1.585   0.789  16.394 -0.2006  0.2083  0.3979
  706TMC3    O110447   1.485   0.244  16.583 -0.1993  0.1027 -1.0674
  706TMC3    O210448   1.626   0.852  16.295 -0.4640  0.2203 -0.2225
  707TMC3    C110449   3.328   4.521   2.031  0.3125 -0.2351  0.1156
  707TMC3    C210450   3.252   4.405   2.028 -0.2868  0.3536 -0.5867
  707TMC3    C310451   3.158   4.389   1.934  0.0674 -0.4588 -0.3947
  707TMC3    C410452   3.300   4.626   1.948  0.2174 -0.4108  0.1992
  707TMC3    C510453   3.186   4.610   1.874 -0.4126  0.1826  0.3506
  707TMC3    C610454   3.117   4.495   1.860 -0.2657  0.5590  0.6443
  707TMC3     C10455   3.469   4.516   2.071 -0.7783  0.5608 -0.6437
  707TMC3     O10456   3.521   4.406   2.077  0.1921  0.9255  0.6017
  707TMC3     H10457   3.282   4.329   2.099  2.0196  0.3583 -1.5858
  707TMC3    H110458   3.363   4.715   1.950  0.1276 -0.2989 -1.9730
  707TMC3    H210459   3.028   4.488   1.800  0.9566  0.7902 -1.1899
  707TMC3    C710460   3.146   0.001   1.790 -0.3476  1.2837 -0.2223
  707TMC3    C810461   3.158   4.258   1.867  0.2752 -0.8455  0.5595
  707TMC3    O110462   3.031   0.035   1.787  0.2715  0.1967  0.1826
  707TMC3    O210463   3.075   4.227   1.781  0.9105 -0.2294  0.3873
  708MPD2     C10464   0.037   3.777  13.708 -0.6615 -0.1091  0.2224
  708MPD2    C110465   4.670   3.677  13.743  0.0225 -0.0442 -0.0653
  708MPD2    C210466   4.685   3.610  13.863  0.0216 -0.2263  0.0281
  708MPD2    C310467   0.056   3.656  13.956  0.0819  0.4699 -0.0955
  708MPD2    C410468   0.135   3.762  13.924  0.2207 -0.2826 -0.1299
  708MPD2    C510469   0.134   3.821  13.804  0.2748 -0.3848 -0.2094
  708MPD2     H10470   4.616   3.529  13.882  1.0643 -1.8092 -2.8908
  708MPD2    H110471   0.214   3.790  13.993 -0.2250  1.9782 -0.5184
  708MPD2    H210472   0.011   3.844  13.626 -1.8261  1.5211  1.9106
  708MPD2    H310473   0.206   3.894  13.769  0.1613  1.1869  2.8090
  708MPD2     N10474   0.054   3.618  14.096 -0.6211 -0.0704  0.1835
  708MPD2    H510475   0.103   3.679  14.161 -2.1745  0.9719  0.4037
  708MPD2    N110476   4.562   3.654  13.656  0.5270 -0.3077  0.3236
  708MPD2    H710477   4.550   3.725  13.585  0.3486 -0.9968 -0.3296
  709TMC3    C110478   4.340   3.581  13.602 -0.3025  0.2988 -0.5626
  709TMC3    C210479   4.286   3.490  13.522  0.4285 -0.1394  0.4205
  709TMC3    C310480   4.156   3.450  13.539 -0.0254 -0.7689  0.1833
  709TMC3    C410481   4.276   3.647  13.698  0.9913 -0.2500  0.3708
  709TMC3    C510482   4.153   3.605  13.720  0.1361  0.1817  0.4340
  709TMC3    C610483   4.083   3.515  13.641 -0.4032 -0.1781 -0.5409
  709TMC3     C10484   4.471   3.551  13.658  0.4082  0.1309  0.0842
  709TMC3     O10485   4.462   3.450  13.728  0.0123 -0.3745  0.3566
  709TMC3     H10486   4.360   3.443  13.458  1.7858 -1.1497  2.7157
  709TMC3    H110487   4.330   3.695  13.778 -0.2651  1.3415  0.2567
  709TMC3    H210488   3.979   3.500  13.664 -0.4867  1.5753  0.2337
  709TMC3    C710489   4.123   3.602  13.860 -0.0154  0.8258 -0.1361
  709TMC3    C810490   4.081   3.429  13.413  0.4391  0.8924  0.1085
  709TMC3    O110491   4.169   3.690  13.929 -0.2925 -0.0820  0.1630
  709TMC3    O210492   3.958   3.428  13.420  0.1862  0.1162  0.4835
  710TMC3    C110493   1.382   0.567   0.809 -0.5954  0.3696  0.2507
  710TMC3    C210494   1.469   0.540   0.707 -0.4434 -0.2037 -0.6103
  710TMC3    C310495   1.601   0.511   0.739  0.9269  0.1886  0.2306
  710TMC3    C410496   1.418   0.567   0.945  0.5389 -1.1079 -0.4420
  710TMC3    C510497   1.548   0.536   0.962 -0.0363 -0.4908 -0.4284
  710TMC3    C610498   1.649   0.509   0.868 -0.8170  0.1640  0.2063
  710TMC3     C10499   1.237   0.569   0.772 -0.9928 -0.2386  0.0262
  710TMC3     O10500   1.209   0.542   0.656  0.1188  0.0311 -0.0453
  710TMC3     H10501   1.434   0.567   0.608  1.6866 -1.4948 -1.7067
  710TMC3    H110502   1.353   0.577   1.031  1.3892  2.6798 -0.2401
  710TMC3    H210503   1.753   0.538   0.879 -1.2775  2.0993 -0.4816
  710TMC3    C710504   1.588   0.536   1.097 -0.0838  0.0380 -0.3535
  710TMC3    C810505   1.685   0.489   0.627 -0.1877 -0.9124  0.9332
  710TMC3    O110506   1.521   0.593   1.181  0.9086  0.2829  0.2331
  710TMC3    O210507   1.637   0.522   0.521  0.2543 -0.3440  0.5103
  711TMC3    C110508   0.415   1.261  15.477 -0.1752 -0.2878  0.1031
  711TMC3    C210509   0.439   1.376  15.550  0.6893 -0.0721 -0.2229
  711TMC3    C310510   0.564   1.380  15.604 -0.4051 -0.5254  0.0515
  711TMC3    C410511   0.496   1.150  15.485 -1.2288  0.5092  0.3118
  711TMC3    C510512   0.620   1.163  15.547  0.1721  0.2567 -0.3079
  711TMC3    C610513   0.665   1.281  15.598  0.2678  0.3257 -0.3198
  711TMC3     C10514   0.299   1.252  15.391  0.0995  0.2109 -0.2452
  711TMC3     O10515   0.284   1.148  15.332  0.1582  0.1128 -0.4765
  711TMC3     H10516   0.375   1.462  15.561  0.6732  0.0113 -1.0462
  711TMC3    H110517   0.460   1.052  15.453 -1.8737  0.4636  1.1712
  711TMC3    H210518   0.765   1.277  15.640  0.2650 -1.3109 -0.4503
  711TMC3    C710519   0.720   1.055  15.526 -0.3986  0.7838  0.1444
  711TMC3    C810520   0.612   1.504  15.652 -0.3230  0.2611  1.2098
  711TMC3    O110521   0.820   1.059  15.591 -0.1586 -0.1103 -0.2378
  711TMC3    O210522   0.553   1.599  15.597 -0.1998 -0.1251 -0.0128
  712MPD2     C10523   1.897   2.121  13.335 -0.2720 -0.0955  0.0413
  712MPD2    C110524   1.798   2.215  13.319 -0.4132 -0.2270 -0.0816
  712MPD2    C210525   1.828   2.353  13.304  0.3808  0.5974 -0.6570
  712MPD2    C310526   1.959   2.391  13.299 -0.6544  0.3867 -0.3468
  712MPD2    C410527   2.058   2.300  13.327 -0.1845 -0.3035 -0.4279
  712MPD2    C510528   2.028   2.168  13.339 -0.2788  1.1198  0.3336
  712MPD2     H10529   1.750   2.427  13.294  0.4173  1.2375  3.5999
  712MPD2    H110530   2.162   2.332  13.318  0.1785 -0.5200  2.9984
  712MPD2    H210531   1.882   2.014  13.340  0.9128 -0.3041 -0.9200
  712MPD2    H310532   2.110   2.103  13.371 -0.3235 -0.2848 -2.3698
  712MPD2     N10533   2.000   2.526  13.294  0.0203  0.7793  0.1575
  712MPD2    H510534   2.098   2.538  13.315  0.5782 -0.4408 -1.7557
  712MPD2    N110535   1.664   2.185  13.339 -0.4667 -0.4573 -0.1782
  712MPD2    H710536   1.594   2.258  13.328  0.0176  0.0285 -0.0345
  713TMC3    C110537   1.987   2.767  13.272  0.5338  0.1346  0.0632
  713TMC3    C210538   2.121   2.776  13.248  0.2528 -0.2427  0.5798
  713TMC3    C310539   2.170   2.901  13.253  0.0215  0.2122 -0.1943
  713TMC3    C410540   1.906   2.875  13.289  0.2318  0.4074  0.6263
  713TMC3    C510541   1.963   2.996  13.310 -0.2231  0.1938 -0.4025
  713TMC3    C610542   2.097   3.012  13.298  0.1509  0.2486 -0.5272
  713TMC3     C10543   1.918   2.636  13.270  1.0236  0.0172  0.0183
  713TMC3     O10544   1.796   2.634  13.241 -0.4132 -0.3219  0.1396
  713TMC3     H10545   2.173   2.694  13.200 -0.4547  0.7425 -1.8879
  713TMC3    H110546   1.803   2.866  13.321  0.0673 -1.1983 -0.3850
  713TMC3    H210547   2.138   3.109  13.323  0.5448 -0.6209  2.1501
  713TMC3    C710548   1.890   3.104  13.377 -0.1238 -0.3324 -0.6758
  713TMC3    C810549   2.313   2.928  13.249 -0.3609  0.2131 -0.6173
  713TMC3    O110550   1.959   3.177  13.448 -0.4276 -0.0999  0.6414
  713TMC3    O210551   2.345   3.046  13.257  0.4013 -0.5526  0.2807
  714MPD2     C10552   4.156   1.350   1.360  0.3311 -0.0818 -0.2013
  714MPD2    C110553   4.199   1.221   1.390  0.0751 -0.4050 -0.1940
  714MPD2    C210554   4.120   1.118   1.342  0.6518 -0.4444  0.4691
  714MPD2    C310555   4.014   1.131   1.251 -0.2782  0.6618 -0.0975
  714MPD2    C410556   3.961   1.260   1.238  0.0655  0.1254  0.0929
  714MPD2    C510557   4.031   1.361   1.300  0.4405  0.3922 -0.7412
  714MPD2     H10558   4.147   1.014   1.355  1.3011 -0.5361 -1.5572
  714MPD2    H110559   3.877   1.285   1.174 -0.2766  1.6497  1.1610
  714MPD2    H210560   4.206   1.440   1.395 -0.1514 -0.2681  0.9743
  714MPD2    H310561   3.992   1.461   1.288  0.3798  0.4094 -0.3946
  714MPD2     N10562   3.948   1.014   1.196 -0.4551  0.3198 -0.2775
  714MPD2    H510563   4.000   0.931   1.224 -1.1416 -0.4801 -1.3991
  714MPD2    N110564   4.316   1.205   1.464  0.0463  0.4975  0.4266
  714MPD2    H710565   4.357   1.286   1.508  0.7987  0.6279 -0.5010
  715TMC3    C110566   4.507   1.091   1.552  0.4953 -0.2715 -0.6647
  715TMC3    C210567   4.597   0.988   1.545  0.0976  0.6655  0.4281
  715TMC3    C310568   4.716   1.000   1.608  0.2660  0.3597  0.2272
  715TMC3    C410569   4.531   1.200   1.629 -0.3681  0.1195 -0.3894
  715TMC3    C510570   4.656   1.204   1.684 -0.2918  0.6419 -0.0085
  715TMC3    C610571   0.028   1.112   1.674  0.8659  0.2187  0.6466
  715TMC3     C10572   4.390   1.088   1.465  0.2509 -0.1616  0.1026
  715TMC3     O10573   4.385   0.980   1.412  0.3731  0.5435 -0.2872
  715TMC3     H10574   4.577   0.895   1.492 -1.3313  0.4268  1.3865
  715TMC3    H110575   4.484   1.297   1.616 -0.5542 -0.1694 -1.7923
  715TMC3    H210576   0.134   1.115   1.698  1.0216  0.7416 -0.1183
  715TMC3    C710577   4.696   1.324   1.751 -0.7317 -0.5480  0.3064
  715TMC3    C810578   0.095   0.899   1.567  0.5615 -0.0950 -0.6496
  715TMC3    O110579   0.092   1.335   1.776  0.1278 -0.3098 -0.0650
  715TMC3    O210580   0.075   0.841   1.459 -0.4871  0.4426 -0.0835
  716MPD2     C10581   3.301   4.004  10.041  0.3980  0.0492  0.1120
  716MPD2    C110582   3.340   4.090   9.940 -0.1655  0.1346 -0.6691
  716MPD2    C210583   3.348   4.035   9.815 -0.8334  0.0836 -0.2160
  716MPD2    C310584   3.314   3.905   9.783  0.6511  0.0661  0.1580
  716MPD2    C410585   3.265   3.831   9.887  1.0880  0.1983 -0.3317
  716MPD2    C510586   3.261   3.879  10.012 -0.0232  0.5338  0.4617
  716MPD2     H10587   3.379   4.100   9.733 -0.9884  0.8082  0.3028
  716MPD2    H110588   3.229   3.731   9.869 -2.9768  1.4423  1.0106
  716MPD2    H210589   3.321   4.023  10.145  0.5082 -0.2016  0.1364
  716MPD2    H310590   3.225   3.812  10.090 -0.7886 -0.0959 -0.4248
  716MPD2     N10591   3.317   3.855   9.654  0.3602  0.5806  0.6256
  716MPD2    H510592   3.317   3.918   9.575  0.4829  0.1380  0.2746
  716MPD2    N110593   3.357   4.223   9.972 -0.1683  0.8171  0.1968
  716MPD2    H710594   3.341   4.249  10.069 -0.7244  1.5321 -0.0914
  717TMC3    C110595   3.375   3.692   9.495 -0.4774  0.2974 -0.2413
  717TMC3    C210596   3.292   3.758   9.406  0.5410  0.4777  0.3882
  717TMC3    C310597   3.320   3.730   9.272  0.0192 -0.2933 -0.2738
  717TMC3    C410598   3.462   3.592   9.463  0.4883  0.5232 -1.1213
  717TMC3    C510599   3.476   3.564   9.330  0.8768 -0.7678  0.0427
  717TMC3    C610600   3.408   3.636   9.232  0.0431 -0.0934  0.1210
  717TMC3     C10601   3.351   3.724   9.632  0.1665  0.1494 -0.5446
  717TMC3     O10602   3.392   3.646   9.716 -0.2412  0.1416  0.3184
  717TMC3     H10603   3.227   3.835   9.445 -0.9800 -0.9194  0.6626
  717TMC3    H110604   3.508   3.525   9.535  0.6647  1.4256 -0.3960
  717TMC3    H210605   3.451   3.634   9.132  1.1027  0.1543  0.5655
  717TMC3    C710606   3.559   3.450   9.285 -0.0569  0.1785  0.3493
  717TMC3    C810607   3.242   3.798   9.178  0.1755 -0.3522  0.8589
  717TMC3    O110608   3.537   3.401   9.179 -0.2973 -0.7778  0.3152
  717TMC3    O210609   3.155   3.870   9.232 -0.4439  1.0300 -0.1032
  718MPD2     C10610   3.587   2.654  12.765 -0.0723 -0.0385 -0.4349
  718MPD2    C110611   3.510   2.702  12.654  0.7748  0.7392  0.0428
  718MPD2    C210612   3.372   2.708  12.666 -0.1062  0.1047 -0.0140
  718MPD2    C310613   3.302   2.663  12.776 -0.6358  0.1440 -0.7141
  718MPD2    C410614   3.378   2.611  12.878 -0.3910 -0.0736 -0.0427
  718MPD2    C510615   3.520   2.604  12.873 -0.2709 -0.1897  0.2271
  718MPD2     H10616   3.317   2.756  12.586 -0.0437 -0.1699 -0.2236
  718MPD2    H110617   3.338   2.568  12.969 -0.2447  1.6515  0.8402
  718MPD2    H210618   3.695   2.651  12.773 -0.1156  3.7274  1.5920
  718MPD2    H310619   3.572   2.566  12.960 -0.2853  1.5953  1.0154
  718MPD2     N10620   3.161   2.669  12.778  0.5395 -0.6985  0.4387
  718MPD2    H510621   3.121   2.723  12.702  0.9242 -0.7718  0.1894
  718MPD2    N110622   3.564   2.760  12.538  0.3907 -0.0736 -0.2824
  718MPD2    H710623   3.502   2.761  12.458 -4.0238 -0.1285  3.1523
  719TMC3    C110624   3.713   2.834  12.378 -0.7426  0.1269  1.3612
  719TMC3    C210625   3.592   2.842  12.313  0.9143  0.3414  0.6504
  719TMC3    C310626   3.554   2.975  12.292  0.3897 -0.3537 -0.8075
  719TMC3    C410627   3.801   2.937  12.387  0.3276  1.0644 -0.9372
  719TMC3    C510628   3.768   3.065  12.355 -0.7608  0.8695 -0.1466
  719TMC3    C610629   3.634   3.087  12.319 -0.4069  0.1317  0.1437
  719TMC3     C10630   3.701   2.769  12.508  0.0932 -0.1329 -0.9319
  719TMC3     O10631   3.791   2.758  12.589 -0.3170  0.1233  0.2661
  719TMC3     H10632   3.537   2.756  12.277  0.4342  0.0451  2.0835
  719TMC3    H110633   3.902   2.915  12.421 -0.8504  1.3316  2.6961
  719TMC3    H210634   3.593   3.187  12.315 -1.2244 -0.1880  0.5299
  719TMC3    C710635   3.872   3.164  12.321  0.1428  0.7113 -0.2481
  719TMC3    C810636   3.414   2.993  12.317 -0.3086  0.2405  0.1387
  719TMC3    O110637   3.984   3.145  12.360  0.1029 -0.6498 -0.3923
  719TMC3    O210638   3.366   2.891  12.363 -0.4137  0.4499 -0.2214
  720MPD2     C10639   1.884   4.627  14.234 -0.1618  0.4537 -0.1161
  720MPD2    C110640   1.982   4.616  14.137 -0.7734  0.4627 -0.3932
  720MPD2    C210641   2.096   4.542  14.169  0.3229 -0.0579 -0.0592
  720MPD2    C310642   2.114   4.484  14.294  0.4474 -0.5190  0.1622
  720MPD2    C410643   2.013   4.496  14.386  0.6760 -0.4956  0.1864
  720MPD2    C510644   1.897   4.563  14.350  0.3138  0.3964 -0.7464
  720MPD2     H10645   2.164   4.520  14.087 -0.3648 -0.0327 -0.6311
  720MPD2    H110646   2.025   4.451  14.484 -0.9515 -1.5514 -0.1031
  720MPD2    H210647   1.791   4.683  14.228 -1.3562 -1.4456  0.8496
  720MPD2    H310648   1.811   4.551  14.416  0.2654  0.7569 -0.7391
  720MPD2     N10649   2.229   4.400  14.335 -0.2594 -0.3940  0.2741
  720MPD2    H510650   2.210   4.349  14.420  0.7650 -2.5284 -0.7740
  720MPD2    N110651   1.969   4.676  14.013 -0.3249 -0.5415 -0.2441
  720MPD2    H710652   2.040   4.660  13.943 -1.1031  0.1307 -1.1760
  721TMC3    C110653   2.438   4.282  14.325 -0.3875 -0.3107 -0.0888
  721TMC3    C210654   2.404   4.225  14.443  0.4924  0.1055  0.1353
  721TMC3    C310655   2.436   4.092  14.462 -0.6478  0.2057 -0.0589
  721TMC3    C410656   2.509   4.217  14.228 -0.3604 -0.0760  0.2835
  721TMC3    C510657   2.553   4.089  14.254  0.0315  0.3364 -0.0637
  721TMC3    C610658   2.506   4.023  14.367 -0.1512 -0.3634  0.2711
  721TMC3     C10659   2.354   4.391  14.274  0.0225  0.1236 -0.4591
  721TMC3     O10660   2.386   4.444  14.170 -0.1917 -0.0624  0.3172
  721TMC3     H10661   2.363   4.293  14.517  0.4775  0.3045 -0.0565
  721TMC3    H110662   2.542   4.270  14.139 -0.6491  0.2094  0.3467
  721TMC3    H210663   2.535   3.921  14.389 -1.8614 -0.7612  0.7332
  721TMC3    C710664   2.691   4.078  14.234  0.1309 -1.4090 -0.5209
  721TMC3    C810665   2.481   4.052  14.594 -0.1573 -0.1515 -0.0329
  721TMC3    O110666   2.743   4.116  14.128  0.3362  0.2292 -0.2505
  721TMC3    O210667   2.583   3.982  14.594 -0.0276 -0.4374  0.0532
  722MPD2     C10668   0.605   2.962  13.381  0.3418 -0.7747 -0.3680
  722MPD2    C110669   0.615   3.063  13.290  0.3516 -0.7056 -0.4099
  722MPD2    C210670   0.542   3.044  13.170 -0.2036  0.3857 -0.2146
  722MPD2    C310671   0.444   2.949  13.158  0.7988 -0.4142  0.3482
  722MPD2    C410672   0.425   2.869  13.266  0.5535  0.5877  0.1643
  722MPD2    C510673   0.502   2.869  13.373 -0.0813  0.0083  0.1891
  722MPD2     H10674   0.552   3.107  13.082 -1.6917 -1.1867 -1.5170
  722MPD2    H110675   0.342   2.799  13.254  0.2135  1.0689 -0.2779
  722MPD2    H210676   0.666   2.959  13.470  0.1723  0.3039 -0.2224
  722MPD2    H310677   0.477   2.795  13.448 -2.0875 -0.4068 -0.8873
  722MPD2     N10678   0.368   2.957  13.043  0.3447  0.7140 -0.3037
  722MPD2    H510679   0.382   3.040  12.986 -0.9697  1.2805  0.1883
  722MPD2    N110680   0.706   3.170  13.290 -0.1548 -0.0283 -0.1058
  722MPD2    H710681   0.701   3.237  13.214  0.6906  0.2154  0.0554
  723TMC3    C110682   0.179   2.912  12.911  0.2897  0.5421 -0.2111
  723TMC3    C210683   0.112   2.813  12.847  0.0938  0.2292  0.3055
  723TMC3    C310684   0.016   2.847  12.755  0.2590 -0.1111 -0.7711
  723TMC3    C410685   0.157   3.046  12.895 -0.4769 -0.3758 -0.2743
  723TMC3    C510686   0.065   3.075  12.793  0.4921  0.9060  0.9171
  723TMC3    C610687   4.705   2.979  12.729  0.2957 -0.2576 -0.4586
  723TMC3     C10688   0.268   2.867  13.013  0.0200 -0.1424 -0.5399
  723TMC3     O10689   0.238   2.756  13.057 -0.3564  0.0845  0.5363
  723TMC3     H10690   0.127   2.709  12.872 -1.0635  0.3659  1.5440
  723TMC3    H110691   0.205   3.128  12.947 -1.4275  1.4769 -2.2894
  723TMC3    H210692   4.623   3.007  12.664  0.8336  1.4840 -0.3816
  723TMC3    C710693   0.004   3.216  12.795 -0.4622 -0.1915  0.2179
  723TMC3    C810694   4.639   2.752  12.703  0.9816 -0.1023  0.1788
  723TMC3    O110695   4.642   3.232  12.710  0.1079 -0.0959 -0.3694
  723TMC3    O210696   4.538   2.797  12.651 -0.3761 -0.1214  0.1543
  724TMC3    C110697   0.173   1.337   9.474  0.2956  0.9492  0.7682
  724TMC3    C210698   0.138   1.449   9.404 -0.6394  0.0413  0.7524
  724TMC3    C310699   0.227   1.501   9.317 -0.6742 -0.2495  0.0621
  724TMC3    C410700   0.294   1.281   9.463  0.2396 -0.0762 -0.3009
  724TMC3    C510701   0.381   1.334   9.375 -0.5327 -0.1483  0.2524
  724TMC3    C610702   0.354   1.443   9.295 -0.4927 -0.9288 -0.0538
  724TMC3     C10703   0.106   1.302   9.601  1.1409 -0.5418  0.5442
  724TMC3     O10704   0.169   1.241   9.686 -0.2985 -0.3839 -0.2036
  724TMC3     H10705   0.054   1.507   9.438 -1.4078  0.0266 -1.1105
  724TMC3    H110706   0.313   1.189   9.517  1.1521 -0.4498 -1.2374
  724TMC3    H210707   0.424   1.489   9.226  1.1456 -4.1984 -0.5945
  724TMC3    C710708   0.504   1.270   9.337 -0.0687 -0.2715  0.6936
  724TMC3    C810709   0.184   1.623   9.244  0.2108  0.3147  0.5918
  724TMC3    O110710   0.585   1.331   9.271 -0.1450  0.0399 -0.0414
  724TMC3    O210711   0.069   1.623   9.209 -0.0262 -0.0998  0.3880
  725TMC3    C110712   2.100   0.031  13.082 -1.1982 -0.6228 -0.1133
  725TMC3    C210713   2.077   0.046  12.947  0.5109  0.1571  0.0187
  725TMC3    C310714   2.041   4.658  12.875  0.5742 -0.7136 -0.2493
  725TMC3    C410715   2.072   4.634  13.140  0.6362 -0.2023  0.7861
  725TMC3    C510716   2.058   4.520  13.070 -0.5713 -0.0584 -0.6154
  725TMC3    C610717   2.047   4.531  12.933 -0.3477  0.2217  0.7501
  725TMC3     C10718   2.210   0.110  13.127 -0.7420 -0.4311  0.0426
  725TMC3     O10719   2.228   0.203  13.052  0.0761  0.2343  0.3404
  725TMC3     H10720   2.095   0.142  12.899  1.7235 -0.2429 -0.3096
  725TMC3    H110721   2.072   4.633  13.248  1.1007 -1.5620  0.7761
  725TMC3    H210722   2.047   4.445  12.867  0.4780  0.5809  0.2890
  725TMC3    C710723   2.171   4.439  13.086  0.0430 -0.9394 -0.9423
  725TMC3    C810724   2.063   4.666  12.728  0.7237  0.2296  0.1508
  725TMC3    O110725   2.238   4.394  12.993  0.0368 -0.5012  0.2520
  725TMC3    O210726   2.034   4.563  12.664 -0.2702  0.3582  0.4336
  726MPD2     C10727   0.218   1.363  10.161  0.3913  0.2783  0.6765
  726MPD2    C110728   0.220   1.454  10.266  0.2828 -0.2324 -0.3645
  726MPD2    C210729   0.143   1.423  10.381 -0.1727 -0.3635 -0.6816
  726MPD2    C310730   0.066   1.307  10.386 -0.1410 -0.1647 -0.9241
  726MPD2    C410731   0.072   1.216  10.285  0.1146  0.0198  0.4814
  726MPD2    C510732   0.141   1.246  10.163  0.9478 -0.2668  0.6728
  726MPD2     H10733   0.135   1.504  10.453 -0.8082 -1.6194  0.6457
  726MPD2    H110734   0.028   1.118  10.296 -2.5192  1.3587  1.6721
  726MPD2    H210735   0.283   1.385  10.077 -0.8188  0.9058 -0.0982
  726MPD2    H310736   0.148   1.184  10.075 -1.3448  0.0978  0.2512
  726MPD2     N10737   4.707   1.272  10.495  0.0250  0.0977  0.3048
  726MPD2    H510738   4.655   1.185  10.487 -1.8123  1.3394 -1.3586
  726MPD2    N110739   0.292   1.572  10.258  0.1351  0.0468 -0.1208
  726MPD2    H710740   0.288   1.627  10.343 -0.6629  2.1976 -1.5280
  727TMC3    C110741   0.450   1.727  10.176  0.0266 -0.0615 -0.0083
  727TMC3    C210742   0.572   1.744  10.111 -0.4651 -0.1894 -0.3974
  727TMC3    C310743   0.606   1.876  10.086 -0.0424  0.6420  0.2465
  727TMC3    C410744   0.365   1.828  10.198 -0.0433  0.4977  0.0066
  727TMC3    C510745   0.402   1.956  10.172 -0.7354  0.5549  0.4106
  727TMC3    C610746   0.526   1.984  10.113 -0.9212  0.7075  0.0917
  727TMC3     C10747   0.395   1.597  10.165 -1.0426 -0.0566  0.2083
  727TMC3     O10748   0.460   1.521  10.091 -0.1146 -0.1575 -0.6435
  727TMC3     H10749   0.633   1.658  10.084 -2.1254 -1.7948  1.0360
  727TMC3    H110750   0.266   1.811  10.240 -0.3843  0.6972 -0.7063
  727TMC3    H210751   0.550   2.080  10.067  0.6048 -0.7058 -2.0393
  727TMC3    C710752   0.292   2.057  10.158 -0.2111  0.0679  0.2362
  727TMC3    C810753   0.744   1.900  10.051  0.9709 -0.3656 -0.1515
  727TMC3    O110754   0.177   2.031  10.175 -1.1092  0.4104 -0.0095
  727TMC3    O210755   0.809   1.794  10.036 -0.0558 -0.2131 -0.0645
  728TMC3    C110756   4.594   4.706  15.379  0.1739 -0.4919  0.0950
  728TMC3    C210757   4.708   0.060  15.384  0.8395  0.4545  0.0285
  728TMC3    C310758   0.005   0.155  15.291  0.0929 -0.5515  0.0596
  728TMC3    C410759   4.491   0.023  15.300 -0.1483 -0.1476 -0.5704
  728TMC3    C510760   4.516   0.129  15.213  0.3728 -0.8088  0.2026
  728TMC3    C610761   4.636   0.188  15.196  0.6425 -0.1126 -0.3593
  728TMC3     C10762   4.582   4.593  15.466  0.0626 -0.9961  0.5148
  728TMC3     O10763   4.666   4.573  15.548  0.5010  0.1651  0.2720
  728TMC3     H10764   0.050   0.055  15.471  1.8947 -0.9020 -0.8355
  728TMC3    H110765   4.395   4.696  15.293 -0.3366 -0.0357  1.0814
  728TMC3    H210766   4.663   0.255  15.115  1.9293 -0.2556 -0.0424
  728TMC3    C710767   4.397   0.193  15.156 -0.4251  0.0683  0.7140
  728TMC3    C810768   0.138   0.214  15.301 -0.4534  0.2109 -0.6388
  728TMC3    O110769   4.297   0.120  15.158 -0.5670 -0.4368 -0.1781
  728TMC3    O210770   0.234   0.151  15.342  0.0657 -0.3959  0.2633
  729MPD2     C10771   1.998   1.280  17.058 -0.3669  0.2056  0.4473
  729MPD2    C110772   2.039   1.152  17.028 -0.8036  0.2314 -1.3475
  729MPD2    C210773   2.104   1.086  17.129  0.2261  0.7059  0.3072
  729MPD2    C310774   2.108   1.141  17.254 -0.5601  0.1471 -0.4014
  729MPD2    C410775   2.076   1.270  17.281 -0.4580  0.0837 -0.9617
  729MPD2    C510776   2.026   1.341  17.178 -0.1492 -0.2793  0.0551
  729MPD2     H10777   2.139   0.984  17.111 -1.1559  0.4484 -0.9154
  729MPD2    H110778   2.096   1.331  17.367 -2.0501  0.6918 -1.0311
  729MPD2    H210779   1.951   1.341  16.982  0.9320 -0.0085 -0.5315
  729MPD2    H310780   2.000   1.446  17.182 -1.2369 -0.3880 -3.7219
  729MPD2     N10781   2.180   1.081  17.358 -0.0979  0.0852 -0.8831
  729MPD2    H510782   2.215   1.138  17.434 -1.4767 -0.2807  0.0332
  729MPD2    N110783   2.031   1.106  16.898  0.4623 -0.0609  0.0471
  729MPD2    H710784   1.992   1.173  16.833 -1.3288 -1.4359 -0.2737
  730TMC3    C110785   2.346   0.937  17.427  0.2193 -0.7539  0.1273
  730TMC3    C210786   2.434   0.869  17.348 -0.9648  0.2354 -0.3556
  730TMC3    C310787   2.551   0.932  17.327  0.2788  0.1879  0.2364
  730TMC3    C410788   2.368   1.042  17.510 -0.2253 -0.0578 -0.1584
  730TMC3    C510789   2.493   1.099  17.484 -0.0044 -0.7074  0.3260
  730TMC3    C610790   2.583   1.050  17.395  0.5813 -0.2765  0.5516
  730TMC3     C10791   2.224   0.946  17.355 -0.5022  0.7521  0.3418
  730TMC3     O10792   2.176   0.853  17.292  0.5102  0.1625 -0.5255
  730TMC3     H10793   2.411   0.776  17.298  0.4955  0.6802 -1.8735
  730TMC3    H110794   2.292   1.074  17.579 -1.0422 -0.7631 -0.7355
  730TMC3    H210795   2.671   1.107  17.367 -0.7200  1.4220 -0.0185
  730TMC3    C710796   2.488   1.242  17.497 -0.2032  0.4002  0.0674
  730TMC3    C810797   2.618   0.882  17.209 -0.2949  0.3546 -0.0566
  730TMC3    O110798   2.555   1.309  17.412  0.3188 -0.8757 -0.2177
  730TMC3    O210799   2.557   0.797  17.145  0.0509 -0.0118 -0.2269
  731MPD2     C10800   1.812   4.356  12.809  0.4358 -0.2515  0.6696
  731MPD2    C110801   1.866   4.251  12.742 -0.2253 -0.4982 -0.1916
  731MPD2    C210802   1.841   4.128  12.792  0.5145  0.4264 -0.3754
  731MPD2    C310803   1.741   4.107  12.890 -1.0595  0.4207 -0.6119
  731MPD2    C410804   1.677   4.215  12.940 -1.0782  0.5375 -0.2459
  731MPD2    C510805   1.725   4.341  12.911 -0.3557  0.8837  0.1234
  731MPD2     H10806   1.888   4.041  12.746 -0.4937 -0.0047 -0.5892
  731MPD2    H110807   1.603   4.205  13.019  1.5964 -1.9704  2.0003
  731MPD2    H210808   1.836   4.459  12.786 -0.7724 -0.1011  0.0886
  731MPD2    H310809   1.688   4.431  12.959  0.3995  2.1055 -1.6080
  731MPD2     N10810   1.712   3.975  12.941 -0.4690  0.2116  0.4375
  731MPD2    H510811   1.784   3.908  12.915  1.0047  1.9773 -0.0215
  731MPD2    N110812   1.962   4.281  12.640 -0.7101 -0.4755  0.1852
  731MPD2    H710813   2.001   4.374  12.630 -0.5814 -0.4587  0.8983
  732TMC3    C110814   2.068   4.222  12.434  0.2085 -0.8530  0.1432
  732TMC3    C210815   2.039   4.151  12.321  0.3536 -0.9284  0.2911
  732TMC3    C310816   2.082   4.204  12.200  0.1943 -0.1655  0.1298
  732TMC3    C410817   2.144   4.341  12.430  0.0250  0.1894 -0.0184
  732TMC3    C510818   2.181   4.385  12.308  0.6298 -0.6163  0.4748
  732TMC3    C610819   2.139   4.329  12.192 -0.2070  0.4279  0.3081
  732TMC3     C10820   1.992   4.180  12.548 -0.3782 -0.0564  0.1321
  732TMC3     O10821   1.928   4.075  12.526  0.0136 -0.1109 -0.2709
  732TMC3     H10822   1.990   4.054  12.321 -0.3530 -0.5654 -1.4534
  732TMC3    H110823   2.171   4.406  12.513  0.0905  0.9286 -0.6194
  732TMC3    H210824   2.171   4.347  12.090 -0.5711  0.5190  0.2090
  732TMC3    C710825   2.277   4.495  12.299 -0.7634  0.0307 -0.8907
  732TMC3    C810826   2.002   4.172  12.086  0.6910 -0.1414 -0.2448
  732TMC3    O110827   2.277   4.561  12.195  0.8311 -0.0949 -0.3606
  732TMC3    O210828   2.057   4.180  11.976  0.7374 -0.4465  0.5546
  733TMC3    C110829   2.750   2.831  12.956 -1.2138  0.5071  0.6123
  733TMC3    C210830   2.855   2.739  12.973  0.5212  0.0154 -0.7473
  733TMC3    C310831   2.970   2.760  12.903  0.5217  0.4124  1.1983
  733TMC3    C410832   2.765   2.949  12.885 -0.2378  0.2983 -0.5372
  733TMC3    C510833   2.890   2.968  12.824  0.2399 -0.4283 -0.4007
  733TMC3    C610834   2.994   2.878  12.837  1.1250 -0.3141 -0.2060
  733TMC3     C10835   2.616   2.781  12.969 -0.0275 -0.2984 -0.0514
  733TMC3     O10836   2.536   2.873  12.970  0.2268  0.6737  0.0219
  733TMC3     H10837   2.835   2.645  13.023 -0.1205  1.2259  1.2697
  733TMC3    H110838   2.681   3.014  12.864  0.0130  1.4041  1.8760
  733TMC3    H210839   3.096   2.912  12.826  0.3775  2.1182  0.4687
  733TMC3    C710840   2.901   3.057  12.708  0.5305  0.0773 -0.1343
  733TMC3    C810841   3.085   2.661  12.895  1.1451  0.1289  0.1534
  733TMC3    O110842   2.811   3.141  12.695  0.5192  0.4638 -0.1270
  733TMC3    O210843   3.108   2.593  12.994  0.0145 -0.3984  0.0771
  734MPD2     C10844   0.248   0.327  12.373  0.3612  0.1955  0.6429
  734MPD2    C110845   0.166   0.235  12.313 -0.5440 -0.4613  0.3403
  734MPD2    C210846   0.186   0.215  12.174  0.1088  0.2935  0.6387
  734MPD2    C310847   0.283   0.283  12.102 -0.0365  0.3489 -0.0710
  734MPD2    C410848   0.370   0.380  12.165 -0.1433 -0.0361 -0.0151
  734MPD2    C510849   0.342   0.406  12.301 -0.1210 -0.1141 -0.5588
  734MPD2     H10850   0.114   0.150  12.125  0.7538 -0.2981  0.4767
  734MPD2    H110851   0.438   0.441  12.107 -0.4919 -1.3882 -1.8395
  734MPD2    H210852   0.245   0.364  12.475  0.0819 -0.2121  0.7832
  734MPD2    H310853   0.395   0.485  12.353  2.7302 -0.4379 -2.9752
  734MPD2     N10854   0.279   0.251  11.964  0.4523 -0.7856 -0.7767
  734MPD2    H510855   0.235   0.162  11.941  1.2162 -1.4170  0.1795
  734MPD2    N110856   0.069   0.164  12.387 -0.0300  0.5032 -0.1480
  734MPD2    H710857   0.068   0.166  12.489  0.2677  2.7657 -0.1971
  735TMC3    C110858   4.618   0.015  12.421 -0.6451  0.1007  0.0631
  735TMC3    C210859   4.503   4.686  12.371 -0.2744 -0.2222 -0.1112
  735TMC3    C310860   4.488   4.551  12.359  0.2345  0.1828 -0.6760
  735TMC3    C410861   4.706   4.657  12.489 -0.1009  0.5414  0.2440
  735TMC3    C510862   4.672   4.525  12.502  0.2468 -0.6711 -0.2115
  735TMC3    C610863   4.575   4.469  12.421 -0.6272  0.3799 -0.0161
  735TMC3     C10864   4.689   0.097  12.329  0.2641  0.3578  0.3746
  735TMC3     O10865   4.648   0.099  12.217  0.8711  0.2680 -0.0330
  735TMC3     H10866   4.428   0.029  12.329  0.8301  0.7258 -0.6153
  735TMC3    H110867   0.076   4.698  12.526  0.3380 -0.6982  0.5078
  735TMC3    H210868   4.558   4.362  12.420  0.1414  0.2731 -1.6049
  735TMC3    C710869   0.058   4.435  12.524  0.3883 -0.2156  0.2138
  735TMC3    C810870   4.456   4.517  12.221 -0.3792 -0.0633  0.2858
  735TMC3    O110871   0.162   4.470  12.466  0.3903 -0.3736 -0.1787
  735TMC3    O210872   4.399   4.411  12.199 -0.1125  0.1204  0.1700
  736MPD2     C10873   0.085   4.125  12.709  0.1024 -0.3032 -0.5759
  736MPD2    C110874   0.126   4.226  12.629 -0.4041 -0.1144 -0.6166
  736MPD2    C210875   0.248   4.214  12.568  0.0586  0.4839  0.0457
  736MPD2    C310876   0.320   4.095  12.574 -0.5835  0.4439 -0.3013
  736MPD2    C410877   0.264   3.985  12.644  0.5735  0.2908  0.7070
  736MPD2    C510878   0.151   4.007  12.716 -0.3147  0.4059  0.2052
  736MPD2     H10879   0.290   4.301  12.520  1.5452 -0.2856 -0.0427
  736MPD2    H110880   0.308   3.886  12.644 -2.9539 -1.2602 -0.9634
  736MPD2    H210881   4.706   4.130  12.744  0.4701 -0.1409  0.4758
  736MPD2    H310882   0.093   3.928  12.763  0.5026 -1.2394 -1.5812
  736MPD2     N10883   0.448   4.081  12.511  0.3943  0.8008 -0.4126
  736MPD2    H510884   0.500   3.994  12.519  0.2903  0.5743 -2.0214
  736MPD2    N110885   0.033   4.327  12.601  0.1069  0.0224  0.4254
  736MPD2    H710886   4.669   4.321  12.653 -0.1236  0.4055  0.0812
  737TMC3    C110887   0.649   4.158  12.394  0.1973 -0.4359 -0.0381
  737TMC3    C210888   0.704   4.279  12.351 -1.0507 -0.2840  0.6189
  737TMC3    C310889   0.760   4.282  12.228  0.8187  0.6557 -0.4897
  737TMC3    C410890   0.652   4.048  12.315 -0.2573  0.3909  0.6841
  737TMC3    C510891   0.697   4.063  12.188 -0.3972  0.4318  0.3054
  737TMC3    C610892   0.754   4.177  12.146 -0.5367 -0.4005  0.5913
  737TMC3     C10893   0.525   4.187  12.460  0.3636 -0.5725  0.2016
  737TMC3     O10894   0.493   4.304  12.463  0.4840 -0.6654  0.4043
  737TMC3     H10895   0.707   4.362  12.421  0.5978  1.0162 -0.9931
  737TMC3    H110896   0.597   3.958  12.339  0.3645  0.0303  0.7600
  737TMC3    H210897   0.813   4.187  12.057  0.4169  0.7939  1.3626
  737TMC3    C710898   0.741   3.938  12.121  0.6553  0.2447  0.0277
  737TMC3    C810899   0.832   4.401  12.177  0.3298 -1.0898 -0.4749
  737TMC3    O110900   0.753   3.838  12.189  0.0172  0.5799  0.3981
  737TMC3    O210901   0.890   4.478  12.251 -0.4744 -0.3600  0.1889
  738MPD2     C10902   1.067   3.888  15.092 -0.4908  0.4104  0.1285
  738MPD2    C110903   1.119   3.779  15.155 -0.8391 -0.0125 -0.2802
  738MPD2    C210904   1.249   3.785  15.210 -0.1684 -0.1975  0.4422
  738MPD2    C310905   1.333   3.884  15.169  0.1237  0.3516 -0.1705
  738MPD2    C410906   1.277   3.997  15.112  0.5345  0.0567 -0.8565
  738MPD2    C510907   1.144   3.997  15.071  0.5710  0.7358 -0.0431
  738MPD2     H10908   1.294   3.693  15.245  1.4656 -1.0315 -3.8851
  738MPD2    H110909   1.331   4.081  15.071  0.8620 -0.1112 -0.7739
  738MPD2    H210910   0.966   3.885  15.053 -0.0034 -0.4110 -1.0762
  738MPD2    H310911   1.113   4.086  15.018  1.9330 -0.6041 -3.0595
  738MPD2     N10912   1.478   3.874  15.193  0.1826 -0.0070 -0.3096
  738MPD2    H510913   1.538   3.936  15.139 -0.2058 -0.7079 -1.5300
  738MPD2    N110914   1.045   3.659  15.175  0.7616  0.2429  0.9320
  738MPD2    H710915   1.091   3.591  15.235 -1.1186  1.0070  3.2254
  739TMC3    C110916   1.698   3.765  15.193  0.0122  0.6363  0.2341
  739TMC3    C210917   1.702   3.776  15.057 -0.0919  0.7916 -0.4271
  739TMC3    C310918   1.819   3.752  14.997 -0.5587  0.0010 -0.2088
  739TMC3    C410919   1.796   3.716  15.272  0.1199  0.4486  0.8054
  739TMC3    C510920   1.916   3.713  15.206 -0.1304  0.7384 -0.2448
  739TMC3    C610921   1.929   3.726  15.069  0.3185  0.2525 -0.6978
  739TMC3     C10922   1.560   3.775  15.252  0.4474  0.4626 -0.9074
  739TMC3     O10923   1.530   3.689  15.335  0.1070 -0.0313  0.1772
  739TMC3     H10924   1.608   3.783  15.004 -1.2709  1.4158  1.7896
  739TMC3    H110925   1.795   3.719  15.380 -1.0741  1.9023  0.7529
  739TMC3    H210926   2.024   3.702  15.023  1.2077  1.4755  0.5256
  739TMC3    C710927   2.034   3.658  15.282 -0.4250  0.4620 -1.1316
  739TMC3    C810928   1.837   3.775  14.859  0.5927  0.0184  0.4660
  739TMC3    O110929   2.020   3.600  15.390  0.8236  0.0580 -0.4946
  739TMC3    O210930   1.758   3.861  14.816 -0.2998  0.8218  0.2547
  740TMC3    C110931   2.208   0.069  14.465  0.8128 -0.2055 -0.1823
  740TMC3    C210932   2.295   4.714  14.534  0.3927 -0.3340  0.8312
  740TMC3    C310933   2.417   4.704  14.482  0.1780 -0.5143 -0.1956
  740TMC3    C410934   2.235   0.133  14.347  0.2562 -0.0654  0.4715
  740TMC3    C510935   2.364   0.113  14.295 -0.3675  0.1500 -0.0595
  740TMC3    C610936   2.459   0.050  14.372  0.2337  0.0481  0.1579
  740TMC3     C10937   2.089   0.095  14.533  0.1649  0.0767 -0.6840
  740TMC3     O10938   2.061   0.018  14.626  0.0716  0.1528  0.3865
  740TMC3     H10939   2.278   4.674  14.634  1.3233  0.3758  1.2681
  740TMC3    H110940   2.146   0.158  14.290 -0.4854 -3.3775  0.1743
  740TMC3    H210941   2.563   0.048  14.341  0.8812  0.1867  2.3456
  740TMC3    C710942   2.389   0.115  14.152  0.4126 -0.2744 -0.5374
  740TMC3    C810943   2.495   4.596  14.530 -0.2470 -0.0823 -0.2768
  740TMC3    O110944   2.486   0.051  14.119  0.0621 -0.4351 -0.0683
  740TMC3    O210945   2.438   4.525  14.610 -0.3737  0.0029 -0.5330
  741TMC3    C110946   1.702   4.195  14.615  1.1203 -0.0999 -0.5587
  741TMC3    C210947   1.593   4.138  14.555 -0.1236  0.2101 -0.2140
  741TMC3    C310948   1.502   4.068  14.636 -0.2076 -0.2815 -0.4668
  741TMC3    C410949   1.715   4.199  14.747 -0.1616 -0.0398 -0.9225
  741TMC3    C510950   1.625   4.135  14.826  0.3204 -1.2136 -0.2724
  741TMC3    C610951   1.525   4.064  14.771 -0.0092 -0.9084 -0.1998
  741TMC3     C10952   1.827   4.192  14.542  0.6980 -0.3898 -0.3490
  741TMC3     O10953   1.922   4.190  14.617 -0.0778 -0.3169  0.1917
  741TMC3     H10954   1.572   4.128  14.449 -2.0276 -0.2343  0.2087
  741TMC3    H110955   1.795   4.256  14.793 -0.3231  0.9711 -1.9041
  741TMC3    H210956   1.465   3.995  14.830 -2.8725  1.1203 -0.7683
  741TMC3    C710957   1.655   4.121  14.967  0.5306 -0.2777 -0.2069
  741TMC3    C810958   1.384   4.007  14.576 -0.0071  0.1637  0.1798
  741TMC3    O110959   1.558   4.102  15.043  0.4889 -0.4071 -0.3486
  741TMC3    O210960   1.350   4.045  14.465  0.2968 -0.0899 -0.1502
  742TMC3    C110961   1.250   2.736  15.208  0.3616  0.2326 -0.1189
  742TMC3    C210962   1.180   2.676  15.104 -0.0938  0.5589  0.4461
  742TMC3    C310963   1.228   2.561  15.049 -0.4045 -0.1925  0.8873
  742TMC3    C410964   1.358   2.673  15.255  0.6039  0.0449 -0.4751
  742TMC3    C510965   1.392   2.548  15.204  0.0579  0.4305  0.2731
  742TMC3    C610966   1.332   2.497  15.101 -0.6478 -0.3794  0.9979
  742TMC3     C10967   1.248   2.883  15.202 -0.2546  0.1272 -0.3893
  742TMC3     O10968   1.192   2.941  15.110 -0.1401 -0.3645  0.3144
  742TMC3     H10969   1.118   2.744  15.047 -1.6911 -1.2134  0.1096
  742TMC3    H110970   1.406   2.725  15.337 -1.0198  0.3298  0.2916
  742TMC3    H210971   1.370   2.407  15.054  1.4407  1.5119 -1.0108
  742TMC3    C710972   1.526   2.483  15.208 -0.4917 -0.5912 -0.1327
  742TMC3    C810973   1.170   2.506  14.931 -0.9617  0.1014  0.2104
  742TMC3    O110974   1.517   2.360  15.215  0.1504  0.2525  0.1231
  742TMC3    O210975   1.232   2.422  14.868 -0.0975  0.4293  0.0434
  743MPD2     C10976   4.141   3.997   2.274  0.1527 -0.4541 -0.2485
  743MPD2    C110977   4.197   3.967   2.150  0.1995 -0.2542  0.0623
  743MPD2    C210978   4.331   4.005   2.119  0.1315 -0.3488  0.1277
  743MPD2    C310979   4.401   4.075   2.221  0.4782  0.2242  1.3592
  743MPD2    C410980   4.343   4.099   2.344  0.3693  0.2222 -0.6135
  743MPD2    C510981   4.215   4.067   2.365  0.5056  0.5642  0.7659
  743MPD2     H10982   4.374   3.987   2.021 -0.3228  0.6429 -0.2514
  743MPD2    H110983   4.400   4.154   2.418  1.2785  1.5903 -2.3355
  743MPD2    H210984   4.046   3.959   2.310  0.4570 -0.4990  0.5238
  743MPD2    H310985   4.172   4.084   2.463  0.5210  0.0590  0.8571
  743MPD2     N10986   4.536   4.113   2.192  0.0206  0.3509  0.5833
  743MPD2    H510987   4.583   4.075   2.110 -1.1288 -0.6647  0.3768
  743MPD2    N110988   4.115   3.906   2.056  0.3242 -0.3382 -0.8579
  743MPD2    H710989   4.026   3.877   2.094  0.5065 -1.4937 -1.2992
  744TMC3    C110990   4.035   3.810   1.861 -0.1168 -0.1512 -0.4540
  744TMC3    C210991   3.913   3.832   1.907  0.9428  0.6168 -0.1153
  744TMC3    C310992   3.810   3.819   1.821 -0.1471 -1.1666 -0.0451
  744TMC3    C410993   4.055   3.761   1.738  0.0386 -0.1077 -0.4215
  744TMC3    C510994   3.953   3.756   1.648 -0.2089  0.0113 -0.3334
  744TMC3    C610995   3.827   3.779   1.689  0.7590 -0.8454 -0.5781
  744TMC3     C10996   4.153   3.868   1.931 -1.1145  0.1942  0.1123
  744TMC3     O10997   4.249   3.890   1.861 -0.3180 -0.2375  0.1366
  744TMC3     H10998   3.886   3.840   2.012  0.5004  0.3107 -0.2045
  744TMC3    H110999   4.159   3.750   1.712  0.4748  3.8602 -0.3812
  744TMC3    H211000   3.752   3.798   1.613 -0.8109  1.5634  1.5917
  744TMC3    C711001   3.988   3.733   1.506 -0.4313 -0.5429 -0.9337
  744TMC3    C811002   3.690   3.882   1.864  0.2861 -0.2095 -0.3943
  744TMC3    O111003   4.090   3.776   1.457  0.0437  0.1123  0.7747
  744TMC3    O211004   3.696   3.979   1.939  0.1078 -0.5438 -0.1507
  745TMC3    C111005   1.469   2.048  13.396 -0.3681  0.2087 -0.7455
  745TMC3    C211006   1.444   2.031  13.528 -0.1755  0.3682 -1.0119
  745TMC3    C311007   1.319   2.080  13.566 -0.2312  0.7174 -0.5810
  745TMC3    C411008   1.386   2.103  13.301 -0.7352 -0.1256 -0.0106
  745TMC3    C511009   1.263   2.137  13.348 -0.8345 -0.0948  0.1057
  745TMC3    C611010   1.222   2.119  13.479  0.1433 -0.1046 -1.0033
  745TMC3     C11011   1.612   2.058  13.372  0.0592  0.8990 -0.2790
  745TMC3     O11012   1.681   1.959  13.400  0.1858 -0.1467 -0.2782
  745TMC3     H11013   1.529   2.007  13.591 -1.2637 -2.7185 -0.7313
  745TMC3    H111014   1.416   2.104  13.197  0.4286 -1.5053  0.3111
  745TMC3    H211015   1.122   2.144  13.511  1.0620 -0.3113  2.0605
  745TMC3    C711016   1.196   2.230  13.263  0.7732  0.7150 -0.2203
  745TMC3    C811017   1.306   2.115  13.709 -0.0988 -0.0403  0.3273
  745TMC3    O111018   1.075   2.235  13.273  0.6924  0.2179  0.1763
  745TMC3    O211019   1.196   2.130  13.755 -0.3515  0.1866 -0.2024
  746TMC3    C111020   3.697   4.186  11.243 -0.1112 -0.4354  0.3876
  746TMC3    C211021   3.735   4.143  11.121 -0.0271  0.7807 -0.5520
  746TMC3    C311022   3.784   4.018  11.117 -1.0408 -0.2692  0.5137
  746TMC3    C411023   3.727   4.123  11.357  0.6095 -0.6604  0.0137
  746TMC3    C511024   3.781   3.998  11.347  0.0384  0.0245 -0.7705
  746TMC3    C611025   3.804   3.938  11.231 -0.0247  0.0196 -0.0269
  746TMC3     C11026   3.668   4.329  11.264 -0.0001  0.1937 -0.4360
  746TMC3     O11027   3.593   4.357  11.360  0.3552  0.5206 -0.0518
  746TMC3     H11028   3.704   4.201  11.035 -1.6405  0.0992 -0.4327
  746TMC3    H111029   3.703   4.166  11.453  0.5134  0.0625 -0.3338
  746TMC3    H211030   3.861   3.845  11.222  2.2978  1.2647  1.8269
  746TMC3    C711031   3.740   3.906  11.452 -0.7324  0.6028  0.0775
  746TMC3    C811032   3.781   3.951  10.985 -0.1690 -0.1351  0.0656
  746TMC3    O111033   3.626   3.908  11.498 -0.6406 -0.1487  0.1051
  746TMC3    O211034   3.735   3.839  10.988 -0.1312  0.1150 -0.2204
  747TMC3    C111035   1.195   3.715  11.176  0.3821  0.5772  0.0407
  747TMC3    C211036   1.094   3.682  11.266  0.3994 -0.2871 -0.3958
  747TMC3    C311037   1.112   3.737  11.391  0.3234  0.2696  0.3291
  747TMC3    C411038   1.323   3.761  11.210  0.0123 -0.3314 -0.5384
  747TMC3    C511039   1.333   3.799  11.344 -0.3133 -0.2059 -0.5455
  747TMC3    C611040   1.233   3.783  11.434  0.0285 -0.0837 -0.5189
  747TMC3     C11041   1.170   3.677  11.042 -0.1498  0.3792  0.2533
  747TMC3     O11042   1.053   3.691  11.002 -0.5493 -0.2191 -0.1034
  747TMC3     H11043   0.998   3.650  11.229 -0.4602  1.2650  0.5015
  747TMC3    H111044   1.389   3.787  11.128  1.9933  0.1037  1.1833
  747TMC3    H211045   1.254   3.799  11.539 -0.9262  2.3190 -0.6929
  747TMC3    C711046   1.456   3.866  11.402 -0.6057 -0.0137 -0.0123
  747TMC3    C811047   1.013   3.708  11.485  0.2592  0.1090 -0.2924
  747TMC3    O111048   1.454   3.906  11.517  0.4509 -0.0270 -0.3630
  747TMC3    O211049   0.946   3.610  11.452  0.1629  0.4156  0.5965
  748MPD2     C11050   3.562   0.815   2.170 -0.0492 -0.2475 -0.8745
  748MPD2    C111051   3.601   0.681   2.165  0.0273 -0.1410  0.3879
  748MPD2    C211052   3.692   0.639   2.063 -0.3760 -0.4836 -0.1018
  748MPD2    C311053   3.741   0.724   1.967 -0.1284  0.3091  0.8800
  748MPD2    C411054   3.713   0.862   1.983  0.1920  0.0397 -0.3179
  748MPD2    C511055   3.614   0.899   2.077 -0.5900 -0.2645 -0.5769
  748MPD2     H11056   3.716   0.533   2.061 -1.1003 -0.6375 -0.7662
  748MPD2    H111057   3.754   0.944   1.927 -1.8226  2.1350  1.2605
  748MPD2    H211058   3.491   0.843   2.247  1.0015 -0.8057  0.2849
  748MPD2    H311059   3.585   1.003   2.087  0.6258 -0.0916  1.0867
  748MPD2     N11060   3.826   0.663   1.871  0.5673  0.0347  0.2571
  748MPD2    H511061   3.860   0.574   1.905 -0.8059 -1.4274 -2.1685
  748MPD2    N111062   3.538   0.602   2.256  0.9707 -1.4114  0.1833
  748MPD2    H711063   3.480   0.654   2.321  1.2860  1.0057 -1.4709
  749TMC3    C111064   3.966   0.631   1.679  0.3733  0.6719  0.2144
  749TMC3    C211065   4.040   0.541   1.745  0.2058 -0.2136 -0.1354
  749TMC3    C311066   4.133   0.476   1.669 -0.2848 -0.3274  0.5377
  749TMC3    C411067   3.981   0.661   1.545 -0.1226 -0.4880  0.0504
  749TMC3    C511068   4.078   0.591   1.472  0.1247  0.2236  0.7581
  749TMC3    C611069   4.153   0.493   1.534 -0.2700  0.4012 -0.3948
  749TMC3     C11070   3.868   0.719   1.752 -0.8585  0.4605  0.3652
  749TMC3     O11071   3.822   0.817   1.692  0.0323 -0.2382 -0.2372
  749TMC3     H11072   4.041   0.530   1.853  3.1699  1.3038 -0.0056
  749TMC3    H111073   3.941   0.752   1.502  0.7217 -0.7799 -1.3600
  749TMC3    H211074   4.240   0.449   1.487 -0.2152  0.9086 -0.7640
  749TMC3    C711075   4.128   0.668   1.358 -0.2577  0.6232  0.2604
  749TMC3    C811076   4.261   0.456   1.737  0.1456 -0.6187 -0.4287
  749TMC3    O111077   4.086   0.786   1.343 -0.3944 -0.5326 -0.5144
  749TMC3    O211078   4.276   0.510   1.852  0.1323  0.4839  0.0277
  750MPD2     C11079   4.229   1.105  11.504  0.2451 -0.6343  1.0565
  750MPD2    C111080   4.091   1.115  11.527 -0.5369 -0.2197 -0.5854
  750MPD2    C211081   4.008   1.047  11.436 -0.0720 -0.2214 -0.0765
  750MPD2    C311082   4.057   0.965  11.327  0.5678 -0.1890  0.2946
  750MPD2    C411083   4.195   0.967  11.296 -0.5164  0.2442 -1.0500
  750MPD2    C511084   4.273   1.035  11.389 -0.1348 -0.0994  0.1533
  750MPD2     H11085   3.901   1.043  11.452 -0.2188  0.3730 -0.9331
  750MPD2    H111086   4.245   0.912  11.217  0.5300 -0.9020  0.4076
  750MPD2    H211087   4.305   1.144  11.570  1.6116 -2.4816  0.5857
  750MPD2    H311088   4.381   1.027  11.382 -0.0809  0.8129 -0.0324
  750MPD2     N11089   3.978   0.872  11.247 -0.1874 -0.7693  0.2460
  750MPD2    H511090   4.025   0.826  11.170  1.0480 -0.2468  0.6822
  750MPD2    N111091   4.050   1.185  11.640  0.0255 -0.3505 -0.2937
  750MPD2    H711092   4.125   1.223  11.696 -0.1252 -0.3877 -0.0654
  751TMC3    C111093   3.797   0.746  11.190 -0.3457 -0.0241  0.5893
  751TMC3    C211094   3.665   0.756  11.166 -0.2217 -0.5237  1.1790
  751TMC3    C311095   3.612   0.661  11.079 -0.3402 -0.7151  0.1707
  751TMC3    C411096   3.877   0.677  11.114  0.2955  0.8274 -0.2871
  751TMC3    C511097   3.820   0.585  11.030 -0.1262 -0.5366  0.4646
  751TMC3    C611098   3.690   0.572  11.012  0.7277 -0.5622 -0.3373
  751TMC3     C11099   3.845   0.852  11.273  0.0493  0.3154 -0.2874
  751TMC3     O11100   3.771   0.890  11.363 -0.0705 -0.1640  0.2854
  751TMC3     H11101   3.605   0.813  11.236 -1.4218 -4.2051  3.1636
  751TMC3    H111102   3.981   0.656  11.133 -0.1311 -0.2560  0.8611
  751TMC3    H211103   3.649   0.504  10.938 -3.6618  0.3450  1.2130
  751TMC3    C711104   3.909   0.483  10.970  0.2023  0.2769  0.4228
  751TMC3    C811105   3.473   0.632  11.082  0.0615  0.8798 -0.2381
  751TMC3    O111106   4.023   0.515  10.936 -0.4678  0.0882  0.4844
  751TMC3    O211107   3.446   0.544  10.998  0.6895  0.1382  0.0446
  752TMC3    C111108   2.866   0.513  17.214  0.4383  0.1039  0.5913
  752TMC3    C211109   2.987   0.475  17.268 -0.2398  0.0019 -0.4691
  752TMC3    C311110   2.997   0.483  17.410 -0.6832 -0.2379  0.7723
  752TMC3    C411111   2.758   0.564  17.292 -0.5201  0.0035 -0.2598
  752TMC3    C511112   2.791   0.578  17.425 -0.2917 -0.6163  0.2402
  752TMC3    C611113   2.905   0.540  17.491  0.1879 -0.2370  0.0957
  752TMC3     C11114   2.840   0.501  17.070  0.2954  0.7385  0.6033
  752TMC3     O11115   2.940   0.502  17.005 -0.1170 -0.2129  0.2443
  752TMC3     H11116   3.060   0.445  17.193 -0.4394 -2.7875  0.4333
  752TMC3    H111117   2.665   0.606  17.255 -0.7652  0.4668  0.8859
  752TMC3    H211118   2.908   0.540  17.600  0.4924  4.1210  0.1043
  752TMC3    C711119   2.696   0.647  17.507  0.3123 -0.2766 -0.3739
  752TMC3    C811120   3.090   0.403  17.474 -0.2379 -0.3968  0.0345
  752TMC3    O111121   2.579   0.621  17.486 -0.3576  0.6194 -0.6362
  752TMC3    O211122   3.103   0.406  17.595  0.2001 -0.2266 -0.2086
  753TMC3    C111123   0.329   2.327  13.401 -0.0415  0.2469 -0.3947
  753TMC3    C211124   0.365   2.293  13.532  0.1338  0.1154  0.3400
  753TMC3    C311125   0.409   2.160  13.548 -0.1283  0.4193  0.3044
  753TMC3    C411126   0.339   2.246  13.295  0.2327  0.2822  0.3124
  753TMC3    C511127   0.385   2.118  13.317  0.9740 -0.1698 -0.0056
  753TMC3    C611128   0.418   2.073  13.444 -0.2792 -0.3505 -0.0602
  753TMC3     C11129   0.257   2.452  13.381  0.1046 -0.4240 -0.0192
  753TMC3     O11130   0.174   2.452  13.287  0.5146  0.3422  0.1760
  753TMC3     H11131   0.331   2.355  13.614  1.7578  1.1136  0.2569
  753TMC3    H111132   0.304   2.278  13.198  0.3642 -0.0317  0.1631
  753TMC3    H211133   0.446   1.970  13.462  0.0423 -0.4134 -0.9347
  753TMC3    C711134   0.367   2.026  13.206  0.0431 -0.6192  0.4407
  753TMC3    C811135   0.452   2.114  13.682  0.7928 -0.1512 -0.5359
  753TMC3    O111136   0.392   2.074  13.096  0.2200  0.0519  0.2290
  753TMC3    O211137   0.441   1.992  13.698  0.4786 -0.3078 -0.0516
  754MPD2     C11138   3.440   0.547  12.773  0.0227 -1.1344 -0.2304
  754MPD2    C111139   3.374   0.452  12.855  0.2380 -0.6029  0.2934
  754MPD2    C211140   3.260   0.490  12.925 -0.5390  0.2544 -0.0382
  754MPD2    C311141   3.213   0.622  12.923 -0.2043 -0.0729 -0.1380
  754MPD2    C411142   3.288   0.717  12.860 -0.1565  0.7456  0.2418
  754MPD2    C511143   3.401   0.681  12.788  0.7029 -0.0490  0.1675
  754MPD2     H11144   3.226   0.430  13.009 -3.2009  0.7725 -0.7285
  754MPD2    H111145   3.263   0.823  12.860 -0.3343  0.7028 -2.4483
  754MPD2    H211146   3.522   0.518  12.709  0.2282  0.1095 -0.5289
  754MPD2    H311147   3.460   0.757  12.738 -1.9263  0.9539 -1.4046
  754MPD2     N11148   3.106   0.670  13.007  1.2516  0.3291 -0.6578
  754MPD2    H511149   3.098   0.768  13.034  0.6561  0.6051 -1.8722
  754MPD2    N111150   3.429   0.323  12.863  0.9257  0.1224  0.1175
  754MPD2    H711151   3.522   0.311  12.824  1.6142  1.8713  1.2207
  755MPD2     C11152   2.636   1.445  13.141  0.2550 -0.2544 -0.1936
  755MPD2    C111153   2.721   1.386  13.237 -0.1307 -0.3220 -0.8226
  755MPD2    C211154   2.776   1.258  13.209 -0.1711  0.0273 -0.0301
  755MPD2    C311155   2.724   1.182  13.108  0.0886 -0.3944 -0.4706
  755MPD2    C411156   2.642   1.245  13.014  0.1899  0.1984  0.0557
  755MPD2    C511157   2.606   1.374  13.034 -0.0700 -0.5153  0.8126
  755MPD2     H11158   2.832   1.215  13.292 -0.5941  0.4096  0.4515
  755MPD2    H111159   2.608   1.185  12.931 -0.6691  1.4908 -0.5222
  755MPD2    H211160   2.579   1.536  13.158  1.1967  0.5969 -1.6507
  755MPD2    H311161   2.558   1.426  12.951  0.0104 -3.1982 -0.9243
  755MPD2     N11162   2.768   1.044  13.093  0.2659  0.2545 -0.2763
  755MPD2    H511163   2.853   1.017  13.140 -0.3653  0.2073  0.8214
  755MPD2    N111164   2.754   1.447  13.366  0.3551  0.1904 -0.0156
  755MPD2    H711165   2.805   1.389  13.431  1.0748  1.2574  0.3672
  756MPD2     C11166   3.565   2.286  10.085  0.6857  0.4998 -0.5192
  756MPD2    C111167   3.470   2.250  10.178  0.0493 -0.3330 -0.3234
  756MPD2    C211168   3.358   2.187  10.135 -0.2469 -0.0372 -0.0589
  756MPD2    C311169   3.341   2.144  10.007  0.2887 -0.1259  0.4710
  756MPD2    C411170   3.432   2.178   9.912  0.0351  0.2052 -0.2839
  756MPD2    C511171   3.543   2.256   9.953 -0.2865 -0.0927 -0.2036
  756MPD2     H11172   3.287   2.161  10.213 -0.2500 -0.5775 -0.2478
  756MPD2    H111173   3.414   2.167   9.806  0.0650 -1.7184 -0.0827
  756MPD2    H211174   3.654   2.342  10.111  1.2546 -0.3910 -0.5561
  756MPD2    H311175   3.602   2.300   9.874  1.5991 -1.1314  0.6044
  756MPD2     N11176   3.219   2.073   9.988  0.0751  0.5407 -0.6623
  756MPD2    H511177   3.171   2.046  10.073 -0.5468  0.3199 -1.0887
  756MPD2    N111178   3.510   2.264  10.312 -0.1194  0.4250 -0.2087
  756MPD2    H711179   3.605   2.289  10.336 -0.7468  1.4871  1.1656
  757MPD2     C11180   2.867   1.278  10.396 -0.0595 -0.7113 -0.1481
  757MPD2    C111181   2.799   1.275  10.276 -0.3771 -0.1471 -0.1254
  757MPD2    C211182   2.810   1.375  10.182 -0.8420 -0.1400  0.0927
  757MPD2    C311183   2.878   1.485  10.218 -0.0906  0.0925 -0.0500
  757MPD2    C411184   2.963   1.479  10.329  0.6015  0.5680  0.1024
  757MPD2    C511185   2.956   1.374  10.416 -0.4584 -0.2821  0.0837
  757MPD2     H11186   2.755   1.371  10.089  2.5458  0.2853 -1.9450
  757MPD2    H111187   3.047   1.544  10.348  0.6284  1.2389 -2.3396
  757MPD2    H211188   2.871   1.192  10.462 -0.7302 -0.9291 -0.3958
  757MPD2    H311189   3.008   1.375  10.511 -0.7504 -1.4938  0.2564
  757MPD2     N11190   2.874   1.580  10.119 -0.7529 -0.4591 -0.2176
  757MPD2    H511191   2.818   1.565  10.036  0.4175 -3.2386 -0.5053
  757MPD2    N111192   2.723   1.165  10.245  0.3741 -0.1125 -0.4239
  757MPD2    H711193   2.664   1.175  10.164 -1.4742 -4.0597  0.4358
  758MPD2     C11194   3.774   0.104  16.291  0.1225 -0.3867  0.0867
  758MPD2    C111195   3.905   0.145  16.312  0.5193  0.6881  0.1812
  758MPD2    C211196   3.926   0.274  16.366  0.2085 -0.0330 -0.2944
  758MPD2    C311197   3.819   0.368  16.387 -0.8304 -0.3348  0.1698
  758MPD2    C411198   3.693   0.321  16.371 -0.1966 -0.4838 -0.1222
  758MPD2    C511199   3.676   0.201  16.312 -0.2485 -0.3645  0.5619
  758MPD2     H11200   4.031   0.289  16.391 -0.1278  0.2413  0.9570
  758MPD2    H111201   3.607   0.380  16.398 -0.6135 -1.0876 -0.1179
  758MPD2    H211202   3.752   4.723  16.269  3.1579 -1.4231  1.9828
  758MPD2    H311203   3.573   0.167  16.304 -0.8233  1.4766  0.1794
  758MPD2     N11204   3.834   0.500  16.430  0.0858  0.1853  0.4210
  758MPD2    H511205   3.747   0.542  16.461  1.4953  1.6214  2.4009
  758MPD2    N111206   4.013   0.054  16.302  0.3116 -0.2781 -0.2802
  758MPD2    H711207   4.100   0.084  16.343 -0.6535  0.7082  1.0418
  759MPD2     C11208   2.509   3.640  10.066 -0.5810 -0.9073  0.0581
  759MPD2    C111209   2.409   3.550  10.056 -0.3874 -0.2065  1.0481
  759MPD2    C211210   2.296   3.587   9.990 -0.5693 -0.0408  0.6442
  759MPD2    C311211   2.293   3.709   9.917 -0.9218  0.8567 -0.7154
  759MPD2    C411212   2.390   3.801   9.930  0.5434 -0.4595 -0.2213
  759MPD2    C511213   2.498   3.764  10.003  0.1293 -0.1731  0.4006
  759MPD2     H11214   2.211   3.520   9.975  1.2341 -1.4476 -3.3898
  759MPD2    H111215   2.392   3.899   9.883 -0.5298 -1.1318 -1.6477
  759MPD2    H211216   2.611   3.620  10.099 -0.0031  0.6501 -0.8173
  759MPD2    H311217   2.570   3.846  10.008 -0.3632  0.0947  3.2101
  759MPD2     N11218   2.167   3.737   9.856  1.0433 -0.3511  0.5321
  759MPD2    H511219   2.098   3.663   9.851  1.2828 -0.4854 -0.6948
  759MPD2    N111220   2.406   3.419  10.115 -0.1135 -0.2821  0.0416
  759MPD2    H711221   2.314   3.375  10.123 -1.1552  1.9633  0.2156
  760MPD2     C11222   1.979   1.079  12.105 -0.0366  0.5138 -0.2682
  760MPD2    C111223   2.115   1.093  12.078  0.1010 -0.6764  0.3806
  760MPD2    C211224   2.201   1.007  12.139 -0.1394 -0.5355 -0.6102
  760MPD2    C311225   2.162   0.910  12.227  0.6039  0.3823  0.0358
  760MPD2    C411226   2.028   0.893  12.253 -0.0631  0.5499 -0.0714
  760MPD2    C511227   1.940   0.982  12.199  0.1259 -1.1137 -0.1767
  760MPD2     H11228   2.307   1.019  12.119 -0.3081  0.8477 -0.6662
  760MPD2    H111229   1.987   0.816  12.317  2.5377  0.6984  1.7729
  760MPD2    H211230   1.899   1.134  12.056 -0.2584 -0.6729 -1.2367
  760MPD2    H311231   1.835   0.957  12.204 -0.1460  0.0726  0.1373
  760MPD2     N11232   2.257   0.826  12.293 -0.1887 -0.3998  0.4361
  760MPD2    H511233   2.225   0.759  12.363 -0.5106 -1.0348 -0.3290
  760MPD2    N111234   2.173   1.178  11.973  0.4965 -0.9257  0.3733
  760MPD2    H711235   2.274   1.170  11.965  0.3458 -0.9519 -1.3784
  761MPD2     C11236   3.038   0.523  11.293  0.1999  0.0075 -0.0983
  761MPD2    C111237   3.131   0.439  11.232  0.4054 -0.6035 -0.7491
  761MPD2    C211238   3.251   0.496  11.191 -0.1260  0.5517 -0.0667
  761MPD2    C311239   3.278   0.629  11.220  0.4907  0.7323 -0.2704
  761MPD2    C411240   3.191   0.710  11.280 -0.1944 -0.3631  0.0114
  761MPD2    C511241   3.069   0.651  11.324  0.6518 -0.1369 -0.4450
  761MPD2     H11242   3.320   0.423  11.149 -1.7496 -1.4745  0.7389
  761MPD2    H111243   3.213   0.815  11.294 -0.3552 -0.2723 -0.4114
  761MPD2    H211244   2.952   0.472  11.337 -0.5953  0.6834 -0.8831
  761MPD2    H311245   2.996   0.711  11.378  0.1963 -1.2162  0.1320
  761MPD2     N11246   3.398   0.686  11.182 -0.1920  0.3892  0.2013
  761MPD2    H511247   3.430   0.765  11.236  0.5903 -0.0733  0.4243
  761MPD2    N111248   3.108   0.303  11.220  0.3890  0.0080  0.1733
  761MPD2    H711249   3.015   0.269  11.242  1.2770 -1.6667  1.2783
  762MPD2     C11250   3.322   4.253  10.915  0.3210  0.6145 -0.0917
  762MPD2    C111251   3.384   4.374  10.938 -0.5153 -0.6528 -0.2591
  762MPD2    C211252   3.511   4.390  10.890  0.1833  0.4640  0.3521
  762MPD2    C311253   3.570   4.291  10.809  0.0957 -0.7094 -0.6128
  762MPD2    C411254   3.506   4.174  10.786  0.1214 -0.0969  0.3952
  762MPD2    C511255   3.378   4.166  10.827 -0.0556  0.0860  0.0900
  762MPD2     H11256   3.560   4.485  10.909 -0.8260  0.5891  2.3421
  762MPD2    H111257   3.538   4.095  10.719 -1.1959 -0.8384  0.6455
  762MPD2    H211258   3.222   4.237  10.954  0.3163 -2.2429 -1.2718
  762MPD2    H311259   3.328   4.071  10.810  3.2127 -1.8071  1.0786
  762MPD2     N11260   3.698   4.310  10.748 -1.0453  0.0249  0.1758
  762MPD2    H511261   3.741   4.228  10.706 -1.2723  0.3263 -0.6264
  762MPD2    N111262   3.321   4.475  11.015 -0.1179 -0.0783 -0.0822
  762MPD2    H711263   3.364   4.567  11.005  0.2809 -0.2619 -0.0498
  763MPD2     C11264   0.820   0.477  16.393  1.3037  0.3591 -0.1045
  763MPD2    C111265   0.819   0.604  16.341 -0.5055  0.8613 -1.0769
  763MPD2    C211266   0.773   0.718  16.418  0.1583 -0.0485  1.1597
  763MPD2    C311267   0.737   0.698  16.547 -0.5732  0.2991 -0.3881
  763MPD2    C411268   0.752   0.575  16.605 -0.2608  0.4672  0.0652
  763MPD2    C511269   0.774   0.460  16.524  0.3185  0.1228 -0.4585
  763MPD2     H11270   0.780   0.814  16.370  2.2759  0.4572  2.4795
  763MPD2    H111271   0.741   0.556  16.711  1.0972 -0.1097  0.1163
  763MPD2    H211272   0.861   0.386  16.351  0.9418 -0.0938  0.5313
  763MPD2    H311273   0.791   0.367  16.577 -1.8969  0.8107  1.4662
  763MPD2     N11274   0.700   0.806  16.631 -0.0759  0.5028 -0.0716
  763MPD2    H511275   0.677   0.769  16.723  0.0970  2.3693  0.7293
  763MPD2    N111276   0.860   0.631  16.213 -0.1695  0.4620 -0.2107
  763MPD2    H711277   0.837   0.724  16.179 -3.0251 -0.1871 -0.0329
  764MPD2     C11278   3.517   2.230   0.137  0.2514 -0.4200  0.1308
  764MPD2    C111279   3.467   2.166   0.026  0.1235 -0.3617  0.6014
  764MPD2    C211280   3.494   2.034   0.008  0.3856 -0.4019 -0.5304
  764MPD2    C311281   3.554   1.963   0.116 -0.0100 -0.5231  0.3834
  764MPD2    C411282   3.597   2.028   0.226 -0.3379 -0.3863  0.7064
  764MPD2    C511283   3.588   2.162   0.230 -0.0307  0.3811 -0.0607
  764MPD2     H11284   3.456   1.978  17.618 -2.4495 -1.6977  1.5961
  764MPD2    H111285   3.648   1.980   0.309 -0.8707 -1.8708  0.1748
  764MPD2    H211286   3.489   2.333   0.158 -3.0029 -1.5919  1.4881
  764MPD2    H311287   3.623   2.220   0.315 -0.3000  0.8941 -0.2980
  764MPD2     N11288   3.566   1.825   0.101 -0.1801  0.4172 -0.2956
  764MPD2    H511289   3.538   1.787   0.011 -0.4531 -2.2599  0.9419
  764MPD2    N111290   3.400   2.240  17.618 -0.9312  0.1566 -0.0166
  764MPD2    H711291   3.371   2.182  17.540 -0.8092  0.7688 -0.5123
  765MPD2     C11292   3.295   4.374  15.237  0.3115 -0.9723 -0.0280
  765MPD2    C111293   3.347   4.373  15.369 -0.6130  0.5791  0.6088
  765MPD2    C211294   3.466   4.312  15.402 -0.8812 -0.7951 -0.2312
  765MPD2    C311295   3.538   4.251  15.290  0.2205  0.6488  0.0586
  765MPD2    C411296   3.494   4.265  15.158  0.5180  0.5735  0.5481
  765MPD2    C511297   3.369   4.320  15.135 -0.8270 -0.3158 -0.5224
  765MPD2     H11298   3.502   4.301  15.503 -2.0882 -1.1921  0.1631
  765MPD2    H111299   3.545   4.220  15.073 -1.9180  1.2230 -1.2479
  765MPD2    H211300   3.193   4.403  15.215 -0.8022 -1.8543  3.9036
  765MPD2    H311301   3.326   4.312  15.036  1.5459  0.4943 -1.6103
  765MPD2     N11302   3.653   4.173  15.327 -0.2109 -0.6837  0.3729
  765MPD2    H511303   3.671   4.176  15.427  2.6521  0.8599 -0.1815
  765MPD2    N111304   3.265   4.442  15.470 -0.0195 -0.3577 -0.4537
  765MPD2    H711305   3.180   4.485  15.437  0.7775  0.3947 -1.5453
  766MPD2     C11306   2.806   4.515  15.273  0.5201  0.1657 -0.2550
  766MPD2    C111307   2.888   4.626  15.289  0.7126 -0.3258  0.9600
  766MPD2    C211308   2.946   4.679  15.180  0.5659  0.5849 -0.5624
  766MPD2    C311309   2.945   4.607  15.060 -0.2042 -0.2195  0.0645
  766MPD2    C411310   2.869   4.496  15.044 -0.5310 -0.0513  0.0198
  766MPD2    C511311   2.796   4.453  15.151 -0.2010 -0.4597 -0.6395
  766MPD2     H11312   3.005   0.045  15.198  1.5659 -0.2408  0.1998
  766MPD2    H111313   2.856   4.437  14.954 -0.8592 -0.7785  0.5467
  766MPD2    H211314   2.757   4.476  15.361 -0.3249  3.5025  0.7474
  766MPD2    H311315   2.743   4.360  15.138 -2.9723  1.1825 -1.0994
  766MPD2     N11316   3.022   4.648  14.949 -0.1875  0.5515 -0.2032
  766MPD2    H511317   3.015   4.594  14.864  1.9097  0.6894 -0.4833
  766MPD2    N111318   2.926   4.680  15.411  0.4295  0.4057  0.2429
  766MPD2    H711319   2.997   0.029  15.417  0.2130  0.6139  0.2722
  767MPD2     C11320   2.727   0.141  14.966 -0.0918  0.6087  0.1291
  767MPD2    C111321   2.798   0.264  14.955  0.4021 -0.0737  0.0425
  767MPD2    C211322   2.835   0.301  14.828 -0.1403  0.6511  0.3539
  767MPD2    C311323   2.823   0.216  14.725 -0.4247 -0.4419  0.5523
  767MPD2    C411324   2.765   0.092  14.741 -0.4779 -0.8540 -0.9986
  767MPD2    C511325   2.723   0.053  14.865 -0.5105  0.2283  0.0694
  767MPD2     H11326   2.878   0.399  14.811 -0.4268  1.0229  1.7170
  767MPD2    H111327   2.770   0.019  14.661  2.5480 -1.8824  0.1160
  767MPD2    H211328   2.697   0.101  15.062  2.4057  0.2393  0.7650
  767MPD2    H311329   2.693   4.677  14.900  0.0943 -0.7099 -2.0345
  767MPD2     N11330   2.875   0.258  14.602  0.0051  0.3776 -0.1837
  767MPD2    H511331   2.924   0.346  14.602 -0.0666  0.4057 -2.2745
  767MPD2    N111332   2.814   0.340  15.075  0.3391 -0.1408 -0.4523
  767MPD2    H711333   2.784   0.300  15.164 -0.1552  0.6117 -0.2761
  768MPD2     C11334   3.460   3.427  11.186 -0.2857 -0.4424 -0.1033
  768MPD2    C111335   3.521   3.369  11.297  0.2139 -0.2415  0.1322
  768MPD2    C211336   3.656   3.390  11.324  0.0431  1.1681 -0.4118
  768MPD2    C311337   3.729   3.464  11.234  0.0100 -0.2817  0.6503
  768MPD2    C411338   3.666   3.528  11.130  0.3081 -0.1474  0.1265
  768MPD2    C511339   3.535   3.501  11.099 -0.3549  0.8608  0.0652
  768MPD2     H11340   3.701   3.337  11.408 -0.3577 -0.3020 -1.1189
  768MPD2    H111341   3.726   3.587  11.061 -0.4615  0.4331 -0.0367
  768MPD2    H211342   3.363   3.387  11.159 -0.1782 -1.9806  1.7072
  768MPD2    H311343   3.487   3.538  11.010  0.0231  2.1054  0.3766
  768MPD2     N11344   3.865   3.482  11.244 -0.3476  0.2203 -0.0542
  768MPD2    H511345   3.906   3.548  11.178 -0.1266 -0.4166 -0.5519
  768MPD2    N111346   3.451   3.295  11.392  0.8197  0.1379  0.0034
  768MPD2    H711347   3.493   3.279  11.483 -0.1351  1.7288  0.7301
  769MPD2     C11348   4.586   1.884  14.961  0.0898 -0.0344 -0.0103
  769MPD2    C111349   4.540   1.842  15.084  0.4057  0.2444  0.3478
  769MPD2    C211350   4.592   1.889  15.204 -0.3944  0.6785 -0.7071
  769MPD2    C311351   4.686   1.991  15.194 -0.3335 -0.1497  0.3247
  769MPD2    C411352   4.717   2.042  15.069  0.2422  0.1046  0.3506
  769MPD2    C511353   4.674   1.988  14.948 -1.0878 -0.3068  0.0260
  769MPD2     H11354   4.568   1.851  15.302 -0.8694  0.6632 -0.8312
  769MPD2    H111355   0.081   2.107  15.058 -1.4449  2.2626 -0.1926
  769MPD2    H211356   4.557   1.818  14.880 -2.1601 -0.9717  1.5653
  769MPD2    H311357   4.710   2.017  14.850 -0.8477 -0.1144  0.1702
  769MPD2     N11358   0.037   2.021  15.305  0.1596  0.2196 -0.1917
  769MPD2    H511359   0.022   1.967  15.390 -1.0077 -0.5977 -0.9079
  769MPD2    N111360   4.448   1.732  15.087  0.0398  0.0273  0.3461
  769MPD2    H711361   4.399   1.705  15.003 -0.6590 -0.8258  1.0263
  770MPD2     C11362   3.907   0.888  15.522 -0.4076  0.0822  0.9497
  770MPD2    C111363   4.003   0.842  15.440 -0.3315 -0.0866  0.3899
  770MPD2    C211364   4.081   0.934  15.368 -0.5684  0.2168  0.0917
  770MPD2    C311365   4.064   1.071  15.394 -0.0616  0.4133  0.3302
  770MPD2    C411366   3.965   1.116  15.479  1.1626 -0.4156 -0.9374
  770MPD2    C511367   3.885   1.023  15.545 -0.4104 -0.3236  0.2509
  770MPD2     H11368   4.145   0.907  15.285 -2.3524 -3.7197  0.0078
  770MPD2    H111369   3.941   1.215  15.517 -0.4102  0.1918 -3.4970
  770MPD2    H211370   3.846   0.816  15.576  0.4484 -0.8791  0.6326
  770MPD2    H311371   3.815   1.058  15.620  0.8720  2.0023  0.3785
  770MPD2     N11372   4.139   1.168  15.316  0.4175  0.2373 -0.4298
  770MPD2    H511373   4.211   1.134  15.254 -0.6726 -0.9644 -1.0506
  770MPD2    N111374   4.021   0.703  15.422  0.1555  0.0909 -0.4948
  770MPD2    H711375   3.948   0.646  15.462 -1.2035  1.7045 -0.6823
  771MPD2     C11376   0.763   4.103  13.641  0.3944 -0.6392  0.2804
  771MPD2    C111377   0.699   4.223  13.614  0.2302 -0.3466 -0.0476
  771MPD2    C211378   0.578   4.224  13.543 -0.0094 -0.1634  0.5895
  771MPD2    C311379   0.519   4.105  13.500 -0.2146  0.3429 -0.2660
  771MPD2    C411380   0.585   3.992  13.524  0.4541 -0.6123 -0.1232
  771MPD2    C511381   0.699   3.988  13.596  0.9617  0.2501 -0.4133
  771MPD2     H11382   0.529   4.319  13.526  1.5194  0.3852 -0.7133
  771MPD2    H111383   0.560   3.895  13.483  0.6158 -0.5053 -0.4717
  771MPD2    H211384   0.861   4.099  13.686  0.4264  0.0911  0.2846
  771MPD2    H311385   0.748   3.892  13.607 -0.6086 -0.5718 -0.5507
  771MPD2     N11386   0.419   4.112  13.402 -0.4863  0.0957 -0.7759
  771MPD2    H511387   0.383   4.203  13.374  1.0418  0.4223 -1.6976
  771MPD2    N111388   0.745   4.344  13.673 -0.3180  0.0652 -0.2057
  771MPD2    H711389   0.688   4.427  13.660  0.8645  0.7588 -0.9794
  772MPD2     C11390   0.433   0.250  13.869  0.5559  0.5434 -0.0042
  772MPD2    C111391   0.433   0.117  13.852  0.1730  0.6183  0.3232
  772MPD2    C211392   0.315   0.051  13.817 -0.9890 -0.0616  0.2555
  772MPD2    C311393   0.194   0.120  13.807  0.0351  0.1412  0.0102
  772MPD2    C411394   0.197   0.256  13.810  0.1648 -0.2862 -0.2389
  772MPD2    C511395   0.315   0.320  13.832  0.1981 -0.2260 -0.7171
  772MPD2     H11396   0.310   4.666  13.825  1.2179 -0.2370 -0.6913
  772MPD2    H111397   0.108   0.313  13.786 -2.8044 -5.1015 -0.7389
  772MPD2    H211398   0.521   0.306  13.896  0.6921 -0.0135  0.7139
  772MPD2    H311399   0.323   0.428  13.828  1.1537 -0.2309  0.9159
  772MPD2     N11400   0.065   0.063  13.787  0.3875  0.6591  0.5816
  772MPD2    H511401   4.712   0.129  13.775  0.1727  0.2235 -0.4477
  772MPD2    N111402   0.554   0.041  13.859  1.2201  0.4007 -0.1265
  772MPD2    H711403   0.558   4.673  13.814 -0.8838  1.3188 -2.1533
  773MPD2     C11404   4.503   1.302   0.753 -0.3236 -0.2050  0.9728
  773MPD2    C111405   4.457   1.197   0.666 -0.1078  0.0134  1.2008
  773MPD2    C211406   4.525   1.076   0.670 -0.7461  0.6135  0.2384
  773MPD2    C311407   4.633   1.062   0.756 -0.1522  0.0371 -0.0458
  773MPD2    C411408   4.676   1.160   0.842  0.0285 -0.0460 -0.0451
  773MPD2    C511409   4.609   1.282   0.835  0.6982  0.1480  0.2331
  773MPD2     H11410   4.494   1.001   0.599 -0.4077  0.5556  0.1514
  773MPD2    H111411   0.032   1.143   0.914 -0.4715 -0.5045  0.4028
  773MPD2    H211412   4.452   1.397   0.745  2.6497  1.3410  0.1544
  773MPD2    H311413   4.647   1.360   0.900 -0.5827  0.2922  0.8041
  773MPD2     N11414   4.708   0.939   0.732  0.3879 -0.2734 -0.7916
  773MPD2    H511415   4.670   0.876   0.662 -0.2662 -1.2987  0.5106
  773MPD2    N111416   4.357   1.208   0.574 -0.3522  0.0819 -0.8816
  773MPD2    H711417   4.348   1.125   0.516  4.3997 -0.9824 -0.1138
  774MPD2     C11418   3.310   4.094  13.425  0.6518  0.4742 -0.4028
  774MPD2    C111419   3.381   4.190  13.503  0.4755 -0.1529  0.0780
  774MPD2    C211420   3.419   4.309  13.452  0.2847  0.6519  0.2903
  774MPD2    C311421   3.382   4.346  13.327  0.0600  0.0360  0.0880
  774MPD2    C411422   3.303   4.258  13.256 -0.0531 -0.3059  0.0188
  774MPD2    C511423   3.262   4.136  13.301  0.9324 -0.1603 -0.0760
  774MPD2     H11424   3.493   4.366  13.507 -0.5397  1.2569  0.7804
  774MPD2    H111425   3.278   4.282  13.153  3.8048 -1.6253 -1.2307
  774MPD2    H211426   3.291   3.992  13.453 -0.0175  0.7572  0.1833
  774MPD2    H311427   3.210   4.063  13.240  2.1324 -1.1839  0.1355
  774MPD2     N11428   3.439   4.468  13.269  0.0347  0.0360  0.6004
  774MPD2    H511429   3.486   4.532  13.333  1.9735 -1.1057  0.3288
  774MPD2    N111430   3.434   4.165  13.636 -0.6854 -0.4132 -0.2853
  774MPD2    H711431   3.480   4.235  13.692  0.5546 -0.9321 -0.6619
  775MPD2     C11432   0.386   1.914  15.887  0.1008 -0.7842  0.0416
  775MPD2    C111433   0.436   2.003  15.977  0.1057  0.1663  0.4446
  775MPD2    C211434   0.553   2.068  15.938 -0.2085  0.6686 -0.3062
  775MPD2    C311435   0.599   2.061  15.808  0.3668  0.1146 -0.0844
  775MPD2    C411436   0.527   1.992  15.717  0.2977 -0.0065  0.3331
  775MPD2    C511437   0.424   1.913  15.761  0.2452 -0.3937  0.3575
  775MPD2     H11438   0.608   2.137  16.000 -1.2677  1.1665  0.0680
  775MPD2    H111439   0.566   1.988  15.616  1.6504 -0.8476  0.8737
  775MPD2    H211440   0.311   1.842  15.916 -0.0851 -1.3471 -1.8198
  775MPD2    H311441   0.384   1.836  15.696 -1.9255  1.9042 -1.0584
  775MPD2     N11442   0.698   2.147  15.745  0.1913  0.0188 -0.0959
  775MPD2    H511443   0.696   2.153  15.644  0.9569 -0.7943 -0.1679
  775MPD2    N111444   0.394   2.013  16.107 -0.0884 -0.5620 -0.5542
  775MPD2    H711445   0.321   1.947  16.131  0.6649 -1.3816 -0.4959
  776MPD2     C11446   3.461   1.702  11.743 -0.0710  0.2853 -0.0552
  776MPD2    C111447   3.581   1.710  11.804  0.4872  0.4513  0.3516
  776MPD2    C211448   3.646   1.832  11.811 -0.2797  0.4252 -0.0808
  776MPD2    C311449   3.596   1.935  11.733 -0.4236  0.9099 -0.0543
  776MPD2    C411450   3.472   1.937  11.687  0.3311  0.0026 -0.4803
  776MPD2    C511451   3.405   1.817  11.691 -0.5181  0.0762 -0.0963
  776MPD2     H11452   3.730   1.848  11.877 -1.5574 -0.4646  1.7765
  776MPD2    H111453   3.426   2.021  11.636  0.7034 -0.9947 -2.4584
  776MPD2    H211454   3.408   1.607  11.740 -0.4254  0.4765  0.1472
  776MPD2    H311455   3.301   1.814  11.660 -0.2328 -0.4477 -1.0203
  776MPD2     N11456   3.670   2.059  11.722 -0.1958  0.2715  0.1321
  776MPD2    H511457   3.625   2.131  11.666  1.0999  0.7022 -0.3533
  776MPD2    N111458   3.638   1.589  11.845  0.0860  0.1043 -0.1897
  776MPD2    H711459   3.596   1.509  11.799 -1.3746  1.8163 -1.8479
  777MPD2     C11460   4.590   4.487   0.911 -0.6561 -0.1704  0.2055
  777MPD2    C111461   4.618   4.383   0.995  0.8330  0.3299 -0.2477
  777MPD2    C211462   4.576   4.255   0.964  0.2690  0.0711 -0.5408
  777MPD2    C311463   4.508   4.231   0.846  0.0192  0.9104 -0.9027
  777MPD2    C411464   4.478   4.340   0.764  0.8972 -0.6570 -0.5524
  777MPD2    C511465   4.528   4.464   0.790  0.7101  0.1537 -0.6873
  777MPD2     H11466   4.595   4.175   1.035 -2.3127 -2.8020 -3.0953
  777MPD2    H111467   4.423   4.326   0.671  1.0062 -0.1860 -0.6894
  777MPD2    H211468   4.600   4.591   0.940 -1.4179  0.1401 -0.6441
  777MPD2    H311469   4.498   4.545   0.724  0.4171  2.1221  1.8302
  777MPD2     N11470   4.450   4.103   0.826  0.1012  0.2882  0.4535
  777MPD2    H511471   4.451   4.029   0.895  1.0822 -0.9559 -0.8974
  777MPD2    N111472   4.661   4.413   1.128  0.1157 -0.5849 -0.5362
  777MPD2    H711473   4.672   4.510   1.155 -0.9964 -0.1317 -1.7037
  778MPD2     C11474   0.287   4.070  15.223  0.6876 -0.5032  0.1507
  778MPD2    C111475   0.253   4.038  15.098  0.5995  0.0103  0.0370
  778MPD2    C211476   0.312   4.110  14.995 -0.2353  0.0222 -0.2052
  778MPD2    C311477   0.400   4.207  15.010 -0.3126 -0.4953 -0.1166
  778MPD2    C411478   0.436   4.235  15.142 -0.2459 -0.2139 -0.6699
  778MPD2    C511479   0.377   4.173  15.245 -0.0252  0.2131  0.2927
  778MPD2     H11480   0.279   4.095  14.893 -1.1715 -0.3075  0.1425
  778MPD2    H111481   0.513   4.307  15.167  1.5526 -1.1630 -3.4872
  778MPD2    H211482   0.247   4.037  15.319 -0.0220 -0.9050 -0.2885
  778MPD2    H311483   0.395   4.203  15.348  1.9040 -3.1231  0.9453
  778MPD2     N11484   0.465   4.270  14.895  0.7324 -0.4509  0.3955
  778MPD2    H511485   0.454   4.226  14.804 -2.4820  0.5160  0.3418
  778MPD2    N111486   0.165   3.932  15.062 -0.5680  0.8908 -0.1012
  778MPD2    H711487   0.143   3.928  14.963 -1.7685 -2.4553  0.3020
  779MPD2     C11488   0.390   3.281  14.111  0.5136 -0.3747 -0.2626
  779MPD2    C111489   0.520   3.249  14.144  0.4624 -0.6495 -0.0813
  779MPD2    C211490   0.613   3.347  14.128 -0.7489 -0.2042  1.3772
  779MPD2    C311491   0.580   3.466  14.065  0.0238  0.1979  0.7991
  779MPD2    C411492   0.450   3.494  14.025 -0.1186  0.0664  0.4204
  779MPD2    C511493   0.358   3.403  14.059  0.2631 -0.5824 -0.3537
  779MPD2     H11494   0.711   3.321  14.167  0.2136  2.1290  0.5370
  779MPD2    H111495   0.420   3.579  13.966  0.6997  0.4848  0.6062
  779MPD2    H211496   0.303   3.218  14.125  0.2129  0.5642  2.1653
  779MPD2    H311497   0.254   3.431  14.044 -0.1632 -2.9741 -1.7686
  779MPD2     N11498   0.679   3.562  14.042  0.0648 -0.0151 -0.2423
  779MPD2    H511499   0.755   3.551  14.109 -0.6660 -0.6972  0.4802
  779MPD2    N111500   0.551   3.125  14.203 -0.0304  0.1259 -0.4619
  779MPD2    H711501   0.651   3.110  14.212  0.1276  1.4589 -0.0354
  780MPD2     C11502   0.925   3.667   1.231 -0.0825  0.7061 -0.1575
  780MPD2    C111503   0.835   3.634   1.133 -0.3010 -0.5869 -0.0131
  780MPD2    C211504   0.871   3.633   1.000  0.4039 -0.2182 -0.7540
  780MPD2    C311505   1.003   3.666   0.963  0.3384 -0.8461 -0.5351
  780MPD2    C411506   1.085   3.714   1.057 -0.1149  0.0746 -0.2822
  780MPD2    C511507   1.047   3.714   1.185 -0.3850  0.5468  0.6207
  780MPD2     H11508   0.806   3.598   0.920 -1.8451  2.8870 -0.2719
  780MPD2    H111509   1.190   3.742   1.047  0.3949 -1.7266  0.0865
  780MPD2    H211510   0.910   3.666   1.338 -0.4974 -2.1817 -0.2502
  780MPD2    H311511   1.124   3.744   1.255 -0.5300 -2.8693  2.2375
  780MPD2     N11512   1.031   3.650   0.828 -0.3773  0.0805 -0.3496
  780MPD2    H511513   0.949   3.615   0.780  1.0350 -2.7041 -0.7153
  780MPD2    N111514   0.706   3.599   1.171 -0.5144 -0.0027  0.3166
  780MPD2    H711515   0.689   3.582   1.270 -0.1087  1.0784  0.5717
  781MPD2     C11516   1.317   4.562  12.120 -0.0802  0.0686 -0.0065
  781MPD2    C111517   1.433   4.610  12.175 -0.0171 -0.0379 -0.1321
  781MPD2    C211518   1.550   4.557  12.123  0.2653 -0.0027 -0.4633
  781MPD2    C311519   1.555   4.456  12.022  0.7635  0.7530  0.5018
  781MPD2    C411520   1.438   4.418  11.972  0.0428  0.7788 -0.0975
  781MPD2    C511521   1.325   4.471  12.022 -0.7178 -0.4705  0.4766
  781MPD2     H11522   1.649   4.582  12.159  0.0006 -1.5840  1.4073
  781MPD2    H111523   1.435   4.363  11.878 -0.6859  0.7683 -0.0627
  781MPD2    H211524   1.218   4.589  12.154  0.5273  2.1707  0.0590
  781MPD2    H311525   1.232   4.429  11.986 -0.0750  1.5177 -3.6095
  781MPD2     N11526   1.672   4.419  11.950 -0.3441  0.0165  0.8872
  781MPD2    H511527   1.639   4.377  11.864 -2.5291  0.2947  1.5785
  781MPD2    N111528   1.430   4.696  12.291  0.4405 -0.2975  0.1648
  781MPD2    H711529   1.508   0.036  12.306 -0.3947  1.0304 -1.0492
  782MPD2     C11530   3.911   0.868  10.411 -0.3113 -0.2183 -0.5178
  782MPD2    C111531   4.043   0.831  10.397 -0.3268  0.6459 -0.9233
  782MPD2    C211532   4.145   0.903  10.458  0.4754  0.6293 -0.2203
  782MPD2    C311533   4.115   1.023  10.523  0.2470 -0.1792 -0.3388
  782MPD2    C411534   3.981   1.063  10.534  0.9934  0.6695  0.1785
  782MPD2    C511535   3.885   0.982  10.477  0.1132 -0.4334 -0.5029
  782MPD2     H11536   4.247   0.866  10.454 -0.1584 -1.1666  0.3325
  782MPD2    H111537   3.951   1.150  10.591 -0.7223 -1.3176  2.3389
  782MPD2    H211538   3.826   0.818  10.367 -0.7472 -0.6817  0.8475
  782MPD2    H311539   3.785   1.021  10.489  0.6514  0.7665  0.0722
  782MPD2     N11540   4.213   1.083  10.603  0.2882  0.0935  0.4562
  782MPD2    H511541   4.181   1.178  10.621  0.1161  0.0100  0.5883
  782MPD2    N111542   4.063   0.713  10.325  0.2173 -0.9226  0.1859
  782MPD2    H711543   3.983   0.653  10.307  0.3791 -1.2320  0.5013
  783MPD2     C11544   3.802   0.177  10.798  0.3983 -0.6746 -0.2289
  783MPD2    C111545   3.867   0.297  10.816 -0.4903 -0.0908  0.9344
  783MPD2    C211546   3.946   0.335  10.709 -0.1898 -0.5986 -0.2486
  783MPD2    C311547   3.989   0.249  10.610  0.1991  0.5498  0.3983
  783MPD2    C411548   3.921   0.135  10.605  0.4556 -0.0365 -0.6801
  783MPD2    C511549   3.827   0.097  10.696 -0.0430  0.6925 -0.2801
  783MPD2     H11550   3.978   0.439  10.717  2.6119 -1.4875  0.1101
  783MPD2    H111551   3.949   0.069  10.524  0.2003  0.2435 -0.9984
  783MPD2    H211552   3.733   0.125  10.864  0.0984 -0.5547 -0.4474
  783MPD2    H311553   3.778   0.001  10.688  1.0647  0.0196  0.9539
  783MPD2     N11554   4.076   0.297  10.511 -0.4361 -0.2525  0.4794
  783MPD2    H511555   4.103   0.393  10.529  0.5100 -0.3690 -0.2826
  783MPD2    N111556   3.837   0.378  10.932  0.3172 -0.0146  0.1907
  783MPD2    H711557   3.750   0.356  10.979  1.2322 -2.4273  0.7611
  784MPD2     C11558   2.367   1.099   1.123  0.0971  1.0752 -0.0185
  784MPD2    C111559   2.361   1.103   1.260  0.5003  0.2439 -0.1196
  784MPD2    C211560   2.239   1.112   1.324 -0.1411  0.5152  0.0510
  784MPD2    C311561   2.121   1.128   1.247 -0.2913 -0.2314  0.1612
  784MPD2    C411562   2.129   1.130   1.114  0.2765 -0.0224  0.4687
  784MPD2    C511563   2.249   1.105   1.052 -0.0907  1.1186 -0.1143
  784MPD2     H11564   2.229   1.118   1.432  0.3305 -0.5881  0.1550
  784MPD2    H111565   2.038   1.137   1.057 -0.1842 -1.7466  1.0026
  784MPD2    H211566   2.455   1.100   1.059 -0.2063  1.6643 -0.4259
  784MPD2    H311567   2.261   1.091   0.945 -0.3154 -2.0162  0.2875
  784MPD2     N11568   1.996   1.147   1.308  0.2723 -0.0312 -0.3463
  784MPD2    H511569   2.003   1.141   1.409 -2.0869 -1.3157 -0.2676
  784MPD2    N111570   2.479   1.122   1.340  0.0884 -0.0869 -0.0611
  784MPD2    H711571   2.463   1.147   1.437 -0.5349 -2.3702  0.4151
  785MPD2     C11572   2.091   3.957  10.543  0.0586 -0.6416  0.3812
  785MPD2    C111573   2.021   3.957  10.661 -0.0175  0.4752 -0.0659
  785MPD2    C211574   1.894   3.889  10.663 -0.2457  0.3451  0.2175
  785MPD2    C311575   1.834   3.843  10.548  0.3169  0.0438 -0.0242
  785MPD2    C411576   1.915   3.845  10.435 -0.0082 -0.0609  0.4416
  785MPD2    C511577   2.040   3.898  10.437  0.4256 -0.8203  0.7057
  785MPD2     H11578   1.834   3.899  10.753 -0.9929  1.6489 -0.4286
  785MPD2    H111579   1.890   3.806  10.337 -0.3515 -1.1995  0.9910
  785MPD2    H211580   2.192   3.997  10.538 -0.2463 -0.0058 -0.6475
  785MPD2    H311581   2.102   3.885  10.349  0.9834  2.2739  0.6409
  785MPD2     N11582   1.694   3.798  10.544 -0.6988  1.0020  0.1705
  785MPD2    H511583   1.639   3.801  10.629 -2.3137  0.5335 -0.8590
  785MPD2    N111584   2.064   4.027  10.778 -0.2624  0.6187  0.3038
  785MPD2    H711585   1.990   4.037  10.847  3.1602 -0.2278  4.1053
  786MPD2     C11586   0.772   2.476  14.590 -0.5405  0.0291 -0.0112
  786MPD2    C111587   0.897   2.413  14.586  0.7677 -1.2811  0.1758
  786MPD2    C211588   0.988   2.433  14.695  0.2834  0.6936  0.2043
  786MPD2    C311589   0.954   2.515  14.806 -0.2672  0.2465 -0.4896
  786MPD2    C411590   0.833   2.571  14.799  0.6151  0.1276 -0.8299
  786MPD2    C511591   0.744   2.546  14.697 -0.0786  0.0685  0.5375
  786MPD2     H11592   1.083   2.381  14.696 -0.6483 -1.0305 -1.1283
  786MPD2    H111593   0.801   2.645  14.872 -1.9551  0.0850 -1.8968
  786MPD2    H211594   0.698   2.476  14.510 -0.6037 -0.7352  0.0472
  786MPD2    H311595   0.652   2.603  14.696  1.1439  2.0899  2.6119
  786MPD2     N11596   1.040   2.550  14.913 -0.0303  0.4755 -0.1898
  786MPD2    H511597   1.004   2.595  14.997  2.0418  0.2845  0.8222
  786MPD2    N111598   0.942   2.336  14.476  0.2124  0.2366 -0.1135
  786MPD2    H711599   1.033   2.292  14.485  0.3534  1.1933  2.9287
  787MPD2     C11600   0.867   1.672  14.491  0.2474  0.1100  0.2609
  787MPD2    C111601   0.989   1.722  14.449 -0.0240 -0.3863  0.0960
  787MPD2    C211602   1.103   1.676  14.503 -0.3274  0.6817 -0.4894
  787MPD2    C311603   1.103   1.578  14.599  0.3475 -0.4703 -0.5277
  787MPD2    C411604   0.981   1.533  14.652  0.0884 -0.9656 -0.4222
  787MPD2    C511605   0.860   1.581  14.592  0.1291  0.5453  0.1514
  787MPD2     H11606   1.199   1.707  14.465  0.4586  0.3853  1.2277
  787MPD2    H111607   0.974   1.455  14.727 -0.5015 -0.9361 -0.4440
  787MPD2    H211608   0.771   1.706  14.454 -0.6179 -2.4990  0.0999
  787MPD2    H311609   0.769   1.541  14.635  0.1776 -1.1554 -1.3465
  787MPD2     N11610   1.224   1.513  14.644 -0.5711 -0.0406  0.0279
  787MPD2    H511611   1.305   1.549  14.594 -2.1743  3.0180 -0.3687
  787MPD2    N111612   0.998   1.824  14.344 -0.3264  0.2368 -0.1826
  787MPD2    H711613   0.910   1.870  14.325 -2.1852 -2.7098  1.4758
  788MPD2     C11614   3.533   0.412   1.069  0.7875 -1.0788 -0.1420
  788MPD2    C111615   3.574   0.397   0.936 -0.3028  0.1716  0.4478
  788MPD2    C211616   3.530   0.491   0.844 -0.0435  0.5392  0.5436
  788MPD2    C311617   3.458   0.599   0.891  0.0144  0.5975 -0.0996
  788MPD2    C411618   3.423   0.614   1.024 -0.3324  0.2499 -0.1015
  788MPD2    C511619   3.460   0.520   1.113 -0.5955 -0.3041 -0.3179
  788MPD2     H11620   3.568   0.475   0.744 -2.0842  0.8518 -0.2869
  788MPD2    H111621   3.369   0.700   1.063 -0.0863  0.3977 -0.0862
  788MPD2    H211622   3.550   0.335   1.144  1.7362  1.1870  1.9705
  788MPD2    H311623   3.423   0.535   1.214 -0.2595  1.8998 -0.5302
  788MPD2     N11624   3.409   0.703   0.821  0.1118  0.4684 -0.3936
  788MPD2    H511625   3.351   0.766   0.876  0.2338  0.3170 -0.0906
  788MPD2    N111626   3.639   0.273   0.892  0.2324  1.1446  0.2324
  788MPD2    H711627   3.658   0.259   0.793 -2.4510 -0.9730  0.0102
  789MPD2     C11628   3.525   4.493  16.376 -0.5139 -0.6298  0.0059
  789MPD2    C111629   3.402   4.452  16.327  0.4277 -0.4939 -0.2741
  789MPD2    C211630   3.289   4.516  16.365  0.1028  0.1108 -1.0673
  789MPD2    C311631   3.292   4.613  16.462  0.5219  0.5510 -0.3125
  789MPD2    C411632   3.421   4.653  16.506 -0.1146 -0.1361  0.1322
  789MPD2    C511633   3.533   4.600  16.457  0.4123  0.1319 -0.9375
  789MPD2     H11634   3.193   4.488  16.322 -0.2756 -0.9170  0.4237
  789MPD2    H111635   3.419   0.001  16.589  1.9615  0.6851 -0.5240
  789MPD2    H211636   3.612   4.439  16.340  1.2758  0.9547  1.9426
  789MPD2    H311637   3.629   4.637  16.492 -0.7297 -0.3702  2.6823
  789MPD2     N11638   3.184   4.673  16.526 -0.0938  0.1166  0.5095
  789MPD2    H511639   3.208   0.019  16.596 -0.1360  1.2904 -0.6282
  789MPD2    N111640   3.402   4.333  16.256 -0.2772 -0.4207 -0.4986
  789MPD2    H711641   3.496   4.298  16.241  0.1827  0.7945 -0.4239
  790MPD2     C11642   4.515   1.913  13.683 -0.2076  1.1466  0.4833
  790MPD2    C111643   4.447   1.802  13.735 -0.1060 -0.5493 -0.3457
  790MPD2    C211644   4.348   1.740  13.653 -0.7621  0.2034  0.2071
  790MPD2    C311645   4.318   1.793  13.530 -0.3894  0.5739  0.3271
  790MPD2    C411646   4.392   1.893  13.474  0.1263  0.4466 -0.4828
  790MPD2    C511647   4.484   1.954  13.550  0.3112 -0.2796  0.0860
  790MPD2     H11648   4.298   1.652  13.690  0.7684 -0.0341  1.7216
  790MPD2    H111649   4.373   1.928  13.374 -1.4194 -0.5284 -0.5107
  790MPD2    H211650   4.593   1.966  13.737  0.2523  0.7512  0.2067
  790MPD2    H311651   4.541   2.038  13.513 -0.9149  0.7100  0.4385
  790MPD2     N11652   4.212   1.736  13.460 -0.5693 -0.4295 -0.8787
  790MPD2    H511653   4.163   1.653  13.492 -1.4075 -0.2911 -1.8222
  790MPD2    N111654   4.475   1.763  13.869 -0.1862 -0.8285  0.0098
  790MPD2    H711655   4.526   1.828  13.928  0.9392 -1.8679  0.1904
  791MPD2     C11656   3.623   1.956  13.012 -0.3334  0.0940  0.1536
  791MPD2    C111657   3.679   1.844  12.954  0.4196  0.0946 -0.1462
  791MPD2    C211658   3.608   1.774  12.855  0.0124 -0.0218 -0.1816
  791MPD2    C311659   3.484   1.814  12.823  0.0942 -0.4658  0.0916
  791MPD2    C411660   3.430   1.929  12.887 -0.2779 -0.2940  0.2631
  791MPD2    C511661   3.495   1.994  12.984 -0.3608  0.0352  0.5831
  791MPD2     H11662   3.656   1.687  12.814 -0.8912 -0.1712 -0.9200
  791MPD2    H111663   3.329   1.966  12.872 -0.6449 -0.6970  1.7084
  791MPD2    H211664   3.673   2.017  13.087  0.9693 -0.0068 -0.6372
  791MPD2    H311665   3.449   2.084  13.022  0.2599  0.6776 -0.1769
  791MPD2     N11666   3.412   1.742  12.731 -0.3952  0.2908 -0.5373
  791MPD2    H511667   3.450   1.654  12.697  1.5215  1.0354 -0.3266
  791MPD2    N111668   3.802   1.804  13.000 -0.0945  0.3213 -0.0944
  791MPD2    H711669   3.840   1.859  13.076 -2.1834 -2.2239  2.8309
  792MPD2     C11670   4.324   2.064  11.519 -0.1172 -0.8986  0.7631
  792MPD2    C111671   4.211   2.087  11.449  0.2205 -0.3417  0.3341
  792MPD2    C211672   4.097   2.004  11.479  0.1699 -0.3468 -0.8816
  792MPD2    C311673   4.110   1.906  11.568  0.2352  0.4759  0.0849
  792MPD2    C411674   4.232   1.877  11.629  0.1639 -0.8771  0.1834
  792MPD2    C511675   4.338   1.954  11.601 -0.4251  0.1054 -0.1990
  792MPD2     H11676   4.004   2.029  11.429  0.7963 -1.3315 -2.5545
  792MPD2    H111677   4.249   1.798  11.701  0.9078 -1.2890 -0.4429
  792MPD2    H211678   4.411   2.130  11.513  0.3623 -1.7253 -1.5768
  792MPD2    H311679   4.425   1.943  11.664 -0.0577 -4.5716 -1.5457
  792MPD2     N11680   4.006   1.811  11.591  0.8774  0.6302  0.4761
  792MPD2    H511681   4.037   1.731  11.645 -1.9527 -2.4896 -2.5981
  792MPD2    N111682   4.208   2.201  11.366  0.0009 -0.5331 -0.8092
  792MPD2    H711683   4.296   2.247  11.349  0.6569 -1.1897  0.8276
  793MPD2     C11684   3.255   1.814  10.999 -0.0305  0.4095  0.1045
  793MPD2    C111685   3.380   1.875  11.009  0.1237 -0.1529  0.6757
  793MPD2    C211686   3.470   1.836  11.109 -0.0286  0.4319  0.1244
  793MPD2    C311687   3.438   1.739  11.202  0.0479  0.2474 -0.8888
  793MPD2    C411688   3.307   1.691  11.190 -0.7161  0.8189 -0.6619
  793MPD2    C511689   3.215   1.722  11.093 -0.2924  0.0223 -0.7361
  793MPD2     H11690   3.569   1.881  11.111  0.5181 -0.8359  1.1124
  793MPD2    H111691   3.263   1.636  11.272  0.2628 -0.9334 -1.2923
  793MPD2    H211692   3.181   1.849  10.928 -0.9440 -3.6852 -0.9607
  793MPD2    H311693   3.113   1.685  11.098 -0.3005 -0.0417 -1.3471
  793MPD2     N11694   3.527   1.695  11.297 -1.1439 -0.6277  0.6426
  793MPD2    H511695   3.616   1.744  11.299 -0.9698 -1.0062  2.2451
  793MPD2    N111696   3.427   1.968  10.916 -0.0618 -0.3094 -0.0376
  793MPD2    H711697   3.518   2.007  10.938 -0.8776  1.5189  0.0954
  794MPD2     C11698   3.965   1.820   0.075  0.0129  0.2955  0.1078
  794MPD2    C111699   3.988   1.706   0.014 -0.5338 -0.2385  0.9890
  794MPD2    C211700   3.957   1.689  17.574  0.1304 -0.0560 -0.2914
  794MPD2    C311701   3.890   1.790  17.514 -0.4275  0.0178 -0.2268
  794MPD2    C411702   3.861   1.903  17.583  0.2711 -0.6019 -0.5333
  794MPD2    C511703   3.898   1.921   0.018 -0.1376 -0.3402 -1.0666
  794MPD2     H11704   3.983   1.593  17.531 -1.8334 -1.1672  0.9845
  794MPD2    H111705   3.820   1.985  17.524 -0.4330 -0.6547 -0.1265
  794MPD2    H211706   3.988   1.839   0.179  0.2984 -2.2275  0.4999
  794MPD2    H311707   3.862   2.006   0.074  0.9552 -1.2345  1.0062
  794MPD2     N11708   3.822   1.772  17.390  0.3488 -0.2353 -0.4072
  794MPD2    H511709   3.781   1.853  17.345 -0.7147 -0.5924 -0.0740
  794MPD2    N111710   4.042   1.586   0.080  0.5421  0.4013 -0.3867
  794MPD2    H711711   4.088   1.508   0.034 -0.9610 -0.8189  0.1684
  795MPD2     C11712   1.453   3.315  13.529 -0.0788  0.2494 -0.5004
  795MPD2    C111713   1.440   3.276  13.396 -0.7726  0.3467  0.4947
  795MPD2    C211714   1.541   3.210  13.331  0.3675 -0.3896 -0.7510
  795MPD2    C311715   1.661   3.195  13.392 -0.5485 -0.1004  0.3885
  795MPD2    C411716   1.682   3.243  13.519 -0.3482 -0.6668  0.6869
  795MPD2    C511717   1.573   3.291  13.588 -0.0235 -0.1251 -0.0784
  795MPD2     H11718   1.531   3.181  13.226 -2.6898  1.5670 -1.0046
  795MPD2    H111719   1.766   3.229  13.585 -0.6772 -0.2880  1.1929
  795MPD2    H211720   1.367   3.346  13.587 -0.0342 -0.6858  0.0712
  795MPD2    H311721   1.586   3.300  13.695  2.9467 -0.3766 -0.4202
  795MPD2     N11722   1.759   3.113  13.335 -0.3042 -0.0347 -0.1341
  795MPD2    H511723   1.734   3.063  13.251  0.8522 -0.3217 -0.3130
  795MPD2    N111724   1.310   3.300  13.343  0.0043 -0.1993  0.4490
  795MPD2    H711725   1.247   3.348  13.407 -0.6609  0.7503 -0.9303
  796MPD2     C11726   1.619   0.462  15.984  0.7498 -0.4340  0.0804
  796MPD2    C111727   1.544   0.385  16.071  0.5856  0.6055 -0.0283
  796MPD2    C211728   1.450   0.445  16.151 -0.1199 -0.3177  0.2397
  796MPD2    C311729   1.415   0.579  16.139 -0.1348 -0.2653 -0.1155
  796MPD2    C411730   1.483   0.654  16.045 -0.3164 -0.4000  0.0513
  796MPD2    C511731   1.586   0.593  15.972 -0.2347 -0.0337 -0.0557
  796MPD2     H11732   1.403   0.384  16.227  0.2447  1.6736  2.0724
  796MPD2    H111733   1.475   0.761  16.037  0.0103 -0.3600  0.2231
  796MPD2    H211734   1.704   0.424  15.928 -0.0987 -0.9242 -0.8829
  796MPD2    H311735   1.639   0.653  15.898 -0.0086 -0.8600 -0.5659
  796MPD2     N11736   1.312   0.631  16.218  0.1785 -0.5746 -0.1600
  796MPD2    H511737   1.278   0.567  16.289 -0.7836 -0.2650 -0.3310
  796MPD2    N111738   1.581   0.246  16.079 -0.0013  0.2475  0.0812
  796MPD2    H711739   1.644   0.208  16.009 -1.2382  0.3685 -1.1069
  797MPD2     C11740   2.682   4.591  17.350  0.6955 -0.5762 -0.4025
  797MPD2    C111741   2.771   4.513  17.271 -0.3371  0.1314 -0.0649
  797MPD2    C211742   2.734   4.482  17.141 -1.0739 -0.0740  0.0450
  797MPD2    C311743   2.618   4.522  17.088  0.3755  0.4462 -0.1360
  797MPD2    C411744   2.532   4.593  17.166  0.5860  0.2262  0.6097
  797MPD2    C511745   2.563   4.631  17.295  0.5615  0.2769  0.6922
  797MPD2     H11746   2.797   4.415  17.083 -0.9278 -0.5982  0.8108
  797MPD2    H111747   2.437   4.632  17.132  0.1498  0.0205  1.5588
  797MPD2    H211748   2.707   4.609  17.454 -0.4431 -1.2599 -0.0094
  797MPD2    H311749   2.511   4.702  17.359 -2.2009 -0.7584 -0.3903
  797MPD2     N11750   2.589   4.472  16.960 -0.2038  0.0477  0.4448
  797MPD2    H511751   2.654   4.405  16.920 -1.9249 -1.4749  0.1761
  797MPD2    N111752   2.905   4.478  17.314  0.3474 -0.8899  0.0238
  797MPD2    H711753   2.962   4.409  17.265 -0.6978 -1.0154 -1.0155
  798MPD2     C11754   3.156   4.367  16.636  0.1897 -0.7094  0.7337
  798MPD2    C111755   3.054   4.379  16.725  0.0784  0.6832 -0.3705
  798MPD2    C211756   3.071   4.395  16.858  0.1110  0.0299  0.0260
  798MPD2    C311757   3.196   4.412  16.912  0.1317 -0.1512 -0.2306
  798MPD2    C411758   3.304   4.408  16.824 -0.8585  0.4600  0.6838
  798MPD2    C511759   3.281   4.371  16.694 -0.2681  0.4840  0.4051
  798MPD2     H11760   2.987   4.400  16.927  0.7235  1.5948  0.6495
  798MPD2    H111761   3.407   4.418  16.854 -0.4428 -0.3972 -0.4388
  798MPD2    H211762   3.143   4.337  16.532  1.2747 -1.5453  0.8393
  798MPD2    H311763   3.375   4.362  16.642 -0.1451 -1.1187  0.9277
  798MPD2     N11764   3.209   4.425  17.055  0.1345 -0.7396  0.2912
  798MPD2    H511765   3.120   4.419  17.104 -0.2706  2.1969 -0.0988
  798MPD2    N111766   2.923   4.353  16.664 -0.0731 -0.1194  0.1158
  798MPD2    H711767   2.916   4.367  16.564  0.3249 -0.1499  0.0854
  799MPD2     C11768   0.785   1.118  14.919  0.4444 -0.0841 -0.4191
  799MPD2    C111769   0.899   1.135  14.838 -0.0437 -0.4179 -0.4155
  799MPD2    C211770   0.877   1.178  14.706 -0.1899 -0.5534 -0.0983
  799MPD2    C311771   0.747   1.205  14.661 -0.4452 -0.6578 -0.0160
  799MPD2    C411772   0.642   1.196  14.747  0.5611 -0.6036 -0.0406
  799MPD2    C511773   0.662   1.160  14.878  0.4037  0.3227 -0.1008
  799MPD2     H11774   0.959   1.187  14.635  0.0316 -1.2775  0.0579
  799MPD2    H111775   0.541   1.217  14.713 -0.0320 -0.9814  1.4697
  799MPD2    H211776   0.796   1.085  15.022  0.1150 -1.2105 -0.7448
  799MPD2    H311777   0.580   1.161  14.949  2.3406  0.8422  2.1328
  799MPD2     N11778   0.739   1.248  14.525  0.6862  0.0449 -0.3158
  799MPD2    H511779   0.821   1.267  14.468 -0.2829  1.9865 -1.0647
  799MPD2    N111780   1.032   1.099  14.868 -0.2556 -0.8210 -0.5403
  799MPD2    H711781   1.104   1.090  14.797  0.9721 -0.4947  0.6847
  800MPD2     C11782   1.503   2.330  14.119  0.8209 -0.7212 -0.2330
  800MPD2    C111783   1.589   2.350  14.009 -0.1356  0.7172 -0.4475
  800MPD2    C211784   1.560   2.285  13.898  0.3638 -0.0873  0.4001
  800MPD2    C311785   1.449   2.204  13.887 -0.2157 -0.8684  0.4060
  800MPD2    C411786   1.363   2.183  13.992  0.0370  0.0883  0.1611
  800MPD2    C511787   1.386   2.246  14.108  0.1224  0.5814 -0.8286
  800MPD2     H11788   1.612   2.294  13.803 -0.4328  0.6866  0.0329
  800MPD2    H111789   1.267   2.132  13.984 -1.7805  3.8482 -1.7698
  800MPD2    H211790   1.510   2.395  14.206  2.2217 -0.5494 -0.4797
  800MPD2    H311791   1.328   2.235  14.199  0.0292  1.7074 -0.7432
  800MPD2     N11792   1.430   2.155  13.755 -0.7764  0.6394 -0.6322
  800MPD2    H511793   1.501   2.168  13.684  1.1902 -1.5740  0.9367
  800MPD2    N111794   1.698   2.438  14.036  0.2591 -0.3814 -0.0898
  800MPD2    H711795   1.707   2.465  14.134  0.6872  1.9295 -0.7578
  801MPD2     C11796   1.881   3.202  13.872 -0.7535 -0.3726 -0.1466
  801MPD2    C111797   1.913   3.137  13.991 -0.5989 -0.4605 -0.1883
  801MPD2    C211798   1.881   3.199  14.106 -0.1865  0.8761  0.4606
  801MPD2    C311799   1.822   3.321  14.109 -0.0784 -0.3169  0.4179
  801MPD2    C411800   1.791   3.390  13.992  0.2526  0.0982  0.6358
  801MPD2    C511801   1.829   3.324  13.879  0.5979  0.5339  0.0076
  801MPD2     H11802   1.886   3.141  14.198  0.2375  1.3081  0.7088
  801MPD2    H111803   1.763   3.494  13.997  1.3433  0.4151 -0.0180
  801MPD2    H211804   1.904   3.154  13.777  0.4050  0.3153 -0.2220
  801MPD2    H311805   1.808   3.378  13.788 -0.0860  0.0543 -0.1134
  801MPD2     N11806   1.795   3.367  14.238  0.0494 -0.4989  0.3453
  801MPD2    H511807   1.835   3.310  14.312 -3.6930  0.3891  3.0080
  801MPD2    N111808   1.973   3.009  14.003 -0.1769 -0.0340  0.0885
  801MPD2    H711809   1.994   2.983  14.099  0.5433 -0.7921 -0.2672
  802MPD2     C11810   0.705   2.985  17.260 -0.2034 -0.3225  0.4754
  802MPD2    C111811   0.783   3.091  17.287 -0.1544  0.4199  0.2482
  802MPD2    C211812   0.920   3.084  17.259 -0.2118  0.0955 -0.0612
  802MPD2    C311813   0.980   2.967  17.227 -0.3628  0.2218  0.8030
  802MPD2    C411814   0.898   2.856  17.203 -0.5510  0.6859 -0.8401
  802MPD2    C511815   0.765   2.866  17.239 -0.5246  0.2023  0.3505
  802MPD2     H11816   0.970   3.179  17.276  1.7512 -1.0977  0.8655
  802MPD2    H111817   0.931   2.762  17.161 -0.6091 -0.6196  1.9825
  802MPD2    H211818   0.598   2.982  17.276 -0.2433  0.1265  0.3031
  802MPD2    H311819   0.704   2.779  17.220  1.6393 -1.5902  1.5195
  802MPD2     N11820   1.117   2.962  17.216 -0.1780  0.2573  0.3171
  802MPD2    H511821   1.165   3.052  17.219 -0.4197  0.3667  0.9249
  802MPD2    N111822   0.731   3.217  17.346  0.1095 -0.4671  0.0469
  802MPD2    H711823   0.803   3.289  17.347 -2.2976  1.9677 -1.6042
  803MPD2     C11824   2.197   2.065  11.534 -0.2334 -0.4550 -0.9046
  803MPD2    C111825   2.271   2.058  11.650  0.2856 -1.2243  0.2708
  803MPD2    C211826   2.261   1.954  11.741  0.1174 -0.3590 -0.0803
  803MPD2    C311827   2.168   1.851  11.718  0.4050 -0.4926  0.1541
  803MPD2    C411828   2.106   1.852  11.600  0.5007 -0.3738 -0.1254
  803MPD2    C511829   2.119   1.953  11.507  0.3442 -0.2893  0.5573
  803MPD2     H11830   2.319   1.957  11.832  0.8993  0.0162 -0.5939
  803MPD2    H111831   2.031   1.776  11.579 -0.4362 -0.4288  3.4108
  803MPD2    H211832   2.189   2.153  11.471  0.6266 -0.4223 -0.9756
  803MPD2    H311833   2.060   1.944  11.417  1.8924 -0.3668 -0.4638
  803MPD2     N11834   2.149   1.748  11.811 -0.2878 -0.0115  0.2993
  803MPD2    H511835   2.065   1.692  11.802 -0.3513  0.3036 -1.0530
  803MPD2    N111836   2.376   2.156  11.673  0.0015 -0.9711  0.0628
  803MPD2    H711837   2.441   2.145  11.750 -2.2548 -1.4263  1.9065
  804MPD2     C11838   1.863   2.900  17.318 -0.5770 -0.3765  0.4706
  804MPD2    C111839   1.869   2.865  17.454 -0.4476 -0.6004 -0.8856
  804MPD2    C211840   1.923   2.949  17.550  0.1758 -0.7105 -0.2400
  804MPD2    C311841   1.975   3.068  17.509 -0.5677 -0.2939 -0.0245
  804MPD2    C411842   1.967   3.101  17.378  0.6728  0.4149 -0.9774
  804MPD2    C511843   1.904   3.027  17.285 -0.2552  1.2092  0.6666
  804MPD2     H11844   1.938   2.920  17.654 -1.4079  0.1968  0.2363
  804MPD2    H111845   2.007   3.200  17.361  2.1396 -0.2027 -1.1299
  804MPD2    H211846   1.819   2.834  17.244  0.6516 -0.4680 -0.1775
  804MPD2    H311847   1.895   3.062  17.183  2.4952  2.2678  0.8021
  804MPD2     N11848   2.019   3.165  17.603  0.2918  0.0958 -0.3668
  804MPD2    H511849   2.062   3.247  17.562 -0.8827  0.1892 -1.4401
  804MPD2    N111850   1.817   2.743  17.503  0.2377  0.2223  0.2260
  804MPD2    H711851   1.831   2.721  17.601 -0.1818 -0.8317  0.0404
  805MPD2     C11852   0.817   1.715  15.651 -0.0433 -0.3821 -0.1589
  805MPD2    C111853   0.836   1.588  15.706 -0.4452 -0.0291 -0.1732
  805MPD2    C211854   0.959   1.560  15.770 -0.0083  0.3791 -0.2706
  805MPD2    C311855   1.057   1.661  15.780  0.5070  0.1387  0.1533
  805MPD2    C411856   1.036   1.777  15.716 -1.0891  0.2768 -0.6190
  805MPD2    C511857   0.918   1.807  15.653 -0.5466  0.6348  0.7231
  805MPD2     H11858   0.985   1.461  15.808 -0.0233  0.4823  0.0077
  805MPD2    H111859   1.105   1.860  15.725 -0.4879 -0.0453 -2.3222
  805MPD2    H211860   0.732   1.739  15.588  0.8769 -0.7514 -1.5396
  805MPD2    H311861   0.909   1.908  15.615  0.2133  0.3914 -0.1025
  805MPD2     N11862   1.185   1.632  15.837  0.1068  0.1180 -0.0075
  805MPD2    H511863   1.252   1.708  15.831 -0.7397  0.8058 -0.6837
  805MPD2    N111864   0.734   1.491  15.710 -0.3184 -0.3803  0.0247
  805MPD2    H711865   0.756   1.398  15.743  0.1500 -0.9591 -1.9542
  806MPD2     C11866   1.874   0.830   1.256 -0.3205  0.0487 -0.3343
  806MPD2    C111867   1.995   0.800   1.192  0.0613  0.4828  0.1036
  806MPD2    C211868   1.992   0.789   1.054 -0.1104 -0.4357 -0.3392
  806MPD2    C311869   1.880   0.828   0.979 -0.4750  0.9369 -0.3037
  806MPD2    C411870   1.767   0.864   1.047  0.8309  0.1101 -0.0805
  806MPD2    C511871   1.764   0.873   1.187 -0.6105 -0.2052  0.6611
  806MPD2     H11872   2.081   0.762   0.999  0.4192  1.0245 -0.1966
  806MPD2    H111873   1.675   0.884   0.994  0.1028 -1.5055  0.5616
  806MPD2    H211874   1.872   0.825   1.364 -1.1678 -2.4956 -0.4601
  806MPD2    H311875   1.674   0.898   1.241 -1.7781 -1.0349 -0.9181
  806MPD2     N11876   1.892   0.816   0.840  0.1949 -0.2175  0.1094
  806MPD2    H511877   1.988   0.811   0.808 -0.4578  1.9371 -2.0922
  806MPD2    N111878   2.114   0.785   1.264 -0.0183 -0.1795 -0.1046
  806MPD2    H711879   2.115   0.796   1.365  0.6636  0.9345 -0.2363
  807MPD2     C11880   2.334   0.971   1.897 -0.0138 -0.0646 -0.4374
  807MPD2    C111881   2.250   0.896   1.827  0.2741  0.0777  0.5772
  807MPD2    C211882   2.125   0.862   1.880  0.1796  0.9343 -0.2478
  807MPD2    C311883   2.080   0.895   2.004 -0.3083 -0.4210 -0.4208
  807MPD2    C411884   2.179   0.957   2.086  0.1588 -0.4758  0.4067
  807MPD2    C511885   2.302   0.997   2.033  0.4777  0.2996  0.0337
  807MPD2     H11886   2.047   0.819   1.818 -0.3393 -0.2758  1.2651
  807MPD2    H111887   2.158   0.980   2.190 -1.8567 -1.0488  0.1341
  807MPD2    H211888   2.433   0.999   1.862 -0.2346 -1.1707 -1.9356
  807MPD2    H311889   2.372   1.060   2.087  1.7276 -1.4133  0.4176
  807MPD2     N11890   1.946   0.866   2.040  0.2368  0.1360  0.2635
  807MPD2    H511891   1.880   0.818   1.979 -1.8571  1.6636  1.3546
  807MPD2    N111892   2.291   0.852   1.699  0.4395  0.3114 -0.1332
  807MPD2    H711893   2.226   0.790   1.652  1.4712  0.2993 -1.5344
  808MPD2     C11894   1.163   2.387   9.592 -0.5004 -0.6073  0.4745
  808MPD2    C111895   1.165   2.450   9.477 -0.2532  0.0607  0.0409
  808MPD2    C211896   1.246   2.561   9.460  0.3343 -0.1959 -0.2675
  808MPD2    C311897   1.317   2.609   9.563  0.3321  0.3929 -0.4853
  808MPD2    C411898   1.316   2.536   9.686  0.2287 -0.8265 -0.6245
  808MPD2    C511899   1.231   2.436   9.695 -0.5461  0.0330 -0.2791
  808MPD2     H11900   1.239   2.613   9.366 -0.2247 -0.9192 -0.6265
  808MPD2    H111901   1.378   2.570   9.767  0.8406 -1.8602 -0.6624
  808MPD2    H211902   1.106   2.297   9.615  0.2766 -0.4829  2.9386
  808MPD2    H311903   1.225   2.382   9.789  0.4244 -0.0199 -0.2493
  808MPD2     N11904   1.411   2.721   9.552  0.2136  0.4286 -0.2427
  808MPD2    H511905   1.465   2.745   9.634 -2.0530  0.8788  1.1313
  808MPD2    N111906   1.097   2.402   9.369 -0.6565  0.4782 -0.1515
  808MPD2    H711907   1.092   2.461   9.287 -2.1837  1.7481  0.8327
  809MPD2     C11908   1.522   3.531   8.917  0.8998  0.2745  0.4124
  809MPD2    C111909   1.631   3.473   8.944 -0.1089 -0.8244  0.0404
  809MPD2    C211910   1.636   3.378   9.046 -0.4277 -0.9633  0.5025
  809MPD2    C311911   1.530   3.347   9.129 -0.1972 -0.4237  0.7352
  809MPD2    C411912   1.412   3.418   9.094 -0.0516  0.0365  0.0005
  809MPD2    C511913   1.409   3.500   8.989  0.9784  0.3113 -0.6829
  809MPD2     H11914   1.734   3.333   9.058  0.0439  0.1989  1.0266
  809MPD2    H111915   1.331   3.411   9.165 -0.3189 -0.8009 -0.3856
  809MPD2    H211916   1.512   3.587   8.825 -0.9174  0.3214  0.6429
  809MPD2    H311917   1.319   3.553   8.961  0.8352  0.4878  0.1106
  809MPD2     N11918   1.532   3.263   9.243  0.7126 -0.0073 -0.3868
  809MPD2    H511919   1.441   3.238   9.281  1.1381 -0.0997  0.5795
  809MPD2    N111920   1.745   3.492   8.862  0.5988  0.2325  0.3746
  809MPD2    H711921   1.824   3.434   8.888  0.9359 -0.2900 -1.7863
  810MPD2     C11922   1.147   1.091   9.739  0.5653  0.3661 -0.4316
  810MPD2    C111923   1.089   1.202   9.680  0.0810  0.0423 -0.4976
  810MPD2    C211924   1.157   1.324   9.673 -0.5398  0.1424  0.2703
  810MPD2    C311925   1.292   1.333   9.697 -0.6050  0.0989  0.4036
  810MPD2    C411926   1.352   1.219   9.747 -0.2994 -0.6094 -0.1257
  810MPD2    C511927   1.281   1.104   9.759  0.5228  0.2205 -0.3167
  810MPD2     H11928   1.108   1.417   9.649 -0.1142  0.2725 -0.0982
  810MPD2    H111929   1.453   1.209   9.787  0.5119  0.0287 -2.0331
  810MPD2    H211930   1.090   1.001   9.759 -0.3925  0.6927 -1.6952
  810MPD2    H311931   1.329   1.019   9.806 -1.1940 -1.3423 -1.3910
  810MPD2     N11932   1.376   1.451   9.691  0.2377  1.1036  0.2491
  810MPD2    H511933   1.469   1.434   9.728  0.1008  1.0457  0.5688
  810MPD2    N111934   0.948   1.198   9.663  0.1927 -0.5222 -0.2115
  810MPD2    H711935   0.903   1.117   9.706 -1.5535  0.7241  0.3036
  811MPD2     C11936   0.149   1.613   9.867 -0.1975  0.0136  0.0152
  811MPD2    C111937   0.271   1.629   9.802 -0.0376  0.0803  0.0436
  811MPD2    C211938   0.312   1.762   9.771 -0.3148 -0.3232  0.0580
  811MPD2    C311939   0.228   1.872   9.798 -0.1506 -0.5520 -0.3840
  811MPD2    C411940   0.101   1.850   9.855 -0.2869  0.2246  0.9482
  811MPD2    C511941   0.072   1.725   9.894 -0.4553  0.3833  0.0968
  811MPD2     H11942   0.412   1.786   9.737 -1.1041  0.1662 -1.9159
  811MPD2    H111943   0.039   1.934   9.881 -0.8613  0.0901  0.0002
  811MPD2    H211944   0.106   1.519   9.900  1.7372 -0.5338  1.0306
  811MPD2    H311945   4.706   1.701   9.951  0.3261  1.1390  1.6576
  811MPD2     N11946   0.280   2.003   9.773 -0.4735  0.7603  0.5900
  811MPD2    H511947   0.379   2.005   9.748  0.2054 -2.5443  2.9668
  811MPD2    N111948   0.341   1.515   9.770  0.2979  0.1382  0.0182
  811MPD2    H711949   0.305   1.426   9.803  0.1116  0.4589  0.6959
  812MPD2     C11950   0.180   1.545  11.964 -0.0020 -0.8018 -0.1437
  812MPD2    C111951   0.119   1.612  12.063 -0.3428  0.1421 -0.0267
  812MPD2    C211952   0.113   1.554  12.186  0.5509  0.3077  0.0780
  812MPD2    C311953   0.161   1.426  12.210  0.1833 -0.5001  0.3178
  812MPD2    C411954   0.216   1.357  12.107  0.3407 -0.1426 -0.5351
  812MPD2    C511955   0.216   1.413  11.982  0.0773  0.2876 -0.1891
  812MPD2     H11956   0.061   1.615  12.259  1.4666  0.4031  0.6402
  812MPD2    H111957   0.262   1.260  12.122  1.0562  0.1535 -0.8446
  812MPD2    H211958   0.182   1.580  11.861  1.2166  2.2452  0.9318
  812MPD2    H311959   0.257   1.361  11.896 -1.8055 -0.9250 -0.3499
  812MPD2     N11960   0.137   1.381  12.342 -0.0645  0.1255 -0.4811
  812MPD2    H511961   0.110   1.441  12.419  1.0297  0.2879 -0.2160
  812MPD2    N111962   0.093   1.749  12.033 -0.7924  0.4361  0.4951
  812MPD2    H711963   0.119   1.784  11.941  0.5771 -0.8790  0.3853
  813MPD2     C11964   3.790   3.720  12.689  0.3423  0.0170  0.1478
  813MPD2    C111965   3.784   3.841  12.747  0.2355 -0.3621 -0.3581
  813MPD2    C211966   3.702   3.853  12.860 -0.1026  0.2090  0.2767
  813MPD2    C311967   3.635   3.742  12.912 -0.6672  0.3394  0.9280
  813MPD2    C411968   3.645   3.620  12.845  0.0392  0.4606 -0.0239
  813MPD2    C511969   3.725   3.608  12.735 -0.0379  0.8175 -0.2435
  813MPD2     H11970   3.684   3.952  12.903 -0.7128  0.4571 -0.5579
  813MPD2    H111971   3.604   3.525  12.878 -2.9940  1.1232 -1.8693
  813MPD2    H211972   3.852   3.702  12.602  0.4471 -1.0521  0.4375
  813MPD2    H311973   3.745   3.507  12.700 -1.6926 -0.6443  3.0333
  813MPD2     N11974   3.560   3.763  13.031 -0.3620  0.1372 -0.1305
  813MPD2    H511975   3.559   3.858  13.065  0.5670  0.7505 -1.8277
  813MPD2    N111976   3.861   3.944  12.701  0.1805 -0.2220  0.5469
  813MPD2    H711977   3.935   3.919  12.636  0.5734  1.9757  0.1400
  814MPD2     C11978   4.393   0.290  12.325 -0.1024  0.3879  0.2427
  814MPD2    C111979   4.410   0.312  12.194 -0.2707 -0.1255  0.9454
  814MPD2    C211980   4.512   0.405  12.166  0.1829 -0.8574  0.3697
  814MPD2    C311981   4.590   0.474  12.265  0.8925  0.3924  0.3172
  814MPD2    C411982   4.580   0.427  12.395  0.2555 -0.1726 -0.6742
  814MPD2    C511983   4.476   0.344  12.416  0.2174 -0.4692 -0.1496
  814MPD2     H11984   4.534   0.416  12.060 -1.4825 -0.2572  0.0898
  814MPD2    H111985   4.641   0.448  12.482 -0.8982  3.1389 -0.6676
  814MPD2    H211986   4.310   0.235  12.368  0.4074 -0.5751 -0.0162
  814MPD2    H311987   4.472   0.306  12.518 -0.1539 -0.3495 -0.1189
  814MPD2     N11988   4.695   0.564  12.234 -0.2762  0.0067  0.2515
  814MPD2    H511989   0.025   0.603  12.311 -0.5287 -1.3441  1.0918
  814MPD2    N111990   4.344   0.245  12.081 -0.8681  0.2788  0.2413
  814MPD2    H711991   4.376   0.269  11.988  0.0664 -0.0997  0.4717
  815MPD2     C11992   0.150   3.918  11.549  0.8565 -0.0065 -0.8269
  815MPD2    C111993   0.160   3.780  11.558 -0.0839  0.0210  0.0012
  815MPD2    C211994   0.106   3.721  11.671  0.4157 -0.0873  0.2290
  815MPD2    C311995   0.041   3.802  11.765  0.3481 -0.2166 -0.0844
  815MPD2    C411996   0.034   3.944  11.749 -0.1409 -0.8571  0.2488
  815MPD2    C511997   0.085   4.000  11.632  0.0837  0.2562  0.1345
  815MPD2     H11998   0.126   3.618  11.698  0.4383 -0.0292  0.4316
  815MPD2    H111999   4.712   4.008  11.825  3.2045 -0.6205  2.0403
  815MPD2    H212000   0.202   3.970  11.470 -1.0050  0.9278 -1.4311
  815MPD2    H312001   0.082   4.108  11.617 -1.4580  0.1861 -0.0501
  815MPD2     N12002   4.720   3.739  11.884  0.6415 -0.3922  1.1170
  815MPD2    H512003   4.711   3.638  11.893  0.2795 -0.4145  0.5104
  815MPD2    N112004   0.218   3.706  11.449  0.0786  0.3298 -0.2693
  815MPD2    H712005   0.258   3.762  11.374  0.2720 -0.3431 -0.6737
  816MPD2     C12006   0.502   2.290  17.473 -0.1273 -0.2117  0.0892
  816MPD2    C112007   0.556   2.418  17.463  0.7235 -0.1755  1.1517
  816MPD2    C212008   0.688   2.420  17.419  0.1491  0.2202  0.0194
  816MPD2    C312009   0.757   2.307  17.379  0.0616 -0.2983  0.5543
  816MPD2    C412010   0.700   2.184  17.382 -0.0785 -0.3447 -0.0105
  816MPD2    C512011   0.581   2.176  17.443  0.6013 -0.5711 -0.0309
  816MPD2     H12012   0.735   2.517  17.404 -0.7276  0.2408 -2.5661
  816MPD2    H112013   0.752   2.096  17.344  0.7278  0.2970 -0.4027
  816MPD2    H212014   0.411   2.260  17.525 -0.7836  1.5671 -0.0399
  816MPD2    H312015   0.552   2.074  17.462  0.0205 -0.0817  1.7169
  816MPD2     N12016   0.884   2.334  17.324  0.8122  0.5068  0.0930
  816MPD2    H512017   0.904   2.433  17.329 -2.3253  1.1706 -0.4435
  816MPD2    N112018   0.480   2.536  17.502  0.2145 -0.5852 -0.1375
  816MPD2    H712019   0.380   2.528  17.518 -0.2521 -0.7237 -3.1016
  817MPD2     C12020   3.543   4.074  10.291 -0.1672 -0.0647 -1.0279
  817MPD2    C112021   3.630   4.088  10.182 -0.7208  0.2702  0.7832
  817MPD2    C212022   3.681   4.207  10.163 -0.5629  0.1762 -0.2234
  817MPD2    C312023   3.668   4.310  10.250 -0.4110 -0.0413  0.3107
  817MPD2    C412024   3.577   4.300  10.357 -0.0839  0.5584  0.0604
  817MPD2    C512025   3.523   4.175  10.378 -0.4493 -0.1256  0.3443
  817MPD2     H12026   3.747   4.218  10.077 -0.5256 -1.4545 -0.4049
  817MPD2    H112027   3.575   4.375  10.435  1.0097 -0.0582  0.6657
  817MPD2    H212028   3.498   3.977  10.309 -0.0908  0.2777  0.9156
  817MPD2    H312029   3.465   4.161  10.468 -1.4162  0.0420 -0.2549
  817MPD2     N12030   3.744   4.426  10.238  0.1477  0.1159 -0.4641
  817MPD2    H512031   3.810   4.434  10.161  2.3100 -1.4238  1.2653
  817MPD2    N112032   3.663   3.987  10.091 -0.1007  0.1294  0.3675
  817MPD2    H712033   3.722   4.016  10.013 -1.4792 -0.2954 -0.8339
  818MPD2     C12034   2.403   3.781  10.639  0.5058 -0.4517  0.6539
  818MPD2    C112035   2.533   3.786  10.687  0.3208 -0.3588 -0.2138
  818MPD2    C212036   2.627   3.702  10.627 -0.2209  0.3346  0.0256
  818MPD2    C312037   2.597   3.619  10.522 -0.6443 -0.2618 -0.1836
  818MPD2    C412038   2.471   3.620  10.468 -0.5805 -0.4669  0.2572
  818MPD2    C512039   2.378   3.700  10.526 -0.8144 -0.5941 -0.3278
  818MPD2     H12040   2.730   3.708  10.662 -0.3588 -0.5464  0.5903
  818MPD2    H112041   2.437   3.560  10.384  2.0317 -2.1614  0.4038
  818MPD2    H212042   2.329   3.847  10.682 -1.1786 -1.8010 -0.1824
  818MPD2    H312043   2.275   3.686  10.496 -1.4570 -1.4264  2.2092
  818MPD2     N12044   2.700   3.541  10.454  0.2853 -0.2237 -0.0637
  818MPD2    H512045   2.672   3.509  10.361  1.8464 -1.6222 -0.0627
  818MPD2    N112046   2.552   3.863  10.801 -0.4800  0.3221 -0.2893
  818MPD2    H712047   2.480   3.931  10.823 -1.1714 -0.3053 -0.6334
  819MPD2     C12048   1.583   0.973  15.921 -0.0877 -0.2666  0.1665
  819MPD2    C112049   1.657   0.912  15.815 -0.2350  0.3781 -0.3512
  819MPD2    C212050   1.793   0.893  15.839 -0.5132  0.3981  0.6378
  819MPD2    C312051   1.861   0.937  15.958  0.2047  0.4695  0.2458
  819MPD2    C412052   1.784   0.986  16.063  0.5025 -0.0236  0.0354
  819MPD2    C512053   1.651   1.010  16.038 -0.5102 -1.0744  0.1678
  819MPD2     H12054   1.859   0.848  15.767 -0.8574  0.2275  0.4315
  819MPD2    H112055   1.828   1.023  16.156 -0.1304  0.4796  0.1325
  819MPD2    H212056   1.477   0.991  15.902 -0.3488 -1.2516  0.6862
  819MPD2    H312057   1.601   1.065  16.117  0.9298 -0.2623  0.5207
  819MPD2     N12058   1.997   0.900  15.967  1.0008 -0.0588  0.7200
  819MPD2    H512059   2.033   0.853  15.885 -0.3009 -1.3477  0.8921
  819MPD2    N112060   1.582   0.862  15.706  0.2493 -0.1880 -0.2180
  819MPD2    H712061   1.481   0.870  15.714  0.3634 -0.0321  1.0682
  820MPD2     C12062   0.717   0.825  15.240 -0.1439  0.1608  0.2143
  820MPD2    C112063   0.759   0.884  15.359 -0.2498 -0.5797 -1.2172
  820MPD2    C212064   0.893   0.862  15.399  0.9311  0.6808  0.4146
  820MPD2    C312065   0.964   0.758  15.332 -0.1731 -0.2805 -0.1279
  820MPD2    C412066   0.903   0.685  15.229  0.2370 -0.2022 -0.2727
  820MPD2    C512067   0.783   0.723  15.184  0.6634 -0.0107  0.2523
  820MPD2     H12068   0.941   0.899  15.489 -0.2252  1.9277  0.5236
  820MPD2    H112069   0.945   0.593  15.188 -1.1937 -0.5104 -1.0425
  820MPD2    H212070   0.617   0.845  15.203  0.0246 -0.1185 -0.3982
  820MPD2    H312071   0.738   0.665  15.104 -1.5006  1.6974  0.2263
  820MPD2     N12072   1.100   0.725  15.356  0.2445  0.3406 -0.0056
  820MPD2    H512073   1.138   0.641  15.315  0.0155  0.7626 -1.0755
  820MPD2    N112074   0.681   0.980  15.419  0.5252  0.0048  0.3958
  820MPD2    H712075   0.597   0.998  15.364  1.7065  1.4119 -0.9254
  821MPD2     C12076   1.140   2.441  13.041 -0.5956  0.5741  0.6146
  821MPD2    C112077   1.264   2.412  13.095 -0.3823 -0.2347  0.0164
  821MPD2    C212078   1.367   2.488  13.061  0.2063  0.0327  0.7281
  821MPD2    C312079   1.362   2.579  12.963 -0.3048 -0.3326  0.2007
  821MPD2    C412080   1.243   2.610  12.911  0.3819  0.1006  0.2119
  821MPD2    C512081   1.130   2.541  12.954  0.1044  0.2641  0.0838
  821MPD2     H12082   1.454   2.489  13.125  2.3245  1.6652 -2.1585
  821MPD2    H112083   1.231   2.669  12.821  0.9905 -1.5111 -0.9306
  821MPD2    H212084   1.054   2.388  13.082 -0.2803 -1.2935 -1.1177
  821MPD2    H312085   1.038   2.554  12.898 -0.2065  1.0315  0.7760
  821MPD2     N12086   1.477   2.642  12.916  0.0858 -0.6038  0.0439
  821MPD2    H512087   1.458   2.706  12.840 -0.0233 -0.2782  0.3446
  821MPD2    N112088   1.287   2.309  13.186 -0.0259 -0.6256 -0.2063
  821MPD2    H712089   1.386   2.303  13.208  0.2695  1.8584 -0.7996
  822MPD2     C12090   2.332   2.228  15.892  0.1207  0.0913 -0.0683
  822MPD2    C112091   2.327   2.181  16.024  0.7537 -0.3764  0.0372
  822MPD2    C212092   2.263   2.266  16.114  0.4069 -0.9849  0.4989
  822MPD2    C312093   2.221   2.394  16.086  0.3641  0.1363  0.2356
  822MPD2    C412094   2.224   2.433  15.958  0.2861 -0.0623  0.0308
  822MPD2    C512095   2.274   2.350  15.859 -0.0831 -0.0439  0.1984
  822MPD2     H12096   2.263   2.231  16.216  0.6673  2.0786  1.5310
  822MPD2    H112097   2.190   2.531  15.927 -0.1310 -0.7443 -1.6638
  822MPD2    H212098   2.380   2.170  15.814 -0.1681 -0.3508  0.0822
  822MPD2    H312099   2.276   2.391  15.759 -3.2133  2.0122  0.9984
  822MPD2     N12100   2.173   2.474  16.189 -0.4801 -0.1007  0.0003
  822MPD2    H512101   2.155   2.424  16.275  0.1561  0.8352  0.6791
  822MPD2    N112102   2.389   2.060  16.074 -0.2229 -0.6829  0.1620
  822MPD2    H712103   2.368   2.043  16.171 -1.2613  3.1476  0.6205
  823MPD2     C12104   1.909   2.574  16.966 -0.1488  0.6897 -0.6645
  823MPD2    C112105   1.977   2.512  16.856 -0.4447  0.2379  0.7154
  823MPD2    C212106   2.046   2.394  16.886 -0.2994  0.6381 -0.2933
  823MPD2    C312107   2.064   2.346  17.014 -0.3951 -0.1026 -0.7213
  823MPD2    C412108   1.993   2.407  17.112 -0.0355 -0.5260  0.7633
  823MPD2    C512109   1.917   2.520  17.087 -0.5810  0.2041  0.3554
  823MPD2     H12110   2.088   2.336  16.805  0.5447  1.4959 -0.4699
  823MPD2    H112111   2.009   2.358  17.207  2.9092  0.8276  0.9974
  823MPD2    H212112   1.841   2.658  16.950 -2.3808 -0.6913  1.6322
  823MPD2    H312113   1.862   2.571  17.165 -2.7502 -1.6911  0.0583
  823MPD2     N12114   2.138   2.235  17.051  0.3287  0.8441 -0.1630
  823MPD2    H512115   2.115   2.181  17.133 -1.4227  0.5529 -0.8516
  823MPD2    N112116   1.970   2.576  16.733 -0.4381 -0.0400  0.4340
  823MPD2    H712117   1.944   2.674  16.733  2.0485  0.5967  0.3343
  824MPD2     C12118   2.649   1.189  16.097  0.0259  0.6881 -0.2241
  824MPD2    C112119   2.707   1.298  16.041 -0.4468 -0.3669  0.0828
  824MPD2    C212120   2.822   1.286  15.959 -0.8386 -0.1563 -0.5918
  824MPD2    C312121   2.876   1.162  15.928  0.0003  0.1096 -0.5121
  824MPD2    C412122   2.808   1.053  15.969 -0.5597  0.6793  0.1636
  824MPD2    C512123   2.694   1.064  16.055  0.3412 -0.0199  0.3140
  824MPD2     H12124   2.871   1.376  15.924 -1.0837 -0.0537 -0.6689
  824MPD2    H112125   2.839   0.955  15.935 -3.3904  0.0443 -0.6186
  824MPD2    H212126   2.558   1.192  16.157  0.4336 -3.2308  0.6354
  824MPD2    H312127   2.637   0.975  16.078 -0.3816  0.2756 -0.3327
  824MPD2     N12128   3.005   1.150  15.860 -0.1846 -0.4726 -0.1840
  824MPD2    H512129   3.059   1.235  15.852 -0.8169  0.0608  1.0651
  824MPD2    N112130   2.662   1.424  16.080 -0.7805 -0.6555 -0.6948
  824MPD2    H712131   2.590   1.424  16.152  0.1277 -1.1995  0.2031
  825MPD2     C12132   3.679   1.251  15.362 -0.7846 -0.0178 -0.0832
  825MPD2    C112133   3.602   1.312  15.458  0.5313 -0.9584 -0.8348
  825MPD2    C212134   3.592   1.452  15.464 -0.0403 -0.0164  0.1889
  825MPD2    C312135   3.659   1.536  15.381 -0.5128 -0.2967 -0.2268
  825MPD2    C412136   3.743   1.473  15.288 -0.1894 -0.1959 -0.3226
  825MPD2    C512137   3.748   1.335  15.278  0.6625 -1.0372 -0.4570
  825MPD2     H12138   3.537   1.501  15.544 -1.1002 -0.2411 -0.4057
  825MPD2    H112139   3.802   1.533  15.220 -1.8211 -0.8047 -2.2916
  825MPD2    H212140   3.689   1.144  15.351 -1.8478 -0.3687  2.2929
  825MPD2    H312141   3.812   1.281  15.208  0.2775 -1.7461 -0.2616
  825MPD2     N12142   3.647   1.682  15.381  0.1606 -0.0623  0.1942
  825MPD2    H512143   3.696   1.726  15.303  0.9351 -0.7132  0.3116
  825MPD2    N112144   3.547   1.233  15.561 -0.2486 -0.6926 -0.3473
  825MPD2    H712145   3.580   1.138  15.571  0.2805 -0.6260 -1.5156
  826MPD2     C12146   3.577   1.555  13.659  0.8785  0.2474  0.0409
  826MPD2    C112147   3.454   1.503  13.617  0.2371 -0.0391  0.3966
  826MPD2    C212148   3.346   1.580  13.596 -0.0411  0.9821 -0.9849
  826MPD2    C312149   3.349   1.713  13.640 -0.2043 -0.4694 -0.8778
  826MPD2    C412150   3.461   1.760  13.700 -0.7415 -0.7235  0.1766
  826MPD2    C512151   3.579   1.688  13.704  1.0290 -0.7226 -0.8138
  826MPD2     H12152   3.262   1.551  13.535  0.2374 -0.5601 -0.6349
  826MPD2    H112153   3.465   1.865  13.725 -1.7631 -0.7242  0.3388
  826MPD2    H212154   3.664   1.492  13.671 -0.0502 -1.3819 -1.6672
  826MPD2    H312155   3.677   1.726  13.729  0.2744 -0.4933  1.8318
  826MPD2     N12156   3.237   1.794  13.637  0.4082  0.5968  0.1173
  826MPD2    H512157   3.250   1.890  13.667 -0.4002  0.7921 -0.1574
  826MPD2    N112158   3.448   1.361  13.593  0.3242 -0.0597 -0.1614
  826MPD2    H712159   3.534   1.307  13.592 -0.4467 -1.2485 -2.5782
  827MPD2     C12160   3.483   3.213  10.164  0.0284  0.5053  0.2925
  827MPD2    C112161   3.445   3.123  10.261  0.0035  0.6985 -0.4575
  827MPD2    C212162   3.345   3.033  10.232  0.0228  0.2153 -0.5525
  827MPD2    C312163   3.279   3.033  10.109  0.3450 -0.3319 -0.9797
  827MPD2    C412164   3.327   3.117  10.015  0.6914  0.8023 -0.2936
  827MPD2    C512165   3.420   3.215  10.044 -0.4545  0.5629 -0.1795
  827MPD2     H12166   3.319   2.955  10.303 -0.6008  0.9152 -0.0158
  827MPD2    H112167   3.281   3.127   9.917 -0.3308  0.1472  0.1189
  827MPD2    H212168   3.563   3.286  10.174  0.6381 -0.1813  0.3537
  827MPD2    H312169   3.450   3.284   9.967 -0.4515  0.3346 -0.3828
  827MPD2     N12170   3.175   2.944  10.079  0.1683 -0.3365 -0.0696
  827MPD2    H512171   3.133   2.891  10.155  0.1025  1.4292  1.1281
  827MPD2    N112172   3.527   3.125  10.377 -0.0086 -0.1348 -0.5448
  827MPD2    H712173   3.604   3.192  10.377 -0.9848  0.9588  1.5017
  828MPD2     C12174   1.814   2.555  12.589 -0.3926  0.2295  0.1298
  828MPD2    C112175   1.843   2.639  12.483  0.0819 -0.1861  0.5755
  828MPD2    C212176   1.977   2.658  12.460  0.1617  0.0600  0.3920
  828MPD2    C312177   2.083   2.598  12.533 -0.4265 -0.2359  0.5049
  828MPD2    C412178   2.043   2.514  12.629  0.0612 -0.6605  0.5414
  828MPD2    C512179   1.909   2.487  12.654  0.6002  0.6030  0.4257
  828MPD2     H12180   2.000   2.728  12.381  3.2717 -0.1388  1.1120
  828MPD2    H112181   2.118   2.459  12.685  1.3723  0.0626 -0.5108
  828MPD2    H212182   1.712   2.544  12.625  0.4153 -1.4885  1.8323
  828MPD2    H312183   1.894   2.407  12.726 -0.1330 -1.7461 -2.3370
  828MPD2     N12184   2.215   2.612  12.501  0.1407  0.6018  0.6428
  828MPD2    H512185   2.273   2.571  12.573  0.9571  0.8745  0.1431
  828MPD2    N112186   1.743   2.692  12.399  0.1253 -0.2261  0.5255
  828MPD2    H712187   1.775   2.748  12.320 -1.6176 -0.4456 -0.3560
  829MPD2     C12188   2.001   3.029  11.695  0.3548  0.0240  0.2608
  829MPD2    C112189   1.866   3.060  11.702  0.3905 -0.3044  0.2366
  829MPD2    C212190   1.781   2.993  11.791  0.3020  0.7719 -0.1950
  829MPD2    C312191   1.829   2.891  11.864  0.0676  0.3678 -0.5246
  829MPD2    C412192   1.966   2.859  11.857  0.3074 -0.2630  0.1783
  829MPD2    C512193   2.047   2.927  11.775 -0.2624 -0.4793 -0.1696
  829MPD2     H12194   1.680   3.030  11.802 -0.6121 -1.5394 -0.9869
  829MPD2    H112195   2.013   2.775  11.906 -0.3639 -0.1614  0.9949
  829MPD2    H212196   2.071   3.083  11.633  0.6752 -1.7915 -0.9683
  829MPD2    H312197   2.153   2.906  11.765 -0.9024 -3.0492 -1.7116
  829MPD2     N12198   1.749   2.816  11.952  0.1476  0.6633  0.1277
  829MPD2    H512199   1.786   2.747  12.017  0.4361  1.7963  1.1679
  829MPD2    N112200   1.827   3.173  11.624 -0.0040  0.0583 -0.3326
  829MPD2    H712201   1.892   3.201  11.550 -0.7758 -0.5876 -1.2527
  830MPD2     C12202   2.661   0.668  15.581  0.2041 -0.3478  0.1716
  830MPD2    C112203   2.647   0.778  15.659 -0.2318  0.1469  0.5812
  830MPD2    C212204   2.715   0.896  15.633 -0.2203 -0.4617 -0.1166
  830MPD2    C312205   2.800   0.906  15.519  0.1124 -0.0177 -0.3394
  830MPD2    C412206   2.815   0.793  15.443  0.4729  0.5296 -0.0088
  830MPD2    C512207   2.750   0.677  15.478 -0.8163 -0.2834  0.0661
  830MPD2     H12208   2.685   0.985  15.688 -0.2266  0.5452 -1.7092
  830MPD2    H112209   2.872   0.786  15.351 -1.6045 -1.6319 -1.1120
  830MPD2    H212210   2.606   0.576  15.594 -3.0828  1.4538 -1.0728
  830MPD2    H312211   2.772   0.592  15.414 -0.8589  1.6606 -2.5560
  830MPD2     N12212   2.870   1.023  15.475 -0.2767 -0.3624  0.0204
  830MPD2    H512213   2.931   1.000  15.397 -2.1120 -2.4559 -0.7545
  830MPD2    N112214   2.549   0.772  15.761  0.3712 -0.3258 -0.3656
  830MPD2    H712215   2.522   0.678  15.788  2.0312 -1.1649 -1.6380
  831MPD2     C12216   2.523   2.537  16.426  0.2777  0.6289  0.0280
  831MPD2    C112217   2.532   2.413  16.360 -0.2520  0.4642  0.0898
  831MPD2    C212218   2.450   2.311  16.396 -0.0404 -0.4765 -0.0984
  831MPD2    C312219   2.361   2.324  16.503 -0.1898  0.1176  0.6913
  831MPD2    C412220   2.361   2.445  16.572 -0.7113  0.0237 -0.5452
  831MPD2    C512221   2.447   2.548  16.539 -0.0092  0.5244  0.1910
  831MPD2     H12222   2.441   2.223  16.333  0.9571 -0.1722 -0.6711
  831MPD2    H112223   2.298   2.470  16.657 -0.3765 -1.7917  0.2468
  831MPD2    H212224   2.588   2.617  16.392 -1.3799  1.3017 -1.5224
  831MPD2    H312225   2.445   2.644  16.589 -0.4917  0.0631  1.0466
  831MPD2     N12226   2.249   2.236  16.522  0.0028 -0.4248 -1.1229
  831MPD2    H512227   2.179   2.271  16.586 -0.6216  1.3012 -2.7559
  831MPD2    N112228   2.613   2.402  16.244  0.2279 -0.5071  0.1258
  831MPD2    H712229   2.657   2.484  16.203  1.0283 -0.7625  0.4925
  832MPD2     C12230   1.032   3.970  17.321  0.2725  0.3051  0.3972
  832MPD2    C112231   0.946   4.070  17.286  0.2005 -0.7755  0.9761
  832MPD2    C212232   0.820   4.034  17.232 -0.3209 -1.3531  0.3053
  832MPD2    C312233   0.778   3.899  17.227  0.6481  0.2004 -0.1935
  832MPD2    C412234   0.861   3.802  17.273 -0.2181  0.3371 -0.2044
  832MPD2    C512235   0.997   3.834  17.308  0.0861  0.1457 -0.3991
  832MPD2     H12236   0.740   4.106  17.221 -0.2390 -1.3186 -0.0840
  832MPD2    H112237   0.834   3.697  17.282 -2.3478  1.0128  1.2451
  832MPD2    H212238   1.129   3.996  17.360  0.4580 -0.1789  0.2530
  832MPD2    H312239   1.057   3.756  17.352 -0.0729 -0.1105 -0.6398
  832MPD2     N12240   0.653   3.857  17.177 -0.1782 -0.1441  0.0049
  832MPD2    H512241   0.654   3.756  17.172 -1.0486 -0.2811  2.3430
  832MPD2    N112242   0.989   4.203  17.321  0.0467  0.3119 -0.5598
  832MPD2    H712243   1.089   4.217  17.330  0.1659  0.6084 -2.3202
  833MPD2     C12244   2.620   0.686  12.795  0.1447  0.0449 -0.4121
  833MPD2    C112245   2.699   0.788  12.746  0.2293 -0.0734  0.6616
  833MPD2    C212246   2.830   0.763  12.713 -0.4369  0.3501  0.1063
  833MPD2    C312247   2.871   0.629  12.721 -0.2519  0.4131  0.6401
  833MPD2    C412248   2.788   0.530  12.771  0.2118  1.0838  0.1720
  833MPD2    C512249   2.665   0.564  12.814  0.0575  0.1418  0.6765
  833MPD2     H12250   2.902   0.834  12.674 -0.7839  0.2082 -0.8116
  833MPD2    H112251   2.833   0.432  12.785  0.0651  0.9302 -0.4104
  833MPD2    H212252   2.517   0.704  12.824 -0.3001 -0.2890 -1.7915
  833MPD2    H312253   2.594   0.488  12.846  0.4677 -0.0110  1.2133
  833MPD2     N12254   3.002   0.586  12.687 -0.3510  0.2043  0.6715
  833MPD2    H512255   3.019   0.488  12.708  1.6766  0.4423  0.1020
  833MPD2    N112256   2.638   0.912  12.727 -0.5358 -0.1574 -0.6518
  833MPD2    H712257   2.542   0.925  12.759  0.1048  1.4999  0.6439
  834MPD2     C12258   3.077   4.481  12.286  0.1376 -0.5685 -0.4130
  834MPD2    C112259   2.978   4.559  12.233  0.0568  0.9884  0.5019
  834MPD2    C212260   2.993   4.695  12.248 -0.4900  0.0744  0.7248
  834MPD2    C312261   3.101   0.032  12.318  0.2220  0.4852  0.0617
  834MPD2    C412262   3.195   4.673  12.376  0.4360  0.6873  0.5979
  834MPD2    C512263   3.173   4.539  12.364  0.0159  0.6000  0.4746
  834MPD2     H12264   2.915   0.039  12.214 -1.1809 -0.4770  1.2220
  834MPD2    H112265   3.279   4.712  12.433  1.5965 -0.2851 -0.4232
  834MPD2    H212266   3.075   4.375  12.262 -0.5599 -0.9955  1.5858
  834MPD2    H312267   3.242   4.463  12.399  1.2068  1.8696  0.9111
  834MPD2     N12268   3.115   0.170  12.332  0.1479 -0.0088  0.0448
  834MPD2    H512269   3.052   0.226  12.276  0.7677 -1.2577 -1.9003
  834MPD2    N112270   2.865   4.498  12.182  0.2146  0.0685  0.4789
  834MPD2    H712271   2.857   4.397  12.179  1.8862 -0.0583  0.5060
  835MPD2     C12272   2.855   3.107  11.156  0.3495  0.2955 -0.5053
  835MPD2    C112273   2.729   3.160  11.156  0.3192  0.3555  0.8693
  835MPD2    C212274   2.660   3.136  11.271  0.5096  0.0024  0.4506
  835MPD2    C312275   2.716   3.092  11.394 -0.7895 -0.2790 -0.4904
  835MPD2    C412276   2.851   3.065  11.388  0.4589 -0.4674  0.3114
  835MPD2    C512277   2.917   3.072  11.271 -0.5175  0.1906  0.0888
  835MPD2     H12278   2.556   3.166  11.267  0.6152 -0.0709 -3.2872
  835MPD2    H112279   2.896   3.025  11.479 -1.0859  0.6150  1.5504
  835MPD2    H212280   2.912   3.115  11.064  0.6886 -3.1275 -0.6141
  835MPD2    H312281   3.022   3.044  11.269 -0.4925  0.2372  0.7682
  835MPD2     N12282   2.641   3.106  11.517 -1.0208 -0.0786  0.5679
  835MPD2    H512283   2.696   3.110  11.602  1.8636  3.8924 -1.4903
  835MPD2    N112284   2.662   3.219  11.043  0.5031 -0.2895  0.2132
  835MPD2    H712285   2.575   3.266  11.068  1.4567  1.1190  0.8668
  836MPD2     C12286   2.029   3.623  11.563  0.4634 -0.1876  0.1399
  836MPD2    C112287   2.027   3.520  11.657 -0.1817 -0.5372  0.0311
  836MPD2    C212288   1.910   3.516  11.737  0.0355  0.0113  0.6321
  836MPD2    C312289   1.804   3.599  11.718  0.4134 -0.4573  0.4197
  836MPD2    C412290   1.807   3.690  11.611 -0.7513  0.5244 -0.0508
  836MPD2    C512291   1.923   3.705  11.546  0.2022 -0.3420  0.3066
  836MPD2     H12292   1.912   3.445  11.819  1.7450 -0.3147  0.3172
  836MPD2    H112293   1.739   3.772  11.591 -1.0132  0.1675 -0.6248
  836MPD2    H212294   2.120   3.638  11.506  0.1020 -1.6160 -0.8114
  836MPD2    H312295   1.929   3.777  11.466 -1.5612  2.0849  2.3821
  836MPD2     N12296   1.687   3.602  11.801  0.5256 -0.1584  0.1344
  836MPD2    H512297   1.621   3.678  11.788 -1.3897 -2.1986 -1.9052
  836MPD2    N112298   2.153   3.451  11.675  0.5710 -0.0508  0.3023
  836MPD2    H712299   2.220   3.445  11.600  2.6066  2.2107  1.9749
  837MPD2     C12300   0.714   2.517  10.129  0.1099  0.0912  0.2137
  837MPD2    C112301   0.681   2.594  10.018  0.4860 -0.4000  0.0328
  837MPD2    C212302   0.704   2.732  10.020 -0.2518  0.0179 -0.0404
  837MPD2    C312303   0.722   2.799  10.138 -0.7166  0.4162 -0.6467
  837MPD2    C412304   0.747   2.724  10.251  0.1162 -0.9878 -0.1116
  837MPD2    C512305   0.753   2.585  10.237  0.1041 -0.2819 -0.4430
  837MPD2     H12306   0.682   2.787   9.929 -1.7071 -1.9770 -0.9153
  837MPD2    H112307   0.795   2.773  10.335  1.6097 -1.8250 -0.4840
  837MPD2    H212308   0.713   2.408  10.133  1.3722  0.0480 -0.8098
  837MPD2    H312309   0.782   2.529  10.326 -1.9853  1.4929  1.3501
  837MPD2     N12310   0.743   2.940  10.139  0.1618 -0.0990  0.1840
  837MPD2    H512311   0.728   2.993  10.054  0.2378  0.4626  0.5238
  837MPD2    N112312   0.635   2.527   9.903  0.4651  0.5411  0.1625
  837MPD2    H712313   0.608   2.585   9.824 -0.4582 -0.3722 -0.1915
  838MPD2     C12314   4.031   0.911  11.798  0.1941 -0.1737  0.0540
  838MPD2    C112315   4.076   0.884  11.928  0.4576  0.1728 -0.3734
  838MPD2    C212316   3.987   0.833  12.019 -0.1446  0.3212  0.1057
  838MPD2    C312317   3.856   0.809  11.984 -0.1544 -0.2370 -0.3355
  838MPD2    C412318   3.815   0.829  11.849 -0.0564 -0.4913 -0.8785
  838MPD2    C512319   3.902   0.883  11.754  0.2254 -0.2966  0.1622
  838MPD2     H12320   4.013   0.829  12.124 -1.3180 -1.4084  0.3318
  838MPD2    H112321   3.715   0.800  11.816  0.4840 -0.5939 -2.4095
  838MPD2    H212322   4.096   0.942  11.718  0.0251 -0.9932 -0.3994
  838MPD2    H312323   3.869   0.903  11.653 -2.3243 -0.4907  0.9605
  838MPD2     N12324   3.769   0.759  12.085 -0.1794  0.3622  0.4741
  838MPD2    H512325   3.819   0.723  12.166  0.0253  0.9690  0.6129
  838MPD2    N112326   4.214   0.898  11.957  0.2710  0.3589 -0.1117
  838MPD2    H712327   4.249   0.860  12.045  2.1961 -0.4906 -1.2416
  839MPD2     C12328   3.913   0.403  12.033 -0.3377 -0.6533  0.2091
  839MPD2    C112329   3.917   0.462  11.907  0.3470  0.4280 -0.7050
  839MPD2    C212330   4.037   0.518  11.866 -0.7925 -1.1650  0.7676
  839MPD2    C312331   4.143   0.522  11.956  0.2264  0.0473 -0.2392
  839MPD2    C412332   4.132   0.469  12.081 -0.0495  0.0409  1.1608
  839MPD2    C512333   4.017   0.406  12.122 -0.9091  0.0195  0.3286
  839MPD2     H12334   4.046   0.556  11.765 -2.4199 -1.9113  0.3569
  839MPD2    H112335   4.212   0.488  12.151  1.9802 -1.4878 -0.7623
  839MPD2    H212336   3.826   0.355  12.077  1.2419 -2.3147  1.5167
  839MPD2    H312337   4.004   0.362  12.220  2.2185  0.7100  1.0503
  839MPD2     N12338   4.270   0.571  11.920  0.0509  0.2650  0.2421
  839MPD2    H512339   4.326   0.600  12.000  0.7168  1.1019 -0.5395
  839MPD2    N112340   3.808   0.452  11.815  0.1580  0.3239 -0.2264
  839MPD2    H712341   3.824   0.497  11.726  1.2305  1.2757  0.4482
  840MPD2     C12342   4.103   3.305  10.344  0.5353  1.0189 -0.2027
  840MPD2    C112343   4.077   3.293  10.477  0.7539  0.9042  0.1040
  840MPD2    C212344   4.156   3.363  10.566  0.1179  0.2112 -0.8370
  840MPD2    C312345   4.244   3.465  10.523 -0.2521 -0.5320 -0.2235
  840MPD2    C412346   4.250   3.485  10.386  0.3055  0.1480 -0.2361
  840MPD2    C512347   4.184   3.403  10.299  0.1331  0.4529  0.6605
  840MPD2     H12348   4.144   3.351  10.674 -0.8958  1.6399 -0.7973
  840MPD2    H112349   4.310   3.561  10.337  0.2536 -0.3071 -0.9939
  840MPD2    H212350   4.048   3.247  10.270  2.9612  1.2149 -2.1949
  840MPD2    H312351   4.191   3.409  10.191 -0.7830  1.6587  0.6780
  840MPD2     N12352   4.322   3.542  10.616 -0.5128 -0.2338 -0.3880
  840MPD2    H512353   4.392   3.599  10.570  3.3375 -4.4301  0.1857
  840MPD2    N112354   3.979   3.198  10.510 -0.0267  0.3715 -0.5417
  840MPD2    H712355   3.930   3.159  10.430  1.1217  0.3111 -1.2162
  841MPD2     C12356   4.279   2.489  14.740  0.2370 -0.4811  0.3938
  841MPD2    C112357   4.315   2.435  14.621  0.4868 -0.0692 -0.3093
  841MPD2    C212358   4.320   2.516  14.509  0.0944  0.1046  0.4288
  841MPD2    C312359   4.277   2.647  14.517 -0.0493 -0.0492  0.3977
  841MPD2    C412360   4.223   2.698  14.631 -0.0007 -0.2425 -0.1860
  841MPD2    C512361   4.234   2.622  14.744 -0.2339 -0.2181 -0.3565
  841MPD2     H12362   4.346   2.475  14.412  1.9218  2.2459 -0.0031
  841MPD2    H112363   4.186   2.800  14.633 -1.0480 -0.6358  0.5480
  841MPD2    H212364   4.277   2.435  14.834  0.9092 -1.4734 -0.1699
  841MPD2    H312365   4.197   2.669  14.834 -1.0470  2.3946 -2.0755
  841MPD2     N12366   4.268   2.708  14.395 -0.6848  0.1683  0.0885
  841MPD2    H512367   4.327   2.668  14.324  0.1676  0.6796  0.5092
  841MPD2    N112368   4.356   2.305  14.612  0.1614 -0.3132  0.2080
  841MPD2    H712369   4.368   2.270  14.517  1.8766  0.1664  0.2552
  842MPD2     C12370   4.318   3.284  16.749 -0.5894  0.1238 -0.2503
  842MPD2    C112371   4.361   3.414  16.724 -0.4083  0.7447  0.6077
  842MPD2    C212372   4.360   3.506  16.821  0.3763  0.0389  0.2100
  842MPD2    C312373   4.300   3.474  16.938 -0.6394  0.0114  0.2720
  842MPD2    C412374   4.249   3.351  16.968 -0.2996 -0.5306 -0.3143
  842MPD2    C512375   4.263   3.259  16.873  0.3825 -0.1085 -0.4209
  842MPD2     H12376   4.389   3.609  16.806 -0.1383  0.1298 -0.1416
  842MPD2    H112377   4.199   3.329  17.061  0.2046 -2.1573 -0.4147
  842MPD2    H212378   4.325   3.209  16.671  1.0754 -0.4294  0.4350
  842MPD2    H312379   4.220   3.160  16.884  0.5334 -0.1325 -0.0624
  842MPD2     N12380   4.276   3.577  17.039  0.1672  0.5000 -0.2727
  842MPD2    H512381   4.211   3.545  17.110  2.4394  0.9909  2.0597
  842MPD2    N112382   4.404   3.430  16.588  0.3357 -0.9010  0.0065
  842MPD2    H712383   4.407   3.346  16.532 -2.0065  0.7061 -2.5062
  843MPD2     C12384   2.278   4.380   0.051  0.7430 -1.1160  0.5730
  843MPD2    C112385   2.364   4.370   0.156 -0.1480 -1.1074  0.1681
  843MPD2    C212386   2.484   4.438   0.154 -0.8607 -0.2105  0.0329
  843MPD2    C312387   2.514   4.529   0.054 -0.1154 -0.6601  0.0614
  843MPD2    C412388   2.424   4.539  17.637 -0.1488 -0.5983 -0.3653
  843MPD2    C512389   2.313   4.463  17.639  0.6107  0.5903 -0.0016
  843MPD2     H12390   2.551   4.443   0.239  0.1825 -2.0028 -0.6797
  843MPD2    H112391   2.448   4.595  17.548 -0.5653 -2.0457 -1.3952
  843MPD2    H212392   2.182   4.331   0.048 -0.0187  0.4715 -0.9683
  843MPD2    H312393   2.237   4.474  17.563  0.8331  1.8159 -0.0483
  843MPD2     N12394   2.636   4.604   0.059 -0.2760 -0.4325  0.1700
  843MPD2    H512395   2.650   4.681  17.688 -0.7806 -0.6091 -0.1481
  843MPD2    N112396   2.326   4.286   0.262  0.4707 -0.0565  0.2481
  843MPD2    H712397   2.228   4.260   0.268  0.1837  0.5378 -1.8804
  844MPD2     C12398   0.298   3.439  16.766  0.2463  0.1781  0.9782
  844MPD2    C112399   0.415   3.368  16.775 -0.3104 -1.0706  0.0052
  844MPD2    C212400   0.526   3.436  16.802  0.7794  0.3551  0.5096
  844MPD2    C312401   0.541   3.577  16.820 -0.4442 -0.0512  0.7175
  844MPD2    C412402   0.421   3.643  16.798 -0.1578  0.2183 -0.5982
  844MPD2    C512403   0.302   3.578  16.776 -1.2603  0.1077  0.0864
  844MPD2     H12404   0.614   3.377  16.826  1.9413  1.7555 -0.3253
  844MPD2    H112405   0.418   3.750  16.780 -1.4033  0.0876 -1.1078
  844MPD2    H212406   0.204   3.390  16.746 -0.3167  2.0131 -0.8118
  844MPD2    H312407   0.208   3.630  16.761 -1.2165 -0.1116 -0.9385
  844MPD2     N12408   0.668   3.633  16.852  0.6518  0.1506 -0.7270
  844MPD2    H512409   0.745   3.567  16.856  0.9904  0.6082  0.4148
  844MPD2    N112410   0.419   3.227  16.738  0.2244 -0.5844  0.2690
  844MPD2    H712411   0.492   3.165  16.773 -0.1557 -0.2695  1.6109
  845MPD2     C12412   0.909   4.590  16.984 -0.5791 -0.0719 -0.0917
  845MPD2    C112413   0.812   4.508  17.039 -0.3833  0.6668 -0.2373
  845MPD2    C212414   0.821   4.372  17.028 -0.9415  0.0550 -0.2975
  845MPD2    C312415   0.930   4.318  16.976  0.0344  0.0372  0.1892
  845MPD2    C412416   1.037   4.397  16.942 -0.4466  0.2262 -0.0175
  845MPD2    C512417   1.023   4.533  16.941 -0.1708  0.1663 -0.4363
  845MPD2     H12418   0.734   4.311  17.050  0.0453 -0.3074  2.6532
  845MPD2    H112419   1.126   4.364  16.890 -0.8843 -0.6704 -0.1989
  845MPD2    H212420   0.907   4.698  16.994  1.2814  0.0335 -0.8514
  845MPD2    H312421   1.108   4.590  16.904 -0.1801 -0.2155 -1.0412
  845MPD2     N12422   0.932   4.174  16.965 -0.1454  0.0090 -0.0449
  845MPD2    H512423   0.844   4.135  16.997 -0.0128 -0.1155  0.1662
  845MPD2    N112424   0.694   4.575  17.081  0.2552 -0.1371 -0.1107
  845MPD2    H712425   0.701   4.675  17.067  0.5109  0.2908  3.0662
  846MPD2     C12426   2.216   0.061  13.689 -0.3787 -0.0510 -0.2953
  846MPD2    C112427   2.167   0.184  13.732 -0.4186  0.8365 -0.1129
  846MPD2    C212428   2.169   0.216  13.866 -0.0224  0.1505 -0.3616
  846MPD2    C312429   2.250   0.139  13.948  0.1172 -0.0131 -0.3355
  846MPD2    C412430   2.300   0.015  13.909 -0.0328  0.2535  0.2565
  846MPD2    C512431   2.280   4.707  13.778  0.4187 -0.7664 -0.9744
  846MPD2     H12432   2.124   0.309  13.898 -0.4839 -0.0755 -0.3484
  846MPD2    H112433   2.360   4.667  13.964  1.2992  0.8203 -0.4678
  846MPD2    H212434   2.229   0.026  13.588 -1.2303  1.3454 -0.8852
  846MPD2    H312435   2.329   4.621  13.735 -1.3187 -1.6398 -1.1964
  846MPD2     N12436   2.283   0.176  14.079  0.5775  0.5117  0.0743
  846MPD2    H512437   2.222   0.245  14.123  2.0054  1.4337  0.5803
  846MPD2    N112438   2.104   0.273  13.638 -0.1702 -0.7032 -0.1366
  846MPD2    H712439   2.076   0.366  13.666 -0.2643 -1.1530  1.2857
  847MPD2     C12440   2.512   0.786  13.768  0.0248 -0.3161 -0.0232
  847MPD2    C112441   2.556   0.905  13.832 -0.6494  1.2160 -0.1235
  847MPD2    C212442   2.688   0.909  13.888  0.2962 -0.3352  0.1722
  847MPD2    C312443   2.757   0.789  13.895  0.0381  0.5750 -0.9322
  847MPD2    C412444   2.722   0.677  13.827 -0.1106 -0.4377  0.1571
  847MPD2    C512445   2.599   0.682  13.761 -0.0587 -0.3256  0.2807
  847MPD2     H12446   2.723   0.995  13.943  0.6777 -0.0505 -0.5125
  847MPD2    H112447   2.783   0.587  13.821  0.9335  0.1377  2.0000
  847MPD2    H212448   2.411   0.767  13.735  0.5318  2.0430 -2.8887
  847MPD2    H312449   2.576   0.586  13.715  1.2663 -1.2818  1.6152
  847MPD2     N12450   2.870   0.769  13.974  0.5197 -0.1126  0.2724
  847MPD2    H512451   2.902   0.673  13.986 -4.1540 -1.6252  0.4151
  847MPD2    N112452   2.480   1.023  13.827  0.4459  0.2661 -0.0766
  847MPD2    H712453   2.521   1.114  13.846 -0.0667  0.6810 -0.9278
  848MPD2     C12454   0.018   3.927  16.604  0.0761  0.3807  0.9984
  848MPD2    C112455   0.133   3.987  16.647 -0.3995  0.3512  0.0420
  848MPD2    C212456   0.199   4.065  16.558 -0.0042 -0.2540 -0.4548
  848MPD2    C312457   0.148   4.100  16.433 -0.4305  0.2342 -0.5306
  848MPD2    C412458   0.020   4.063  16.400  0.3972  0.2242  0.0455
  848MPD2    C512459   4.688   3.967  16.488 -0.5650  0.1600 -0.1098
  848MPD2     H12460   0.300   4.103  16.571 -0.1907 -0.6991  2.3345
  848MPD2    H112461   4.694   4.088  16.306  1.6011  0.1619 -0.5928
  848MPD2    H212462   4.696   3.845  16.660  0.9762 -0.4553  0.5005
  848MPD2    H312463   4.603   3.911  16.452  0.3396 -1.6024  0.5008
  848MPD2     N12464   0.207   4.195  16.339 -0.1087  0.0678 -0.3404
  848MPD2    H512465   0.151   4.220  16.258 -0.2239  0.0465 -0.2671
  848MPD2    N112466   0.191   3.947  16.766  0.1112 -0.1612 -0.0498
  848MPD2    H712467   0.283   3.990  16.774  0.3009 -0.5535 -0.1621
  849MPD2     C12468   3.953   3.337  14.061 -0.4103  0.5466  0.5709
  849MPD2    C112469   4.033   3.445  14.033 -0.2426  0.2758 -0.4118
  849MPD2    C212470   4.123   3.480  14.131 -0.1546  0.0723  0.4221
  849MPD2    C312471   4.140   3.416  14.260 -0.1600  0.2240 -0.2979
  849MPD2    C412472   4.062   3.311  14.279 -0.9388 -0.5726 -0.6589
  849MPD2    C512473   3.968   3.274  14.185  0.0216 -0.4391 -0.1608
  849MPD2     H12474   4.195   3.560  14.115  1.5595 -1.0640  2.3928
  849MPD2    H112475   4.062   3.264  14.376  0.0614 -2.2235 -1.4594
  849MPD2    H212476   3.884   3.300  13.986  0.6282  1.1556 -0.6878
  849MPD2    H312477   3.889   3.202  14.200  0.1218 -0.8162 -1.4032
  849MPD2     N12478   4.247   3.441  14.347  0.1274  1.1403  0.3165
  849MPD2    H512479   4.289   3.374  14.410  0.6965 -1.9552 -3.4065
  849MPD2    N112480   4.039   3.497  13.900  0.2706  0.0021 -0.4614
  849MPD2    H712481   3.986   3.447  13.830 -2.5803  0.3286  1.4608
  850MPD2     C12482   2.327   1.992  14.715 -0.3653 -0.9536  0.9738
  850MPD2    C112483   2.370   1.940  14.840 -0.5951  0.6550  0.3898
  850MPD2    C212484   2.507   1.939  14.872  0.4764  0.3596 -0.0452
  850MPD2    C312485   2.596   1.991  14.786 -0.4279 -0.0560 -0.1266
  850MPD2    C412486   2.546   2.038  14.666 -0.6781 -0.1256 -0.2523
  850MPD2    C512487   2.418   2.044  14.630  0.1697  0.3801  0.7118
  850MPD2     H12488   2.540   1.907  14.971  1.2064  0.2244 -0.3343
  850MPD2    H112489   2.606   2.078  14.585 -0.4010  1.8885  0.9330
  850MPD2    H212490   2.226   1.970  14.683 -0.0704  0.1710 -0.7102
  850MPD2    H312491   2.387   2.066  14.529 -1.2712 -1.3176  0.7579
  850MPD2     N12492   2.738   1.988  14.812  0.2937  0.2984  0.3300
  850MPD2    H512493   2.801   2.006  14.735  1.1735  0.7455  1.1601
  850MPD2    N112494   2.276   1.900  14.938 -0.1355 -0.6347 -0.5125
  850MPD2    H712495   2.319   1.859  15.021  0.1348  0.6760 -0.0078
  851MPD2     C12496   2.565   1.943  15.561  0.1915 -0.2468 -0.0656
  851MPD2    C112497   2.535   1.852  15.462 -0.5623  0.1358 -0.0106
  851MPD2    C212498   2.619   1.742  15.431  0.1993 -0.2937  0.1210
  851MPD2    C312499   2.743   1.742  15.494  0.4683  1.0128 -0.1895
  851MPD2    C412500   2.774   1.840  15.588 -0.3098 -0.3693 -0.7835
  851MPD2    C512501   2.688   1.941  15.615  0.1228  0.6693  0.1731
  851MPD2     H12502   2.585   1.662  15.366  0.3466 -0.6905  0.5388
  851MPD2    H112503   2.874   1.834  15.630 -1.4615  0.4573  2.0271
  851MPD2    H212504   2.509   2.029  15.593 -0.5500 -0.5230 -0.6086
  851MPD2    H312505   2.721   2.013  15.689  0.5564  1.5020 -0.8312
  851MPD2     N12506   2.836   1.643  15.460 -0.4088  0.5201 -0.0266
  851MPD2    H512507   2.817   1.572  15.390 -0.5235  1.6482 -1.1451
  851MPD2    N112508   2.409   1.868  15.405 -0.6849 -0.7884 -0.2162
  851MPD2    H712509   2.351   1.943  15.441 -0.1417 -0.0102 -0.9570
  852MPD2     C12510   1.214   4.341  10.220  0.2140 -0.3005 -0.0436
  852MPD2    C112511   1.309   4.341  10.320 -0.7248 -0.4505 -0.5681
  852MPD2    C212512   1.394   4.450  10.341 -0.1095 -1.0754  0.0787
  852MPD2    C312513   1.377   4.565  10.267 -0.0217  0.0363 -0.0830
  852MPD2    C412514   1.280   4.565  10.167  0.6300 -0.2592  0.1154
  852MPD2    C512515   1.197   4.461  10.149  0.6180  1.0485 -0.5994
  852MPD2     H12516   1.442   4.458  10.438 -1.5568 -0.5203  0.7652
  852MPD2    H112517   1.263   4.654  10.109  0.1947  1.2473  2.5457
  852MPD2    H212518   1.143   4.264  10.191  0.5323 -0.0458 -1.5365
  852MPD2    H312519   1.126   4.459  10.067  1.4549  1.0794 -1.3177
  852MPD2     N12520   1.460   4.676  10.302  0.7001 -0.8551  0.0905
  852MPD2    H512521   1.517   4.660  10.385  0.6958  0.1897  0.3016
  852MPD2    N112522   1.341   4.223  10.395  0.4275 -0.0702  0.2212
  852MPD2    H712523   1.407   4.236  10.471 -0.6741 -0.1989  1.1989
  853MPD2     C12524   4.153   4.400  12.549 -1.5240  0.8821 -0.3316
  853MPD2    C112525   4.020   4.437  12.545  0.5873 -0.5574  0.0636
  853MPD2    C212526   3.951   4.405  12.428 -0.9084  0.2949 -0.6573
  853MPD2    C312527   4.003   4.320  12.328 -0.1344 -0.1771 -0.1016
  853MPD2    C412528   4.125   4.266  12.356 -0.5092 -0.3666 -0.1089
  853MPD2    C512529   4.196   4.307  12.464  0.4466 -0.9653  0.0954
  853MPD2     H12530   3.846   4.433  12.422 -1.0587  0.3380  1.8603
  853MPD2    H112531   4.175   4.198  12.288 -2.3379 -3.2059  1.3885
  853MPD2    H212532   4.223   4.424  12.628  0.8725  3.3702 -3.1930
  853MPD2    H312533   4.296   4.266  12.477  1.0456  0.4964  0.0802
  853MPD2     N12534   3.944   4.285  12.209 -0.2032 -0.0319  0.2305
  853MPD2    H512535   3.998   4.224  12.150 -1.6776 -1.5809  0.4695
  853MPD2    N112536   3.971   4.513  12.648 -0.5206  0.5022  0.2498
  853MPD2    H712537   4.047   4.523  12.715 -0.5742 -2.3140  0.7454
  854MPD2     C12538   0.595   4.526  13.188  0.7369  1.4289  0.6940
  854MPD2    C112539   0.607   4.445  13.071 -0.1912  0.4212  0.3843
  854MPD2    C212540   0.678   4.329  13.070  0.0280 -0.0173  0.7539
  854MPD2    C312541   0.749   4.295  13.185 -0.9139 -0.1590  0.1913
  854MPD2    C412542   0.733   4.366  13.298  0.8154 -0.6510  0.3237
  854MPD2    C512543   0.651   4.475  13.299 -0.2570  0.0213  0.6202
  854MPD2     H12544   0.688   4.260  12.987 -1.1797  1.5952 -0.7027
  854MPD2    H112545   0.803   4.346  13.378 -0.8154  0.0066  1.9273
  854MPD2    H212546   0.541   4.619  13.202 -0.5030  0.5647  1.6476
  854MPD2    H312547   0.635   4.518  13.397 -0.7107 -1.0470  1.0122
  854MPD2     N12548   0.842   4.183  13.198 -0.3397  0.2996 -0.1668
  854MPD2    H512549   0.880   4.160  13.289  0.0609 -0.0637 -0.4256
  854MPD2    N112550   0.530   4.489  12.958 -0.2856  0.5181 -0.1577
  854MPD2    H712551   0.464   4.564  12.979  0.4067  0.9151  0.5954
  855MPD2     C12552   1.658   4.040  13.639 -0.1303  0.3733 -0.9609
  855MPD2    C112553   1.530   4.041  13.698  0.1275 -0.0504 -0.4110
  855MPD2    C212554   1.419   4.014  13.617 -0.3707 -0.2237 -0.3665
  855MPD2    C312555   1.446   3.989  13.482 -0.2558  0.2449  0.3254
  855MPD2    C412556   1.574   3.977  13.434 -0.3266 -0.4287  0.2243
  855MPD2    C512557   1.678   4.008  13.514  0.1747  0.1446 -0.0406
  855MPD2     H12558   1.320   4.020  13.660 -0.0535 -0.8157  0.4565
  855MPD2    H112559   1.586   3.941  13.333 -2.5964 -0.6448  0.0411
  855MPD2    H212560   1.745   4.064  13.699 -0.0279 -2.8783  0.1458
  855MPD2    H312561   1.780   4.000  13.477 -0.0306 -2.4451 -0.0099
  855MPD2     N12562   1.335   3.942  13.404 -0.3718  0.7091 -0.0690
  855MPD2    H512563   1.371   3.893  13.323 -2.9606  1.5443 -1.7081
  855MPD2    N112564   1.501   4.066  13.829  0.7968  0.2243 -0.6573
  855MPD2    H712565   1.415   4.039  13.875  1.3161  0.1554  0.2983
  856MPD2     C12566   3.317   0.292  13.378 -0.4768  0.5940  0.2805
  856MPD2    C112567   3.345   0.321  13.510 -0.0118 -0.2123  0.5662
  856MPD2    C212568   3.297   0.443  13.569  0.5052  0.5473  0.5035
  856MPD2    C312569   3.229   0.524  13.489 -0.3705 -0.2522 -0.2073
  856MPD2    C412570   3.200   0.498  13.359 -0.3720 -0.3021 -0.6500
  856MPD2    C512571   3.237   0.378  13.305  0.4512 -0.6308 -0.2680
  856MPD2     H12572   3.315   0.463  13.674  3.2026 -0.0004  0.1474
  856MPD2    H112573   3.143   0.569  13.299  1.9094  2.0671  0.0215
  856MPD2    H212574   3.344   0.205  13.320  1.5607  0.6432  1.1793
  856MPD2    H312575   3.203   0.344  13.208 -0.6707 -0.2381 -0.0083
  856MPD2     N12576   3.172   0.638  13.542  0.3901 -0.5170 -0.4792
  856MPD2    H512577   3.108   0.686  13.479 -1.6129 -0.8553  1.3011
  856MPD2    N112578   3.411   0.234  13.596  0.5629 -0.5307  0.6438
  856MPD2    H712579   3.446   0.268  13.685  3.5732 -0.2278 -0.6512
  857MPD2     C12580   4.507   2.277  12.587  0.0969 -0.2377 -0.2954
  857MPD2    C112581   4.632   2.269  12.638  0.8377 -0.5597 -0.9853
  857MPD2    C212582   4.684   2.385  12.687  0.2825  0.5264 -0.0431
  857MPD2    C312583   4.615   2.504  12.676  0.3249 -1.0796 -0.1074
  857MPD2    C412584   4.491   2.513  12.629 -0.2830 -0.1600  0.3982
  857MPD2    C512585   4.435   2.397  12.592  0.1999  0.4765 -0.4054
  857MPD2     H12586   0.063   2.390  12.721  0.2037 -1.2586  0.4540
  857MPD2    H112587   4.427   2.600  12.623 -1.2781 -0.9419 -0.4652
  857MPD2    H212588   4.451   2.189  12.558 -0.9524  0.1519  0.5347
  857MPD2    H312589   4.328   2.395  12.571 -0.1089  0.6979  1.2015
  857MPD2     N12590   4.681   2.622  12.709  0.2753 -0.2056  0.0950
  857MPD2    H512591   0.056   2.613  12.736  0.5507  1.1356 -0.4509
  857MPD2    N112592   4.713   2.152  12.626  0.2966  0.1746  0.0178
  857MPD2    H712593   4.665   2.073  12.586 -1.8776  1.2938  0.4006
  858MPD2     C12594   1.137   1.454  16.682 -0.1573  0.5453 -0.2869
  858MPD2    C112595   1.078   1.414  16.798  0.2501  0.4035  0.3343
  858MPD2    C212596   1.124   1.464  16.918  0.2294 -0.6308 -0.0755
  858MPD2    C312597   1.214   1.571  16.925 -0.9063  0.1541  1.2986
  858MPD2    C412598   1.271   1.613  16.804 -0.4471  0.6362 -0.1743
  858MPD2    C512599   1.228   1.550  16.684  0.1364 -0.6500 -0.0316
  858MPD2     H12600   1.092   1.427  17.014 -1.3443 -0.6608 -0.6089
  858MPD2    H112601   1.352   1.685  16.804 -1.8150  2.1752  0.6079
  858MPD2    H212602   1.121   1.404  16.587  1.7226 -2.3316  0.9065
  858MPD2    H312603   1.281   1.566  16.592 -2.7685 -0.8284 -1.7348
  858MPD2     N12604   1.264   1.632  17.048 -0.3436  0.3519  0.2596
  858MPD2    H512605   1.317   1.717  17.040 -0.9489  0.8516  1.5430
  858MPD2    N112606   0.980   1.310  16.795  0.1146 -1.1166  0.6494
  858MPD2    H712607   0.975   1.248  16.715  0.4972  0.1023 -0.2997
  859MPD2     C12608   4.094   3.219  14.783  0.2385 -0.4265  0.4201
  859MPD2    C112609   4.225   3.272  14.781  0.4450  0.0290  0.5511
  859MPD2    C212610   4.332   3.193  14.788 -0.2581  0.6508  0.4114
  859MPD2    C312611   4.312   3.062  14.820 -0.2656 -0.0122  0.5197
  859MPD2    C412612   4.188   3.012  14.829 -0.6431 -0.5320 -0.0906
  859MPD2    C512613   4.082   3.091  14.813  0.4813 -0.6664 -0.2041
  859MPD2     H12614   4.432   3.234  14.781 -1.1490  2.9256  1.1523
  859MPD2    H112615   4.169   2.907  14.847 -0.4670 -0.4203  0.7096
  859MPD2    H212616   4.017   3.292  14.762  0.4681  0.1240  1.4706
  859MPD2    H312617   3.985   3.044  14.818  0.8674 -1.3364  0.8455
  859MPD2     N12618   4.421   2.969  14.832 -0.0153  0.0509 -0.1342
  859MPD2    H512619   4.400   2.877  14.870 -1.5926 -0.4061 -2.0971
  859MPD2    N112620   4.232   3.412  14.781  0.2635  0.8111  0.1923
  859MPD2    H712621   4.150   3.472  14.786  0.9175  1.7311 -0.1633
  860MPD2     C12622   1.809   4.035  11.904 -0.3279  0.0932  0.1700
  860MPD2    C112623   1.774   4.103  12.018  0.1692 -0.6798  0.6463
  860MPD2    C212624   1.643   4.111  12.057  0.6149  0.5200 -0.2179
  860MPD2    C312625   1.542   4.066  11.977 -0.7184 -0.0614  0.3640
  860MPD2    C412626   1.581   4.005  11.861  0.5140 -0.0211  0.0578
  860MPD2    C512627   1.711   3.989  11.827 -0.1391 -0.1942  0.1483
  860MPD2     H12628   1.610   4.169  12.142 -0.9112  0.1795 -0.5768
  860MPD2    H112629   1.511   3.969  11.786  1.4457  0.6765 -1.1540
  860MPD2    H212630   1.910   4.018  11.868 -0.3135  0.6135 -0.0367
  860MPD2    H312631   1.722   3.940  11.731  2.7910  1.4573 -0.3626
  860MPD2     N12632   1.412   4.068  12.028  0.3799 -0.1199  0.0287
  860MPD2    H512633   1.399   4.130  12.107  3.3991  0.5130  0.0474
  860MPD2    N112634   1.872   4.149  12.109 -0.3201  0.2225 -0.1760
  860MPD2    H712635   1.843   4.172  12.204 -0.4012  0.0790 -0.1644
  861MPD2     C12636   0.734   2.669  10.697 -0.5245 -0.6641  0.0215
  861MPD2    C112637   0.650   2.591  10.773  0.6666 -0.3492 -0.2013
  861MPD2    C212638   0.525   2.574  10.726  0.1389  0.0666 -0.3131
  861MPD2    C312639   0.475   2.630  10.609 -0.2549 -0.0390 -0.0251
  861MPD2    C412640   0.565   2.711  10.543  0.1741  0.0636 -0.2853
  861MPD2    C512641   0.692   2.738  10.589  0.9202  0.3592 -0.2673
  861MPD2     H12642   0.459   2.506  10.779 -0.0841 -0.7023 -1.5915
  861MPD2    H112643   0.536   2.752  10.447  1.1794 -0.4490 -0.8105
  861MPD2    H212644   0.836   2.676  10.733 -0.8967 -1.6498  1.2769
  861MPD2    H312645   0.753   2.809  10.535  0.5312  0.5907 -0.4014
  861MPD2     N12646   0.344   2.615  10.558 -0.2297 -0.1019 -0.1143
  861MPD2    H512647   0.315   2.680  10.486 -0.0629 -0.8381 -0.8468
  861MPD2    N112648   0.690   2.540  10.900  0.4885  0.0136  0.2231
  861MPD2    H712649   0.610   2.492  10.941  0.8990  0.8964  2.0403
  862MPD2     C12650   4.347   2.665  10.213 -0.3741  0.5060 -1.0790
  862MPD2    C112651   4.484   2.655  10.242  0.1928 -0.5120  0.4720
  862MPD2    C212652   4.516   2.534  10.306  0.4243  0.0681  0.1193
  862MPD2    C312653   4.420   2.447  10.352  0.7871  0.0281 -1.3902
  862MPD2    C412654   4.289   2.467  10.320 -0.2334 -0.0882 -1.0492
  862MPD2    C512655   4.249   2.577  10.245  0.4131 -1.0008 -0.3498
  862MPD2     H12656   4.622   2.520  10.324  0.2123 -2.8836 -0.8205
  862MPD2    H112657   4.214   2.392  10.343 -1.1254  0.9414 -0.6129
  862MPD2    H212658   4.310   2.750  10.157  0.6923  3.3775  2.5092
  862MPD2    H312659   4.145   2.570  10.216  0.3551 -0.4243 -0.2765
  862MPD2     N12660   4.458   2.323  10.416  0.0532 -0.6652  0.2936
  862MPD2    H512661   4.376   2.271  10.444 -0.5849  0.3418  0.2812
  862MPD2    N112662   4.574   2.762  10.219 -0.0931 -0.4403  0.0311
  862MPD2    H712663   4.542   2.840  10.164  0.5335  0.9692  1.6709
  863MPD2     C12664   4.168   0.388  16.959  0.0908 -0.2129 -0.2068
  863MPD2    C112665   4.184   0.524  16.960  0.2252  0.8688 -0.4015
  863MPD2    C212666   4.229   0.582  17.072  0.1031 -1.1866 -0.2169
  863MPD2    C312667   4.253   0.503  17.189  0.2894 -0.0768  0.2823
  863MPD2    C412668   4.219   0.368  17.187  0.3147 -0.4996 -0.0330
  863MPD2    C512669   4.176   0.308  17.065 -1.1441  0.7833  0.0981
  863MPD2     H12670   4.256   0.687  17.063 -1.1741 -1.0911 -3.1458
  863MPD2    H112671   4.227   0.302  17.273 -1.6184 -1.5410 -0.6424
  863MPD2    H212672   4.114   0.343  16.876  0.8730 -0.9752 -0.2952
  863MPD2    H312673   4.128   0.211  17.057  0.0155  0.1048  1.5041
  863MPD2     N12674   4.325   0.539  17.303  0.0710 -0.5412  0.4150
  863MPD2    H512675   4.355   0.470  17.371 -0.5529  0.1881  1.4233
  863MPD2    N112676   4.146   0.593  16.848  0.1463  0.3480 -0.0394
  863MPD2    H712677   4.117   0.546  16.763 -1.1890 -1.3238  1.3454
  864MPD2     C12678   0.054   2.312  17.619  0.1796  0.1417 -0.2755
  864MPD2    C112679   0.116   2.242  17.522 -0.1360  0.3955 -0.2537
  864MPD2    C212680   0.146   2.301  17.407  0.5009  0.2224  0.2604
  864MPD2    C312681   0.116   2.438  17.387  0.4325 -0.1038  0.1687
  864MPD2    C412682   0.061   2.511  17.491  0.1177 -0.1479  0.6455
  864MPD2    C512683   0.026   2.443  17.605  0.1627  0.1714 -0.3019
  864MPD2     H12684   0.176   2.239  17.323 -1.4796  1.6686 -1.4944
  864MPD2    H112685   0.030   2.614  17.489  0.8228  0.0468 -0.2888
  864MPD2    H212686   0.024   2.267   0.019  2.7260 -0.6036  0.1563
  864MPD2    H312687   4.709   2.495  17.690  1.0154 -1.7679  1.2887
  864MPD2     N12688   0.145   2.508  17.266 -0.8275 -0.7053  0.7986
  864MPD2    H512689   0.116   2.605  17.254  0.8160 -0.4729 -1.3072
  864MPD2    N112690   0.135   2.102  17.539  0.0665  0.0259  0.2076
  864MPD2    H712691   0.082   2.060  17.615  0.4221  1.3777  1.1892
  865MPD2     C12692   0.048   2.579  16.365  1.1295 -0.1711 -0.3022
  865MPD2    C112693   0.093   2.522  16.479  0.7105  0.3643 -0.2542
  865MPD2    C212694   0.054   2.581  16.601 -0.0216  0.7713 -0.1245
  865MPD2    C312695   0.013   2.710  16.604 -0.3795 -0.6327 -0.1172
  865MPD2    C412696   4.707   2.771  16.483  0.6041 -0.5352  0.3955
  865MPD2    C512697   4.720   2.705  16.368 -0.1541 -0.1811 -0.2894
  865MPD2     H12698   0.048   2.522  16.692 -0.0099  0.6487 -0.2033
  865MPD2    H112699   4.674   2.874  16.473  2.0261 -0.0133  1.1746
  865MPD2    H212700   0.054   2.537  16.265 -0.2331  0.4707 -0.6504
  865MPD2    H312701   4.677   2.749  16.279 -0.0997 -3.4979 -1.9670
  865MPD2     N12702   4.717   2.785  16.723 -0.1630  0.1628  0.8489
  865MPD2    H512703   4.661   2.869  16.707 -2.3564 -1.5774 -0.7459
  865MPD2    N112704   0.140   2.388  16.458  1.0624 -0.0975  0.0520
  865MPD2    H712705   0.163   2.366  16.361 -1.1061 -0.3563 -0.4127
  866MPD2     C12706   1.131   2.917  11.097  0.5533 -0.2873 -0.1809
  866MPD2    C112707   1.074   2.865  10.980  0.2294 -0.1400 -0.4827
  866MPD2    C212708   0.942   2.896  10.950  0.4557 -0.6924 -0.2338
  866MPD2    C312709   0.870   2.981  11.035  0.0790 -0.0844  0.1996
  866MPD2    C412710   0.933   3.025  11.152  0.1750  0.8614  0.1222
  866MPD2    C512711   1.065   3.002  11.177 -0.0943  0.8034 -0.3676
  866MPD2     H12712   0.904   2.846  10.861  0.7415 -0.1999 -0.6270
  866MPD2    H112713   0.883   3.089  11.225  1.1775  1.1646  0.5509
  866MPD2    H212714   1.227   2.890  11.138  0.3672  0.6808  0.9005
  866MPD2    H312715   1.105   3.047  11.267  1.2454 -0.1864 -0.4763
  866MPD2     N12716   0.738   3.027  10.999  0.1936  0.3242 -0.1299
  866MPD2    H512717   0.681   3.066  11.074 -0.0419  1.5207 -0.9319
  866MPD2    N112718   1.146   2.779  10.896 -0.2496 -0.0902 -0.7694
  866MPD2    H712719   1.101   2.732  10.818 -1.6937  1.1464 -0.6822
  867MPD2     C12720   3.446   2.087  16.783 -0.4351 -0.3655 -0.3505
  867MPD2    C112721   3.408   2.020  16.896  0.0618  0.0353 -0.2318
  867MPD2    C212722   3.323   2.084  16.985 -0.6582 -0.0725  0.6168
  867MPD2    C312723   3.270   2.203  16.963 -0.1704  0.7694  0.6645
  867MPD2    C412724   3.297   2.262  16.846  0.6653 -0.0430  0.1496
  867MPD2    C512725   3.388   2.208  16.759 -0.3138 -0.4147  0.0774
  867MPD2     H12726   3.308   2.036  17.081 -4.9594 -0.0126 -0.0264
  867MPD2    H112727   3.245   2.353  16.820 -1.3537 -0.6396  2.1671
  867MPD2    H212728   3.512   2.048  16.707  0.0772  1.9805 -1.1125
  867MPD2    H312729   3.403   2.253  16.662 -0.7562 -0.3075  0.0575
  867MPD2     N12730   3.200   2.274  17.074  0.4669 -0.0852  0.2118
  867MPD2    H512731   3.193   2.374  17.059  2.3332  0.3506  2.2548
  867MPD2    N112732   3.478   1.897  16.924 -0.4855 -0.9129  0.1287
  867MPD2    H712733   3.542   1.865  16.853  1.4668 -0.8062  1.8440
  868MPD2     C12734   0.200   0.397  13.211 -0.0808  0.1255 -0.7728
  868MPD2    C112735   0.258   0.517  13.194  0.2964  0.7507 -0.2236
  868MPD2    C212736   0.179   0.625  13.205  0.8491  0.1583 -1.0052
  868MPD2    C312737   0.043   0.625  13.232  0.0201 -0.5552 -0.4411
  868MPD2    C412738   4.713   0.501  13.217  0.2199 -0.2450  0.7856
  868MPD2    C512739   0.070   0.392  13.209  0.6311 -0.0262  0.9456
  868MPD2     H12740   0.231   0.720  13.198  1.4224 -0.0839  0.0336
  868MPD2    H112741   4.610   0.477  13.242 -0.0568  2.0752  1.8633
  868MPD2    H212742   0.260   0.306  13.208  1.7657  1.3537 -0.7825
  868MPD2    H312743   0.024   0.294  13.208 -0.7893  0.6349  2.4210
  868MPD2     N12744   4.689   0.738  13.268 -0.3603 -0.0686 -0.0268
  868MPD2    H512745   0.025   0.817  13.290 -1.2101  0.2952  0.9427
  868MPD2    N112746   0.395   0.511  13.169 -0.4841  0.3149 -0.0214
  868MPD2    H712747   0.432   0.418  13.152 -0.7470  0.7385 -2.8489
  869MPD2     C12748   2.407   3.798   2.103  0.1075 -0.1889  0.2047
  869MPD2    C112749   2.272   3.780   2.095  0.7504  0.2202 -0.4497
  869MPD2    C212750   2.191   3.848   2.012 -0.2990 -0.5788 -0.3678
  869MPD2    C312751   2.246   3.933   1.910 -0.1807  0.3066 -0.0875
  869MPD2    C412752   2.379   3.947   1.906 -0.0788 -0.8548 -0.4982
  869MPD2    C512753   2.456   3.892   2.007 -0.2691 -0.0856 -0.1394
  869MPD2     H12754   2.084   3.836   2.010 -0.2147 -1.3715  0.0421
  869MPD2    H112755   2.423   4.020   1.839 -0.1204  0.9087  1.4114
  869MPD2    H212756   2.470   3.759   2.182  1.2712 -1.1827 -1.2269
  869MPD2    H312757   2.560   3.922   2.003 -0.2630  0.1971  2.4414
  869MPD2     N12758   2.169   3.984   1.799  0.4156 -0.3558 -0.7033
  869MPD2    H512759   2.217   4.047   1.735 -0.9116  0.4847 -0.8848
  869MPD2    N112760   2.216   3.694   2.196  0.5778 -0.5829  0.2801
  869MPD2    H712761   2.289   3.668   2.262  0.5977 -1.1986  0.0150
  870MPD2     C12762   1.628   2.795   2.097  0.4776 -0.4974 -0.3522
  870MPD2    C112763   1.572   2.676   2.072 -0.0903 -0.1315 -0.5660
  870MPD2    C212764   1.442   2.675   2.031  0.0059  0.7084  0.5457
  870MPD2    C312765   1.384   2.788   1.981  1.0922 -0.1077 -0.0968
  870MPD2    C412766   1.451   2.907   1.994  0.0336 -0.4905  0.1298
  870MPD2    C512767   1.568   2.909   2.062 -0.1126  0.3112  1.3613
  870MPD2     H12768   1.385   2.584   2.016  1.5008  0.0435 -1.0626
  870MPD2    H112769   1.411   3.003   1.962 -0.2537 -1.0952 -1.3444
  870MPD2    H212770   1.727   2.798   2.143  0.4883 -1.2704 -0.3143
  870MPD2    H312771   1.624   3.002   2.075  1.2385 -0.0018 -2.1700
  870MPD2     N12772   1.265   2.769   1.903  0.0235  0.1446 -0.1087
  870MPD2    H512773   1.232   2.675   1.888  1.7172 -0.6117  0.9232
  870MPD2    N112774   1.644   2.565   2.120  0.0966 -0.3514 -0.7653
  870MPD2    H712775   1.742   2.580   2.143  0.0060 -1.3232  0.2412
  871MPD2     C12776   2.297   1.719  16.503  0.6430 -0.1471  0.3906
  871MPD2    C112777   2.309   1.668  16.631 -0.0478  0.1392  1.4014
  871MPD2    C212778   2.286   1.534  16.646 -0.2130  0.5649 -0.3604
  871MPD2    C312779   2.276   1.450  16.536 -0.6229  0.3643 -0.3824
  871MPD2    C412780   2.278   1.501  16.405 -0.0882 -0.1151 -0.5776
  871MPD2    C512781   2.285   1.641  16.393 -0.2236 -0.0261  0.6594
  871MPD2     H12782   2.281   1.489  16.745 -0.6953  3.9852  1.1820
  871MPD2    H112783   2.264   1.444  16.314  3.5440 -1.6444 -0.1758
  871MPD2    H212784   2.315   1.823  16.476  1.3918  0.0643  1.7080
  871MPD2    H312785   2.288   1.685  16.294  0.4908 -0.2449  0.5857
  871MPD2     N12786   2.252   1.323  16.574  0.1821 -0.8448 -0.3142
  871MPD2    H512787   2.253   1.298  16.673  3.5778  1.2066  0.2126
  871MPD2    N112788   2.322   1.761  16.732 -0.7638 -0.2343  0.0167
  871MPD2    H712789   2.360   1.851  16.706  1.6366 -1.2602 -0.0247
  872MPD2     C12790   3.160   3.932  14.409  0.6600 -0.2981  0.0750
  872MPD2    C112791   3.128   3.989  14.288 -0.0183  0.2926  0.1579
  872MPD2    C212792   2.995   4.016  14.258 -0.3851  0.3729  0.3401
  872MPD2    C312793   2.893   3.979  14.350 -0.3420 -0.4559  0.0829
  872MPD2    C412794   2.926   3.920  14.469  0.1335 -0.1676 -0.4242
  872MPD2    C512795   3.057   3.883  14.492 -0.1651 -0.5223  0.3978
  872MPD2     H12796   2.976   4.086  14.177 -1.5835 -1.7210 -1.1804
  872MPD2    H112797   2.851   3.893  14.542  0.3526  1.0007  0.2213
  872MPD2    H212798   3.258   3.895  14.438  0.2886 -1.3194  0.0464
  872MPD2    H312799   3.090   3.809  14.563  0.9600 -1.0531 -0.6672
  872MPD2     N12800   2.753   4.009  14.335  0.0608 -0.1735 -1.2487
  872MPD2    H512801   2.704   3.986  14.421 -0.2948  2.3990 -0.7497
  872MPD2    N112802   3.226   4.033  14.189  0.0212  0.0982 -0.2940
  872MPD2    H712803   3.187   4.075  14.105 -0.2853 -1.1099 -0.7595
  873MPD2     C12804   0.761   4.547   1.288 -0.4131  0.1873 -0.4702
  873MPD2    C112805   0.625   4.528   1.312 -0.7190  0.5552 -0.3365
  873MPD2    C212806   0.575   4.407   1.266  0.4588 -0.0480  0.4594
  873MPD2    C312807   0.653   4.297   1.228 -0.1898 -0.1104 -0.1072
  873MPD2    C412808   0.788   4.319   1.214  0.1744  0.3515  0.8776
  873MPD2    C512809   0.842   4.446   1.243  0.2823  0.0936 -0.1456
  873MPD2     H12810   0.467   4.397   1.267  0.6344 -1.7067  2.1773
  873MPD2    H112811   0.858   4.244   1.178  0.5007  0.7728  0.6376
  873MPD2    H212812   0.805   4.646   1.299  1.8139 -0.7685 -0.6729
  873MPD2    H312813   0.948   4.468   1.243  0.3352 -0.1484  0.1327
  873MPD2     N12814   0.610   4.165   1.198 -0.3764 -0.5151 -0.2206
  873MPD2    H512815   0.682   4.102   1.164 -0.4230 -0.0781 -1.1278
  873MPD2    N112816   0.548   4.629   1.377  0.1121  0.0392 -0.1758
  873MPD2    H712817   0.592   4.700   1.434  0.8356 -1.2242  0.8484
  874MPD2     C12818   4.407   4.057  15.977 -0.0043  0.1118  0.4072
  874MPD2    C112819   4.522   3.995  16.023  0.5592  0.8754  0.3103
  874MPD2    C212820   4.651   4.053  16.016  0.2545 -0.1335  0.2573
  874MPD2    C312821   4.660   4.188  15.994  0.0662 -0.2158  0.2231
  874MPD2    C412822   4.549   4.259  15.958 -0.1759  0.3916  0.4336
  874MPD2    C512823   4.426   4.194  15.947 -0.0967 -0.5960 -0.3448
  874MPD2     H12824   0.012   3.990  16.044  0.2192 -0.5605 -0.5740
  874MPD2    H112825   4.555   4.360  15.917  1.0750 -0.2394 -0.9369
  874MPD2    H212826   4.311   4.007  15.978 -0.7464  1.5793  1.8205
  874MPD2    H312827   4.337   4.249  15.920  0.5712  0.5183 -0.2701
  874MPD2     N12828   0.064   4.250  16.010 -0.3792 -0.6214  0.2381
  874MPD2    H512829   0.140   4.185  16.027 -0.5772 -1.3759 -1.7175
  874MPD2    N112830   4.493   3.863  16.078 -0.9266  0.2730  0.2645
  874MPD2    H712831   4.395   3.837  16.079 -0.1925 -2.4931  1.3452
  875MPD2     C12832   1.008   2.787  14.634  0.6689  0.3240  0.2135
  875MPD2    C112833   0.902   2.880  14.626 -0.4098 -0.4656 -0.6814
  875MPD2    C212834   0.892   2.972  14.729 -0.8343  0.7258  0.9932
  875MPD2    C312835   0.998   2.986  14.821 -0.1972 -0.3376  0.1509
  875MPD2    C412836   1.107   2.902  14.815 -0.1812 -0.0401 -0.0135
  875MPD2    C512837   1.108   2.801  14.722  0.6078  0.2071  0.1071
  875MPD2     H12838   0.809   3.041  14.733 -1.5441 -0.0727 -0.0339
  875MPD2    H112839   1.182   2.898  14.893 -0.5171 -1.7532  0.2060
  875MPD2    H212840   1.005   2.707  14.561 -1.8353 -1.2594  2.0636
  875MPD2    H312841   1.192   2.734  14.734 -0.5170 -1.2333 -0.0843
  875MPD2     N12842   1.008   3.084  14.920  0.0040  0.3662  0.1121
  875MPD2    H512843   1.080   3.079  14.991  0.5173 -0.1668 -0.4359
  875MPD2    N112844   0.797   2.865  14.539 -0.1986  0.2786  0.0627
  875MPD2    H712845   0.718   2.923  14.566  1.8423  2.3327  1.5933
  876MPD2     C12846   4.179   3.649  15.126  0.7970 -0.0153  0.7466
  876MPD2    C112847   4.256   3.713  15.221  0.4883 -0.6128  0.5179
  876MPD2    C212848   4.305   3.634  15.326 -0.1167 -0.3303  0.1094
  876MPD2    C312849   4.262   3.504  15.345  0.2677 -0.7706  0.2753
  876MPD2    C412850   4.191   3.440  15.241 -0.8113 -0.5010 -0.3302
  876MPD2    C512851   4.157   3.513  15.132 -0.5567  0.4606  0.1708
  876MPD2     H12852   4.355   3.681  15.411 -1.3220  2.0296 -0.4913
  876MPD2    H112853   4.160   3.337  15.243  0.2443 -0.7655  2.3071
  876MPD2    H212854   4.150   3.700  15.034  0.7021 -0.3565  0.5888
  876MPD2    H312855   4.104   3.458  15.055  1.2112 -1.4910  0.3856
  876MPD2     N12856   4.326   3.443  15.451 -0.3130  0.4242 -0.0152
  876MPD2    H512857   4.400   3.502  15.488  1.0869 -1.4486  0.2010
  876MPD2    N112858   4.314   3.846  15.197  0.0039 -0.3154 -0.0306
  876MPD2    H712859   4.267   3.887  15.116 -0.1553 -2.5730 -1.0983
  877MPD2     C12860   4.172   4.329  14.696 -0.2398  0.2513  0.3291
  877MPD2    C112861   4.295   4.365  14.744  0.4555 -0.2574  0.4083
  877MPD2    C212862   4.377   4.445  14.666  0.0363  1.0470 -0.1230
  877MPD2    C312863   4.356   4.468  14.535 -0.5894  1.0203  0.2026
  877MPD2    C412864   4.235   4.423  14.490  1.0193  1.0029 -0.2076
  877MPD2    C512865   4.141   4.363  14.570 -0.2199 -0.5865  0.1161
  877MPD2     H12866   4.464   4.490  14.712 -0.8366 -0.3457  2.8988
  877MPD2    H112867   4.206   4.432  14.386 -2.0502 -0.8997  0.4878
  877MPD2    H212868   4.089   4.283  14.748  0.8956 -3.8694 -1.5257
  877MPD2    H312869   4.054   4.316  14.525 -0.8488  2.3295 -1.6658
  877MPD2     N12870   4.448   4.526  14.445 -0.1833 -0.9063  0.6468
  877MPD2    H512871   4.441   4.489  14.351  0.4617  0.3710  0.0867
  877MPD2    N112872   4.341   4.340  14.874 -0.1857  0.5170 -0.0868
  877MPD2    H712873   4.436   4.371  14.894  0.4454 -0.9187 -0.8675
  878MPD2     C12874   4.017   3.569  12.926  0.0068  0.6642  0.9554
  878MPD2    C112875   4.108   3.658  12.991 -0.2538  0.4963  0.0122
  878MPD2    C212876   4.154   3.629  13.114  0.7310  0.1020 -0.6641
  878MPD2    C312877   4.097   3.528  13.189  0.1421  0.5282  1.3624
  878MPD2    C412878   3.990   3.459  13.133 -0.1801 -0.5015  0.5412
  878MPD2    C512879   3.960   3.470  13.004  0.2899 -0.6385 -1.1504
  878MPD2     H12880   4.233   3.691  13.155  0.4665  0.3089 -0.4645
  878MPD2    H112881   3.959   3.370  13.188  0.4321  0.5371  2.5596
  878MPD2    H212882   3.997   3.587  12.821  0.2393  0.7162  0.9191
  878MPD2    H312883   3.890   3.404  12.954  0.0821 -1.2651 -0.0374
  878MPD2     N12884   4.152   3.499  13.315  0.7800  0.2030 -0.4213
  878MPD2    H512885   4.239   3.542  13.346  0.4259  0.6712 -0.0862
  878MPD2    N112886   4.147   3.776  12.922 -0.0008  0.1234 -0.8472
  878MPD2    H712887   4.103   3.790  12.832  0.5707 -1.1717 -1.3375
  879MPD2     C12888   0.332   0.766  17.222 -0.0123 -0.4377 -0.1693
  879MPD2    C112889   0.256   0.718  17.326 -0.0998  0.1506  0.1307
  879MPD2    C212890   0.152   0.621  17.309  0.2260  0.1261 -0.7631
  879MPD2    C312891   0.134   0.572  17.179 -0.2840  0.4963  0.4397
  879MPD2    C412892   0.218   0.618  17.079 -0.4305  0.7862  0.2822
  879MPD2    C512893   0.319   0.709  17.093  0.3193 -0.3013 -0.3500
  879MPD2     H12894   0.093   0.588  17.394 -0.5416  2.3925 -0.4180
  879MPD2    H112895   0.202   0.566  16.985  1.3424  0.2456  0.2760
  879MPD2    H212896   0.402   0.846  17.247 -0.5377  0.2930 -1.0381
  879MPD2    H312897   0.361   0.749  17.001 -2.0180  2.7530 -0.0803
  879MPD2     N12898   0.041   0.470  17.144 -0.0963 -0.1813  0.0334
  879MPD2    H512899   0.042   0.450  17.044 -0.2192  0.5029 -0.1070
  879MPD2    N112900   0.292   0.770  17.452 -0.0562 -0.7447 -0.5051
  879MPD2    H712901   0.365   0.839  17.461  0.7950 -1.8244  0.8012
  880MPD2     C12902   1.534   2.004   1.417  0.1628  0.8618  0.3774
  880MPD2    C112903   1.549   1.962   1.286  0.5520 -0.0231 -0.0723
  880MPD2    C212904   1.573   1.829   1.274 -0.2017 -0.2082  0.2110
  880MPD2    C312905   1.589   1.741   1.388 -0.0250 -0.5435 -0.8515
  880MPD2    C412906   1.598   1.799   1.515  0.2703  0.1343 -0.0692
  880MPD2    C512907   1.566   1.924   1.527  0.2804 -0.5032  0.0905
  880MPD2     H12908   1.569   1.787   1.174 -1.9747 -0.6089  0.4527
  880MPD2    H112909   1.636   1.757   1.608  0.7400  4.0217  1.4787
  880MPD2    H212910   1.508   2.108   1.434 -0.2888  0.9103 -0.6383
  880MPD2    H312911   1.557   1.962   1.629 -2.7270  0.5490 -0.5614
  880MPD2     N12912   1.601   1.603   1.366  0.3797  0.2021  0.2582
  880MPD2    H512913   1.567   1.569   1.277  0.0476  0.8247  0.1507
  880MPD2    N112914   1.521   2.053   1.182 -0.0437 -0.5265  0.3408
  880MPD2    H712915   1.501   2.149   1.208  0.9015 -0.0256 -0.7872
  881MPD2     C12916   1.766   2.648   0.389 -1.2042 -0.4178  0.0810
  881MPD2    C112917   1.725   2.528   0.340 -0.3665 -0.2610  0.2502
  881MPD2    C212918   1.648   2.457   0.432  0.2516  0.4166 -0.6049
  881MPD2    C312919   1.636   2.501   0.560  1.0138  0.5690 -0.1451
  881MPD2    C412920   1.706   2.607   0.608  0.3589 -0.1509  0.0052
  881MPD2    C512921   1.764   2.686   0.517  0.2378 -0.3895  0.0359
  881MPD2     H12922   1.602   2.361   0.407  1.7457  0.0296 -1.8480
  881MPD2    H112923   1.705   2.634   0.713  3.3695  0.2123 -0.0520
  881MPD2    H212924   1.821   2.712   0.320 -1.6751 -0.4013 -0.2832
  881MPD2    H312925   1.791   2.783   0.560 -1.8044  1.6573 -3.3452
  881MPD2     N12926   1.551   2.437   0.656  0.2349 -0.2098 -0.0163
  881MPD2    H512927   1.554   2.481   0.748  2.3746 -0.9685  0.2937
  881MPD2    N112928   1.725   2.510   0.206  0.7807  0.2232  0.5382
  881MPD2    H712929   1.764   2.584   0.148 -1.4681 -0.0178 -1.2885
  882MPD2     C12930   4.576   4.099  13.904 -0.2438 -0.3099 -0.4792
  882MPD2    C112931   4.519   4.182  14.000 -0.1643  1.3361  0.0690
  882MPD2    C212932   4.405   4.138  14.069  0.2085  0.3510  0.4974
  882MPD2    C312933   4.344   4.016  14.045 -0.3679 -0.0959  0.2424
  882MPD2    C412934   4.410   3.935  13.949  0.3175  0.5437 -0.2899
  882MPD2    C512935   4.513   3.980  13.873  0.3295  0.3007 -0.2266
  882MPD2     H12936   4.378   4.205  14.150 -2.1449  0.6852 -0.5745
  882MPD2    H112937   4.360   3.845  13.916 -0.0168 -0.3518  2.6922
  882MPD2    H212938   4.676   4.121  13.869  0.3745 -0.8031  0.9798
  882MPD2    H312939   4.564   3.910  13.807  0.5851  0.6444 -0.3956
  882MPD2     N12940   4.218   3.978  14.093  0.9951 -0.4405 -0.3501
  882MPD2    H512941   4.182   3.888  14.061 -0.5080 -0.4550  1.4000
  882MPD2    N112942   4.600   4.301  14.026 -0.6190  0.9243 -0.0998
  882MPD2    H712943   4.686   4.312  13.973 -0.1673  0.0942  0.4583
  883MPD2     C12944   1.900   4.134  16.807  0.3392  0.6768 -0.0651
  883MPD2    C112945   1.971   4.086  16.698 -0.3502  0.5315  0.1406
  883MPD2    C212946   2.106   4.045  16.711 -0.1228  0.1787  0.1597
  883MPD2    C312947   2.164   4.042  16.834 -0.1779  0.1760 -0.5071
  883MPD2    C412948   2.095   4.088  16.946 -0.2950 -0.0387  0.6264
  883MPD2    C512949   1.966   4.130  16.925  0.1163 -0.2244 -0.3195
  883MPD2     H12950   2.153   3.999  16.625  1.8148  2.0016  0.2428
  883MPD2    H112951   2.133   4.082  17.048 -1.9436  0.9859  1.3012
  883MPD2    H212952   1.800   4.177  16.807  0.4786  0.9931 -0.1228
  883MPD2    H312953   1.920   4.176  17.011 -0.1781  2.8892 -2.1445
  883MPD2     N12954   2.298   3.988  16.844  0.1992 -0.5691  0.1923
  883MPD2    H512955   2.339   3.953  16.758 -1.1770  0.1437 -0.7523
  883MPD2    N112956   1.920   4.073  16.569 -0.2279  0.1636 -0.1662
  883MPD2    H712957   1.979   4.031  16.498 -0.9190 -3.3004  1.2939
  884MPD2     C12958   3.641   0.067  15.445  0.0236 -0.3782  0.3545
  884MPD2    C112959   3.652   0.206  15.464  0.7018 -0.3563  0.2380
  884MPD2    C212960   3.531   0.279  15.458  0.4015  0.1665  0.2942
  884MPD2    C312961   3.413   0.219  15.449  0.0287 -0.6015  0.4901
  884MPD2    C412962   3.402   0.081  15.439 -0.0116 -0.4898  0.6064
  884MPD2    C512963   3.517   0.009  15.441  0.0369 -0.7845 -0.2952
  884MPD2     H12964   3.530   0.387  15.457 -0.6200  0.1487 -0.7497
  884MPD2    H112965   3.309   0.027  15.430 -0.7356  0.8105  0.2544
  884MPD2    H212966   3.730   0.006  15.432 -0.2268 -0.3970 -1.3256
  884MPD2    H312967   3.512   4.625  15.424  0.7520 -1.2491  2.4040
  884MPD2     N12968   3.303   0.305  15.450  0.3735  0.0233 -0.2607
  884MPD2    H512969   3.325   0.404  15.455  1.2242 -0.1791  0.0552
  884MPD2    N112970   3.772   0.282  15.453 -0.1245 -0.0579 -0.1594
  884MPD2    H712971   3.773   0.383  15.452 -0.4203 -0.0480  0.5127
  885MPD2     C12972   2.391   0.623   0.444  0.3607  0.4588  0.1088
  885MPD2    C112973   2.453   0.518   0.384 -0.0166  0.2298 -0.5224
  885MPD2    C212974   2.427   0.494   0.251 -0.1392  0.6130 -0.5701
  885MPD2    C312975   2.321   0.557   0.182 -0.1160  0.3583  0.0866
  885MPD2    C412976   2.248   0.656   0.249 -0.2351  0.5850  0.0045
  885MPD2    C512977   2.286   0.683   0.377  0.7895 -0.0115 -1.1316
  885MPD2     H12978   2.478   0.418   0.193 -1.2104 -0.2317 -0.4059
  885MPD2    H112979   2.168   0.712   0.202 -1.6457 -2.0404 -0.7545
  885MPD2    H212980   2.399   0.631   0.552 -0.4136  2.1905  0.0281
  885MPD2    H312981   2.222   0.747   0.437  2.0451 -1.4545  1.7363
  885MPD2     N12982   2.303   0.523   0.041 -0.1639 -0.2712  0.1392
  885MPD2    H512983   2.351   0.436   0.021  1.4254  0.9734 -1.4700
  885MPD2    N112984   2.547   0.443   0.473 -0.1649 -0.2601 -0.8414
  885MPD2    H712985   2.576   0.483   0.562 -0.1216 -1.1696 -0.4473
  886MPD2     C12986   2.839   3.606  15.105 -0.7268 -0.4686 -0.8163
  886MPD2    C112987   2.977   3.596  15.127  0.2496 -0.4032 -0.4691
  886MPD2    C212988   3.068   3.685  15.077 -0.4749  0.6917  0.7362
  886MPD2    C312989   3.024   3.787  14.992  0.0151 -0.0932 -0.4082
  886MPD2    C412990   2.884   3.795  14.968  0.0622 -0.8763 -0.2489
  886MPD2    C512991   2.795   3.715  15.033 -0.0632  0.0297 -0.5758
  886MPD2     H12992   3.175   3.666  15.083 -0.3321  1.3985  0.4797
  886MPD2    H112993   2.840   3.869  14.902  0.3291 -0.6887 -0.2179
  886MPD2    H212994   2.764   3.542  15.151 -1.5696 -0.3151 -2.0014
  886MPD2    H312995   2.691   3.731  15.005  0.0214 -0.2111 -1.0398
  886MPD2     N12996   3.119   3.872  14.926 -0.0123  0.7040  0.6749
  886MPD2    H512997   3.217   3.855  14.944 -0.2127 -0.9612  0.1983
  886MPD2    N112998   3.027   3.481  15.193 -0.2552 -0.1129  0.5879
  886MPD2    H712999   3.127   3.463  15.203 -0.3618 -1.0540 -0.0989
  887MPD2     C13000   3.646   3.198  15.409  0.4666 -0.9124 -0.3541
  887MPD2    C113001   3.555   3.287  15.371  0.5175  0.1757 -0.0712
  887MPD2    C213002   3.603   3.409  15.321 -0.3741 -0.8504  0.4425
  887MPD2    C313003   3.733   3.455  15.351  0.6158  0.1864  0.1578
  887MPD2    C413004   3.821   3.361  15.395 -0.1436 -0.2540  0.2874
  887MPD2    C513005   3.772   3.232  15.418 -0.3559  0.3563 -0.3165
  887MPD2     H13006   3.540   3.486  15.279 -0.5891 -1.0892  0.3267
  887MPD2    H113007   3.923   3.393  15.412 -0.4816  1.7531 -1.5095
  887MPD2    H213008   3.629   3.091  15.416  0.5349 -0.7804  1.9104
  887MPD2    H313009   3.834   3.152  15.456 -0.1325  0.6750 -0.0102
  887MPD2     N13010   3.766   3.586  15.315 -0.2525  0.0058  0.1885
  887MPD2    H513011   3.695   3.644  15.270 -0.0954  1.1756  1.4295
  887MPD2    N113012   3.417   3.259  15.354  0.0185 -1.0201  0.0811
  887MPD2    H713013   3.363   3.337  15.319 -0.1084 -1.2960 -0.3282
  888MPD2     C13014   0.969   4.096  14.797 -0.6600 -0.1990  0.0913
  888MPD2    C113015   0.919   4.174  14.901 -0.1812 -0.1402 -0.2152
  888MPD2    C213016   0.981   4.303  14.927  0.2086 -0.3858 -0.2980
  888MPD2    C313017   1.096   4.338  14.855 -1.0439 -0.0029  0.4983
  888MPD2    C413018   1.131   4.263  14.737 -0.3402  0.3391  0.7501
  888MPD2    C513019   1.060   4.149  14.710  0.4267  1.1653  0.5723
  888MPD2     H13020   0.964   4.365  15.014 -0.0643 -2.0090  0.8206
  888MPD2    H113021   1.207   4.281  14.662 -2.0743 -1.8395 -1.5913
  888MPD2    H213022   0.923   4.004  14.762  0.1807 -0.5309 -0.1331
  888MPD2    H313023   1.076   4.093  14.619 -1.3263 -1.0335  1.6289
  888MPD2     N13024   1.166   4.448  14.896  0.3894  0.2201  0.3785
  888MPD2    H513025   1.132   4.493  14.980 -1.8658  0.1214 -0.4810
  888MPD2    N113026   0.818   4.120  14.986 -0.2595  0.4077  0.1375
  888MPD2    H713027   0.803   4.175  15.070 -0.8258  0.3727  0.0543
  889MPD2     C13028   4.565   3.459  12.858 -0.4029  0.6694 -0.6811
  889MPD2    C113029   4.697   3.435  12.901 -0.0067  0.5450  0.2540
  889MPD2    C213030   0.030   3.525  12.991  0.1129  0.3682  0.0432
  889MPD2    C313031   4.684   3.646  13.011  0.1224 -0.3011  0.1203
  889MPD2    C413032   4.543   3.659  12.985  0.3141 -0.4086  0.1210
  889MPD2    C513033   4.492   3.562  12.910 -0.1813  0.0689  0.3634
  889MPD2     H13034   0.136   3.511  13.009  0.0551  0.0801  0.1577
  889MPD2    H113035   4.482   3.744  13.013  1.9492  0.4231  1.2145
  889MPD2    H213036   4.503   3.382  12.812 -0.1100  0.7176 -1.1575
  889MPD2    H313037   4.386   3.559  12.886 -0.1013 -0.0369  0.0372
  889MPD2     N13038   0.028   3.754  13.067  0.3646 -0.3747  0.2947
  889MPD2    H513039   0.125   3.746  13.094  0.2145 -1.9656  0.3627
  889MPD2    N113040   0.045   3.303  12.895 -0.0332 -0.7842  0.3231
  889MPD2    H713041   0.124   3.282  12.954  0.0215 -2.3638 -0.3199
  890MPD2     C13042   4.167   0.589  14.938 -0.3165 -0.5252 -0.5786
  890MPD2    C113043   4.300   0.622  14.952 -0.7258  0.2047  0.6110
  890MPD2    C213044   4.383   0.527  15.013 -0.7896  0.6450  0.0564
  890MPD2    C313045   4.330   0.404  15.052 -0.0759  0.0633  1.3748
  890MPD2    C413046   4.191   0.375  15.034 -0.0092 -0.5154  0.5206
  890MPD2    C513047   4.115   0.472  14.977 -0.7514  0.0941 -0.0846
  890MPD2     H13048   4.489   0.543  15.029 -0.9169  2.3872 -0.9403
  890MPD2    H113049   4.151   0.276  15.052  1.8588 -1.3750 -0.1043
  890MPD2    H213050   4.107   0.664  14.888  0.8045  1.0529  0.4436
  890MPD2    H313051   4.006   0.469  14.981 -0.7576 -0.5506 -0.7356
  890MPD2     N13052   4.421   0.314  15.113  0.3382 -0.3233  0.0295
  890MPD2    H513053   4.517   0.348  15.115 -0.9616  3.2982  0.5255
  890MPD2    N113054   4.352   0.734  14.887  0.4780 -0.0883  0.2013
  890MPD2    H713055   4.291   0.787  14.825 -0.6183 -0.3521  1.0564
  891MPD2     C13056   2.454   2.911  16.949  0.0341 -0.2353 -0.4861
  891MPD2    C113057   2.449   3.025  17.028 -0.3746 -0.0093  0.6415
  891MPD2    C213058   2.571   3.071  17.085  0.6169 -0.1994 -0.0679
  891MPD2    C313059   2.694   3.014  17.057 -0.3300  0.5978  0.3547
  891MPD2    C413060   2.693   2.906  16.967  0.7784  0.4180  0.0871
  891MPD2    C513061   2.577   2.855  16.916 -0.6599  0.4066 -0.0242
  891MPD2     H13062   2.570   3.149  17.160  0.5786 -0.6385  0.3871
  891MPD2    H113063   2.785   2.852  16.948  1.7801  2.1528  0.0216
  891MPD2    H213064   2.361   2.866  16.915  0.9604 -3.4271  1.1408
  891MPD2    H313065   2.583   2.770  16.848 -3.9351 -0.2224  0.4604
  891MPD2     N13066   2.807   3.056  17.131  0.0757  0.4105  0.1777
  891MPD2    H513067   2.803   3.145  17.178 -0.2069 -0.7681  2.3691
  891MPD2    N113068   2.324   3.089  17.035  0.5941 -0.5685  0.2311
  891MPD2    H713069   2.244   3.048  16.989  0.0827  2.4967 -1.6189
  892MPD2     C13070   3.719   4.381  14.875  0.9205  0.1022 -0.4098
  892MPD2    C113071   3.661   4.400  14.751  0.1657  0.1878  0.8367
  892MPD2    C213072   3.707   4.336  14.638  0.7770  0.6327  0.3402
  892MPD2    C313073   3.798   4.229  14.662 -0.7026  0.4825  0.0208
  892MPD2    C413074   3.853   4.208  14.786  0.6336 -0.1781 -0.2261
  892MPD2    C513075   3.812   4.277  14.893 -0.1863  0.4352  0.4539
  892MPD2     H13076   3.655   4.346  14.544 -1.0498 -0.7948  1.1909
  892MPD2    H113077   3.922   4.128  14.811  0.1144 -0.6975 -0.4602
  892MPD2    H213078   3.698   4.443  14.961  2.2241 -0.5632  0.4034
  892MPD2    H313079   3.839   4.253  14.995 -1.0647 -0.2813  0.5163
  892MPD2     N13080   3.850   4.146  14.556 -0.9523 -0.7977  0.3376
  892MPD2    H513081   3.917   4.075  14.581 -1.6133 -2.4358 -2.5143
  892MPD2    N113082   3.558   4.502  14.730 -0.0629  0.2650 -0.7566
  892MPD2    H713083   3.532   4.522  14.634 -0.2149  0.2053 -0.7279
  893MPD2     C13084   0.553   3.455   1.767 -0.7835 -0.2676 -0.6454
  893MPD2    C113085   0.637   3.485   1.866  0.2081  0.6118 -0.3390
  893MPD2    C213086   0.613   3.593   1.945  0.0822 -0.2249  0.0874
  893MPD2    C313087   0.488   3.666   1.938 -0.1272  0.0911 -0.4200
  893MPD2    C413088   0.395   3.614   1.855 -0.2750  0.4480 -0.0503
  893MPD2    C513089   0.426   3.515   1.768 -0.5296  0.1662  0.1235
  893MPD2     H13090   0.691   3.622   2.016  0.9577  0.0608 -0.9901
  893MPD2    H113091   0.301   3.665   1.842 -0.3417  0.2933 -0.1720
  893MPD2    H213092   0.577   3.385   1.689  1.2889 -0.4678  0.1688
  893MPD2    H313093   0.350   3.473   1.702 -0.0906 -1.9093  0.9724
  893MPD2     N13094   0.447   3.763   2.027 -0.1266 -0.1270 -0.2673
  893MPD2    H513095   0.350   3.791   2.023 -1.0075 -3.1911 -0.3432
  893MPD2    N113096   0.758   3.412   1.864 -0.5745  0.5574  0.1355
  893MPD2    H713097   0.770   3.341   1.793  0.1954 -0.0280  0.8466
  894MPD2     C13098   3.730   0.280   1.527 -0.0682 -0.3822 -0.0980
  894MPD2    C113099   3.670   0.401   1.532  0.1621  0.3888  0.5113
  894MPD2    C213100   3.691   0.479   1.425 -0.3596 -0.2361  0.3157
  894MPD2    C313101   3.777   0.448   1.325  0.1029 -0.6633 -0.1492
  894MPD2    C413102   3.842   0.330   1.326 -0.2754  0.1818 -0.5441
  894MPD2    C513103   3.813   0.249   1.429  0.3012 -0.1506  0.4913
  894MPD2     H13104   3.634   0.571   1.422 -0.1923 -0.1354  0.1874
  894MPD2    H113105   3.918   0.293   1.258 -0.9544 -1.7397 -0.2529
  894MPD2    H213106   3.716   0.206   1.604 -0.2685  1.7109  1.8965
  894MPD2    H313107   3.874   0.159   1.432  0.6544  0.1701  2.5594
  894MPD2     N13108   3.804   0.549   1.231 -0.3221  0.1334  0.3548
  894MPD2    H513109   3.748   0.632   1.244  0.0483  0.3086  0.8127
  894MPD2    N113110   3.592   0.442   1.638 -0.0730  0.3911 -0.6845
  894MPD2    H713111   3.539   0.525   1.617  1.0591  1.1078 -0.7235
  895MPD2     C13112   2.654   3.632  14.106  0.4181 -0.6653  1.0355
  895MPD2    C113113   2.593   3.613  13.982  0.4310  0.0721  0.0449
  895MPD2    C213114   2.668   3.552  13.885 -0.0734 -0.2898  0.0594
  895MPD2    C313115   2.802   3.528  13.904  1.2268  0.0368  0.3304
  895MPD2    C413116   2.863   3.548  14.025  0.5249 -0.9710  0.7253
  895MPD2    C513117   2.786   3.589  14.124 -0.2525 -0.5347 -0.6069
  895MPD2     H13118   2.624   3.550  13.786 -1.0050 -0.0007  0.4585
  895MPD2    H113119   2.965   3.518  14.048  0.7400 -0.2917  0.6618
  895MPD2    H213120   2.599   3.667  14.193  2.5955  1.6249  1.4920
  895MPD2    H313121   2.826   3.584  14.225 -2.0835  0.0647  0.1574
  895MPD2     N13122   2.866   3.475  13.788 -0.1923 -0.4070  0.2333
  895MPD2    H513123   2.820   3.479  13.697 -1.0416  0.9602  0.7291
  895MPD2    N113124   2.461   3.648  13.942  0.3576 -0.1708 -0.6638
  895MPD2    H713125   2.425   3.619  13.851 -0.0069  0.5471 -0.7486
  896MPD2     C13126   0.651   2.213   1.721  0.5829 -0.1880 -0.1152
  896MPD2    C113127   0.660   2.118   1.623 -0.1054 -0.9327  0.1660
  896MPD2    C213128   0.543   2.058   1.587  0.3912 -0.0758  0.0114
  896MPD2    C313129   0.422   2.100   1.635 -0.1963 -0.6008  0.6226
  896MPD2    C413130   0.419   2.195   1.734 -0.3245  0.1553  0.3624
  896MPD2    C513131   0.533   2.250   1.780  0.1576 -0.0340  0.0948
  896MPD2     H13132   0.545   1.978   1.514  0.5092  1.4938 -1.6899
  896MPD2    H113133   0.326   2.218   1.785 -0.2478  0.6999  0.2558
  896MPD2    H213134   0.735   2.271   1.756 -0.1907  1.3874 -0.8650
  896MPD2    H313135   0.527   2.320   1.863 -0.4941 -2.7778  2.3465
  896MPD2     N13136   0.306   2.035   1.593 -0.0310 -0.4976  0.8809
  896MPD2    H513137   0.326   1.952   1.537  1.5444 -0.1542  0.9343
  896MPD2    N113138   0.790   2.070   1.583  0.0644  0.6537 -0.5432
  896MPD2    H713139   0.871   2.114   1.625  0.8175  0.1306 -1.4533
  897MPD2     C13140   1.261   2.843  10.472 -0.5570 -0.3728  0.1067
  897MPD2    C113141   1.290   2.981  10.477 -0.5050 -0.6140  0.7124
  897MPD2    C213142   1.189   3.074  10.504  0.6983 -0.0100  0.4500
  897MPD2    C313143   1.065   3.034  10.545  0.1737 -0.3292 -0.6768
  897MPD2    C413144   1.041   2.898  10.549 -0.0815  0.9998 -0.1650
  897MPD2    C513145   1.133   2.805  10.513 -0.2924 -0.0255  0.1153
  897MPD2     H13146   1.212   3.179  10.519  2.6473 -0.5185  1.0335
  897MPD2    H113147   0.945   2.869  10.589  1.1590  0.5703  2.4731
  897MPD2    H213148   1.333   2.763  10.456 -0.5307 -0.4834  0.7622
  897MPD2    H313149   1.104   2.701  10.520 -1.1771  0.2380  0.3942
  897MPD2     N13150   0.961   3.127  10.582 -0.3224  0.1967  0.0197
  897MPD2    H513151   0.895   3.083  10.645  1.2125 -0.9723  0.8332
  897MPD2    N113152   1.416   3.030  10.452  0.3933  0.0583  0.2810
  897MPD2    H713153   1.433   3.128  10.470 -0.7343  0.0792  1.2127
  898MPD2     C13154   3.922   3.991   0.429 -0.5040  0.5427  0.0195
  898MPD2    C113155   3.934   4.127   0.448 -0.2792 -0.3673 -0.3442
  898MPD2    C213156   3.930   4.192   0.327  0.0735  0.2702 -0.9539
  898MPD2    C313157   3.910   4.136   0.203 -0.6105 -0.9958 -0.9736
  898MPD2    C413158   3.903   4.001   0.192 -0.0831  0.1116  0.4289
  898MPD2    C513159   3.912   3.927   0.310 -0.0778 -0.4446 -0.0436
  898MPD2     H13160   3.943   4.299   0.332 -1.1796  0.3315  0.7534
  898MPD2    H113161   3.875   3.952   0.100  1.4789  0.7437 -0.3681
  898MPD2    H213162   3.902   3.931   0.517  2.0264 -0.5441 -0.1497
  898MPD2    H313163   3.906   3.819   0.319 -0.7990 -0.5316 -1.6046
  898MPD2     N13164   3.898   4.220   0.090  0.2100 -0.0009  1.0855
  898MPD2    H513165   3.883   4.319   0.108  0.9743  0.4361 -0.7201
  898MPD2    N113166   3.945   4.200   0.571  0.2804  0.6887  0.2766
  898MPD2    H713167   3.942   4.300   0.559  0.8744  0.7366  0.5323
  899MPD2     C13168   4.692   0.118  17.573  0.5903 -0.6742  0.8028
  899MPD2    C113169   4.657   0.207  17.666 -0.0410  0.4309 -0.1466
  899MPD2    C213170   4.619   0.159   0.095  0.4687  0.2686 -0.2093
  899MPD2    C313171   4.611   0.021   0.125 -0.0797  0.4135 -0.1710
  899MPD2    C413172   4.647   4.654   0.032 -0.2898 -0.1323 -0.2555
  899MPD2    C513173   4.685   4.709  17.601  0.2435  0.5503 -0.4591
  899MPD2     H13174   4.599   0.228   0.176  2.7540  0.2025  0.4098
  899MPD2    H113175   4.635   4.548   0.051  4.1633 -0.4490  0.8118
  899MPD2    H213176   4.715   0.153  17.473 -0.0908 -1.5713  0.3345
  899MPD2    H313177   0.001   4.638  17.529  1.0208  1.7786 -1.2620
  899MPD2     N13178   4.573   4.692   0.254  0.3806  0.0248 -0.0159
  899MPD2    H513179   4.597   4.593   0.259  1.2784  0.1315 -2.1348
  899MPD2    N113180   4.647   0.343  17.624 -0.3548  0.0881 -0.6282
  899MPD2    H713181   4.663   0.363  17.526 -1.5802 -0.5013 -0.9532
  900MPD2     C13182   3.808   1.829  12.571 -0.3620 -0.4689  0.3320
  900MPD2    C113183   3.841   1.736  12.477  0.3867  0.0736 -0.1883
  900MPD2    C213184   3.745   1.709  12.377 -0.3133  0.2089 -0.0766
  900MPD2    C313185   3.631   1.787  12.370 -0.0705 -0.0509  0.3278
  900MPD2    C413186   3.618   1.893  12.449  0.0480 -0.0525  0.6429
  900MPD2    C513187   3.702   1.909  12.558 -0.2316 -0.0745  0.0299
  900MPD2     H13188   3.763   1.634  12.301  0.0935 -0.0705  0.2938
  900MPD2    H113189   3.524   1.947  12.448 -0.8244 -1.5992  0.8132
  900MPD2    H213190   3.876   1.836  12.655  0.9113  1.2153 -0.8395
  900MPD2    H313191   3.688   1.992  12.625 -4.2022 -1.0243  0.3533
  900MPD2     N13192   3.526   1.740  12.279  0.5886  0.4375 -0.0926
  900MPD2    H513193   3.556   1.649  12.244 -2.0184 -1.0298  1.4348
  900MPD2    N113194   3.959   1.655  12.506  0.0208 -0.2117 -0.6553
  900MPD2    H713195   3.992   1.655  12.602 -1.5283  1.8752 -0.1275
  901MPD2     C13196   4.243   0.885  13.088 -0.0060 -0.0650  0.1334
  901MPD2    C113197   4.298   0.842  12.967 -0.3889  0.1841 -0.1156
  901MPD2    C213198   4.295   0.931  12.857 -0.2810  0.0880  0.6938
  901MPD2    C313199   4.234   1.056  12.861 -0.6706  0.7191 -0.2167
  901MPD2    C413200   4.176   1.090  12.980 -0.1535  0.2992  0.1520
  901MPD2    C513201   4.194   1.013  13.094  0.1997 -0.4714  0.0485
  901MPD2     H13202   4.353   0.900  12.771 -0.9169 -0.3753  0.4291
  901MPD2    H113203   4.123   1.184  12.996 -1.5838 -0.0173 -2.7916
  901MPD2    H213204   4.235   0.820  13.174 -1.3662 -0.6064 -0.4083
  901MPD2    H313205   4.158   1.053  13.188  1.9374  0.5692  0.2638
  901MPD2     N13206   4.224   1.145  12.749  0.4254 -0.4077  0.5611
  901MPD2    H513207   4.297   1.124  12.682 -0.0670  1.3897 -0.5407
  901MPD2    N113208   4.349   0.712  12.957 -0.8049  0.4703  0.1879
  901MPD2    H713209   4.329   0.667  13.046  0.7837 -2.1095 -0.7710
  902MPD2     C13210   2.318   4.426  13.425  0.3644 -0.0564  0.0933
  902MPD2    C113211   2.320   4.436  13.288  0.1448  0.0244 -0.1974
  902MPD2    C213212   2.438   4.474  13.220  0.1787 -0.0844 -0.4206
  902MPD2    C313213   2.552   4.483  13.298 -0.2443 -0.1014  0.4319
  902MPD2    C413214   2.550   4.455  13.434 -0.1994 -0.4659 -0.0114
  902MPD2    C513215   2.432   4.429  13.496 -0.3054 -0.2377  0.0833
  902MPD2     H13216   2.435   4.489  13.113  2.2985 -3.4943 -0.9497
  902MPD2    H113217   2.641   4.444  13.490  1.1917  2.5205 -1.6846
  902MPD2    H213218   2.227   4.405  13.481  0.6814 -1.4783  0.0864
  902MPD2    H313219   2.429   4.417  13.604 -1.2795  3.8630  0.5124
  902MPD2     N13220   2.679   4.492  13.235  0.3498  0.2189  0.0089
  902MPD2    H513221   2.758   4.478  13.296  0.0998  2.8059  0.8964
  902MPD2    N113222   2.202   4.423  13.220  0.1118  0.0290 -0.6210
  902MPD2    H713223   2.122   4.424  13.282 -0.8625 -0.6428 -1.8611
  903MPD2     C13224   2.689   0.022  12.453  0.5975 -0.5292 -0.1350
  903MPD2    C113225   2.686   4.625  12.519 -0.1240 -0.0997 -0.0875
  903MPD2    C213226   2.584   4.534  12.495 -0.8915  0.2721  0.1677
  903MPD2    C313227   2.494   4.574  12.395  0.1531  0.2297 -0.0905
  903MPD2    C413228   2.504   4.694  12.328 -0.5214  0.6537 -0.8567
  903MPD2    C513229   2.602   0.062  12.352  0.0685 -0.2054 -0.8708
  903MPD2     H13230   2.560   4.450  12.558  0.3086  0.0366  0.2957
  903MPD2    H113231   2.436   0.009  12.252 -1.8430 -2.0027 -0.9847
  903MPD2    H213232   2.767   0.097  12.465 -0.0870  0.2276 -0.3841
  903MPD2    H313233   2.612   0.161  12.308  0.1632  0.6062  0.9616
  903MPD2     N13234   2.382   4.481  12.384  0.1402 -0.1659  0.1855
  903MPD2    H513235   2.377   4.401  12.445 -0.2624  0.1670  0.5825
  903MPD2    N113236   2.773   4.611  12.630 -0.1224 -0.3150 -0.4585
  903MPD2    H713237   2.801   4.695  12.680  0.7967 -0.2824 -1.0266
  904MPD2     C13238   2.410   2.761  13.716 -0.2380 -0.8260 -0.2170
  904MPD2    C113239   2.471   2.874  13.773  0.0456  0.0620  0.4385
  904MPD2    C213240   2.604   2.868  13.797 -0.2007 -0.4411  0.2824
  904MPD2    C313241   2.682   2.765  13.754  0.4501  0.4585  0.1420
  904MPD2    C413242   2.623   2.656  13.685 -0.3560  0.5040 -0.4496
  904MPD2    C513243   2.489   2.658  13.671 -0.3922  0.8560 -0.2217
  904MPD2     H13244   2.641   2.956  13.848  2.2055  0.9189 -3.7686
  904MPD2    H113245   2.673   2.579  13.628 -2.6124 -0.1708 -1.4973
  904MPD2    H213246   2.302   2.755  13.700 -0.2791 -0.4275 -0.0882
  904MPD2    H313247   2.439   2.569  13.634  0.2072  0.5777 -0.3650
  904MPD2     N13248   2.821   2.769  13.775 -0.8075 -0.0384 -0.1022
  904MPD2    H513249   2.849   2.859  13.812  0.8764 -0.3454 -0.6334
  904MPD2    N113250   2.407   2.995  13.806 -0.1745 -0.3495  0.0781
  904MPD2    H713251   2.454   3.066  13.861 -2.8977  2.8442 -1.7381
  905MPD2     C13252   2.278   3.410  13.280  1.3234  0.5005 -0.1852
  905MPD2    C113253   2.327   3.449  13.405 -0.1387 -0.3723 -0.4108
  905MPD2    C213254   2.465   3.476  13.414 -0.3898  0.3076 -0.4355
  905MPD2    C313255   2.557   3.443  13.313  0.0976  0.1755 -0.1565
  905MPD2    C413256   2.504   3.400  13.193 -0.3924 -0.0150 -0.5032
  905MPD2    C513257   2.370   3.388  13.176  0.7810 -0.9387 -0.1143
  905MPD2     H13258   2.503   3.512  13.509 -0.2981 -1.2867  0.1386
  905MPD2    H113259   2.575   3.379  13.115 -0.5095 -0.7892 -0.4024
  905MPD2    H213260   2.175   3.391  13.256  1.3386 -2.0599  1.7995
  905MPD2    H313261   2.336   3.351  13.080  1.4609 -0.5863 -0.4870
  905MPD2     N13262   2.696   3.441  13.333 -0.8215  0.8390  0.3336
  905MPD2    H513263   2.744   3.394  13.258 -1.2463  1.0640 -0.0816
  905MPD2    N113264   2.238   3.454  13.510  0.0036  0.1941  0.1068
  905MPD2    H713265   2.144   3.419  13.494  0.1402  0.6366 -1.6751
  906MPD2     C13266   4.666   3.452  11.394 -0.1546  0.3368  0.5527
  906MPD2    C113267   4.614   3.384  11.290 -0.2301 -0.3953  0.5138
  906MPD2    C213268   4.591   3.250  11.312  0.1745 -0.0367 -0.2319
  906MPD2    C313269   4.621   3.182  11.426 -0.1101  0.4343 -0.0636
  906MPD2    C413270   4.672   3.258  11.537 -0.0119 -0.0757  0.0663
  906MPD2    C513271   4.682   3.395  11.516 -0.0195 -0.9450  0.0455
  906MPD2     H13272   4.531   3.195  11.240 -1.2604  1.5115 -0.2049
  906MPD2    H113273   4.662   3.222  11.639 -1.7753 -0.7417 -0.3260
  906MPD2    H213274   4.696   3.556  11.390  0.9864 -0.0825 -2.1826
  906MPD2    H313275   4.699   3.465  11.597  1.1746 -0.6846 -0.4283
  906MPD2     N13276   4.585   3.049  11.454  0.8517  0.4953  0.1372
  906MPD2    H513277   4.592   3.022  11.551  1.9782 -1.2348 -0.4287
  906MPD2    N113278   4.571   3.454  11.172  0.2103  0.0401  0.0315
  906MPD2    H713279   4.536   3.391  11.100  0.6427 -0.8269  0.5782
  907MPD2     C13280   3.593   2.421  15.770 -0.1810 -0.1986  0.4026
  907MPD2    C113281   3.651   2.298  15.759 -0.0136  0.7449  0.7308
  907MPD2    C213282   3.762   2.273  15.832 -0.0455 -0.2213  0.1116
  907MPD2    C313283   3.811   2.359  15.929 -0.0896 -0.3759 -0.2344
  907MPD2    C413284   3.740   2.481  15.941  0.3658  0.7126  0.2178
  907MPD2    C513285   3.639   2.512  15.861  0.5012 -0.9399 -0.4549
  907MPD2     H13286   3.806   2.174  15.835  0.5136  0.0419  0.6714
  907MPD2    H113287   3.762   2.555  16.017  1.9175 -0.3524  0.8152
  907MPD2    H213288   3.515   2.457  15.705 -0.0035 -2.5126 -1.1308
  907MPD2    H313289   3.593   2.610  15.859  0.8658 -0.7183  1.7548
  907MPD2     N13290   3.925   2.321  15.998 -0.2065 -0.3762  0.3463
  907MPD2    H513291   3.956   2.225  15.990  3.2409  0.7979 -0.4873
  907MPD2    N113292   3.605   2.194  15.676 -0.2091  0.2940 -0.2574
  907MPD2    H713293   3.658   2.110  15.656 -0.2222  0.1097  0.5077
  908MPD2     C13294   1.507   3.323   9.664  0.3642  0.2890 -0.9143
  908MPD2    C113295   1.446   3.220   9.734  0.2713  0.1657  0.3565
  908MPD2    C213296   1.494   3.180   9.859 -0.1299  0.0256  0.1226
  908MPD2    C313297   1.611   3.243   9.915  0.2284  0.5503 -0.4076
  908MPD2    C413298   1.664   3.349   9.849 -0.3594  0.3233 -0.0923
  908MPD2    C513299   1.614   3.390   9.723  0.3258 -0.4058 -0.1906
  908MPD2     H13300   1.433   3.104   9.906 -0.2020  0.5584  0.8999
  908MPD2    H113301   1.756   3.395   9.883  0.0878 -0.1738 -0.6300
  908MPD2    H213302   1.479   3.355   9.564  0.6797  0.8694 -0.8158
  908MPD2    H313303   1.653   3.482   9.680 -0.1615 -0.0417  0.1553
  908MPD2     N13304   1.644   3.193  10.047 -0.5653  0.3380  0.2056
  908MPD2    H513305   1.586   3.118  10.080  0.4312 -0.9223 -0.9096
  908MPD2    N113306   1.326   3.155   9.680 -0.0501  0.1095 -0.4396
  908MPD2    H713307   1.273   3.085   9.731  0.6200 -0.1943 -0.1558
  909MPD2     C13308   0.773   1.546  11.035  0.3841  0.1631 -0.0536
  909MPD2    C113309   0.847   1.657  11.057  0.3383 -0.2713 -0.3309
  909MPD2    C213310   0.902   1.678  11.181  0.3459 -0.9995 -0.1758
  909MPD2    C313311   0.867   1.602  11.287 -0.4380 -0.4073 -0.3238
  909MPD2    C413312   0.783   1.495  11.271  0.2507 -0.7082 -0.5108
  909MPD2    C513313   0.741   1.465  11.143  0.2896 -0.2786  0.3547
  909MPD2     H13314   0.959   1.769  11.198  0.1870 -1.0223  0.4637
  909MPD2    H113315   0.730   1.437  11.346 -0.8397  0.3084 -0.4942
  909MPD2    H213316   0.743   1.513  10.936  1.1471 -1.3500  0.2211
  909MPD2    H313317   0.682   1.376  11.122 -1.7860  1.1709  0.1113
  909MPD2     N13318   0.909   1.650  11.413 -0.0623 -0.2065 -0.0066
  909MPD2    H513319   0.953   1.742  11.412  1.7993 -1.0987  1.1983
  909MPD2    N113320   0.876   1.752  10.955 -0.4116 -0.4977  0.5381
  909MPD2    H713321   0.943   1.824  10.980 -0.0078 -0.0172 -1.9291
  910MPD2     C13322   2.954   2.528  16.069 -1.1421  0.6919  0.5853
  910MPD2    C113323   3.034   2.527  15.952  0.5469  0.5298  0.5466
  910MPD2    C213324   2.989   2.596  15.835 -0.1465 -0.4524  0.4733
  910MPD2    C313325   2.873   2.673  15.834 -0.1978  0.1367  0.1947
  910MPD2    C413326   2.805   2.679  15.955 -0.1290  0.0351  0.3279
  910MPD2    C513327   2.842   2.614  16.075  0.4004 -0.2538  0.1654
  910MPD2     H13328   3.046   2.579  15.744 -2.2851  1.2173 -1.1794
  910MPD2    H113329   2.725   2.751  15.966  0.2639  0.3974  0.8059
  910MPD2    H213330   2.978   2.482  16.164  1.6493 -0.1649 -0.5240
  910MPD2    H313331   2.794   2.628  16.171 -1.2650 -0.6707 -0.6079
  910MPD2     N13332   2.812   2.726  15.714 -0.5831  0.3967 -0.4835
  910MPD2    H513333   2.729   2.782  15.736 -0.4395  1.2980 -2.2818
  910MPD2    N113334   3.153   2.454  15.951 -0.2079 -0.3890 -0.3381
  910MPD2    H713335   3.204   2.448  15.863 -0.5220 -2.2322 -0.3981
  911MPD2     C13336   0.747   3.271  16.501  0.5580 -0.1767  0.0594
  911MPD2    C113337   0.811   3.386  16.543 -0.3783 -0.0822  0.3503
  911MPD2    C213338   0.744   3.500  16.528 -0.1729  0.3210 -0.1247
  911MPD2    C313339   0.611   3.512  16.484  0.1298 -0.6983 -1.1841
  911MPD2    C413340   0.546   3.397  16.445  0.1557 -0.5568 -0.0736
  911MPD2    C513341   0.621   3.279  16.451  0.2690 -0.2127  0.6516
  911MPD2     H13342   0.799   3.591  16.549 -1.5034  0.9813  0.5461
  911MPD2    H113343   0.444   3.402  16.410  0.7148  0.6076 -1.5179
  911MPD2    H213344   0.796   3.176  16.515 -2.9306 -1.7710  1.5556
  911MPD2    H313345   0.565   3.191  16.421 -0.2997 -0.0163  1.1294
  911MPD2     N13346   0.531   3.625  16.475  0.8475  0.1094 -0.0924
  911MPD2    H513347   0.435   3.610  16.445  0.1041  2.7356  1.0083
  911MPD2    N113348   0.937   3.364  16.593  1.0432 -0.4052  0.5681
  911MPD2    H713349   0.971   3.269  16.600 -0.8710 -1.1568 -0.0618
  912MPD2     C13350   0.147   3.425  16.057 -0.2428  0.7652 -0.2131
  912MPD2    C113351   0.182   3.449  16.189 -0.0541 -0.1707 -0.4408
  912MPD2    C213352   0.211   3.346  16.277  0.0521  0.1679  0.0163
  912MPD2    C313353   0.209   3.215  16.230  0.7154 -0.3080 -0.1122
  912MPD2    C413354   0.185   3.196  16.103  0.2719  0.3620  0.0423
  912MPD2    C513355   0.152   3.294  16.018 -0.2930 -0.2804  0.5589
  912MPD2     H13356   0.221   3.360  16.384 -0.1541 -1.0091  0.1870
  912MPD2    H113357   0.195   3.094  16.068  0.6379  0.9133 -1.4787
  912MPD2    H213358   0.124   3.501  15.983 -0.6872  0.2843 -0.5755
  912MPD2    H313359   0.140   3.270  15.913 -3.1039 -0.9407  1.0329
  912MPD2     N13360   0.238   3.111  16.323 -0.1722 -0.3340 -1.0974
  912MPD2    H513361   0.236   3.132  16.422 -1.8123 -0.3565 -1.1274
  912MPD2    N113362   0.194   3.585  16.225  0.0828 -0.3767 -0.7051
  912MPD2    H713363   0.197   3.652  16.149 -2.0767 -0.8118 -1.1689
  913MPD2     C13364   0.669   4.683  10.551 -0.7050 -0.5221 -0.3523
  913MPD2    C113365   0.785   0.009  10.610  0.0912  0.1574 -0.2328
  913MPD2    C213366   0.831   0.140  10.585  0.1149 -0.4039 -0.3587
  913MPD2    C313367   0.758   0.221  10.501 -0.0186 -0.1261  0.6552
  913MPD2    C413368   0.640   0.175  10.440  0.2604 -0.4870 -0.3097
  913MPD2    C513369   0.593   0.047  10.468  0.5461  0.4112  0.2056
  913MPD2     H13370   0.921   0.179  10.632 -0.6535  1.1135 -0.1533
  913MPD2    H113371   0.578   0.239  10.378  2.0221  1.9584  0.4711
  913MPD2    H213372   0.631   4.582  10.562 -0.6236 -0.6474 -1.1957
  913MPD2    H313373   0.495   0.019  10.430 -1.2593  2.4879  3.3234
  913MPD2     N13374   0.794   0.355  10.477 -0.1485  0.7767  0.1150
  913MPD2    H513375   0.742   0.394  10.399 -0.3079  3.7947  1.7275
  913MPD2    N113376   0.850   4.651  10.708 -0.0190 -0.1236 -0.2118
  913MPD2    H713377   0.804   4.565  10.733 -1.2057 -0.4022 -3.3976
  914MPD2     C13378   3.830   0.142  12.401 -0.4296 -0.3870  0.5664
  914MPD2    C113379   3.836   0.276  12.441 -0.2645  0.0132  1.3295
  914MPD2    C213380   3.946   0.311  12.515  0.7692 -0.1820  0.1950
  914MPD2    C313381   4.052   0.226  12.539 -0.2608  0.0351  0.2612
  914MPD2    C413382   4.046   0.096  12.496 -0.4122  0.0862 -0.0708
  914MPD2    C513383   3.930   0.059  12.421 -0.1882 -0.1612  0.1966
  914MPD2     H13384   3.945   0.414  12.550  0.7367 -0.5801  1.3736
  914MPD2    H113385   4.125   0.023  12.512 -0.1136  0.2142 -0.9778
  914MPD2    H213386   3.747   0.102  12.344 -1.5025  0.2871  1.6579
  914MPD2    H313387   3.926   4.679  12.388  4.8920 -0.3238  0.1566
  914MPD2     N13388   4.170   0.277  12.598 -0.0193  0.4840 -0.1379
  914MPD2    H513389   4.169   0.377  12.615 -0.8946  1.0021 -3.2281
  914MPD2    N113390   3.742   0.374  12.401  0.9527  0.1505 -0.7834
  914MPD2    H713391   3.688   0.352  12.318 -0.3759  0.1724  0.0730
  915MPD2     C13392   2.239   0.360  15.983  0.0932  0.4258  0.2883
  915MPD2    C113393   2.162   0.464  15.938 -0.3406 -0.0471  0.2203
  915MPD2    C213394   2.042   0.494  16.004 -1.0099  0.0321  0.4028
  915MPD2    C313395   2.005   0.421  16.114 -0.1114 -0.6319 -0.1677
  915MPD2    C413396   2.087   0.326  16.167 -0.5242  0.1448 -0.3510
  915MPD2    C513397   2.201   0.297  16.097  0.1684 -1.2592  0.0280
  915MPD2     H13398   1.972   0.567  15.963 -1.4404 -0.5477  0.1115
  915MPD2    H113399   2.062   0.268  16.255 -0.3291  0.0577 -0.3522
  915MPD2    H213400   2.333   0.331  15.938 -1.3804 -1.3565 -1.6273
  915MPD2    H313401   2.268   0.227  16.146 -0.3209 -1.6824  0.0910
  915MPD2     N13402   1.884   0.454  16.177  0.1091 -0.3377  0.0932
  915MPD2    H513403   1.829   0.536  16.156  0.0873 -0.0538  1.3024
  915MPD2    N113404   2.191   0.511  15.808 -0.2392 -0.2039  0.4993
  915MPD2    H713405   2.266   0.465  15.758 -2.6468 -1.2560 -2.0892
  916MPD2     C13406   0.154   3.594  15.502 -0.5927 -0.1844 -0.8038
  916MPD2    C113407   0.155   3.474  15.571 -0.0550 -0.4821 -0.0366
  916MPD2    C213408   0.265   3.403  15.590  0.5593 -0.1066 -0.1672
  916MPD2    C313409   0.380   3.451  15.536  0.1778 -0.7382 -0.2271
  916MPD2    C413410   0.385   3.582  15.493 -0.6017 -0.1739  0.3762
  916MPD2    C513411   0.271   3.654  15.477  0.8573 -0.5114 -0.4782
  916MPD2     H13412   0.270   3.308  15.642 -2.0458 -0.9848 -1.5225
  916MPD2    H113413   0.480   3.625  15.465 -0.4870 -1.3199 -0.9843
  916MPD2    H213414   0.064   3.655  15.503  0.1056  0.8348  0.1651
  916MPD2    H313415   0.268   3.755  15.436 -2.2539 -0.5867 -0.4715
  916MPD2     N13416   0.493   3.365  15.529  0.2828  0.4867 -0.1042
  916MPD2    H513417   0.479   3.275  15.574  2.4230 -0.8892 -2.1783
  916MPD2    N113418   0.032   3.425  15.610 -0.3239  0.7772  0.1514
  916MPD2    H713419   4.674   3.486  15.609 -3.1918 -3.0600 -1.6600
  917MPD2     C13420   0.011   0.921  10.881 -0.0494 -0.0460 -0.2120
  917MPD2    C113421   0.118   0.927  10.963  0.1162 -0.0889 -0.3029
  917MPD2    C213422   0.232   0.973  10.901 -0.6169 -0.7289  0.8869
  917MPD2    C313423   0.243   1.014  10.766  0.1119 -0.0223 -1.2059
  917MPD2    C413424   0.132   1.005  10.691 -0.2395  0.0678 -0.6812
  917MPD2    C513425   0.023   0.951  10.742 -0.5760 -0.3575 -0.0672
  917MPD2     H13426   0.323   0.985  10.959 -0.6424 -0.2628  0.8309
  917MPD2    H113427   0.135   1.029  10.585  3.1287  0.6257 -0.4570
  917MPD2    H213428   4.635   0.897  10.918 -0.2027  2.0568  0.7609
  917MPD2    H313429   4.656   0.939  10.683 -1.3058  0.6668  0.8333
  917MPD2     N13430   0.361   1.069  10.708 -0.8079 -0.2773  0.6111
  917MPD2    H513431   0.345   1.117  10.620  1.6861  1.0022  0.8388
  917MPD2    N113432   0.104   0.903  11.102 -0.6406 -0.7350 -0.1680
  917MPD2    H713433   0.016   0.869  11.139 -1.3457  0.6479 -0.5808
  918MPD2     C13434   0.691   1.031  11.994 -0.0880 -0.3135 -0.5535
  918MPD2    C113435   0.705   0.905  11.947  0.3992 -0.2569  0.1045
  918MPD2    C213436   0.603   0.848  11.871  0.1268  0.4259 -0.6550
  918MPD2    C313437   0.493   0.930  11.828 -0.4379 -0.3974 -0.2338
  918MPD2    C413438   0.491   1.062  11.874 -0.5886  0.0689 -0.8808
  918MPD2    C513439   0.582   1.106  11.964  1.2448  0.4394 -0.0306
  918MPD2     H13440   0.620   0.748  11.833 -1.3879 -0.2725  0.4823
  918MPD2    H113441   0.402   1.121  11.852  0.3698  0.6177 -3.2315
  918MPD2    H213442   0.760   1.083  12.059  1.0404 -0.6962 -1.4294
  918MPD2    H313443   0.579   1.209  12.001 -1.0418  0.1764  0.5172
  918MPD2     N13444   0.403   0.876  11.738 -0.1797  0.3410  0.3810
  918MPD2    H513445   0.411   0.776  11.721 -0.0302  0.7961 -2.0934
  918MPD2    N113446   0.809   0.823  11.976  0.5909 -0.0007  0.3903
  918MPD2    H713447   0.790   0.723  11.977  1.7282 -0.1951  1.6171
  919MPD2     C13448   0.952   4.616  12.000 -0.6774 -0.6495  0.1032
  919MPD2    C113449   0.876   4.513  11.953 -0.1157  0.8787  0.3884
  919MPD2    C213450   0.849   4.498  11.820  0.3548 -0.2948  0.4691
  919MPD2    C313451   0.893   4.587  11.727 -0.3367  0.1611 -0.0586
  919MPD2    C413452   0.964   4.699  11.780 -0.3543 -0.2086  0.4071
  919MPD2    C513453   0.987   4.715  11.910  0.0928 -0.4240  0.3622
  919MPD2     H13454   0.797   4.410  11.784  3.0664 -1.9262  0.5043
  919MPD2    H113455   1.010   0.043  11.709  0.4158 -2.7116 -1.4513
  919MPD2    H213456   0.993   4.618  12.100  0.9681  0.0014 -0.5931
  919MPD2    H313457   1.053   0.073  11.939 -2.2150  1.5300  0.1122
  919MPD2     N13458   0.874   4.576  11.587  0.1573 -0.6298 -0.1403
  919MPD2    H513459   0.919   4.643  11.526 -0.0374  0.0383  0.4466
  919MPD2    N113460   0.822   4.411  12.040  0.5068 -0.3837 -0.7589
  919MPD2    H713461   0.758   4.344  11.999  1.9415 -2.0175 -0.3146
  920MPD2     C13462   0.672   0.397  10.818 -0.1529 -0.3168 -0.4894
  920MPD2    C113463   0.582   0.291  10.810 -0.3451 -0.3909  0.3559
  920MPD2    C213464   0.598   0.183  10.890 -0.3440  0.2882 -0.0857
  920MPD2    C313465   0.701   0.182  10.978 -0.1251 -0.2404 -0.0183
  920MPD2    C413466   0.786   0.284  10.994 -0.3214  0.3580 -0.9654
  920MPD2    C513467   0.766   0.399  10.918 -0.1174 -0.2512  0.2040
  920MPD2     H13468   0.532   0.098  10.897  0.9732 -0.6128  1.4069
  920MPD2    H113469   0.861   0.284  11.072 -1.7814 -0.5861  0.4241
  920MPD2    H213470   0.665   0.478  10.746 -0.3552  0.3686  0.3060
  920MPD2    H313471   0.830   0.484  10.938  0.4696 -0.7113  0.2759
  920MPD2     N13472   0.709   0.067  11.061 -0.2602  0.4747 -0.2674
  920MPD2    H513473   0.628   0.007  11.050  2.0783 -3.3129  3.4607
  920MPD2    N113474   0.469   0.287  10.732  0.2695  0.3076  0.2394
  920MPD2    H713475   0.400   0.214  10.743  1.9810 -1.1975  1.0028
  921MPD2     C13476   1.780   3.792  17.037 -0.6212 -0.0415  0.2034
  921MPD2    C113477   1.771   3.658  17.060  0.3567 -0.3433  0.3573
  921MPD2    C213478   1.662   3.586  17.013 -0.0530 -0.5874  0.7440
  921MPD2    C313479   1.573   3.651  16.935 -0.6446  0.2667 -0.0524
  921MPD2    C413480   1.584   3.788  16.912  0.5695  0.7369 -0.0773
  921MPD2    C513481   1.683   3.858  16.972 -0.0091 -0.2089 -0.1844
  921MPD2     H13482   1.641   3.482  17.039  1.7677 -1.3346 -0.8294
  921MPD2    H113483   1.512   3.845  16.855  1.3080 -0.5803 -2.3187
  921MPD2    H213484   1.869   3.854  17.045 -1.0887  0.7500 -0.7109
  921MPD2    H313485   1.703   3.960  16.942  1.1235 -1.2311 -2.8336
  921MPD2     N13486   1.475   3.578  16.869 -0.3779 -0.4664  0.4177
  921MPD2    H513487   1.406   3.629  16.814  0.9171 -0.1374 -0.9097
  921MPD2    N113488   1.881   3.585  17.110  0.4386  0.1126 -1.1900
  921MPD2    H713489   1.976   3.623  17.109 -0.1289  1.6927  3.3971
  922MPD2     C13490   2.881   1.013  16.786 -0.2816  1.0652  0.5235
  922MPD2    C113491   2.917   1.093  16.891  0.1073 -0.7952  0.1079
  922MPD2    C213492   2.872   1.072  17.020 -0.6661  0.1568 -0.1876
  922MPD2    C313493   2.786   0.964  17.043  0.3725 -0.7196  0.3806
  922MPD2    C413494   2.763   0.878  16.944  0.8866  0.1535  0.0686
  922MPD2    C513495   2.810   0.900  16.822  0.2412  0.2746  0.1446
  922MPD2     H13496   2.889   1.149  17.093 -0.1261 -0.6180  0.5046
  922MPD2    H113497   2.690   0.800  16.958  1.0178 -0.4848 -2.9338
  922MPD2    H213498   2.907   1.021  16.681  1.1284 -1.6114  0.6826
  922MPD2    H313499   2.780   0.827  16.748 -0.6630 -0.4535  1.2409
  922MPD2     N13500   2.721   0.963  17.168 -0.6362 -0.2487 -0.1653
  922MPD2    H513501   2.737   1.037  17.236  1.2217 -0.9824  0.1944
  922MPD2    N113502   3.004   1.204  16.872  0.2157  0.2065 -0.2512
  922MPD2    H713503   3.028   1.257  16.955 -1.5685  1.6227 -0.6391
  923MPD2     C13504   3.036   3.847   8.715  0.1400 -0.1587  0.1460
  923MPD2    C113505   2.980   3.879   8.835 -0.1962  0.0380  0.1048
  923MPD2    C213506   3.054   3.854   8.951  0.2430  0.6813 -0.5934
  923MPD2    C313507   3.181   3.795   8.943 -0.0863 -0.1836 -0.3471
  923MPD2    C413508   3.237   3.761   8.815  0.0678 -0.7006  0.1568
  923MPD2    C513509   3.163   3.794   8.706 -0.5830 -0.5714  0.7931
  923MPD2     H13510   3.012   3.871   9.049 -0.8180  2.5520 -1.3855
  923MPD2    H113511   3.340   3.728   8.805  0.4572  0.3411  0.7760
  923MPD2    H213512   2.987   3.862   8.619 -0.3771  1.5071  0.6759
  923MPD2    H313513   3.210   3.778   8.610 -3.6321  0.6931 -0.9317
  923MPD2     N13514   3.247   3.741   9.050  0.8847  0.0032  0.4726
  923MPD2    H513515   3.318   3.670   9.041  0.9180  0.0723  0.2058
  923MPD2    N113516   2.850   3.941   8.839  0.2474  0.1043 -0.1659
  923MPD2    H713517   2.814   3.981   8.752  1.0633  1.3351  0.0536
  924MPD2     C13518   4.462   1.651  16.151 -0.1587  0.2755 -0.6120
  924MPD2    C113519   4.400   1.700  16.265 -0.4349  0.4755  0.4037
  924MPD2    C213520   4.378   1.839  16.274  0.0459 -0.0017 -0.6152
  924MPD2    C313521   4.414   1.923  16.175  0.1110 -0.5258 -0.0695
  924MPD2    C413522   4.465   1.868  16.061 -0.1631  0.1590  0.0694
  924MPD2    C513523   4.493   1.739  16.054 -0.5234 -0.0182 -0.2293
  924MPD2     H13524   4.335   1.888  16.361 -1.2517 -0.4106 -1.0216
  924MPD2    H113525   4.485   1.926  15.972 -0.6102  0.6714  0.3099
  924MPD2    H213526   4.479   1.545  16.135  0.6059  0.3946 -0.5927
  924MPD2    H313527   4.545   1.710  15.963 -1.8738 -1.4538 -0.5525
  924MPD2     N13528   4.392   2.059  16.191  0.9616  0.2145  0.9720
  924MPD2    H513529   4.363   2.079  16.286 -2.2483 -0.8929  0.2150
  924MPD2    N113530   4.345   1.610  16.352  0.1468 -1.0749 -0.2590
  924MPD2    H713531   4.342   1.511  16.334  1.6577 -0.9241 -1.4269
  925MPD2     C13532   2.553   4.019  14.885  0.3250 -0.0208 -0.0959
  925MPD2    C113533   2.461   4.113  14.835  0.6073  0.2373 -0.6299
  925MPD2    C213534   2.397   4.202  14.921  0.0304 -0.7694 -0.3164
  925MPD2    C313535   2.425   4.196  15.059 -0.3729  0.1563  0.3702
  925MPD2    C413536   2.516   4.105  15.100 -0.9067 -0.1664 -0.2278
  925MPD2    C513537   2.575   4.016  15.015 -0.7539  0.1820  0.6283
  925MPD2     H13538   2.343   4.286  14.879  0.2921 -0.1156  0.6356
  925MPD2    H113539   2.550   4.089  15.202 -1.5351  1.8051  0.2945
  925MPD2    H213540   2.616   3.958  14.820 -0.5610 -1.4137  0.3416
  925MPD2    H313541   2.647   3.946  15.056 -0.0198  0.5455 -0.0396
  925MPD2     N13542   2.365   4.283  15.149  0.0496 -0.2927  0.4515
  925MPD2    H513543   2.402   4.280  15.243  1.4261  0.5178 -0.0658
  925MPD2    N113544   2.424   4.126  14.701 -0.1476 -0.4598  0.2656
  925MPD2    H713545   2.348   4.187  14.674  0.5252  1.3481  2.4945
  926MPD2     C13546   1.114   2.709  13.587  0.6627 -0.2510  0.5015
  926MPD2    C113547   1.050   2.812  13.525  0.3261 -0.3361 -0.3641
  926MPD2    C213548   1.094   2.843  13.394  0.0776 -0.5139 -0.2461
  926MPD2    C313549   1.197   2.774  13.328  0.1218 -0.4466 -0.2792
  926MPD2    C413550   1.262   2.675  13.406 -0.0503  0.4242 -0.6959
  926MPD2    C513551   1.217   2.639  13.526  0.5230  0.4652 -0.1573
  926MPD2     H13552   1.049   2.922  13.335 -0.7912 -1.9272 -1.4710
  926MPD2    H113553   1.350   2.629  13.363  0.4669  0.1490  0.6659
  926MPD2    H213554   1.081   2.670  13.683  0.8002  0.0989  0.6906
  926MPD2    H313555   1.269   2.558  13.576 -1.2744 -0.8819 -0.4694
  926MPD2     N13556   1.261   2.828  13.215 -0.2851  0.0206 -0.3889
  926MPD2    H513557   1.353   2.789  13.198  0.8207  2.5585 -0.2406
  926MPD2    N113558   0.958   2.897  13.585  0.1389  0.8600  0.1126
  926MPD2    H713559   0.922   2.967  13.521  0.9945  2.2974  1.2077
  927MPD2     C13560   2.038   0.377   0.625  0.0329 -0.1442 -0.0003
  927MPD2    C113561   1.908   0.396   0.578 -0.3216  0.6164  0.2979
  927MPD2    C213562   1.889   0.389   0.439 -0.0181 -0.0528 -0.2248
  927MPD2    C313563   1.992   0.345   0.357  0.0473 -0.6980 -1.2992
  927MPD2    C413564   2.116   0.324   0.403  0.0601 -0.0909  0.3526
  927MPD2    C513565   2.139   0.341   0.537  0.0030  0.2982 -0.4149
  927MPD2     H13566   1.794   0.417   0.395 -0.8945 -3.1742 -0.2479
  927MPD2    H113567   2.197   0.289   0.341 -0.4832 -1.6101  0.4936
  927MPD2    H213568   2.040   0.380   0.733  0.9386  1.5363 -0.0742
  927MPD2    H313569   2.244   0.341   0.564 -0.8718 -2.9711  2.9446
  927MPD2     N13570   1.962   0.330   0.221  0.2988 -0.1509  0.4330
  927MPD2    H513571   1.871   0.361   0.190  1.0142  0.8397 -0.6693
  927MPD2    N113572   1.807   0.433   0.669 -0.3317 -0.1960  0.1329
  927MPD2    H713573   1.834   0.434   0.767  0.3608 -2.2428 -0.0245
  928MPD2     C13574   3.767   3.556   1.271  0.5402 -0.1198 -0.4545
  928MPD2    C113575   3.863   3.651   1.304 -0.5452 -0.5490 -1.0959
  928MPD2    C213576   3.933   3.716   1.204  0.1982 -0.9491 -0.5894
  928MPD2    C313577   3.909   3.683   1.071  0.3487 -0.4806  0.1387
  928MPD2    C413578   3.817   3.589   1.038 -0.0625 -0.7261  0.0605
  928MPD2    C513579   3.738   3.537   1.139 -0.2236  0.5524  0.0972
  928MPD2     H13580   4.005   3.793   1.229  0.5333 -1.0881 -1.1220
  928MPD2    H113581   3.785   3.567   0.937  0.7855  2.2192 -0.8551
  928MPD2    H213582   3.719   3.500   1.351  0.8185 -2.0842 -1.6808
  928MPD2    H313583   3.651   3.473   1.126  0.7961 -0.7744 -0.2677
  928MPD2     N13584   3.980   3.745   0.959  0.2010 -0.6407 -0.3324
  928MPD2    H513585   3.966   3.696   0.872  1.5127  0.3825 -1.1226
  928MPD2    N113586   3.883   3.667   1.441 -0.6620 -0.4740 -0.2533
  928MPD2    H713587   3.820   3.614   1.501 -2.1007  3.1325  1.3776
  929MPD2     C13588   3.749   3.461  10.576 -0.6361 -0.2986  0.1549
  929MPD2    C113589   3.654   3.408  10.659 -0.9274  0.1584 -0.0249
  929MPD2    C213590   3.529   3.380  10.604 -0.1937 -0.4859 -0.3625
  929MPD2    C313591   3.505   3.417  10.469 -0.0013 -0.4809 -0.4959
  929MPD2    C413592   3.601   3.471  10.385  0.6527  0.3678 -0.3856
  929MPD2    C513593   3.721   3.495  10.442  0.1486  0.7421 -0.0990
  929MPD2     H13594   3.467   3.321  10.671 -1.1980 -0.8694 -1.6431
  929MPD2    H113595   3.585   3.490  10.280 -2.0973 -0.2581 -0.0685
  929MPD2    H213596   3.847   3.489  10.613  0.1822 -2.9855 -0.0024
  929MPD2    H313597   3.798   3.536  10.377 -0.7530 -2.1274 -2.9629
  929MPD2     N13598   3.381   3.410  10.404  0.0275  0.7314 -0.8113
  929MPD2    H513599   3.355   3.460  10.319 -0.4545  0.6566 -0.7096
  929MPD2    N113600   3.704   3.358  10.788  0.2781 -0.2972 -0.4182
  929MPD2    H713601   3.795   3.395  10.813 -1.2984  1.0098  3.4344
  930MPD2     C13602   0.561   0.618  14.336  0.5071  0.4495  0.8759
  930MPD2    C113603   0.694   0.648  14.343  0.3212  0.7273  0.6767
  930MPD2    C213604   0.784   0.579  14.259  0.4168  0.2560  0.6153
  930MPD2    C313605   0.744   0.474  14.174  0.4433 -0.7202 -0.0170
  930MPD2    C413606   0.611   0.431  14.189 -0.2614 -0.3993  0.0312
  930MPD2    C513607   0.522   0.504  14.266  0.8770  0.6884 -0.1490
  930MPD2     H13608   0.886   0.615  14.262  0.5878 -0.0590 -1.6724
  930MPD2    H113609   0.578   0.343  14.135  0.3728 -0.8975  0.4496
  930MPD2    H213610   0.484   0.668  14.394  1.2662  1.2549  1.1825
  930MPD2    H313611   0.421   0.466  14.250  1.3729 -1.2843  1.5000
  930MPD2     N13612   0.825   0.413  14.078 -0.4278  0.3312  0.3052
  930MPD2    H513613   0.778   0.347  14.018 -1.1351 -0.4987  1.7595
  930MPD2    N113614   0.740   0.749  14.433  0.1567  0.3372 -0.8554
  930MPD2    H713615   0.675   0.812  14.479 -0.1032 -0.1600 -0.5356
  931MPD2     C13616   1.906   0.457   1.252  0.1693 -0.1555  0.1067
  931MPD2    C113617   1.772   0.479   1.247  0.4016 -0.1441 -0.2432
  931MPD2    C213618   1.697   0.468   1.361 -0.4884  0.2093  0.7906
  931MPD2    C313619   1.754   0.432   1.478 -0.0345 -0.3445  0.4253
  931MPD2    C413620   1.893   0.415   1.486 -0.0482  0.5458  0.2791
  931MPD2    C513621   1.963   0.437   1.374 -0.3857  0.2243 -0.2753
  931MPD2     H13622   1.589   0.473   1.361 -0.5373 -1.0048  2.4042
  931MPD2    H113623   1.942   0.382   1.576  0.7639  1.0961  0.0419
  931MPD2    H213624   1.977   0.475   1.172 -3.4876 -0.4712 -3.2345
  931MPD2    H313625   2.071   0.426   1.380 -0.6578 -0.7557  3.3248
  931MPD2     N13626   1.682   0.410   1.596 -0.6219 -0.5605 -0.0191
  931MPD2    H513627   1.734   0.373   1.675 -0.4170 -1.1090 -0.4214
  931MPD2    N113628   1.716   0.481   1.118  0.0470 -0.1322  0.5337
  931MPD2    H713629   1.773   0.444   1.044 -1.0119  0.8005 -0.7535
  932MPD2     C13630   2.624   3.883  12.262  0.1845 -0.2485  0.4254
  932MPD2    C113631   2.713   3.982  12.224  0.2366 -0.2110 -0.4562
  932MPD2    C213632   2.850   3.948  12.236 -0.6503  0.1277  0.0940
  932MPD2    C313633   2.888   3.831  12.301 -0.8854 -0.0423  0.8526
  932MPD2    C413634   2.792   3.754  12.356  0.0907 -0.0673  0.1438
  932MPD2    C513635   2.660   3.779  12.334 -0.1094 -0.6723  0.5252
  932MPD2     H13636   2.922   4.018  12.197 -2.0964  0.7854 -1.4394
  932MPD2    H113637   2.823   3.657  12.394  1.6101  0.1092 -0.6394
  932MPD2    H213638   2.517   3.895  12.255  0.2950 -0.8561 -2.2172
  932MPD2    H313639   2.583   3.711  12.368 -1.2799 -0.7163 -2.2265
  932MPD2     N13640   3.023   3.799  12.320  0.6589  0.7102 -0.6761
  932MPD2    H513641   3.038   3.728  12.391 -0.9860  1.7271  0.7025
  932MPD2    N113642   2.674   4.111  12.179 -0.7395  0.0082 -0.1884
  932MPD2    H713643   2.750   4.171  12.148 -0.8358  0.3316  0.1974
  933MPD2     C13644   3.356   3.795   1.761  0.8218 -0.7623 -0.2054
  933MPD2    C113645   3.455   3.878   1.807  0.3646  0.0923 -0.7705
  933MPD2    C213646   3.430   4.007   1.848  0.6031 -0.2034 -0.4504
  933MPD2    C313647   3.298   4.047   1.847  0.4504  0.6295 -0.2702
  933MPD2    C413648   3.198   3.970   1.785 -0.3218  0.9134  0.2696
  933MPD2    C513649   3.231   3.841   1.751  0.1542 -0.4969  0.7561
  933MPD2     H13650   3.511   4.075   1.873  1.9672 -1.1531 -2.2626
  933MPD2    H113651   3.094   4.001   1.783  0.0293  2.1475  1.1425
  933MPD2    H213652   3.383   3.692   1.741 -2.2392 -1.5628 -0.3141
  933MPD2    H313653   3.156   3.770   1.722  2.4714 -1.8294 -1.9423
  933MPD2     N13654   3.270   4.179   1.895 -0.4654 -0.5578 -0.1252
  933MPD2    H513655   3.338   4.230   1.951  0.5131  0.1435 -1.9585
  933MPD2    N113656   3.587   3.824   1.799  0.4061 -0.0079 -0.3799
  933MPD2    H713657   3.604   3.734   1.756 -1.9484  0.0581 -1.4645
  934MPD2     C13658   4.637   1.806   1.928  0.6335  0.0787  0.0803
  934MPD2    C113659   0.030   1.729   1.901  0.6142 -0.2150 -0.4150
  934MPD2    C213660   0.013   1.604   1.838  1.0073 -0.6418  0.5197
  934MPD2    C313661   4.611   1.546   1.820 -0.3961 -0.3472 -0.8579
  934MPD2    C413662   4.502   1.631   1.838  0.5001  0.3946  0.0628
  934MPD2    C513663   4.518   1.763   1.882  0.5900 -0.1176 -0.3486
  934MPD2     H13664   0.106   1.548   1.827  1.7733  0.6735  0.2729
  934MPD2    H113665   4.398   1.614   1.809  0.5924 -0.4586  0.2421
  934MPD2    H213666   4.632   1.901   1.980  0.1254  0.8594 -1.3763
  934MPD2    H313667   4.437   1.834   1.889  0.1850 -0.6470  0.2862
  934MPD2     N13668   4.595   1.415   1.773 -0.3425  0.2449 -0.0525
  934MPD2    H513669   4.503   1.385   1.743  0.2037 -1.0633 -0.3917
  934MPD2    N113670   0.159   1.771   1.938  0.0749  0.1370 -0.4498
  934MPD2    H713671   0.246   1.725   1.914 -0.0252 -0.1858 -0.2022
  935MPD2     C13672   0.469   0.561   1.673  0.5353  0.2200  0.5897
  935MPD2    C113673   0.393   0.588   1.562 -0.5012  0.5310  0.1715
  935MPD2    C213674   0.300   0.684   1.567  0.6834 -0.2205 -0.1836
  935MPD2    C313675   0.272   0.764   1.672 -0.7494  0.2023 -0.2560
  935MPD2    C413676   0.344   0.737   1.788 -0.3649  0.6016  0.3370
  935MPD2    C513677   0.434   0.628   1.783 -0.0610  0.0899 -0.4790
  935MPD2     H13678   0.235   0.695   1.481 -1.1643  2.3169  1.5569
  935MPD2    H113679   0.310   0.789   1.877 -1.2591  1.3645 -0.4549
  935MPD2    H213680   0.552   0.492   1.685  0.5790  0.4366  1.5158
  935MPD2    H313681   0.492   0.607   1.872  0.0130 -1.3774 -0.8812
  935MPD2     N13682   0.174   0.866   1.672  0.4087  0.8220 -0.3388
  935MPD2    H513683   0.154   0.919   1.757 -1.7344  0.8477 -0.8625
  935MPD2    N113684   0.407   0.522   1.444  0.2243  0.1501  0.3671
  935MPD2    H713685   0.339   0.540   1.370  0.2833 -2.7724 -0.4093
  936MPD2     C13686   2.985   3.230  12.466 -0.5889 -0.6838 -0.1990
  936MPD2    C113687   3.053   3.120  12.519 -0.4572  0.2654  0.5947
  936MPD2    C213688   3.172   3.078  12.466  0.1558 -0.6606 -0.1892
  936MPD2    C313689   3.235   3.154  12.368  0.2065  0.2780 -0.3569
  936MPD2    C413690   3.174   3.270  12.329 -0.1994 -0.4226  0.1129
  936MPD2    C513691   3.050   3.303  12.378 -0.8407  0.5631 -0.7169
  936MPD2     H13692   3.228   3.003  12.520  0.2253  1.4674  2.6919
  936MPD2    H113693   3.217   3.334  12.253 -1.4858  1.6557  1.1505
  936MPD2    H213694   2.891   3.269  12.502  0.4089  0.9253  0.6769
  936MPD2    H313695   2.995   3.386  12.336  0.2513  1.8754  0.4805
  936MPD2     N13696   3.360   3.121  12.310  0.5118 -0.3621 -0.4635
  936MPD2    H513697   3.404   3.194  12.255 -1.2695 -0.1973 -1.6439
  936MPD2    N113698   3.015   3.048  12.638  0.0915  0.5926 -0.1239
  936MPD2    H713699   3.064   2.962  12.661 -1.2382  0.7669  3.4380
  937MPD2     C13700   0.775   3.728  11.924 -0.3368 -0.1186 -0.6476
  937MPD2    C113701   0.836   3.852  11.913  0.1434 -0.7333  0.3352
  937MPD2    C213702   0.903   3.883  11.792 -0.8470  0.2240 -0.4544
  937MPD2    C313703   0.927   3.783  11.705  0.0559  0.1730 -0.1225
  937MPD2    C413704   0.875   3.657  11.727  0.2734  0.5077  0.3094
  937MPD2    C513705   0.800   3.635  11.836 -0.5502  0.3043 -0.2792
  937MPD2     H13706   0.937   3.984  11.773  0.8197 -0.5961 -1.8918
  937MPD2    H113707   0.900   3.573  11.663 -0.9200  0.5110 -0.1550
  937MPD2    H213708   0.702   3.708  12.002  1.0517 -1.0830  0.4235
  937MPD2    H313709   0.751   3.539  11.848  1.5484 -0.8608 -0.9012
  937MPD2     N13710   1.007   3.802  11.595  0.6093 -0.4728  0.2241
  937MPD2    H513711   1.070   3.881  11.587  0.7337 -0.7554 -1.5600
  937MPD2    N113712   0.790   3.955  11.992 -0.2020 -0.4722  0.0133
  937MPD2    H713713   0.788   4.048  11.950  2.4347 -0.5344 -0.2453
  938MPD2     C13714   4.196   0.701   0.849 -0.2830  0.2106  0.8069
  938MPD2    C113715   4.203   0.797   0.946  0.2705  0.4054 -0.1859
  938MPD2    C213716   4.194   0.765   1.078  0.2607 -0.3875 -0.0327
  938MPD2    C313717   4.198   0.633   1.120 -0.5449  0.9048 -1.3062
  938MPD2    C413718   4.196   0.532   1.024  0.5155 -0.4748  0.1410
  938MPD2    C513719   4.184   0.569   0.886 -0.4576  0.4476  0.6712
  938MPD2     H13720   4.190   0.848   1.149  0.7682  0.0263 -0.4902
  938MPD2    H113721   4.186   0.427   1.050 -2.2217 -0.5977 -1.5055
  938MPD2    H213722   4.196   0.737   0.746 -1.4416  1.8375  1.3831
  938MPD2    H313723   4.175   0.491   0.811  0.6886 -0.3814  1.3965
  938MPD2     N13724   4.180   0.588   1.257  0.5728 -0.0131  0.2676
  938MPD2    H513725   4.176   0.488   1.274  0.9955 -0.4822 -2.3426
  938MPD2    N113726   4.212   0.933   0.924 -0.3274 -0.4681  0.2509
  938MPD2    H713727   4.240   0.987   1.005  1.3672  1.2306 -1.4627
  939MPD2     C13728   0.437   2.162   1.283  0.1676 -0.4254 -0.6102
  939MPD2    C113729   0.560   2.225   1.269 -0.0581  0.6638  0.5776
  939MPD2    C213730   0.642   2.183   1.164  0.1882 -0.3644 -0.1567
  939MPD2    C313731   0.590   2.100   1.067  0.0509 -1.0954 -0.2116
  939MPD2    C413732   0.464   2.043   1.083  0.3610  0.3076 -0.0491
  939MPD2    C513733   0.385   2.076   1.192 -0.1635 -0.1013  0.2410
  939MPD2     H13734   0.734   2.240   1.155  0.1706 -0.5900 -1.6600
  939MPD2    H113735   0.421   1.971   1.013  2.7488 -1.4468  0.2744
  939MPD2    H213736   0.380   2.186   1.372  0.4855 -2.1150  0.0580
  939MPD2    H313737   0.292   2.025   1.213 -0.2500  0.7798  2.0591
  939MPD2     N13738   0.676   2.067   0.960 -0.2136  0.4148  0.4228
  939MPD2    H513739   0.754   2.126   0.936 -0.3015  0.2800 -0.2018
  939MPD2    N113740   0.596   2.324   1.364  0.3606  0.0886  0.0304
  939MPD2    H713741   0.523   2.347   1.431 -0.5667  0.3034 -1.0505
  940MPD2     C13742   3.771   2.287  13.153 -0.8136 -0.2201  0.4104
  940MPD2    C113743   3.901   2.238  13.137  0.1786  0.2233 -0.5533
  940MPD2    C213744   3.961   2.232  13.014 -0.3550 -0.3346  0.7050
  940MPD2    C313745   3.879   2.244  12.902 -0.6763 -0.0565 -0.4135
  940MPD2    C413746   3.748   2.286  12.911 -0.1973 -0.0591 -0.2923
  940MPD2    C513747   3.701   2.312  13.036 -0.1392  0.4612 -0.3290
  940MPD2     H13748   4.067   2.210  13.009  0.1477  2.2942  0.0055
  940MPD2    H113749   3.690   2.318  12.826 -0.5184 -1.2473 -0.5151
  940MPD2    H213750   3.725   2.308  13.249 -1.0563 -0.0518  0.2582
  940MPD2    H313751   3.603   2.359  13.039 -0.5216 -0.3544 -0.1870
  940MPD2     N13752   3.922   2.203  12.771 -0.6035  0.1476  0.3346
  940MPD2    H513753   3.863   2.230  12.693 -1.1626 -0.7917  0.4302
  940MPD2    N113754   3.983   2.203  13.242 -0.1811  0.9004 -0.8632
  940MPD2    H713755   4.082   2.192  13.222  0.2223  0.2626  1.3989
  941MPD2     C13756   2.666   2.053  10.018  0.2400 -0.1199  0.2655
  941MPD2    C113757   2.751   2.042  10.119 -0.5186 -0.3897 -0.8697
  941MPD2    C213758   2.734   1.937  10.208  0.3703  0.0705  1.0840
  941MPD2    C313759   2.633   1.845  10.203 -0.3647 -0.3045  1.0788
  941MPD2    C413760   2.543   1.863  10.101 -0.8197 -0.1628  0.4463
  941MPD2    C513761   2.559   1.966  10.013 -0.3660 -0.3430 -0.4907
  941MPD2     H13762   2.799   1.923  10.294  0.3838 -2.9855  0.5475
  941MPD2    H113763   2.457   1.797  10.097 -1.8110  1.1684 -0.1075
  941MPD2    H213764   2.665   2.123   9.935 -0.3575 -0.2983  0.1176
  941MPD2    H313765   2.488   1.970   9.931  0.3691 -0.2589 -1.1152
  941MPD2     N13766   2.610   1.745  10.295 -0.5410  0.2484  0.4733
  941MPD2    H513767   2.526   1.691  10.278 -0.0780  0.5470 -2.8970
  941MPD2    N113768   2.862   2.131  10.129 -0.2976  0.3009 -0.2834
  941MPD2    H713769   2.944   2.110  10.186  1.7840  1.7165 -2.7535
  942MPD2     C13770   2.212   3.874   8.743 -0.8452 -0.1883  0.5190
  942MPD2    C113771   2.216   3.819   8.865 -0.2442  0.7006  0.4593
  942MPD2    C213772   2.339   3.766   8.908 -0.8237  0.5771 -0.1011
  942MPD2    C313773   2.447   3.757   8.823 -0.3647  0.5949 -0.5573
  942MPD2    C413774   2.443   3.817   8.703 -0.0824 -0.1830 -0.1749
  942MPD2    C513775   2.324   3.870   8.665  0.1045  0.2134 -0.0188
  942MPD2     H13776   2.343   3.722   9.007  0.4969 -0.0684 -0.4407
  942MPD2    H113777   2.526   3.805   8.634 -1.8453 -1.9498 -1.9848
  942MPD2    H213778   2.126   3.927   8.705 -1.5050  0.8126  3.3895
  942MPD2    H313779   2.318   3.911   8.565  0.5682 -1.3600 -0.6884
  942MPD2     N13780   2.569   3.701   8.851  0.3683  0.1267 -0.3604
  942MPD2    H513781   2.636   3.708   8.776  0.4808  0.1399 -0.2588
  942MPD2    N113782   2.100   3.821   8.948  0.3252  0.0977 -0.1392
  942MPD2    H713783   2.120   3.779   9.039 -1.9971  5.2071  2.7340
  943MPD2     C13784   1.809   1.460   9.550  0.0082  0.6993  0.7915
  943MPD2    C113785   1.745   1.348   9.600  0.2157 -0.0982 -0.4909
  943MPD2    C213786   1.646   1.288   9.519 -0.2873  0.5935 -0.4452
  943MPD2    C313787   1.607   1.347   9.401  0.4226  0.2137  0.2365
  943MPD2    C413788   1.680   1.459   9.350 -0.2778 -0.0771  0.0048
  943MPD2    C513789   1.781   1.513   9.424 -0.0103  0.1919 -0.2001
  943MPD2     H13790   1.598   1.198   9.556  0.1275 -0.4102 -2.3753
  943MPD2    H113791   1.658   1.498   9.251 -3.1636  0.2291  0.7837
  943MPD2    H213792   1.886   1.505   9.611 -0.8556 -0.0677  2.4496
  943MPD2    H313793   1.849   1.591   9.390 -0.6077  0.8867  0.2223
  943MPD2     N13794   1.516   1.295   9.313 -0.2567  0.1555  0.3173
  943MPD2    H513795   1.501   1.345   9.226  0.2395 -0.0909  0.0885
  943MPD2    N113796   1.784   1.305   9.728  0.0047  0.4456  0.0538
  943MPD2    H713797   1.842   1.367   9.783 -2.1118  2.9816 -0.5639
  944MPD2     C13798   2.292   0.774  11.063  0.6370 -0.5943  0.1442
  944MPD2    C113799   2.167   0.791  11.108  0.5963  0.3359 -0.1264
  944MPD2    C213800   2.140   0.758  11.238  0.7730 -0.6853  0.1809
  944MPD2    C313801   2.239   0.720  11.327  0.2255  0.3145  0.2714
  944MPD2    C413802   2.365   0.697  11.280  0.0993  0.3136 -0.3974
  944MPD2    C513803   2.396   0.731  11.153  0.2744  0.1369  0.2269
  944MPD2     H13804   2.038   0.757  11.273  0.3362  0.9633 -1.0449
  944MPD2    H113805   2.449   0.660  11.337  0.0812  0.3622 -0.3396
  944MPD2    H213806   2.330   0.815  10.970  0.4104  1.0318  0.7570
  944MPD2    H313807   2.496   0.732  11.112 -0.3332 -0.9363 -1.2938
  944MPD2     N13808   2.204   0.707  11.464  0.1757  0.1333 -0.3016
  944MPD2    H513809   2.110   0.737  11.488  0.5366  1.3502 -0.4297
  944MPD2    N113810   2.076   0.825  11.003  0.7031  0.7126  0.5148
  944MPD2    H713811   2.115   0.837  10.910  0.8015 -0.4507  0.4068
    1TCq1    O113812   0.089   1.153  14.470 -0.0692 -0.4117  0.0629
    1TCq1    C113813   0.068   1.261  14.554 -0.2710 -0.4052  0.1336
    1TCq1    O213814   4.696   1.339  14.541 -0.1006 -0.7207 -0.4072
    1TCq1    C213815   0.159   1.252  14.656 -0.1896 -0.3611 -0.8142
    1TCq1    C313816   0.191   1.127  14.710 -0.3126 -0.2809  0.4305
    1TCq1    C413817   0.286   1.137  14.807 -0.2647 -0.2168  0.1692
    1TCq1    C513818   0.324   1.251  14.873  0.5351  0.7378  0.1043
    1TCq1    C613819   0.269   1.373  14.828 -0.1664  0.0110 -0.2743
    1TCq1    C713820   0.174   1.373  14.727 -0.8872 -0.4531  0.7283
    1TCq1    C813821   0.283   1.488  14.908 -0.4717 -0.7095  0.2820
    1TCq1    O413822   0.362   1.483  15.001  0.0493 -0.3391 -0.2404
    1TCq1    C913823   0.349   1.012  14.854  0.3802  0.1267  0.4588
    1TCq1    O513824   0.379   1.001  14.977  0.2602  0.0117 -0.1417
    1TCq1    O613825   0.354   0.920  14.769  0.0928  0.7298 -0.1097
    1TCq1    H113826   0.173   1.106  14.488 -1.3965 -1.7115  2.8420
    1TCq1    H213827   0.170   1.033  14.661  0.3035 -0.6311  0.8473
    1TCq1    H313828   0.384   1.247  14.963 -0.7932 -0.4021  0.9494
    1TCq1    H413829   0.139   1.464  14.679 -0.1030 -1.5621 -1.9470
    2MPD2     C13830   0.294   2.011  14.902 -0.3152 -0.6615  0.8331
    2MPD2    C113831   0.232   1.960  14.791 -0.2218 -0.5325 -0.2581
    2MPD2    C213832   0.210   1.824  14.776  0.1396  0.1063 -0.0800
    2MPD2    C313833   0.258   1.736  14.869  0.3265  0.1170 -0.5158
    2MPD2    C413834   0.327   1.785  14.981 -0.2114 -0.2607  0.0383
    2MPD2    C513835   0.335   1.923  15.000 -0.1825  0.2830 -0.3103
    2MPD2     H13836   0.168   1.784  14.685  0.2985 -0.7856  0.2380
    2MPD2    H113837   0.374   1.725  15.058 -2.8335 -1.6948  0.5212
    2MPD2    H213838   0.314   2.117  14.919  1.6657 -0.8362 -0.3919
    2MPD2    H313839   0.390   1.966  15.083 -1.4325 -0.3208  0.8284
    2MPD2     N13840   0.245   1.600  14.834  0.7983 -0.6393 -0.0199
    2MPD2    H513841   0.217   1.581  14.738 -0.3869 -0.0773  0.2014
    2MPD2    N113842   0.204   2.047  14.686  0.0927  0.3836  0.0572
    2MPD2    H713843   0.241   2.141  14.693 -0.2121  0.5286 -0.2730
    3TMC2    C113844   0.124   2.139  14.484 -0.7902  0.4439 -0.1496
    3TMC2    C213845   0.174   2.260  14.519 -0.5178 -0.9388 -0.0417
    3TMC2    C313846   0.215   2.345  14.424  0.3174  0.7054 -0.4044
    3TMC2    C413847   0.103   2.101  14.355  0.4074 -0.2986  0.3062
    3TMC2    C513848   0.156   2.188  14.260 -1.1557  0.2540 -0.2525
    3TMC2    C613849   0.221   2.303  14.296 -0.0144 -0.9051 -0.1559
    3TMC2     C13850   0.122   2.025  14.579 -0.6720  0.1645 -0.5534
    3TMC2     O13851   0.055   1.927  14.557 -0.0467 -0.1751  0.3129
    3TMC2     H13852   0.159   2.303  14.617  2.4866  1.8780 -0.8173
    3TMC2    H113853   0.058   2.004  14.334 -0.2341 -0.1505  0.9683
    3TMC2    H213854   0.274   2.364  14.224  0.8777  1.5153  2.5543
    3TMC2    C713855   0.151   2.137  14.131 -0.3475  0.7592  0.1293
    3TMC2    C813856   0.235   2.484  14.448 -0.1157  0.4851  0.2094
    3TMC2    O113857   0.128   2.015  14.115 -0.9823 -0.4477  0.0656
    3TMC2    O213858   0.208   2.570  14.370  0.0812  0.0213  0.2767
    3TMC2    O513859   0.316   2.487  14.555  0.0225  0.3416  0.4264
    3TMC2    H513860   0.339   2.404  14.602  0.5070  0.4276  0.3380
    4MPD2     C13861   3.805   2.972  13.489  0.2092  0.5898  0.0513
    4MPD2    C113862   3.871   2.974  13.368  1.0042 -0.2761  0.6368
    4MPD2    C213863   4.004   2.935  13.358 -0.2507 -0.6703  0.0863
    4MPD2    C313864   4.071   2.892  13.474 -0.1748 -0.0531  0.5903
    4MPD2    C413865   4.013   2.892  13.596  0.0944 -0.0370  0.3802
    4MPD2    C513866   3.883   2.937  13.593  0.2773  0.3983 -0.7962
    4MPD2     H13867   4.055   2.935  13.262 -0.2028 -2.4866  0.1144
    4MPD2    H113868   4.053   2.849  13.687 -0.8904  0.5892  1.1143
    4MPD2    H213869   3.705   3.011  13.500  0.5073  1.1693  0.7422
    4MPD2    H313870   3.848   2.940  13.695  1.4035  1.6585 -0.4488
    4MPD2     N13871   4.197   2.840  13.457  0.0651 -0.5816 -0.0191
    4MPD2    H513872   4.227   2.814  13.364  2.4412  0.6434  0.4019
    4MPD2    N113873   3.800   3.014  13.256 -0.2234  0.0753 -0.2759
    4MPD2    H713874   3.699   3.020  13.256 -0.3557 -2.1389  2.0114
    5TCq2    C113875   4.291   2.827  13.553 -0.0590  0.4976 -0.6186
    5TCq2    O213876   4.292   2.850  13.675 -0.3872  0.2363  0.0684
    5TCq2    C213877   4.417   2.765  13.510 -0.6187 -0.3260 -1.2526
    5TCq2    C313878   4.429   2.728  13.384  0.4654 -0.1546  0.2062
    5TCq2    C413879   4.520   2.635  13.340 -0.6265 -0.2486 -0.4274
    5TCq2    C513880   4.597   2.569  13.434  0.5797  1.1628 -0.3916
    5TCq2    C613881   4.586   2.615  13.564 -1.1310 -0.5545  0.9447
    5TCq2    C713882   4.500   2.714  13.600 -0.3778  0.0689  0.4185
    5TCq2    C813883   4.670   2.553  13.666 -0.5783 -0.7557 -0.2768
    5TCq2    O413884   4.665   2.590  13.781 -0.4314 -0.1402 -0.2599
    5TCq2    C913885   4.520   2.603  13.199  0.0896 -0.7669  0.1554
    5TCq2    O513886   4.413   2.626  13.138 -0.3958  0.4703  0.1794
    5TCq2    O613887   4.611   2.521  13.166 -0.4714  0.6900 -1.0025
    5TCq2    H213888   4.389   2.791  13.305  2.3434 -2.1569 -2.3344
    5TCq2    H313889   4.658   2.494  13.385  0.8610  0.1456  1.5338
    5TCq2    H413890   4.494   2.754  13.701  0.3524 -0.5703  0.7177
    6MPD1     C13891   2.534   4.206  12.979  0.5743  0.6991  0.5429
    6MPD1    C113892   2.542   4.116  13.076  0.3041 -0.3047 -0.8988
    6MPD1    C213893   2.622   4.000  13.063 -0.6138 -0.3078 -0.1057
    6MPD1    C313894   2.694   3.993  12.943 -0.0326  0.5860 -0.1618
    6MPD1    C413895   2.697   4.091  12.848 -0.5348 -0.3914  0.1082
    6MPD1    C513896   2.615   4.197  12.869  0.4328 -0.5578  0.7673
    6MPD1     H13897   2.617   3.926  13.142  2.8992  0.6356  1.0076
    6MPD1    H113898   2.752   4.085  12.755 -1.0538  0.6711 -0.2594
    6MPD1    H213899   2.474   4.296  12.988 -2.8203 -1.7931  2.6400
    6MPD1    H313900   2.618   4.270  12.789  1.2780 -1.1101  0.2913
    6MPD1     N13901   2.775   3.877  12.910  0.0333 -0.3603 -0.3082
    6MPD1    H513902   2.823   3.877  12.820 -2.2511 -2.8536 -1.5445
    6MPD1    N113903   2.445   4.121  13.177  0.1234  0.2593  0.6595
    6MPD1    H613904   2.470   4.077  13.265 -0.0151  0.0992  0.6200
    6MPD1    H713905   2.418   4.215  13.207  0.9836  1.0168 -0.9719
    7MPD2     C13906   2.982   3.044  13.135 -0.0740  0.3198 -0.8683
    7MPD2    C113907   3.066   3.136  13.077  0.5861  0.2707 -0.1617
    7MPD2    C213908   3.195   3.109  13.054 -0.3026  0.1163 -0.4246
    7MPD2    C313909   3.246   2.981  13.085 -0.2236 -0.0554  0.8099
    7MPD2    C413910   3.165   2.889  13.150 -0.1578  0.2618  0.2755
    7MPD2    C513911   3.036   2.919  13.166 -0.1950  0.0784 -0.2956
    7MPD2     H13912   3.255   3.186  13.006 -0.2703 -0.6959 -1.6909
    7MPD2    H113913   3.198   2.786  13.153  1.2482  0.7778  2.2520
    7MPD2    H213914   2.874   3.056  13.135 -0.2147 -0.8629  0.7947
    7MPD2    H313915   2.972   2.847  13.216 -0.7540 -1.2076 -2.8716
    7MPD2     N13916   3.378   2.935  13.046 -0.6496  0.2727 -0.2778
    7MPD2    H513917   3.427   2.856  13.088 -0.5611  1.0524  1.0757
    7MPD2    N113918   3.005   3.252  13.021 -0.2396  0.3786 -0.0742
    7MPD2    H713919   3.072   3.311  12.971  2.5260  0.3139  3.5834
    8TMC3    C113920   3.576   2.955  12.923  0.3759 -0.3235  0.8985
    8TMC3    C213921   3.651   2.972  13.035 -0.3757 -0.1039 -0.5679
    8TMC3    C313922   3.770   3.044  13.025  0.6844  0.0083  0.4292
    8TMC3    C413923   3.618   3.007  12.805  0.2116 -0.1202  0.1117
    8TMC3    C513924   3.741   3.078  12.798  0.6886  0.7212 -0.7528
    8TMC3    C613925   3.814   3.104  12.910  0.3477 -0.3829 -0.0615
    8TMC3     C13926   3.436   2.988  12.935 -0.3203  0.0723  0.4132
    8TMC3     O13927   3.393   3.072  12.855 -0.6264 -0.0973  0.0197
    8TMC3     H13928   3.617   2.926  13.127  0.7117  1.3625  0.5656
    8TMC3    H113929   3.557   2.986  12.717 -0.4022  1.5053  0.1534
    8TMC3    H213930   3.888   3.182  12.908 -0.5122  0.4649  1.1252
    8TMC3    C713931   3.725   3.190  12.702 -0.1850 -0.7409 -0.3485
    8TMC3    C813932   3.860   3.043  13.135 -0.4244  0.1242 -0.6995
    8TMC3    O113933   3.827   3.242  12.658  0.5817 -0.2609 -0.5954
    8TMC3    O213934   3.972   3.088  13.114  0.5284 -0.8518 -0.6866
    9TMC3    C113935   2.829   3.646  12.899 -0.1638  0.3482 -0.0692
    9TMC3    C213936   2.907   3.661  12.790  0.5392 -0.2258  0.6409
    9TMC3    C313937   2.961   3.540  12.748  0.4585  0.1984 -0.1961
    9TMC3    C413938   2.814   3.528  12.964  0.2719 -0.1045 -0.5884
    9TMC3    C513939   2.882   3.417  12.926  0.6410 -0.0950  0.4085
    9TMC3    C613940   2.954   3.416  12.812  0.1441 -0.5286  1.0714
    9TMC3     C13941   2.761   3.752  12.967 -0.1958 -0.1415  0.5916
    9TMC3     O13942   2.722   3.726  13.079 -0.2572 -0.6226  0.3522
    9TMC3     H13943   2.928   3.754  12.738  0.8970  0.6203  2.3001
    9TMC3    H113944   2.751   3.517  13.051  1.9582 -3.5200  0.2330
    9TMC3    H213945   2.983   3.322  12.766 -1.0063 -0.7649  0.8226
    9TMC3    C713946   2.881   3.304  13.017 -0.4376  0.2011 -0.8429
    9TMC3    C813947   3.078   3.541  12.657 -0.0012 -0.0900 -0.4916
    9TMC3    O113948   2.794   3.292  13.102 -0.3358  0.6700  0.3218
    9TMC3    O213949   3.085   3.621  12.564  0.4748 -0.5833  0.0236
   10MPD2     C13950   3.563   3.389  12.542 -0.2791 -0.3722  0.1465
   10MPD2    C113951   3.514   3.327  12.655  0.5753  0.0871 -0.2429
   10MPD2    C213952   3.385   3.343  12.698 -0.0254  0.2369 -0.2848
   10MPD2    C313953   3.298   3.431  12.638  0.1110  0.1548 -0.2462
   10MPD2    C413954   3.346   3.494  12.522  0.4181  0.2672 -0.0348
   10MPD2    C513955   3.474   3.466  12.467 -0.1785 -0.2087 -0.4808
   10MPD2     H13956   3.358   3.299  12.794  0.2512  0.6836 -0.0006
   10MPD2    H113957   3.275   3.548  12.461  0.6944 -0.0134 -0.6047
   10MPD2    H213958   3.667   3.385  12.512 -0.2435  0.3717  0.1694
   10MPD2    H313959   3.520   3.509  12.379 -1.8270  0.5610 -0.9611
   10MPD2     N13960   3.176   3.456  12.699 -0.4559 -0.3947  0.3290
   10MPD2    H513961   3.156   3.410  12.788  1.9292  0.4444  1.3210
   10MPD2    N113962   3.591   3.223  12.713 -0.0617 -0.3888 -0.2168
   10MPD2    H713963   3.539   3.164  12.777  0.4476  2.5464  2.9171
   11MPD2     C13964   0.144   2.116  13.836 -0.8061  0.3134 -0.0947
   11MPD2    C113965   0.119   2.237  13.904  0.3866  0.5523  0.0182
   11MPD2    C213966   0.074   2.349  13.837 -0.3242  0.2930  0.4481
   11MPD2    C313967   0.036   2.333  13.703 -0.2707  0.5314 -0.4833
   11MPD2    C413968   0.052   2.207  13.638  0.3411 -0.2574  0.2383
   11MPD2    C513969   0.115   2.102  13.706 -0.6230 -0.2734  0.0313
   11MPD2     H13970   0.062   2.440  13.895 -2.3966  1.4130 -1.7469
   11MPD2    H113971   0.024   2.193  13.535  2.4437  3.0353 -0.7696
   11MPD2    H213972   0.202   2.039  13.886 -0.6830  1.2175  1.1577
   11MPD2    H313973   0.146   2.019  13.643 -0.3886 -0.6046  0.5846
   11MPD2     N13974   4.707   2.433  13.622  0.9179 -0.2793  0.0717
   11MPD2    H513975   4.685   2.403  13.527 -1.0165 -2.1155  1.0968
   11MPD2    N113976   0.142   2.244  14.041  0.0625  0.4149 -0.2628
   11MPD2    H713977   0.138   2.341  14.070  0.1025  0.0660  0.8948
    1MPD1     C13978   2.323   3.839   0.345 -0.2546  0.4335  0.1485
    1MPD1    C113979   2.240   3.756   0.269  0.0586 -0.5376 -0.2486
    1MPD1    C213980   2.289   3.702   0.154 -0.0455 -0.7944  0.1963
    1MPD1    C313981   2.392   3.759   0.081  0.2043 -0.5999 -0.1608
    1MPD1    C413982   2.459   3.854   0.147 -0.2025  0.0132 -0.3211
    1MPD1    C513983   2.431   3.878   0.278  0.7858 -0.7812 -0.1502
    1MPD1     H13984   2.240   3.616   0.110 -2.7349  1.0173 -0.3390
    1MPD1    H113985   2.550   3.899   0.109 -0.2877 -0.7245 -1.4079
    1MPD1    H213986   2.322   3.863   0.451 -1.6635 -1.3597  0.5457
    1MPD1    H313987   2.493   3.946   0.336  0.4340 -2.3803  2.0916
    1MPD1     N13988   2.428   3.718  17.646 -0.2271 -0.1193  0.0027
    1MPD1    H513989   2.520   3.743  17.610  0.3309 -2.1736  0.0499
    1MPD1    N113990   2.126   3.695   0.325 -0.6622  0.5093 -0.3162
    1MPD1    H613991   2.074   3.660   0.244  1.2508 -0.5211 -1.1004
    1MPD1    H713992   2.068   3.761   0.377  0.0672  0.6123  0.3621
    2MPD1     C13993   3.194   3.829  17.290 -0.0175  0.4063 -0.4061
    2MPD1    C113994   3.118   3.922  17.358 -0.1643 -0.0886 -0.3150
    2MPD1    C213995   2.978   3.894  17.358 -0.6209  0.4201  0.1927
    2MPD1    C313996   2.927   3.778  17.312  0.5112 -0.4813  0.1981
    2MPD1    C413997   3.010   3.684  17.255 -0.0829  0.3086 -0.0735
    2MPD1    C513998   3.143   3.713  17.239  0.7845  0.3499  0.8645
    2MPD1     H13999   2.908   3.963  17.404 -0.5006  1.8704 -1.8054
    2MPD1    H114000   2.973   3.589  17.220  1.8602 -0.5932  0.3477
    2MPD1    H214001   3.294   3.849  17.254  0.5267 -1.6666 -0.0467
    2MPD1    H314002   3.208   3.647  17.183 -0.3156  2.0107 -2.3791
    2MPD1     N14003   2.786   3.747  17.323  0.8406 -0.5114 -0.2843
    2MPD1    H514004   2.735   3.801  17.392  1.5243  1.0246 -0.9767
    2MPD1    N114005   3.173   4.046  17.386 -0.1550  0.4489 -0.3314
    2MPD1    H614006   3.122   4.071  17.470 -0.5343 -1.9699  0.1551
    2MPD1    H714007   3.271   4.049  17.411 -0.7272  0.4693  1.9338
    3TMC3    C114008   2.577   3.657  17.273  0.0948 -0.3058 -0.2919
    3TMC3    C214009   2.489   3.662  17.164 -0.5187 -0.2911  0.3137
    3TMC3    C314010   2.356   3.656  17.197 -1.0655 -0.6998 -0.3085
    3TMC3    C414011   2.535   3.654  17.406  0.0724 -0.3450  0.1273
    3TMC3    C514012   2.401   3.653  17.427 -0.3902 -0.1826 -0.4177
    3TMC3    C614013   2.312   3.659  17.325  0.4223  0.1815 -0.3418
    3TMC3     C14014   2.720   3.666  17.238  0.2209  0.4467 -0.0232
    3TMC3     O14015   2.750   3.623  17.126 -0.8816 -0.2632  0.4462
    3TMC3     H14016   2.531   3.690  17.068 -0.8620 -1.4719 -0.1881
    3TMC3    H114017   2.607   3.644  17.486 -1.2546  2.1093  1.6138
    3TMC3    H214018   2.207   3.668  17.349  0.2988 -1.4604 -0.2424
    3TMC3    C714019   2.345   3.651  17.555 -0.3577  0.1403  0.2566
    3TMC3    C814020   2.253   3.698  17.100  0.1203 -0.2142  0.5794
    3TMC3    O114021   2.228   3.622  17.575  0.0093 -0.7302 -0.2708
    3TMC3    O214022   2.138   3.724  17.144 -0.4395  0.9258  0.6509
    4MPD1     C14023   2.005   3.615  16.661 -0.0753  0.8399  0.0434
    4MPD1    C114024   2.120   3.540  16.661 -0.1680 -0.7841  0.2085
    4MPD1    C214025   2.222   3.572  16.750  0.1204  0.3169 -0.2553
    4MPD1    C314026   2.193   3.648  16.865 -0.8892 -0.3977 -0.3560
    4MPD1    C414027   2.081   3.725  16.859 -0.4424 -0.1767  0.0314
    4MPD1    C514028   1.994   3.720  16.753  0.4865 -0.4011  0.2885
    4MPD1     H14029   2.316   3.518  16.747 -0.5381 -0.8242 -0.0942
    4MPD1    H114030   2.053   3.791  16.940  0.6933 -0.7061  0.8512
    4MPD1    H214031   1.918   3.607  16.596  0.8164 -0.2105 -1.0286
    4MPD1    H314032   1.896   3.766  16.752  0.3536 -0.7173 -1.2569
    4MPD1     N14033   2.284   3.647  16.972 -0.1115  0.8773 -0.5681
    4MPD1    H514034   2.371   3.595  16.962 -0.9949 -0.3436 -1.8315
    4MPD1    N114035   2.137   3.467  16.539  0.1009  0.1899 -0.8416
    4MPD1    H614036   2.049   3.420  16.517  0.3883 -0.8994  0.3039
    4MPD1    H714037   2.206   3.393  16.539  2.2743  2.2335  0.5603
    1TCq1    O114038   3.105   4.190  12.073  0.2973  0.2772  0.3661
    1TCq1    C114039   2.993   4.190  11.996  0.5039 -1.2165  0.3521
    1TCq1    O214040   2.888   4.245  12.021  0.1690 -0.5239 -0.3180
    1TCq1    C214041   3.028   4.146  11.866  0.2688 -0.2049  0.0525
    1TCq1    C314042   3.142   4.067  11.849  0.4831 -0.2295 -0.0753
    1TCq1    C414043   3.171   4.038  11.719  0.3340  0.2817 -0.9577
    1TCq1    C514044   3.094   4.079  11.615 -0.2831 -0.0814 -0.2599
    1TCq1    C614045   2.989   4.164  11.642 -0.2886 -0.0741  0.2933
    1TCq1    C714046   2.948   4.195  11.767  0.3927  0.5801 -0.5608
    1TCq1    C814047   2.908   4.225  11.540 -0.5945  0.6317  0.0999
    1TCq1    O414048   2.819   4.298  11.576  0.0502 -0.1600 -0.3047
    1TCq1    C914049   3.264   3.930  11.698  0.0129 -0.2253 -0.2865
    1TCq1    O514050   3.305   3.880  11.807  0.2130  0.5567  0.3584
    1TCq1    O614051   3.307   3.910  11.582 -0.0705 -0.1840  0.1916
    1TCq1    H114052   3.190   4.167  12.030 -1.1833 -0.3460 -2.2234
    1TCq1    H214053   3.173   3.993  11.921 -0.9347 -2.2946 -1.6055
    1TCq1    H314054   3.112   4.041  11.515  2.1560  0.5896 -0.0498
    1TCq1    H414055   2.869   4.264  11.794 -1.0068 -1.1766 -0.1949
    2MPD1     C14056   2.796   4.331  11.058  0.1763  0.4372  0.2844
    2MPD1    C114057   2.869   4.217  11.052 -0.5850  0.9748 -0.3176
    2MPD1    C214058   2.931   4.187  11.167  0.9442  0.3473  0.1642
    2MPD1    C314059   2.897   4.248  11.292 -0.4836  0.4433 -0.4265
    2MPD1    C414060   2.810   4.352  11.295  0.3159 -0.7574 -0.8867
    2MPD1    C514061   2.764   4.396  11.174 -0.1930 -0.1682  0.6505
    2MPD1     H14062   2.992   4.098  11.159  0.6648  0.1698 -0.0006
    2MPD1    H114063   2.773   4.404  11.382 -1.0786  0.1963 -2.0380
    2MPD1    H214064   2.749   4.380  10.974 -0.1058 -0.6495 -0.1833
    2MPD1    H314065   2.706   4.488  11.178  1.1030  0.5663  2.6345
    2MPD1     N14066   2.952   4.197  11.410 -0.4386  0.4922  0.0022
    2MPD1    H514067   3.027   4.130  11.399 -1.0557 -0.4312  1.4598
    2MPD1    N114068   2.913   4.161  10.927  0.1186  0.7808 -0.5266
    2MPD1    H614069   2.933   4.062  10.939  1.1487  1.0287 -0.2752
    2MPD1    H714070   2.838   4.164  10.858  0.2701 -1.3071 -0.7893
    1TCq1    O114071   4.073   3.208   0.901  0.5605  0.0728  0.2492
    1TCq1    C114072   4.092   3.336   0.888 -0.2088 -0.6692  0.7004
    1TCq1    O214073   4.080   3.410   0.793  0.2076 -1.0741  0.2115
    1TCq1    C214074   4.130   3.380   1.024  0.1908 -0.5615  0.7457
    1TCq1    C314075   4.214   3.480   1.031  0.9779  0.1909  1.0557
    1TCq1    C414076   4.260   3.514   1.156 -1.1714 -0.4910  0.1312
    1TCq1    C514077   4.197   3.467   1.265  0.1792 -0.2832  0.2092
    1TCq1    C614078   4.105   3.361   1.255  0.5182 -0.3528  0.4696
    1TCq1    C714079   4.075   3.307   1.130 -0.0301  0.3170 -0.1783
    1TCq1    C814080   4.015   3.323   1.366  0.5030 -0.4554 -0.0418
    1TCq1    O414081   3.909   3.260   1.340  0.8310 -0.1035  0.3916
    1TCq1    C914082   4.348   3.625   1.170  0.3847  0.0090  0.1976
    1TCq1    O514083   4.386   3.649   1.286 -0.5718  0.4763 -0.0742
    1TCq1    O614084   4.383   3.686   1.069 -0.5380  0.2560 -0.2163
    1TCq1    H114085   4.128   3.172   0.974  1.1278 -1.0993 -0.7568
    1TCq1    H214086   4.245   3.536   0.944 -0.8720  1.0797  0.9786
    1TCq1    H314087   4.210   3.511   1.363  2.0147  0.2842 -0.3083
    1TCq1    H414088   4.004   3.227   1.117  0.4770 -0.2966  0.8384
    2MPD1     C14089   3.887   3.401   1.852  1.1355 -0.1322 -0.3315
    2MPD1    C114090   4.019   3.422   1.842  0.5237  0.0960 -0.2376
    2MPD1    C214091   4.086   3.404   1.724 -0.1898  0.2667  0.5080
    2MPD1    C314092   4.007   3.360   1.612 -0.1584  0.0038 -0.7755
    2MPD1    C414093   3.878   3.328   1.631  0.1189 -0.3083  0.2338
    2MPD1    C514094   3.817   3.344   1.750  0.3317 -0.4059 -0.6243
    2MPD1     H14095   4.187   3.441   1.709 -0.7055  1.9299  1.1939
    2MPD1    H114096   3.814   3.300   1.548 -1.1929 -0.4656  1.3047
    2MPD1    H214097   3.826   3.407   1.942 -1.9008 -0.3956 -2.3497
    2MPD1    H314098   3.713   3.316   1.756 -0.0361  0.5947 -2.1272
    2MPD1     N14099   4.069   3.360   1.485 -0.2832  0.1593  0.1183
    2MPD1    H514100   4.166   3.390   1.478 -0.8376  1.1787 -3.1456
    2MPD1    N114101   4.084   3.489   1.952 -0.4140  0.3003  0.0997
    2MPD1    H614102   4.033   3.457   2.034 -0.0522 -1.6079 -0.4100
    2MPD1    H714103   4.183   3.465   1.962 -0.4883 -0.0463 -0.0111
    1MPD1     C14104   4.162   3.731  12.543 -0.9585  0.4534  0.5945
    1MPD1    C114105   4.167   3.856  12.483 -0.4298 -0.1739  0.3517
    1MPD1    C214106   4.294   3.911  12.472 -0.1792 -0.3730  0.1455
    1MPD1    C314107   4.411   3.850  12.507 -0.5895  0.3656 -0.2495
    1MPD1    C414108   4.400   3.728  12.570  0.2071 -0.4256  0.2420
    1MPD1    C514109   4.278   3.673  12.593 -0.1378  0.4858  0.0435
    1MPD1     H14110   4.301   4.003  12.415 -0.1869 -0.3988  0.1036
    1MPD1    H114111   4.487   3.665  12.583 -0.6991 -1.4885  1.3103
    1MPD1    H214112   4.069   3.677  12.555 -0.1310 -1.3773 -1.2517
    1MPD1    H314113   4.272   3.573  12.634 -0.6697 -0.3376 -2.0186
    1MPD1     N14114   4.529   3.906  12.442 -0.0155 -0.1424  0.0970
    1MPD1    H514115   4.530   3.998  12.400 -1.4765  0.5013  1.4671
    1MPD1    N114116   4.061   3.932  12.445 -0.3264  0.4903 -0.3518
    1MPD1    H614117   3.982   3.876  12.415 -1.2081  2.0683 -0.9863
    1MPD1    H714118   4.088   3.999  12.372 -0.0441  1.5650  0.7327
    2MPD1     C14119   4.031   4.510  11.675 -0.0379  0.6850  0.2695
    2MPD1    C114120   3.982   4.516  11.554 -0.7399 -0.2076  0.5034
    2MPD1    C214121   4.030   4.432  11.464  0.1296  0.5419 -0.3847
    2MPD1    C314122   4.146   4.349  11.495 -0.2453  0.1158  0.0106
    2MPD1    C414123   4.203   4.364  11.618 -0.3924 -0.4407  0.1554
    2MPD1    C514124   4.143   4.440  11.710  0.0883 -0.2079 -0.8908
    2MPD1     H14125   3.973   4.434  11.371  2.8959 -0.9805 -2.1278
    2MPD1    H114126   4.285   4.301  11.650 -0.7408 -1.0951 -0.2293
    2MPD1    H214127   3.991   4.567  11.758 -0.7779  2.5469 -1.3855
    2MPD1    H314128   4.183   4.448  11.811  1.1276 -1.0982 -1.2348
    2MPD1     N14129   4.205   4.254  11.410  0.4323  0.4026  0.5961
    2MPD1    H514130   4.290   4.217  11.450 -0.6797 -0.9994  1.6656
    2MPD1    N114131   3.861   4.583  11.543 -0.2295 -0.0364  0.1061
    2MPD1    H614132   3.845   4.653  11.615  0.8663  2.1827 -1.7955
    2MPD1    H714133   3.852   4.616  11.447 -1.5900 -1.5284 -0.2742
    3MPD1     C14134   4.192   3.862  10.405  0.1553 -0.1097 -0.0042
    3MPD1    C114135   4.271   3.977  10.422  0.8256 -0.6131 -0.0597
    3MPD1    C214136   4.288   4.015  10.554 -0.0782  0.5197 -0.0259
    3MPD1    C314137   4.238   3.941  10.663 -0.1132  0.4453  0.2885
    3MPD1    C414138   4.155   3.833  10.637 -0.7396  0.1945 -0.1897
    3MPD1    C514139   4.125   3.806  10.504  0.0188 -0.0849 -0.9053
    3MPD1     H14140   4.355   4.096  10.578 -0.1442  0.9185 -1.1876
    3MPD1    H114141   4.109   3.772  10.714  2.2461 -0.2062  1.3055
    3MPD1    H214142   4.183   3.822  10.305  0.6510  1.4357 -0.6720
    3MPD1    H314143   4.075   3.711  10.490  0.9920 -0.7272 -0.0679
    3MPD1     N14144   4.258   3.987  10.792 -0.2990 -0.4932 -0.2999
    3MPD1    H514145   4.314   4.071  10.792  1.9229 -1.9986  1.3659
    3MPD1    N114146   4.354   4.029  10.319 -0.2112  0.5193  0.3608
    3MPD1    H614147   4.379   4.125  10.339 -0.7975  0.7220  0.1284
    3MPD1    H714148   4.318   4.027  10.223  1.2103 -2.5613 -0.1369
    4MPD2     C14149   0.098   4.361  11.915  0.4862  0.1996  0.6693
    4MPD2    C114150   0.172   4.254  11.951 -0.3207  0.1925 -0.3834
    4MPD2    C214151   0.265   4.198  11.863  0.4763  0.1283 -0.2001
    4MPD2    C314152   0.285   4.259  11.742  0.0564  0.2457 -0.5031
    4MPD2    C414153   0.207   4.369  11.701  0.2877  0.3489  0.1841
    4MPD2    C514154   0.108   4.410  11.792  0.3433 -0.3998  0.1752
    4MPD2     H14155   0.310   4.101  11.881 -0.1671 -0.0770  0.3087
    4MPD2    H114156   0.219   4.424  11.609 -0.0176 -0.6535 -0.4490
    4MPD2    H214157   0.020   4.406  11.975  0.0991  0.2688  0.1115
    4MPD2    H314158   0.041   4.493  11.771 -0.6347 -0.8338  1.5978
    4MPD2     N14159   0.383   4.227  11.648 -0.4448 -0.4327 -0.0422
    4MPD2    H514160   0.385   4.281  11.562  1.8846  2.1579  1.6665
    4MPD2    N114161   0.168   4.201  12.080 -0.3450 -0.2889 -0.2837
    4MPD2    H714162   0.247   4.142  12.099  0.5534  0.9938 -0.0127
    5TMC3    C114163   0.097   4.136  12.282  0.1375  0.7236 -0.0447
    5TMC3    C214164   4.718   4.060  12.326 -0.0319  0.0686 -0.1160
    5TMC3    C314165   0.017   3.929  12.362 -0.3081  0.0663  0.0753
    5TMC3    C414166   0.223   4.084  12.265  1.0007 -0.3500  0.0322
    5TMC3    C514167   0.238   3.953  12.279  0.1411  0.6245  0.3343
    5TMC3    C614168   0.136   3.872  12.334  0.1782  0.1836  0.3388
    5TMC3     C14169   0.076   4.232  12.180  0.6313 -0.7585  0.7589
    5TMC3     O14170   4.706   4.304  12.180 -0.1113  0.0936  0.3948
    5TMC3     H14171   4.625   4.105  12.360  2.0467  2.9856  1.7412
    5TMC3    H114172   0.310   4.146  12.248  0.6067  0.0357 -0.5738
    5TMC3    H214173   0.157   3.766  12.347 -0.9934  0.0982  1.5161
    5TMC3    C714174   0.325   3.900  12.176  0.2235 -0.1704  0.4029
    5TMC3    C814175   4.649   3.847  12.443 -0.5087 -0.2580 -1.1296
    5TMC3    O114176   0.398   3.983  12.125 -0.0595  0.4020  0.1420
    5TMC3    O214177   4.691   3.748  12.497  0.5145  0.4428  0.2843
    6TMC3    C114178   4.252   4.128  11.227  0.9336 -0.0824 -0.5809
    6TMC3    C214179   4.203   4.041  11.132 -0.3459 -1.0257  0.7541
    6TMC3    C314180   4.277   3.997  11.029  0.3621  0.0932  0.4622
    6TMC3    C414181   4.383   4.158  11.225  0.9684  0.1779 -0.6762
    6TMC3    C514182   4.455   4.109  11.123 -0.4925 -0.3666 -0.3490
    6TMC3    C614183   4.407   4.031  11.022  0.2215 -0.1281 -0.0196
    6TMC3     C14184   4.150   4.205  11.296  0.2688  0.4147  0.2281
    6TMC3     O14185   4.038   4.229  11.246  0.2852  0.6867 -0.2270
    6TMC3     H14186   4.098   4.013  11.140 -0.2732 -1.3142  0.7059
    6TMC3    H114187   4.420   4.236  11.290 -2.2064  1.1769 -0.0731
    6TMC3    H214188   4.469   3.996  10.940 -1.4658 -0.7116 -1.0419
    6TMC3    C714189   4.597   4.128  11.130 -0.0579  0.6945 -0.0845
    6TMC3    C814190   4.213   3.929  10.914  0.4895  0.1979 -0.2368
    6TMC3    O114191   4.640   4.167  11.238  0.8107 -0.7273 -0.0256
    6TMC3    O214192   4.136   3.837  10.931 -0.1349  0.0851  0.2412
    7MPD2     C14193   0.446   3.572  11.800  0.4731  0.0070 -0.1827
    7MPD2    C114194   0.477   3.702  11.814  0.0249  0.1958  0.2445
    7MPD2    C214195   0.432   3.772  11.929 -0.5044 -0.7763 -0.1952
    7MPD2    C314196   0.351   3.705  12.026  0.5608 -0.2951 -0.1980
    7MPD2    C414197   0.319   3.570  12.005  0.7314 -0.2458  0.6151
    7MPD2    C514198   0.375   3.505  11.895  0.6518 -0.6519 -0.3508
    7MPD2     H14199   0.465   3.873  11.945 -0.5225 -0.1878 -3.7935
    7MPD2    H114200   0.276   3.510  12.084 -1.6366  0.6724  0.0098
    7MPD2    H214201   0.460   3.517  11.708  2.4476  0.5357 -0.1950
    7MPD2    H314202   0.357   3.398  11.889  0.4027 -0.6296 -0.0179
    7MPD2     N14203   0.309   3.765  12.148  0.0290 -0.4020  0.2718
    7MPD2    H514204   0.257   3.704  12.210 -2.5113  1.1949 -0.2880
    7MPD2    N114205   0.542   3.777  11.718 -0.3039  0.3542  0.4253
    7MPD2    H714206   0.558   3.875  11.739 -0.1077  0.4762 -0.2744
    8TMC3    C114207   0.593   3.854  11.505  0.1436 -0.3725 -0.2891
    8TMC3    C214208   0.522   3.865  11.388 -0.3327  0.1149 -0.4028
    8TMC3    C314209   0.486   3.991  11.345 -0.0678  0.1529 -0.5457
    8TMC3    C414210   0.615   3.970  11.575  0.5372  0.1820 -0.1104
    8TMC3    C514211   0.555   4.088  11.540 -0.3443 -0.2317 -0.6573
    8TMC3    C614212   0.485   4.102  11.427 -0.1855  0.3608  0.5802
    8TMC3     C14213   0.574   3.738  11.595  0.8766  0.5330 -0.6151
    8TMC3     O14214   0.556   3.638  11.533 -0.4721  0.0247  0.2031
    8TMC3     H14215   0.514   3.776  11.327  1.9117  0.5767 -1.3865
    8TMC3    H114216   0.691   3.968  11.653 -1.4473 -0.5790  1.7961
    8TMC3    H214217   0.434   4.194  11.402  0.5640  0.1135 -1.8027
    8TMC3    C714218   0.487   4.136  11.661  0.0510  0.3204 -0.2683
    8TMC3    C814219   0.376   3.992  11.258 -0.0511  0.1858  1.2517
    8TMC3    O114220   0.515   4.080  11.767 -0.0564  0.1394  0.0297
    8TMC3    O214221   0.300   3.893  11.260  0.3668  0.1578  0.0915
    9MPD2     C14222   0.336   4.125  10.925  0.0039 -0.4119  0.3796
    9MPD2    C114223   0.303   4.096  11.053  0.0352  0.7652  0.5221
    9MPD2    C214224   0.165   4.078  11.079 -0.8561  0.3338  0.6116
    9MPD2    C314225   0.075   4.115  10.976  0.1308  0.2659 -0.0213
    9MPD2    C414226   0.116   4.147  10.853  0.3433 -0.0001  0.3969
    9MPD2    C514227   0.250   4.164  10.827 -0.2738 -0.9692 -0.0570
    9MPD2     H14228   0.116   4.047  11.170 -2.2863  0.4579 -0.1043
    9MPD2    H114229   0.047   4.185  10.779  0.5426 -3.0756 -1.3652
    9MPD2    H214230   0.442   4.128  10.899  0.2600 -0.4334  1.4484
    9MPD2    H314231   0.290   4.198  10.732  0.1172  2.3836  1.2692
    9MPD2     N14232   4.656   4.126  11.001 -0.7657  0.2462 -0.1779
    9MPD2    H514233   4.595   4.133  10.920 -0.6632  2.7787 -0.0160
    9MPD2    N114234   0.405   4.072  11.153 -0.1110  0.4544  0.2046
    9MPD2    H714235   0.500   4.107  11.140  1.2085 -2.2008  2.6648
    1MPD1     C14236   2.575   3.014   0.149 -0.4163  0.3516  0.1564
    1MPD1    C114237   2.477   2.921   0.183 -0.9483 -0.6989  0.4659
    1MPD1    C214238   2.405   2.932   0.298 -0.0518  0.0335  0.6167
    1MPD1    C314239   2.436   3.034   0.391 -0.7177 -0.0588 -0.0135
    1MPD1    C414240   2.546   3.111   0.365  1.2611 -0.1055 -0.3040
    1MPD1    C514241   2.610   3.105   0.244  0.2826  0.0063  0.2003
    1MPD1     H14242   2.327   2.864   0.330 -0.4150  0.4808  0.6781
    1MPD1    H114243   2.582   3.180   0.441  0.6367  0.4918 -0.5523
    1MPD1    H214244   2.644   3.018   0.066 -0.0069  0.7875  0.5143
    1MPD1    H314245   2.696   3.169   0.227  0.2926 -0.0443  0.0610
    1MPD1     N14246   2.364   3.055   0.515  0.1872 -0.4319  0.0831
    1MPD1    H514247   2.406   3.126   0.575  1.0978 -0.8030 -0.1144
    1MPD1    N114248   2.430   2.845   0.078  0.0774  0.0173 -0.1408
    1MPD1    H614249   2.366   2.771   0.108 -1.3824  0.4204 -2.2843
    1MPD1    H714250   2.506   2.806   0.022  0.0992 -0.4076  0.1796
    2MPD1     C14251   1.520   3.125   1.188 -0.8603  0.0196  0.3393
    2MPD1    C114252   1.624   3.206   1.222  0.1051  0.2968  0.7986
    2MPD1    C214253   1.747   3.193   1.156 -0.4240  1.0618 -0.1462
    2MPD1    C314254   1.768   3.093   1.068  0.2876  0.5637 -0.1266
    2MPD1    C414255   1.658   3.018   1.028  0.0990 -0.0879  0.4078
    2MPD1    C514256   1.531   3.034   1.089 -0.5952 -0.0477 -0.3076
    2MPD1     H14257   1.829   3.254   1.192  0.2205 -0.1461  0.4298
    2MPD1    H114258   1.668   2.935   0.959 -1.6039  0.2114 -0.1911
    2MPD1    H214259   1.420   3.131   1.228 -0.7235 -0.0222  0.6885
    2MPD1    H314260   1.456   2.960   1.063  0.4627 -1.7104  1.3060
    2MPD1     N14261   1.893   3.089   1.001 -0.7802 -0.0059  0.0084
    2MPD1    H514262   1.966   3.156   1.023 -0.9066  1.7468 -4.8927
    2MPD1    N114263   1.604   3.295   1.329 -0.1727 -0.2882 -0.5912
    2MPD1    H614264   1.673   3.370   1.332 -0.3402 -0.0786 -1.8658
    2MPD1    H714265   1.510   3.328   1.346 -0.8775 -2.4778 -0.1855
    3TCq2    C114266   1.918   3.004   0.900 -0.1310 -0.2724 -0.1097
    3TCq2    O214267   1.846   2.938   0.822 -0.1176  0.4225 -1.0000
    3TCq2    C214268   2.058   3.006   0.872  0.2311  0.2133  0.3444
    3TCq2    C314269   2.154   3.051   0.956  0.3344  0.1863 -0.0655
    3TCq2    C414270   2.281   3.078   0.904 -0.0572 -0.2258  0.1110
    3TCq2    C514271   2.311   3.071   0.772  0.5228 -0.1504  0.3279
    3TCq2    C614272   2.214   3.025   0.693 -0.4806 -0.0358  0.7408
    3TCq2    C714273   2.084   2.989   0.739  0.2066 -0.5127  0.0281
    3TCq2    C814274   2.252   2.991   0.558  0.3551  0.0902 -0.1547
    3TCq2    O414275   2.169   2.924   0.496 -0.1092 -0.1353 -0.5639
    3TCq2    C914276   2.387   3.121   0.996  0.5350 -0.1825  0.1935
    3TCq2    O514277   2.350   3.121   1.111 -0.2998 -0.4319 -0.2126
    3TCq2    O614278   2.491   3.177   0.946 -0.2388  0.0153  0.6280
    3TCq2    H214279   2.141   3.053   1.063  0.2543  0.0961 -0.0743
    3TCq2    H314280   2.409   3.108   0.746 -0.7046  3.4313  0.7553
    3TCq2    H414281   2.007   2.954   0.672 -1.4040  1.6563  0.7400
    1TCq1    O114282   2.934   1.696  13.099 -0.2889 -0.0462 -0.4655
    1TCq1    C114283   3.025   1.659  13.186  0.6262  0.1488  0.1210
    1TCq1    O214284   3.065   1.546  13.213 -0.0081  0.4522 -0.3088
    1TCq1    C214285   3.087   1.782  13.234 -0.1681 -0.0522  0.2013
    1TCq1    C314286   3.018   1.900  13.221 -0.3865 -0.5500  0.0677
    1TCq1    C414287   3.093   2.015  13.243  0.6685  0.1667 -0.8052
    1TCq1    C514288   3.229   2.003  13.265 -0.0981  0.4848  0.6908
    1TCq1    C614289   3.288   1.881  13.275  0.2069 -0.8377  0.7173
    1TCq1    C714290   3.216   1.766  13.279 -0.3040  0.1870 -0.0038
    1TCq1    C814291   3.423   1.877  13.336 -0.2943  0.1971 -0.1832
    1TCq1    O414292   3.465   1.968  13.405 -0.1460  0.7245  0.2325
    1TCq1    C914293   3.027   2.135  13.203  0.0565 -0.3283  0.2079
    1TCq1    O514294   2.898   2.135  13.197 -0.0473 -0.3813  0.1281
    1TCq1    O614295   3.109   2.226  13.168  0.0860  0.1522 -0.0876
    1TCq1    H114296   2.965   1.780  13.059  0.1570 -0.3920 -0.8370
    1TCq1    H214297   2.912   1.909  13.200 -0.4684 -0.1607  0.6578
    1TCq1    H314298   3.282   2.096  13.282 -0.3714  0.9098 -0.7854
    1TCq1    H414299   3.260   1.668  13.262  0.3742  0.7191 -1.3688
    2MPD2     C14300   3.710   1.785  13.404  0.2114 -0.3744 -0.6079
    2MPD2    C114301   3.615   1.719  13.338  0.1886  0.0479  0.1125
    2MPD2    C214302   3.643   1.586  13.301  0.2788 -0.6009  0.0198
    2MPD2    C314303   3.753   1.520  13.350  0.4903  0.8432  0.9200
    2MPD2    C414304   3.846   1.594  13.413 -0.1531  0.0164  0.1392
    2MPD2    C514305   3.824   1.721  13.452 -0.1315 -0.5842 -0.4405
    2MPD2     H14306   3.565   1.541  13.242 -0.0762 -0.5440  0.4408
    2MPD2    H114307   3.939   1.551  13.448  0.5815  1.6650  0.1786
    2MPD2    H214308   3.696   1.886  13.442  3.1517  0.1351 -0.8494
    2MPD2    H314309   3.892   1.769  13.521  0.4601 -0.1425 -1.3288
    2MPD2     N14310   3.758   1.380  13.319  0.0807 -0.1739  0.1144
    2MPD2    H514311   3.677   1.337  13.275 -0.3803  0.5815  0.2366
    2MPD2    N114312   3.488   1.761  13.297 -0.3133 -0.1061  0.0312
    2MPD2    H714313   3.442   1.703  13.227  0.2169 -1.7712  1.0767
    3TCq1    O114314   3.927   0.868  13.528  0.5805  0.3395  0.1716
    3TCq1    C114315   3.951   0.833  13.403  0.3281  0.4175  0.0445
    3TCq1    O214316   4.054   0.786  13.363 -0.0513 -0.2675  0.0169
    3TCq1    C214317   3.899   0.948  13.324 -0.5760  0.1759 -0.6726
    3TCq1    C314318   3.837   0.921  13.208  0.0904 -0.5398  0.9103
    3TCq1    C414319   3.774   1.020  13.139 -0.5947 -0.1117 -0.3384
    3TCq1    C514320   3.782   1.149  13.187  0.1906 -0.1484  0.2549
    3TCq1    C614321   3.846   1.171  13.305 -0.1459  0.1739  0.1045
    3TCq1    C714322   3.903   1.069  13.379 -0.1576  0.2969 -0.1245
    3TCq1    C814323   3.860   1.302  13.351  0.5113  0.4357 -0.1677
    3TCq1    O414324   3.952   1.321  13.422 -0.5098 -0.1419  0.0349
    3TCq1    C914325   3.697   0.994  13.023 -0.8869  0.4661  0.4088
    3TCq1    O514326   3.653   1.094  12.961  0.9003  0.1070 -0.4624
    3TCq1    O614327   3.661   0.881  12.996 -0.0432  0.1570 -0.2694
    3TCq1    H114328   3.834   0.899  13.533  0.3916 -0.8526  3.8592
    3TCq1    H214329   3.814   0.817  13.184 -0.2296 -0.3823  0.5133
    3TCq1    H314330   3.748   1.235  13.129  0.0272  0.4472  1.2404
    3TCq1    H414331   3.984   1.085  13.450 -0.2865  2.2053 -0.3975
    1MPD2     C14332   2.410   2.736  15.089 -0.0222 -0.8921 -0.3241
    1MPD2    C114333   2.286   2.797  15.089 -0.3438 -0.5498 -0.3148
    1MPD2    C214334   2.183   2.725  15.028  0.2253  0.0343  0.5391
    1MPD2    C314335   2.197   2.606  14.962  0.5900 -0.1440 -0.0879
    1MPD2    C414336   2.322   2.548  14.966 -0.0377  0.3739  0.6913
    1MPD2    C514337   2.422   2.620  15.024  0.0195  0.2087 -0.4081
    1MPD2     H14338   2.083   2.767  15.040 -0.3121 -1.6678  1.9348
    1MPD2    H114339   2.348   2.453  14.920 -0.2578  0.6173  0.0631
    1MPD2    H214340   2.499   2.789  15.122 -2.0805  0.1695  3.5645
    1MPD2    H314341   2.518   2.570  15.015  0.2687  1.0860 -2.7883
    1MPD2     N14342   2.083   2.537  14.913  0.0992 -0.1780  0.6681
    1MPD2    H514343   2.089   2.438  14.891 -1.1624 -0.5049  1.7730
    1MPD2    N114344   2.272   2.924  15.150 -0.3575  0.0438  0.0376
    1MPD2    H714345   2.356   2.965  15.189 -0.6484  2.4997 -1.9031
    2TMC3    C114346   2.135   3.123  15.204  0.6812 -0.3952  0.0298
    2TMC3    C214347   2.014   3.160  15.258 -0.4077 -0.4848  0.0913
    2TMC3    C314348   1.944   3.273  15.222  0.1988 -0.0530  0.5594
    2TMC3    C414349   2.185   3.199  15.106 -0.6881  0.1511 -0.2762
    2TMC3    C514350   2.118   3.312  15.066  0.4975 -1.0330 -0.2771
    2TMC3    C614351   1.997   3.345  15.117 -0.0367  0.1819 -0.2923
    2TMC3     C14352   2.152   2.973  15.192  0.3270  0.2908  0.7445
    2TMC3     O14353   2.043   2.921  15.199  1.0203  0.3974 -0.3037
    2TMC3     H14354   1.979   3.095  15.338 -1.7629  0.9228  0.6456
    2TMC3    H114355   2.264   3.163  15.041  0.3584  2.5463 -0.3150
    2TMC3    H214356   1.942   3.426  15.071 -1.8422 -0.1290  1.3172
    2TMC3    C714357   2.167   3.398  14.962 -0.2486 -0.4783 -0.0814
    2TMC3    C814358   1.813   3.238  15.183 -0.1213 -0.6178 -0.2382
    2TMC3    O114359   2.091   3.477  14.903  0.3121 -0.0733 -0.3497
    2TMC3    O214360   1.738   3.333  15.190  0.6365  0.4917  0.2972
    3TCq1    O114361   3.314   3.636  14.696  0.1367  0.0365  0.4954
    3TCq1    C114362   3.292   3.573  14.579  0.7486  0.3005  0.1544
    3TCq1    O214363   3.288   3.640  14.474  0.0967  0.4546  0.0724
    3TCq1    C214364   3.191   3.482  14.624 -0.1887  0.5048 -0.0009
    3TCq1    C314365   3.229   3.405  14.733  0.4284 -0.2903 -0.2584
    3TCq1    C414366   3.133   3.375  14.830 -0.2542 -0.0270 -0.5265
    3TCq1    C514367   3.004   3.429  14.817 -0.0113  0.0188  0.1660
    3TCq1    C614368   2.972   3.484  14.699 -0.1075 -0.8296  0.9547
    3TCq1    C714369   3.065   3.520  14.607 -0.5202 -0.3097  0.1982
    3TCq1    C814370   2.847   3.562  14.704  0.1934 -0.3168  0.2817
    3TCq1    O414371   2.832   3.633  14.610 -0.0292  0.2976 -0.0316
    3TCq1    C914372   3.165   3.291  14.949  0.0446 -0.7649 -0.2071
    3TCq1    O514373   3.062   3.248  15.002 -0.0828  0.3884 -0.4032
    3TCq1    O614374   3.287   3.278  14.980 -0.2983  0.1404 -0.4602
    3TCq1    H114375   3.299   3.580  14.775 -0.0562 -1.1158 -0.3628
    3TCq1    H214376   3.332   3.372  14.736  0.8703  1.2441  1.4684
    3TCq1    H314377   2.934   3.408  14.897  1.3404  0.2875  1.4228
    3TCq1    H414378   3.035   3.587  14.527  2.1178 -0.3269 -0.7868
    4MPD2     C14379   2.573   3.656  14.757 -0.3185 -0.6579 -1.0278
    4MPD2    C114380   2.619   3.539  14.808  0.5913 -0.2267 -0.0697
    4MPD2    C214381   2.529   3.457  14.881  0.5432  0.0877 -0.2642
    4MPD2    C314382   2.396   3.487  14.892  0.1074  0.0456 -0.3311
    4MPD2    C414383   2.349   3.601  14.838  0.9651 -0.3690 -0.6514
    4MPD2    C514384   2.437   3.686  14.771 -0.3763  0.2178 -0.0315
    4MPD2     H14385   2.575   3.368  14.924 -2.5853 -1.4213 -0.0724
    4MPD2    H114386   2.247   3.634  14.852  1.7009  1.3087  0.7299
    4MPD2    H214387   2.642   3.727  14.712 -0.1567 -0.3906 -0.3553
    4MPD2    H314388   2.395   3.783  14.746 -1.0677  0.5781  2.5485
    4MPD2     N14389   2.306   3.396  14.961  0.1945 -0.4397 -0.1258
    4MPD2    H514390   2.349   3.329  15.024 -2.3892  0.6239  2.7383
    4MPD2    N114391   2.748   3.494  14.783  0.3847  0.3495  0.0605
    4MPD2    H714392   2.781   3.414  14.836 -2.4766  0.0007  1.3181
    5TMC2    C114393   1.646   2.541  14.784  0.7599  0.2372  0.0604
    5TMC2    C214394   1.616   2.422  14.851 -0.5513 -0.6254 -0.5159
    5TMC2    C314395   1.716   2.347  14.905  0.4273 -0.2877 -0.7180
    5TMC2    C414396   1.776   2.576  14.760 -0.0135  0.4100  0.4329
    5TMC2    C514397   1.873   2.500  14.816  0.1869  0.3317  0.0893
    5TMC2    C614398   1.846   2.390  14.892  0.8413 -0.1716 -0.5707
    5TMC2     C14399   1.572   2.661  14.817 -0.1946  0.4357 -0.4876
    5TMC2     O14400   1.451   2.659  14.807 -0.0072  0.4418  0.3591
    5TMC2     H14401   1.513   2.412  14.885 -0.5527 -0.6105 -0.5157
    5TMC2    H114402   1.804   2.661  14.700 -1.9029  1.1829  0.6423
    5TMC2    H214403   1.924   2.328  14.935  2.8461  2.0529 -0.9511
    5TMC2    C714404   1.963   2.593  14.875 -0.2060  0.3753 -0.5536
    5TMC2    C814405   1.696   2.224  14.972  0.3218 -0.0399  0.5499
    5TMC2    O114406   1.919   2.706  14.892  0.1441 -0.1885  0.2604
    5TMC2    O214407   1.779   2.153  15.029  0.1683 -0.1005 -0.2591
    5TMC2    O514408   1.579   2.169  14.928 -0.0911  0.6506  0.3473
    5TMC2    H514409   1.521   2.223  14.870 -0.8282 -0.7050 -0.1795
    6MPD2     C14410   1.577   3.121  15.049  0.3297  0.4023  0.1694
    6MPD2    C114411   1.699   3.061  15.072 -0.0364 -0.2707 -0.1163
    6MPD2    C214412   1.721   2.942  15.013  0.4573 -0.1430  1.0540
    6MPD2    C314413   1.626   2.881  14.925 -0.6574 -0.7176  0.4552
    6MPD2    C414414   1.500   2.936  14.913 -0.1887  0.0010 -0.2405
    6MPD2    C514415   1.481   3.060  14.974  0.0665  0.0508  0.3325
    6MPD2     H14416   1.810   2.887  15.040  1.3757  0.2089 -1.2595
    6MPD2    H114417   1.425   2.885  14.855  0.4103  1.3230 -2.1650
    6MPD2    H214418   1.560   3.217  15.098  2.8904  1.9525 -2.0407
    6MPD2    H314419   1.390   3.113  14.950  0.1798 -0.7943 -1.9613
    6MPD2     N14420   1.655   2.752  14.878  0.1624  0.0965 -0.2078
    6MPD2    H514421   1.754   2.732  14.885  0.1823  0.2422 -0.0735
    6MPD2    N114422   1.813   3.118  15.131  0.1828 -0.8868  0.3351
    6MPD2    H714423   1.892   3.055  15.140 -0.6085 -1.9754 -0.3388
  945NH3     N114424   4.518   0.584  13.643  0.0305  0.9485 -0.4992
  945NH3     H214425   4.418   0.587  13.626 -0.4498 -4.7403  1.3207
  945NH3     H314426   4.534   0.682  13.665 -0.3424  0.4695  1.8863
  945NH3     H414427   4.529   0.529  13.727 -0.2743  1.4668 -0.1229
  946SOD     NA14428   3.650   2.587  14.181 -0.6335  0.0529  0.4645
  947SOD     NA14429   0.776   2.991  16.158  0.5573 -0.2737 -0.3085
  948SOD     NA14430   0.674   4.463   3.415  0.1143  0.2407  0.5129
  949SOD     NA14431   2.884   2.247  12.128 -0.5678  0.2832 -0.0068
  950SOD     NA14432   1.198   0.725   1.939  0.4229 -0.1125 -0.2199
  951SOD     NA14433   0.701   3.971   6.590  0.2140  0.0376 -0.3391
  952SOD     NA14434   2.130   1.011  15.079  0.0830  0.3129 -0.0156
  953SOD     NA14435   1.758   3.771  10.095 -0.2455  0.3737  0.3611
  954SOD     NA14436   1.083   1.402  10.482 -0.0687  0.5029  0.0454
  955SOD     NA14437   0.223   0.750  14.750  0.0008  0.3013  0.5842
  956SOD     NA14438   0.070   3.737   0.900  0.6523  0.3760  0.5537
  957SOD     NA14439   2.372   1.705   1.011  0.2257 -0.5114  0.6290
  958SOD     NA14440   4.562   1.189  17.473 -0.1687  0.2988 -0.1390
  959SOD     NA14441   4.210   1.497  14.582 -0.1807  0.5670  0.2371
  960SOD     NA14442   0.679   0.758  12.668 -0.9526  0.1791  0.0356
  961SOD     NA14443   2.261   1.433  10.170  0.1550 -0.0472 -0.6480
  962SOD     NA14444   3.496   3.881  11.886  0.1947 -0.6326 -0.3256
  963SOD     NA14445   1.346   1.379   8.628 -0.1057  0.0442 -0.2659
  964SOD     NA14446   3.720   3.088  11.754 -0.1310 -0.3548 -0.4046
  965SOD     NA14447   0.806   4.273   2.882 -0.7367  0.4464 -0.2321
  966SOD     NA14448   0.378   2.495  14.962  0.3904  0.0509  0.6333
  967SOD     NA14449   2.426   0.733   5.258  0.1028 -0.6166 -0.3470
  968SOD     NA14450   0.942   1.268  15.221 -0.5268 -0.2318  0.4236
  969SOD     NA14451   2.610   3.040   2.610 -0.0543  0.1153  0.0754
  970SOD     NA14452   1.062   1.120  11.826  0.1089  0.5786  0.2681
  971SOD     NA14453   3.637   1.230  12.802 -0.3011 -0.2999  0.4030
  972SOD     NA14454   0.243   2.642  12.344 -0.1574 -0.2041 -0.0204
  973SOD     NA14455   3.161   1.276  11.732  0.0743  0.2634  0.3337
  974SOD     NA14456   0.543   4.712  15.368 -0.1941 -0.2462 -0.6974
  975SOD     NA14457   0.404   1.611   7.224 -0.6298  0.2420  0.2222
  976SOD     NA14458   1.859   2.051  10.218 -0.1656  0.0193  0.3351
  977SOD     NA14459   0.211   1.193  13.523 -0.5885 -0.3588 -0.3344
  978SOD     NA14460   4.414   0.692  10.690  0.6744 -0.1452  0.2112
  979SOD     NA14461   3.045   2.364  11.458  0.5140 -0.0165  0.2993
  980SOD     NA14462   3.949   2.935  15.619  0.2292 -0.4624  0.1818
  981SOD     NA14463   1.085   3.988  10.138  0.2757  0.0961  0.1541
  982SOD     NA14464   2.415   0.548   2.774  0.0680  0.4231  0.3188
  983SOD     NA14465   2.504   2.643   3.638  0.2171  0.2783  0.3596
  984SOD     NA14466   2.251   3.694  12.247 -0.0723 -0.6940 -0.0435
  985SOD     NA14467   2.329   1.208  11.065 -0.5991 -0.0664 -0.1704
  986SOD     NA14468   4.338   3.769   1.458  0.0952 -0.3661  0.3789
  987SOD     NA14469   3.678   0.185  17.299  0.3825 -0.6504  0.0073
  988SOD     NA14470   1.843   0.440   9.407  0.0137  0.0955 -0.4217
  989SOD     NA14471   3.723   1.732   0.530  0.0393  0.2334 -0.1155
  990SOD     NA14472   4.254   4.132   2.882 -0.3780  0.3068  0.2637
  991SOD     NA14473   0.447   3.068  14.887 -0.0542  0.2288 -0.6843
  992SOD     NA14474   2.413   2.761  14.186  0.0512 -0.0280 -0.9005
  993SOD     NA14475   2.925   3.558  11.273 -0.0391 -0.6414 -0.2641
  994SOD     NA14476   2.120   0.879  12.847  0.3907 -0.1196 -0.0719
  995SOD     NA14477   4.503   1.475  14.671  0.1704  0.3194 -0.2068
  996SOD     NA14478   2.037   1.570  10.331  0.4658 -0.1836 -0.0093
  997SOD     NA14479   2.151   1.326  10.780  0.4004  0.0697 -0.0996
  998SOD     NA14480   1.271   2.448   1.414 -0.3529  0.1410  0.1473
  999SOD     NA14481   2.945   3.533   2.287 -0.5956 -0.0089  0.6508
 1000SOD     NA14482   1.964   1.606   9.994 -0.1681  0.1774 -0.2656
 1001SOD     NA14483   3.464   1.164  12.168  0.2561 -0.1730  0.0356
 1002SOD     NA14484   4.192   2.949  12.734 -0.0835 -0.1278 -0.2837
 1003SOD     NA14485   3.401   3.976  11.396 -0.6635 -0.4081 -0.3380
 1004SOD     NA14486   1.447   0.716   4.381 -0.1150 -0.2076  0.0411
 1005SOD     NA14487   4.186   4.256  16.719  0.0791  0.0465 -0.0686
 1006SOD     NA14488   2.034   1.337  10.505  0.0066  0.2363  0.4039
 1007SOD     NA14489   0.576   1.310   0.694 -0.4158  0.2153 -0.3264
 1008SOD     NA14490   1.700   0.155  16.972  0.0279 -0.2631  0.3773
 1009SOD     NA14491   0.556   1.656   0.996 -0.2065  0.3215  0.5805
 1010SOD     NA14492   0.356   1.414   0.879 -0.2728  0.0809  0.2193
 1011SOD     NA14493   0.078   2.589  13.125 -0.0492  0.2315 -0.1922
 1012SOL     OW14494   1.363   1.379   2.842  0.0657 -0.6705  0.5358
 1012SOL    HW114495   1.342   1.472   2.850 -1.0778 -1.0268  1.5278
 1012SOL    HW214496   1.282   1.357   2.796  1.2087 -4.3003  0.2105
 1013SOL     OW14497   0.959   2.533   6.214 -0.7428 -0.0882  0.0651
 1013SOL    HW114498   0.912   2.597   6.161 -0.3858 -1.0793 -1.4604
 1013SOL    HW214499   0.904   2.541   6.292 -1.2815  1.2029 -0.4545
 1014SOL     OW14500   0.299   1.439   1.605 -0.0097 -0.3086  0.0883
 1014SOL    HW114501   0.227   1.493   1.573  0.6635  0.0481 -0.8133
 1014SOL    HW214502   0.269   1.406   1.690 -1.2149 -1.1473 -0.6522
 1015SOL     OW14503   0.199   1.657   4.297  0.1745 -0.0956 -0.6647
 1015SOL    HW114504   0.174   1.717   4.228 -0.2548  0.5672  0.0627
 1015SOL    HW214505   0.274   1.611   4.261 -0.7899 -1.0364 -1.4616
 1016SOL     OW14506   3.493   1.839   5.775 -0.2283  0.1809 -0.0783
 1016SOL    HW114507   3.440   1.804   5.846  2.6024 -0.4279  1.7486
 1016SOL    HW214508   3.504   1.931   5.799 -1.2415 -0.1589  1.6897
 1017SOL     OW14509   3.630   1.648   5.218  0.3661 -0.0218  0.3113
 1017SOL    HW114510   3.651   1.638   5.125 -0.4631 -0.4855  0.1771
 1017SOL    HW214511   3.678   1.574   5.256 -0.0241 -0.2852  0.2908
 1018SOL     OW14512   3.494   4.602   1.646  0.1469  0.2298 -0.5209
 1018SOL    HW114513   3.486   4.507   1.652 -0.0726  0.4373  2.4265
 1018SOL    HW214514   3.585   4.618   1.672 -1.1757  1.5719  3.1183
 1019SOL     OW14515   1.758   1.299   4.311  0.2986  0.5395 -0.0286
 1019SOL    HW114516   1.687   1.361   4.329  1.1175  1.9501 -1.5712
 1019SOL    HW214517   1.794   1.343   4.233  0.6331  0.0280 -0.1639
 1020SOL     OW14518   3.878   2.887  16.520  0.4445  0.6064 -0.2198
 1020SOL    HW114519   3.911   2.827  16.453 -0.1934  1.8150 -1.6024
 1020SOL    HW214520   3.952   2.930  16.563  0.3533  1.9288 -1.3767
 1021SOL     OW14521   1.145   1.906   4.278  0.5918 -0.3352 -0.3607
 1021SOL    HW114522   1.181   1.965   4.212 -0.7928  1.4422  0.4698
 1021SOL    HW214523   1.054   1.911   4.247 -0.0999 -0.1393  1.7543
 1022SOL     OW14524   1.135   0.388  12.742 -0.0066 -0.1597 -0.0569
 1022SOL    HW114525   1.153   0.376  12.836 -1.1911 -1.3754  0.0169
 1022SOL    HW214526   1.225   0.398  12.711 -0.2545  0.2457 -0.6358
 1023SOL     OW14527   1.401   4.004   5.538  0.2550  0.3365 -0.0680
 1023SOL    HW114528   1.471   3.990   5.601 -0.4860  0.6945  0.8257
 1023SOL    HW214529   1.393   4.099   5.550 -0.5157  0.5527 -2.2948
 1024SOL     OW14530   2.352   1.924   3.402 -0.5655 -0.1876 -0.0683
 1024SOL    HW114531   2.340   1.993   3.337  1.1422 -0.5631 -0.7847
 1024SOL    HW214532   2.423   1.873   3.363 -0.0246  0.6545 -0.1788
 1025SOL     OW14533   4.011   2.538   3.882  0.7071  0.1093  0.0606
 1025SOL    HW114534   3.926   2.556   3.921  0.6383 -0.7161  0.3014
 1025SOL    HW214535   4.008   2.554   3.788 -2.5178 -3.4511 -0.4433
 1026SOL     OW14536   3.821   3.144   2.430 -0.1698 -0.4953 -0.2093
 1026SOL    HW114537   3.754   3.137   2.362 -0.8699 -2.4657  0.6992
 1026SOL    HW214538   3.809   3.234   2.461  2.8325  0.0452 -0.5905
 1027SOL     OW14539   1.029   3.365   5.374 -0.4361 -0.1644 -0.6315
 1027SOL    HW114540   1.028   3.298   5.442 -1.2906  0.7700  0.2652
 1027SOL    HW214541   0.940   3.371   5.340 -0.4899 -0.6646 -0.5792
 1028SOL     OW14542   0.002   3.979  14.178 -0.3138  0.5479 -0.6479
 1028SOL    HW114543   4.688   3.970  14.266  2.4515  0.0642  0.4632
 1028SOL    HW214544   4.684   4.058  14.143 -1.1069  0.7538  0.7229
 1029SOL     OW14545   1.523   2.684   2.547 -0.0055 -0.3851 -0.4117
 1029SOL    HW114546   1.573   2.755   2.507  0.1249 -0.0019  0.4268
 1029SOL    HW214547   1.472   2.736   2.610  0.9136  2.1735 -1.7741
 1030SOL     OW14548   4.405   3.065   6.223 -0.3120  0.1901 -0.0333
 1030SOL    HW114549   4.385   3.061   6.316 -1.3982  0.3869 -0.2543
 1030SOL    HW214550   4.496   3.038   6.218 -0.8372 -1.3584 -1.5875
 1031SOL     OW14551   3.111   2.006  12.307 -0.0971 -0.1215 -0.3090
 1031SOL    HW114552   3.202   1.990  12.334  0.8155  1.9468 -2.1397
 1031SOL    HW214553   3.123   2.074  12.240  1.8628  1.0970  1.2772
 1032SOL     OW14554   0.117   1.675   8.344  0.0694 -0.0507 -0.0559
 1032SOL    HW114555   0.042   1.617   8.331 -1.7126  1.9239  1.3480
 1032SOL    HW214556   0.133   1.663   8.438  1.4296  0.5729 -0.2099
 1033SOL     OW14557   3.448   0.334  10.126 -0.1939 -0.1880  0.2692
 1033SOL    HW114558   3.374   0.309  10.071 -0.5168 -2.1281  1.6042
 1033SOL    HW214559   3.520   0.283  10.089 -1.9483 -1.8273 -0.8353
 1034SOL     OW14560   0.083   1.394  13.554  0.0942  0.1528 -0.2645
 1034SOL    HW114561   0.028   1.396  13.632 -1.5351 -0.5728 -1.3825
 1034SOL    HW214562   0.127   1.479  13.563 -2.5772  1.7289 -2.1007
 1035SOL     OW14563   3.362   3.061   6.719  0.5693  0.0732  0.1039
 1035SOL    HW114564   3.337   2.969   6.732 -1.5406  0.3872 -1.8203
 1035SOL    HW214565   3.358   3.085   6.812  0.8843 -0.4157  0.2423
 1036SOL     OW14566   3.581   1.649   7.819 -0.3795 -0.9257  0.4799
 1036SOL    HW114567   3.512   1.583   7.804 -0.6456 -1.2990  3.3525
 1036SOL    HW214568   3.661   1.625   7.772  0.2846  1.9006  0.2193
 1037SOL     OW14569   2.481   3.480   7.374  0.0806  0.9059 -0.1267
 1037SOL    HW114570   2.468   3.401   7.427  1.3631  0.9748  0.2911
 1037SOL    HW214571   2.440   3.450   7.293 -1.1029  0.9849  0.4309
 1038SOL     OW14572   2.640   1.508   6.905  0.3311 -0.2910 -0.4711
 1038SOL    HW114573   2.576   1.568   6.944  0.6978 -0.0489 -0.2446
 1038SOL    HW214574   2.681   1.561   6.837  0.9194  0.2351  0.2931
 1039SOL     OW14575   3.979   2.935  12.039  0.0892  0.1868 -0.1554
 1039SOL    HW114576   4.036   2.872  12.084 -0.9762 -1.0986 -0.6280
 1039SOL    HW214577   3.889   2.904  12.035 -0.0974  0.7473 -0.2488
 1040SOL     OW14578   2.842   3.172  14.697 -0.1365  0.5284 -0.4700
 1040SOL    HW114579   2.828   3.186  14.791  0.5985  1.0347 -0.4324
 1040SOL    HW214580   2.771   3.108  14.689  0.9720 -0.8041  0.4257
 1041SOL     OW14581   0.457   4.453  14.445  0.2387  0.5888  0.7746
 1041SOL    HW114582   0.531   4.448  14.385  1.2074 -1.6952  2.1557
 1041SOL    HW214583   0.483   4.522  14.506 -2.1466 -0.6525  3.2165
 1042SOL     OW14584   2.397   2.490  11.295 -0.2120 -0.3358 -0.3695
 1042SOL    HW114585   2.393   2.418  11.358  0.8866 -0.0949 -0.0267
 1042SOL    HW214586   2.304   2.511  11.283  0.3289  0.2016 -3.5378
 1043SOL     OW14587   1.947   0.045   9.873  0.0579  0.6650  0.4558
 1043SOL    HW114588   1.982   4.679   9.873 -2.0101 -0.1433 -0.3749
 1043SOL    HW214589   1.881   0.041   9.942 -1.8691  0.5737 -1.3641
 1044SOL     OW14590   1.363   0.368   4.018 -0.0859  0.0066 -0.5055
 1044SOL    HW114591   1.368   0.421   3.938 -3.7461  1.7881  0.4697
 1044SOL    HW214592   1.379   0.285   3.973  2.7779 -0.8697  2.1328
 1045SOL     OW14593   3.852   1.995  15.631 -0.5798 -0.2739  0.0744
 1045SOL    HW114594   3.893   1.927  15.578  1.3390  1.1173 -0.2582
 1045SOL    HW214595   3.900   1.999  15.713 -0.2592 -2.0376 -0.0306
 1046SOL     OW14596   3.746   4.236   4.913 -0.2058  0.3676  0.1007
 1046SOL    HW114597   3.816   4.292   4.946  1.8845 -0.8416 -2.3034
 1046SOL    HW214598   3.774   4.159   4.963 -1.4028  0.2005  0.5296
 1047SOL     OW14599   2.973   4.612  10.243  0.2840 -0.0806  0.0331
 1047SOL    HW114600   3.059   4.570  10.248 -0.3866 -1.7752 -2.2223
 1047SOL    HW214601   2.955   4.630  10.335  2.3044  0.3836  0.3328
 1048SOL     OW14602   0.203   4.642   6.931  0.3074  0.4364  0.0452
 1048SOL    HW114603   0.250   4.581   6.875  3.5381  1.2771  1.8291
 1048SOL    HW214604   0.271   4.688   6.980 -0.5993  0.9974  0.8045
 1049SOL     OW14605   4.685   4.528   7.082  0.4828  0.3321 -0.2063
 1049SOL    HW114606   4.711   4.495   7.168  0.6852 -1.7311 -1.0772
 1049SOL    HW214607   0.036   4.588   7.070  0.2326  0.0147 -3.3326
 1050SOL     OW14608   3.395   0.950   1.202 -0.0952  0.0894 -0.5666
 1050SOL    HW114609   3.302   0.970   1.195 -0.5414 -0.8336  2.9971
 1050SOL    HW214610   3.425   1.036   1.233 -0.4632  0.0503 -0.1140
 1051SOL     OW14611   3.978   1.867  12.005 -0.4924  0.0113  0.3929
 1051SOL    HW114612   3.937   1.923  11.939 -0.5509  1.0675  1.3263
 1051SOL    HW214613   3.912   1.800  12.024  1.0000 -1.6280 -0.1111
 1052SOL     OW14614   0.506   2.835   1.158  0.0171  0.4804  0.1894
 1052SOL    HW114615   0.478   2.752   1.120 -0.1610 -1.5967  4.9306
 1052SOL    HW214616   0.498   2.824   1.253 -0.6094  1.7445  0.2915
 1053SOL     OW14617   2.235   0.211   2.519 -0.2549  0.0991 -0.0126
 1053SOL    HW114618   2.187   0.170   2.448 -0.4880 -0.3459  0.4013
 1053SOL    HW214619   2.269   0.130   2.555 -1.1419 -0.2926 -0.0548
 1054SOL     OW14620   1.607   2.354  17.159  0.1599 -0.3241 -0.8673
 1054SOL    HW114621   1.600   2.291  17.088 -0.1777 -0.4052 -0.7598
 1054SOL    HW214622   1.586   2.432  17.108  2.2480 -0.1396 -1.4315
 1055SOL     OW14623   3.326   2.820   6.271  0.4984  0.0316  1.0620
 1055SOL    HW114624   3.256   2.787   6.329 -0.1389  2.2397  1.5520
 1055SOL    HW214625   3.363   2.743   6.228  1.7412  0.0052  2.1758
 1056SOL     OW14626   0.425   1.455   7.733 -0.2540 -0.2324  0.3086
 1056SOL    HW114627   0.441   1.485   7.823  1.9268  0.3771 -0.2838
 1056SOL    HW214628   0.332   1.437   7.746  0.3519 -2.2724  1.8926
 1057SOL     OW14629   4.568   4.607  14.943  0.1295  0.5093 -0.5156
 1057SOL    HW114630   4.535   4.686  14.900 -0.3230  1.8968  2.4276
 1057SOL    HW214631   4.657   4.640  14.954  0.5088 -0.2748 -1.2060
 1058SOL     OW14632   2.566   4.450   7.852  0.0488 -0.3599 -0.1623
 1058SOL    HW114633   2.475   4.476   7.837  0.3023 -2.0262 -4.6631
 1058SOL    HW214634   2.605   4.533   7.876 -1.4860 -0.1575  1.6306
 1059SOL     OW14635   0.054   2.706  12.260  0.5721  0.4370 -0.3506
 1059SOL    HW114636   0.010   2.671  12.183 -2.5109  3.1360  0.1870
 1059SOL    HW214637   4.719   2.781  12.270 -0.8352 -0.5297 -1.2535
 1060SOL     OW14638   4.155   4.611  11.110 -0.4526  0.1408 -0.5009
 1060SOL    HW114639   4.150   4.563  11.193  0.6191 -0.5717 -0.8457
 1060SOL    HW214640   4.132   4.702  11.129 -0.2229  0.0600  0.1822
 1061SOL     OW14641   2.088   1.779   4.171  0.4540 -0.1431 -0.3264
 1061SOL    HW114642   2.094   1.873   4.188 -0.3348 -0.3752  1.2453
 1061SOL    HW214643   2.173   1.748   4.141  0.1082 -1.5155  0.1190
 1062SOL     OW14644   4.125   0.648   5.480 -0.4061  0.1735  0.0605
 1062SOL    HW114645   4.066   0.611   5.546  0.2819  1.6172  1.4570
 1062SOL    HW214646   4.197   0.672   5.538 -0.0469  2.0682 -1.1784
 1063SOL     OW14647   0.675   4.677   7.526 -0.1221  0.1046 -0.1164
 1063SOL    HW114648   0.688   0.047   7.544  0.0196 -0.0997  0.8273
 1063SOL    HW214649   0.690   4.675   7.431  1.4794 -0.6636  0.1512
 1064SOL     OW14650   4.581   2.135   7.712  0.4477 -0.8018  0.2811
 1064SOL    HW114651   4.532   2.059   7.743  0.4339 -0.2139  1.6996
 1064SOL    HW214652   4.668   2.122   7.750  0.4515 -0.7270  0.2991
 1065SOL     OW14653   1.335   1.451  12.938 -0.1627  0.1201 -0.2905
 1065SOL    HW114654   1.365   1.402  13.015  2.8914  1.8877 -0.3731
 1065SOL    HW214655   1.416   1.493  12.908 -0.3069  2.0074  2.0139
 1066SOL     OW14656   0.696   0.125   5.280 -0.1876 -0.0263  0.1073
 1066SOL    HW114657   0.670   0.194   5.220  1.4362 -1.2887 -2.0386
 1066SOL    HW214658   0.655   0.146   5.364  1.6885  4.1202 -0.0141
 1067SOL     OW14659   1.926   3.630   0.134  0.0309 -0.2484  0.5537
 1067SOL    HW114660   1.856   3.612   0.070  1.3553  2.5571 -1.6945
 1067SOL    HW214661   1.893   3.716   0.161  1.0433 -0.2699  1.8344
 1068SOL     OW14662   0.338   2.606   2.604 -0.5520  0.3596  0.1463
 1068SOL    HW114663   0.342   2.542   2.533 -0.3785  2.4337 -1.7152
 1068SOL    HW214664   0.406   2.562   2.656  0.2016  2.1040  0.6292
 1069SOL     OW14665   2.395   1.207   1.601 -0.0251 -0.1724  0.3050
 1069SOL    HW114666   2.410   1.291   1.645 -1.2800  0.5996 -0.7608
 1069SOL    HW214667   2.410   1.136   1.664 -0.8965  0.2971  1.0304
 1070SOL     OW14668   2.249   1.881   6.933  0.0529  0.2416 -0.7642
 1070SOL    HW114669   2.336   1.912   6.911  0.1517  0.9436  0.6247
 1070SOL    HW214670   2.202   1.965   6.927  0.4606  0.4345 -1.2047
 1071SOL     OW14671   1.620   1.448  15.572  0.0489  0.4709  0.4202
 1071SOL    HW114672   1.662   1.394  15.504  0.2626  0.2859  0.6963
 1071SOL    HW214673   1.684   1.446  15.643 -0.1194  0.5538  0.5726
 1072SOL     OW14674   1.460   2.138   6.335 -0.6658  0.1394  0.7521
 1072SOL    HW114675   1.378   2.133   6.285 -0.1442  1.0485 -0.2044
 1072SOL    HW214676   1.420   2.125   6.421 -0.0781 -3.9688  0.3894
 1073SOL     OW14677   0.350   0.578  14.845 -0.4235 -0.0722  0.5340
 1073SOL    HW114678   0.439   0.543  14.852  0.6894  2.2202 -2.3240
 1073SOL    HW214679   0.301   0.514  14.896  2.6517 -1.2156  2.0286
 1074SOL     OW14680   2.496   2.395   9.034 -0.4502  0.2360 -0.1501
 1074SOL    HW114681   2.508   2.300   9.035  1.9289  0.5496  2.6017
 1074SOL    HW214682   2.586   2.425   9.047  0.2791 -2.4968  1.0911
 1075SOL     OW14683   2.239   4.202   5.144 -0.0451  0.3108 -0.2224
 1075SOL    HW114684   2.240   4.162   5.057 -0.0074 -0.6418  0.2152
 1075SOL    HW214685   2.278   4.126   5.188  1.8057  1.8272  0.7367
 1076SOL     OW14686   3.215   1.032   3.051  0.1371  0.3952  0.6742
 1076SOL    HW114687   3.226   1.075   3.135 -0.1408  3.9311 -1.0899
 1076SOL    HW214688   3.233   1.106   2.992  2.2524 -0.0719  0.7479
 1077SOL     OW14689   2.337   0.719   9.468  1.3894  0.0037  0.1867
 1077SOL    HW114690   2.381   0.662   9.405 -0.0283 -0.3437 -0.5114
 1077SOL    HW214691   2.328   0.796   9.412  0.0286  0.0004  0.4059
 1078SOL     OW14692   4.633   0.640  10.698  0.3646  0.4016  0.3646
 1078SOL    HW114693   4.682   0.625  10.617  2.7741 -1.4400  2.1606
 1078SOL    HW214694   4.667   0.565  10.748  1.8840  0.7894 -0.0929
 1079SOL     OW14695   3.937   4.290   2.625 -0.9327  0.4528  0.3699
 1079SOL    HW114696   3.892   4.364   2.666 -0.6291  0.7749  0.1239
 1079SOL    HW214697   3.983   4.338   2.556 -0.3507 -3.2921 -1.8243
 1080SOL     OW14698   1.094   3.024   2.160 -0.0143 -0.0241 -0.3280
 1080SOL    HW114699   1.127   3.025   2.070 -0.6287  1.4504 -0.5279
 1080SOL    HW214700   1.131   2.939   2.186 -1.0606 -0.5003 -0.4109
 1081SOL     OW14701   1.846   3.739   0.744 -0.0244  0.6417  0.0091
 1081SOL    HW114702   1.809   3.712   0.660  1.0856  1.4336 -0.7335
 1081SOL    HW214703   1.910   3.803   0.711 -1.6768  2.1522 -0.2673
 1082SOL     OW14704   1.529   2.005   4.456 -0.0438  0.6546 -0.1258
 1082SOL    HW114705   1.495   1.951   4.527 -1.5533  1.3200 -0.3392
 1082SOL    HW214706   1.483   2.083   4.488  0.9541  1.1627  0.0796
 1083SOL     OW14707   1.128   1.898   7.065 -0.1096  0.3012  0.1884
 1083SOL    HW114708   1.069   1.972   7.077 -0.2907  0.1156  0.4659
 1083SOL    HW214709   1.203   1.938   7.108 -0.7808  2.1043 -0.3013
 1084SOL     OW14710   3.506   2.399   2.600  0.3303  0.2877 -0.2967
 1084SOL    HW114711   3.496   2.401   2.505 -3.4928 -1.9851  0.0647
 1084SOL    HW214712   3.436   2.458   2.627  0.1998  1.2601 -2.8323
 1085SOL     OW14713   4.317   1.626   2.679 -0.0486  0.0835  0.1945
 1085SOL    HW114714   4.345   1.640   2.770  2.4175  0.3631 -0.5885
 1085SOL    HW214715   4.402   1.607   2.637 -0.7502 -1.5369 -0.4941
 1086SOL     OW14716   1.382   4.486   3.655  0.7700  0.6319 -0.1359
 1086SOL    HW114717   1.433   4.482   3.736  0.5074  0.9122  0.0411
 1086SOL    HW214718   1.420   4.407   3.616 -0.2294  0.2945 -0.4065
 1087SOL     OW14719   2.746   3.075   5.562 -0.0533 -0.2717 -0.0284
 1087SOL    HW114720   2.818   3.019   5.530  0.6498  0.3506  0.4698
 1087SOL    HW214721   2.675   3.041   5.507 -1.3271 -0.0754  1.5039
 1088SOL     OW14722   1.384   4.191  16.830  0.3490  0.1465 -0.5275
 1088SOL    HW114723   1.408   4.259  16.893  2.0571 -0.4771 -0.4945
 1088SOL    HW214724   1.295   4.176  16.863 -0.3134  0.7208 -2.0668
 1089SOL     OW14725   3.648   1.864   2.260  0.3161  0.4945  0.2544
 1089SOL    HW114726   3.727   1.831   2.302 -0.1408  1.0439  1.5218
 1089SOL    HW214727   3.678   1.905   2.179  3.1686 -0.9700  0.5460
 1090SOL     OW14728   3.908   4.504  15.200 -1.1513  0.0772  0.3492
 1090SOL    HW114729   3.818   4.519  15.172 -1.2386 -2.8388 -0.9319
 1090SOL    HW214730   3.957   4.586  15.187 -0.3279 -0.5650 -0.5618
 1091SOL     OW14731   1.835   0.542   2.986  0.4171 -0.6882 -0.4705
 1091SOL    HW114732   1.850   0.603   2.913 -1.5217 -0.2094 -0.4705
 1091SOL    HW214733   1.795   0.468   2.940 -1.7510  1.9952 -2.8946
 1092SOL     OW14734   3.939   1.163   5.750 -0.2451 -0.0952 -0.0933
 1092SOL    HW114735   3.953   1.075   5.714 -0.2948  1.4459 -3.8406
 1092SOL    HW214736   3.846   1.148   5.768  0.1174  1.9150  3.3280
 1093SOL     OW14737   4.633   3.276   5.608  0.3071  0.2929 -0.1994
 1093SOL    HW114738   4.544   3.291   5.576 -0.6191  0.2909  2.3752
 1093SOL    HW214739   4.607   3.226   5.685  0.3475  0.4288 -0.0966
 1094SOL     OW14740   2.576   0.211   3.310  0.1927  0.0193 -0.3651
 1094SOL    HW114741   2.645   0.265   3.347 -0.5529 -0.2103  1.3402
 1094SOL    HW214742   2.505   0.216   3.373  1.1575  1.4603  0.5968
 1095SOL     OW14743   3.890   1.523   4.310 -0.0176 -0.5575  0.0337
 1095SOL    HW114744   3.983   1.546   4.311 -0.1229 -0.1631  0.8458
 1095SOL    HW214745   3.849   1.608   4.294  0.0028 -0.9721 -2.1490
 1096SOL     OW14746   2.533   3.750   1.681 -0.3902 -0.4428  0.0140
 1096SOL    HW114747   2.523   3.700   1.762  0.1750  2.0645  1.6509
 1096SOL    HW214748   2.626   3.735   1.663 -0.5330 -1.6438  0.2582
 1097SOL     OW14749   2.964   3.391   5.926 -0.5003  0.1430  0.8261
 1097SOL    HW114750   2.957   3.381   5.831 -1.6334 -0.0251  0.9230
 1097SOL    HW214751   2.995   3.482   5.927  1.1373 -0.4075 -0.8046
 1098SOL     OW14752   3.291   0.418  17.087 -0.0179  0.2780  0.0838
 1098SOL    HW114753   3.325   0.486  17.029  2.3068  0.7385  2.0018
 1098SOL    HW214754   3.274   0.350  17.022 -2.0933  1.5056 -0.6843
 1099SOL     OW14755   4.456   2.807   0.437  0.6687  0.1069  0.0427
 1099SOL    HW114756   4.524   2.769   0.380 -1.8485 -2.0553 -1.5327
 1099SOL    HW214757   4.425   2.726   0.477 -1.7491  1.7302  1.4365
 1100SOL     OW14758   4.563   0.577  14.662  0.0671 -0.1268 -0.2808
 1100SOL    HW114759   4.627   0.517  14.625 -1.4498  0.1849 -3.3445
 1100SOL    HW214760   4.510   0.515  14.712  0.5485 -1.5038 -1.4781
 1101SOL     OW14761   2.640   1.696   5.931 -0.0675  0.6010  0.1706
 1101SOL    HW114762   2.639   1.728   5.841  1.8784 -1.3724 -0.5309
 1101SOL    HW214763   2.671   1.609   5.905  2.0825  1.7333 -1.0408
 1102SOL     OW14764   0.231   4.485  10.685  0.6464 -0.2740 -0.8179
 1102SOL    HW114765   0.243   4.446  10.771  0.6094 -0.6732 -0.9944
 1102SOL    HW214766   0.265   4.420  10.624 -0.6250 -1.0414 -0.6962
 1103SOL     OW14767   0.786   3.650  14.745 -0.2047 -0.0890 -0.1566
 1103SOL    HW114768   0.870   3.667  14.702 -0.0866  0.2986  0.2251
 1103SOL    HW214769   0.790   3.670  14.839 -0.8828 -1.5599  0.1777
 1104SOL     OW14770   2.375   4.718   6.295  0.4450  0.4095  0.0822
 1104SOL    HW114771   2.456   0.045   6.294  0.4514  0.3845 -0.9562
 1104SOL    HW214772   2.323   0.044   6.359  0.6023  1.5590 -0.6588
 1105SOL     OW14773   2.018   1.705   9.298  0.5839  1.0418 -0.0769
 1105SOL    HW114774   1.984   1.644   9.232  0.7039 -0.8895  1.6556
 1105SOL    HW214775   1.950   1.772   9.302 -0.8053 -0.4890  1.6648
 1106SOL     OW14776   2.568   2.636  17.602  0.3244 -0.0269  0.2331
 1106SOL    HW114777   2.570   2.689  17.523 -2.0443  0.8002  0.7061
 1106SOL    HW214778   2.634   2.568  17.589 -0.4448 -0.8666  0.6792
 1107SOL     OW14779   0.996   1.434  12.519  0.7964  0.1925 -0.0104
 1107SOL    HW114780   1.043   1.505  12.564  1.3324 -0.3805  0.3316
 1107SOL    HW214781   0.963   1.405  12.604  0.7582  1.7611  0.5143
 1108SOL     OW14782   1.058   4.167  17.681 -0.1144  0.3557 -0.1921
 1108SOL    HW114783   1.057   4.260  17.659 -1.9541 -0.2887 -2.8234
 1108SOL    HW214784   1.150   4.148  17.661 -0.4169  0.8840 -2.1028
 1109SOL     OW14785   2.367   1.579  13.402 -0.3860  0.3301  0.3204
 1109SOL    HW114786   2.337   1.664  13.371 -0.4443 -0.0891 -0.7792
 1109SOL    HW214787   2.460   1.587  13.378 -0.1553 -0.5826  0.9340
 1110SOL     OW14788   3.145   1.390   8.188 -0.5209  0.3214  0.4801
 1110SOL    HW114789   3.193   1.307   8.189 -3.3435 -1.2979 -0.0637
 1110SOL    HW214790   3.157   1.408   8.282  1.7052 -1.1534  0.4741
 1111SOL     OW14791   1.457   2.552  13.734  0.3576 -0.1707  0.5960
 1111SOL    HW114792   1.465   2.612  13.808 -0.2342  2.0367 -1.1218
 1111SOL    HW214793   1.376   2.512  13.763  0.0346  0.1903  0.1888
 1112SOL     OW14794   1.094   2.213   8.376 -0.2209  0.8378  0.7263
 1112SOL    HW114795   1.028   2.240   8.312  0.4561 -1.3574 -0.9010
 1112SOL    HW214796   1.153   2.288   8.364  0.8518 -0.3579 -1.6938
 1113SOL     OW14797   2.169   3.031   9.247 -0.6679 -0.8127 -0.2929
 1113SOL    HW114798   2.147   3.036   9.340  0.2009 -0.4826 -0.1066
 1113SOL    HW214799   2.082   3.040   9.209 -1.2506 -0.5035  1.0801
 1114SOL     OW14800   4.583   2.180   4.725  0.1206  0.6342  0.4068
 1114SOL    HW114801   4.594   2.274   4.712  1.3728  0.2750 -1.0793
 1114SOL    HW214802   4.607   2.174   4.818  0.0509 -0.4160  0.3576
 1115SOL     OW14803   4.643   2.581   1.624  0.6304 -0.3203 -0.2155
 1115SOL    HW114804   4.672   2.668   1.654 -2.9575 -0.0283  2.4441
 1115SOL    HW214805   4.689   2.523   1.684 -2.5030 -2.9178 -0.3218
 1116SOL     OW14806   0.841   1.303   3.547  0.1301  0.1256 -0.2548
 1116SOL    HW114807   0.900   1.232   3.525  0.2653  0.6572 -1.6080
 1116SOL    HW214808   0.809   1.272   3.632 -0.2286 -0.0240 -0.4406
 1117SOL     OW14809   4.231   2.204   5.474 -0.5250  0.0635 -0.8165
 1117SOL    HW114810   4.199   2.293   5.488  1.0047  0.6953 -1.2829
 1117SOL    HW214811   4.236   2.163   5.560  0.3476  1.1143 -0.3628
 1118SOL     OW14812   2.067   1.398   8.157  0.3942  0.5235  0.5357
 1118SOL    HW114813   2.033   1.321   8.112  0.7737  0.1492  0.8991
 1118SOL    HW214814   1.991   1.456   8.155  1.3949  1.8104 -0.4861
 1119SOL     OW14815   3.862   4.249   9.395  0.2778  0.0680 -0.0595
 1119SOL    HW114816   3.801   4.209   9.456 -0.2611 -0.3731 -0.8843
 1119SOL    HW214817   3.917   4.302   9.453 -0.7202  1.6487 -0.5404
 1120SOL     OW14818   2.876   0.978   4.342 -0.4026 -0.0233 -0.1834
 1120SOL    HW114819   2.899   1.070   4.328 -1.5677  0.1257 -1.1301
 1120SOL    HW214820   2.962   0.939   4.325 -0.5356 -0.2570 -0.3229
 1121SOL     OW14821   2.090   2.620   9.839 -0.0355  0.1080 -0.4245
 1121SOL    HW114822   2.097   2.648   9.930  2.8014 -3.9992  0.6138
 1121SOL    HW214823   1.997   2.598   9.833  0.0408 -0.3423  0.0144
 1122SOL     OW14824   2.248   4.221   6.461  0.4734  0.5682  0.2107
 1122SOL    HW114825   2.271   4.314   6.468  1.2443  0.5952 -2.8508
 1122SOL    HW214826   2.318   4.194   6.402  0.7160 -1.4504  1.4441
 1123SOL     OW14827   4.195   2.670   4.998  0.0022 -0.0458 -0.1171
 1123SOL    HW114828   4.240   2.681   5.082 -0.2606 -1.8334  0.2419
 1123SOL    HW214829   4.259   2.609   4.962 -0.1253  0.0066 -0.4288
 1124SOL     OW14830   2.370   1.026   7.796  0.3366  0.3422  0.7376
 1124SOL    HW114831   2.407   1.049   7.881  0.5177 -0.2460  0.8145
 1124SOL    HW214832   2.362   1.119   7.773  0.7606  0.1861 -0.0227
 1125SOL     OW14833   3.265   4.461   8.508  0.2768  0.2707  0.7314
 1125SOL    HW114834   3.257   4.501   8.595  1.1184  1.3315  0.3340
 1125SOL    HW214835   3.295   4.535   8.454 -0.7567 -0.4124 -0.7567
 1126SOL     OW14836   4.630   0.645   9.197  0.4955  0.1250  0.4933
 1126SOL    HW114837   4.663   0.578   9.257  1.2671  0.5351  0.5342
 1126SOL    HW214838   4.639   0.604   9.111 -1.1174  0.8976 -0.0586
 1127SOL     OW14839   0.411   4.270   6.042 -0.0748 -0.2344 -0.2833
 1127SOL    HW114840   0.358   4.190   6.040 -0.4499 -0.0113  0.8462
 1127SOL    HW214841   0.427   4.287   5.949 -0.0722  1.1433 -0.0216
 1128SOL     OW14842   0.845   2.717   6.028 -0.3034  0.0048 -0.1249
 1128SOL    HW114843   0.884   2.805   6.033 -0.0626 -0.2015  1.6635
 1128SOL    HW214844   0.861   2.701   5.935 -0.9044 -0.5780 -0.1242
 1129SOL     OW14845   3.838   0.097   8.905  0.4307  0.2575 -0.0721
 1129SOL    HW114846   3.913   0.090   8.847 -0.0343 -2.8338 -0.2846
 1129SOL    HW214847   3.815   0.007   8.929 -0.8689  0.8527  0.9412
 1130SOL     OW14848   4.683   2.533   8.173  0.0921 -0.0202 -0.0320
 1130SOL    HW114849   4.654   2.465   8.234 -2.4059  1.5963  0.5586
 1130SOL    HW214850   0.051   2.506   8.163 -0.6687 -2.8119  0.4131
 1131SOL     OW14851   4.097   4.693   4.421 -0.0767  0.5434  0.2216
 1131SOL    HW114852   4.038   4.683   4.496 -0.2139 -0.3037  0.0011
 1131SOL    HW214853   4.079   0.061   4.397  2.0907  0.3048 -2.3552
 1132SOL     OW14854   3.746   4.226   1.872 -0.8906  0.4452  0.3178
 1132SOL    HW114855   3.715   4.137   1.887 -1.3993  0.3366 -1.3587
 1132SOL    HW214856   3.731   4.248   1.964  0.2598 -0.4014  0.7018
 1133SOL     OW14857   2.825   3.918  13.978 -0.2900 -0.1010  0.4395
 1133SOL    HW114858   2.821   3.872  14.062 -1.9810  0.5280  0.6959
 1133SOL    HW214859   2.787   4.000  14.008  0.8896  0.3171  0.7686
 1134SOL     OW14860   3.769   4.319  17.053  0.0797 -0.8310 -1.0983
 1134SOL    HW114861   3.675   4.335  17.055 -0.1981 -2.5964  0.1318
 1134SOL    HW214862   3.797   4.395  17.003  1.8223 -0.4865  0.4244
 1135SOL     OW14863   2.600   2.419   4.697 -0.5095  0.2401 -0.0652
 1135SOL    HW114864   2.656   2.360   4.647  0.0696 -0.7537  1.7261
 1135SOL    HW214865   2.629   2.397   4.786  0.7222 -2.0894 -1.0473
 1136SOL     OW14866   0.742   0.786   9.152  0.2734 -0.1974 -0.6735
 1136SOL    HW114867   0.743   0.866   9.100 -2.4129 -0.1708 -0.6777
 1136SOL    HW214868   0.831   0.776   9.184 -0.6237  1.4774  2.2817
 1137SOL     OW14869   3.237   3.549   4.414  0.1371 -0.3084 -0.4535
 1137SOL    HW114870   3.251   3.556   4.320  1.0382  3.0916 -0.0952
 1137SOL    HW214871   3.267   3.631   4.455 -2.4503 -0.2547  1.3596
 1138SOL     OW14872   1.908   1.656   1.360  0.2717  0.7893 -0.0831
 1138SOL    HW114873   1.931   1.732   1.414  1.1222  1.1575 -0.9733
 1138SOL    HW214874   1.826   1.637   1.406  0.2833 -0.3061 -0.5122
 1139SOL     OW14875   1.468   1.705   7.190  0.0595 -0.5462 -0.5074
 1139SOL    HW114876   1.453   1.738   7.278 -1.9622  1.1706 -1.5086
 1139SOL    HW214877   1.559   1.675   7.201  0.7177  1.0243 -1.5909
 1140SOL     OW14878   2.025   1.930   3.019  0.0498  0.2066 -0.0368
 1140SOL    HW114879   1.946   1.969   2.980  1.6666  3.3459 -0.1718
 1140SOL    HW214880   1.979   1.875   3.082 -1.0867  0.0182 -1.0307
 1141SOL     OW14881   0.397   3.713   6.885 -0.1681 -0.2078 -0.2653
 1141SOL    HW114882   0.376   3.738   6.795 -1.4327  3.1186  0.9817
 1141SOL    HW214883   0.311   3.673   6.899  0.0387  0.3212  2.5385
 1142SOL     OW14884   2.928   1.205   6.873 -0.3752  0.4506 -0.3946
 1142SOL    HW114885   2.929   1.136   6.939 -0.6885 -0.2035 -1.0835
 1142SOL    HW214886   2.839   1.240   6.878 -0.1191  1.2589 -1.4546
 1143SOL     OW14887   2.566   0.163   6.089  0.4003 -0.0390  0.0535
 1143SOL    HW114888   2.556   0.247   6.133 -1.0444 -0.0893 -0.1732
 1143SOL    HW214889   2.512   0.173   6.011  1.8431 -0.5795 -1.0215
 1144SOL     OW14890   3.910   3.305   3.824  0.0274  0.9184  0.7611
 1144SOL    HW114891   3.824   3.338   3.850 -0.2078  1.5779 -0.8554
 1144SOL    HW214892   3.946   3.392   3.810  1.2601  0.1159 -1.0315
 1145SOL     OW14893   4.153   0.791  11.017 -0.0552  0.5368  0.1722
 1145SOL    HW114894   4.087   0.806  10.950  1.6865  0.7814 -1.4743
 1145SOL    HW214895   4.234   0.784  10.967 -0.7631  0.9059 -1.0201
 1146SOL     OW14896   0.294   4.464  10.279 -0.7191 -0.2438  0.0347
 1146SOL    HW114897   0.319   4.531  10.215  2.5025 -0.7764  0.7115
 1146SOL    HW214898   0.210   4.428  10.253 -0.9312  0.1539  0.1757
 1147SOL     OW14899   2.495   3.983   6.590  0.0214  0.1709  0.4746
 1147SOL    HW114900   2.420   4.039   6.568  0.3871  0.1294 -0.9220
 1147SOL    HW214901   2.496   3.997   6.684  2.9508 -1.4714  0.6890
 1148SOL     OW14902   2.175   2.244   5.953 -0.6856 -0.2971  0.1987
 1148SOL    HW114903   2.173   2.336   5.925  0.2003  0.2534  1.9314
 1148SOL    HW214904   2.168   2.245   6.048  1.3080  2.2767  0.3240
 1149SOL     OW14905   3.082   0.270   8.013  0.3466  0.1267 -0.4825
 1149SOL    HW114906   3.140   0.313   7.951 -0.8161 -0.2027 -1.8030
 1149SOL    HW214907   2.998   0.302   7.981 -0.2599 -1.3808 -0.3927
 1150SOL     OW14908   2.912   3.946  12.640 -0.6689 -0.4892  0.2499
 1150SOL    HW114909   2.862   3.944  12.559  1.1540 -0.8500 -0.8692
 1150SOL    HW214910   2.990   3.987  12.603  0.0676 -0.2125  2.0653
 1151SOL     OW14911   2.618   2.806   3.727 -0.1055 -0.2551 -0.4777
 1151SOL    HW114912   2.622   2.896   3.761  1.0511  0.5848 -2.8589
 1151SOL    HW214913   2.666   2.754   3.792  1.8445 -0.9365 -2.5065
 1152SOL     OW14914   4.451   1.372   4.986 -0.0104  0.7764  0.0278
 1152SOL    HW114915   4.455   1.438   4.916  1.5506 -0.9244 -1.4942
 1152SOL    HW214916   4.362   1.343   4.964  0.5131  0.4849 -1.7520
 1153SOL     OW14917   3.117   4.465   6.720 -0.7225  0.1687  0.3415
 1153SOL    HW114918   3.101   4.402   6.790 -0.8351  0.3780  0.5071
 1153SOL    HW214919   3.184   4.420   6.670 -0.3955 -1.7641  2.5579
 1154SOL     OW14920   1.120   2.901  14.313  0.1674 -0.1679 -0.5826
 1154SOL    HW114921   1.071   2.969  14.267 -1.9839 -1.1921  0.2025
 1154SOL    HW214922   1.049   2.856  14.360 -0.8301  1.8568 -0.1668
 1155SOL     OW14923   3.016   0.947   4.668  0.6957 -0.1614 -0.4756
 1155SOL    HW114924   2.933   0.978   4.705  0.1535  0.6299 -2.3831
 1155SOL    HW214925   2.989   0.862   4.631  0.7803 -0.8862  1.1145
 1156SOL     OW14926   0.707   1.020   8.958  0.5107 -0.4360 -0.5892
 1156SOL    HW114927   0.775   1.009   8.891  1.7205 -0.3799  0.6139
 1156SOL    HW214928   0.742   1.094   9.007  1.1743 -0.3552 -1.1854
 1157SOL     OW14929   2.072   3.478   6.724  0.1671  0.6479  0.0066
 1157SOL    HW114930   2.078   3.482   6.629  0.5110 -1.9843 -0.0949
 1157SOL    HW214931   2.025   3.397   6.745 -0.5719  0.4399 -2.4675
 1158SOL     OW14932   2.479   2.790   3.402 -0.1972 -0.5361  0.5138
 1158SOL    HW114933   2.477   2.719   3.337  0.0248  1.3238 -1.5104
 1158SOL    HW214934   2.406   2.848   3.381 -0.0294 -0.5428 -0.1083
 1159SOL     OW14935   3.542   4.392   7.791 -0.1154  0.1879  0.1836
 1159SOL    HW114936   3.608   4.450   7.829 -0.8396  0.1884  1.4717
 1159SOL    HW214937   3.561   4.308   7.834 -2.7930 -0.1243  0.8084
 1160SOL     OW14938   0.975   4.390   5.882 -0.2517  0.2201  0.3735
 1160SOL    HW114939   0.885   4.370   5.857  0.0202 -0.5030 -0.0354
 1160SOL    HW214940   1.008   4.443   5.810  0.0907  0.3364  0.6141
 1161SOL     OW14941   1.218   2.140   6.204 -0.2289  0.2045 -0.1380
 1161SOL    HW114942   1.149   2.160   6.268  0.3524  1.0930  0.2007
 1161SOL    HW214943   1.171   2.165   6.125 -1.0037 -1.4860 -0.2154
 1162SOL     OW14944   1.336   2.073  12.034  0.1120  0.0846  0.2261
 1162SOL    HW114945   1.431   2.072  12.026 -0.1574  1.6514 -3.0321
 1162SOL    HW214946   1.316   2.029  11.952  0.9746 -1.4601  0.8503
 1163SOL     OW14947   3.543   2.269   6.297 -0.7988 -0.7959  0.2341
 1163SOL    HW114948   3.460   2.245   6.337 -1.1185  1.5742  1.0303
 1163SOL    HW214949   3.600   2.281   6.373 -0.2289  2.3838 -0.7022
 1164SOL     OW14950   1.072   2.072  16.648 -0.3484 -0.1906 -0.1834
 1164SOL    HW114951   1.056   2.163  16.670 -0.9610 -0.4251  0.3370
 1164SOL    HW214952   1.059   2.022  16.728 -1.0895  0.9231  0.3886
 1165SOL     OW14953   0.174   2.383  15.016  0.2174  0.5403 -0.1291
 1165SOL    HW114954   0.095   2.393  14.961 -1.0127 -0.6780  1.4257
 1165SOL    HW214955   0.151   2.296  15.049 -0.7246  1.1446  0.8007
 1166SOL     OW14956   3.404   3.968   2.456  0.1914 -0.0931 -0.2119
 1166SOL    HW114957   3.347   3.952   2.381  0.0766 -1.1312  0.1018
 1166SOL    HW214958   3.490   3.965   2.414  0.8112 -1.2500  1.1461
 1167SOL     OW14959   2.827   3.333   2.291  0.3844 -0.1208 -0.1579
 1167SOL    HW114960   2.734   3.333   2.312  0.7263  0.9938  1.2892
 1167SOL    HW214961   2.858   3.311   2.379  0.4587 -1.5730 -0.5421
 1168SOL     OW14962   1.399   0.503   4.564  0.4402 -0.6361  0.0257
 1168SOL    HW114963   1.310   0.485   4.595  0.1532 -1.2359 -1.1572
 1168SOL    HW214964   1.392   0.483   4.471 -0.9278  2.6259 -0.5548
 1169SOL     OW14965   2.505   1.029  15.437 -0.3290 -0.2082 -0.5253
 1169SOL    HW114966   2.528   1.120  15.457 -0.5214 -0.2556 -0.0952
 1169SOL    HW214967   2.532   0.978  15.513 -0.0900  2.4787  1.1815
 1170SOL     OW14968   3.100   2.717   1.974 -0.3822 -0.0992  0.0964
 1170SOL    HW114969   3.090   2.661   2.051 -0.8397  0.0224  0.1253
 1170SOL    HW214970   3.161   2.669   1.918  1.4050  2.4074 -0.1438
 1171SOL     OW14971   3.108   2.584   8.425 -0.3050  0.6948  0.2938
 1171SOL    HW114972   3.049   2.620   8.359 -0.8690  1.1107  1.0250
 1171SOL    HW214973   3.057   2.511   8.459  2.0684 -1.5361 -0.9102
 1172SOL     OW14974   1.309   1.065   4.669  0.1351  0.0741  0.2529
 1172SOL    HW114975   1.232   1.095   4.718  0.6252  1.4145  0.1893
 1172SOL    HW214976   1.373   1.131   4.693 -1.2299  2.1954 -1.9794
 1173SOL     OW14977   0.532   2.658  15.041 -0.1977  0.1354  0.3904
 1173SOL    HW114978   0.464   2.691  14.982  0.3466  0.6223  0.0413
 1173SOL    HW214979   0.568   2.741  15.072 -2.3699  0.2168  2.7392
 1174SOL     OW14980   2.705   3.057   4.367  0.1705 -0.2074  0.0384
 1174SOL    HW114981   2.718   3.102   4.284  1.4659  0.5198  0.6285
 1174SOL    HW214982   2.700   2.967   4.335  0.9856  0.6421 -2.4648
 1175SOL     OW14983   3.154   2.975   7.792  0.2011  0.4804  0.4046
 1175SOL    HW114984   3.114   2.962   7.878  1.3068  1.2608  1.0432
 1175SOL    HW214985   3.143   3.068   7.773 -1.5002  0.0138 -0.9826
 1176SOL     OW14986   3.446   4.079   6.575 -0.2924 -0.2829  0.3334
 1176SOL    HW114987   3.426   3.988   6.552  1.8947 -0.2300 -1.7997
 1176SOL    HW214988   3.524   4.089   6.521 -0.8818  0.0864 -0.4509
 1177SOL     OW14989   0.279   3.700   5.912 -0.3750 -0.4363 -0.2229
 1177SOL    HW114990   0.265   3.678   6.005  2.1151 -0.4262  0.1444
 1177SOL    HW214991   0.189   3.704   5.881  0.0666  1.9419 -1.1275
 1178SOL     OW14992   4.647   2.856   6.418  0.2475  0.1621 -0.0987
 1178SOL    HW114993   4.579   2.836   6.483  1.0499 -0.5572  0.5172
 1178SOL    HW214994   4.715   2.886   6.479  1.0899 -1.8507 -0.0679
 1179SOL     OW14995   3.823   2.914   0.373 -0.0094 -0.0592  0.3560
 1179SOL    HW114996   3.902   2.865   0.397 -0.3467  0.1015  1.7946
 1179SOL    HW214997   3.760   2.846   0.349  2.3101 -1.7527 -0.9925
 1180SOL     OW14998   1.208   4.577   7.840 -0.9319  0.5583  0.1367
 1180SOL    HW114999   1.288   4.613   7.803  0.6620 -0.9521  2.1403
 1180SOL    HW215000   1.150   4.641   7.798 -2.2188 -0.0335  1.0122
 1181SOL     OW15001   2.664   0.194  13.037 -0.4984  0.2582  0.3540
 1181SOL    HW115002   2.585   0.237  13.003 -1.0251  0.3662  1.7432
 1181SOL    HW215003   2.617   0.127  13.087 -1.0133  1.2707  1.2179
 1182SOL     OW15004   0.700   2.102  15.473 -0.1740  0.2513 -0.1530
 1182SOL    HW115005   0.640   2.052  15.419 -0.4846 -1.4496  1.7961
 1182SOL    HW215006   0.781   2.082  15.426 -0.2240  0.4688 -0.3346
 1183SOL     OW15007   3.757   3.139   0.584 -0.7196 -0.3567 -0.2987
 1183SOL    HW115008   3.663   3.127   0.596 -0.6547  1.6269  2.2170
 1183SOL    HW215009   3.765   3.133   0.489 -0.3418  3.6373 -0.5483
 1184SOL     OW15010   3.101   2.925  10.953 -0.1611 -0.1352 -0.0571
 1184SOL    HW115011   3.142   2.990  11.010  0.5166  0.8879 -1.7163
 1184SOL    HW215012   3.178   2.871  10.934 -0.2110 -0.4252  0.5304
 1185SOL     OW15013   3.423   2.126   2.455 -0.6365 -0.4977 -0.4466
 1185SOL    HW115014   3.494   2.189   2.443  0.5787 -1.9934 -1.0338
 1185SOL    HW215015   3.389   2.133   2.545  1.8616 -0.9106  0.5250
 1186SOL     OW15016   0.891   1.368  12.765  0.1578 -0.4817  0.3478
 1186SOL    HW115017   0.832   1.439  12.740 -2.0499 -1.7464  1.9620
 1186SOL    HW215018   0.847   1.318  12.833 -1.3564  0.7467  0.2895
 1187SOL     OW15019   2.318   4.495   6.926  0.8859 -0.5098  0.2222
 1187SOL    HW115020   2.387   4.485   6.861 -2.0365 -3.1612 -2.4679
 1187SOL    HW215021   2.260   4.431   6.885  0.2757 -1.6277  2.8740
 1188SOL     OW15022   1.481   4.552  13.030 -0.8505  0.3138 -0.1034
 1188SOL    HW115023   1.534   4.618  12.985  0.9888 -1.2950 -0.3036
 1188SOL    HW215024   1.442   4.510  12.954  0.0926 -0.5494 -0.1149
 1189SOL     OW15025   0.868   1.827   7.003  0.2084 -0.5336  0.3409
 1189SOL    HW115026   0.829   1.742   7.025  1.4018 -1.5688 -1.5451
 1189SOL    HW215027   0.963   1.822   7.013  0.3255  0.3472 -0.3575
 1190SOL     OW15028   2.583   3.772   3.355 -0.6073  0.4906 -0.3918
 1190SOL    HW115029   2.551   3.729   3.434  1.2833 -0.8647 -0.3894
 1190SOL    HW215030   2.661   3.720   3.335 -0.4019  1.1951 -1.4153
 1191SOL     OW15031   0.626   3.820  13.184 -0.0912 -0.6606 -0.5027
 1191SOL    HW115032   0.536   3.829  13.217  0.3958 -0.6585  0.8082
 1191SOL    HW215033   0.669   3.782  13.261  4.0961  0.5512 -2.2982
 1192SOL     OW15034   2.096   0.146   9.662  0.0120 -0.1021  0.3290
 1192SOL    HW115035   2.164   0.078   9.655  2.3392  2.2173  0.1156
 1192SOL    HW215036   2.044   0.122   9.738 -0.6768  1.6386  0.3899
 1193SOL     OW15037   3.169   0.491   9.090  0.0401 -0.3252 -0.6038
 1193SOL    HW115038   3.218   0.558   9.137  1.2475 -2.3726  1.0535
 1193SOL    HW215039   3.095   0.539   9.054  2.2204  4.3860  1.2755
 1194SOL     OW15040   1.809   1.307   5.791 -0.0883 -0.4200 -0.1685
 1194SOL    HW115041   1.775   1.252   5.720 -0.4898 -0.9104  0.3974
 1194SOL    HW215042   1.760   1.389   5.787  0.3501 -0.1413  0.1616
 1195SOL     OW15043   0.421   4.032   0.890 -0.4648 -0.4536  0.4942
 1195SOL    HW115044   0.514   4.012   0.881 -0.2451  1.0459 -0.5066
 1195SOL    HW215045   0.414   4.075   0.805  1.1354  0.3399  0.7707
 1196SOL     OW15046   1.273   2.765   7.525 -0.3099 -0.3259  0.0096
 1196SOL    HW115047   1.256   2.705   7.597 -2.4646  0.5080  0.1997
 1196SOL    HW215048   1.296   2.840   7.580 -1.5522  0.3997 -0.4579
 1197SOL     OW15049   3.484   0.865   6.259  0.0452  0.5647  0.4614
 1197SOL    HW115050   3.441   0.802   6.316  1.5048 -2.3863 -1.7084
 1197SOL    HW215051   3.509   0.938   6.316 -0.1906 -0.0631  1.3771
 1198SOL     OW15052   0.442   0.871   7.982  0.0104  0.3152 -0.2030
 1198SOL    HW115053   0.388   0.895   8.057 -1.0444 -0.1257 -0.8167
 1198SOL    HW215054   0.436   0.776   7.996 -0.9733  0.6639  1.7415
 1199SOL     OW15055   0.974   1.102   3.875  0.6800 -0.2409  0.0481
 1199SOL    HW115056   0.896   1.149   3.847  0.9986 -0.1359 -0.6793
 1199SOL    HW215057   1.034   1.177   3.880 -0.7333  1.0001 -1.5339
 1200SOL     OW15058   0.117   1.587  13.888  0.1564  0.6352 -0.2506
 1200SOL    HW115059   0.151   1.605  13.800  1.1557  1.0162  0.2082
 1200SOL    HW215060   0.038   1.537  13.866  0.1216  1.0848 -1.1671
 1201SOL     OW15061   4.583   3.279  17.304  0.0151 -0.2707  0.0826
 1201SOL    HW115062   4.533   3.330  17.367  0.6074  0.6735 -0.2033
 1201SOL    HW215063   4.666   3.273  17.351 -0.2218  0.0437  0.5346
 1202SOL     OW15064   1.126   1.413   2.340 -0.3070 -0.4442 -0.2948
 1202SOL    HW115065   1.075   1.346   2.385  0.1808 -0.8339 -0.3220
 1202SOL    HW215066   1.100   1.491   2.388 -0.5723 -1.7104  1.6303
 1203SOL     OW15067   4.026   2.395   2.057  0.4129 -0.3140 -0.5116
 1203SOL    HW115068   4.119   2.408   2.076  0.0376 -1.2628  2.1024
 1203SOL    HW215069   4.012   2.486   2.033 -2.7235 -0.7464 -0.3626
 1204SOL     OW15070   3.394   0.544  10.296 -0.3825 -0.3162 -0.2662
 1204SOL    HW115071   3.393   0.531  10.202 -0.0609  1.5649 -0.5344
 1204SOL    HW215072   3.405   0.455  10.328 -2.3453 -0.9832 -1.4705
 1205SOL     OW15073   1.904   0.094  16.538 -0.5114  0.1244 -0.7734
 1205SOL    HW115074   1.886   0.013  16.490 -0.1882 -0.1359 -0.4557
 1205SOL    HW215075   1.908   0.157  16.466  0.5595 -0.6872 -1.4071
 1206SOL     OW15076   1.970   0.095   9.225 -0.1662  0.4729 -0.6961
 1206SOL    HW115077   1.939   0.005   9.240  2.6416 -0.2267  0.8199
 1206SOL    HW215078   1.997   0.080   9.134  2.7069 -0.7511  0.3544
 1207SOL     OW15079   3.779   2.481   9.697  0.8693 -0.6084  0.1437
 1207SOL    HW115080   3.719   2.512   9.629 -0.3391 -1.6985  0.6843
 1207SOL    HW215081   3.732   2.512   9.775  1.7677  0.1778  0.3672
 1208SOL     OW15082   0.990   0.653   4.602  0.0253 -0.2430  0.1148
 1208SOL    HW115083   0.922   0.707   4.642  0.4850 -0.2606  0.9200
 1208SOL    HW215084   1.075   0.690   4.628  0.2021 -0.3873 -0.2594
 1209SOL     OW15085   1.815   1.504   8.462  0.0388 -0.3611  0.2267
 1209SOL    HW115086   1.809   1.425   8.407 -0.8277 -3.3273  4.5619
 1209SOL    HW215087   1.803   1.577   8.402 -1.5528  0.2641  1.3300
 1210SOL     OW15088   3.386   1.298  11.206  0.4207 -0.3039  0.0517
 1210SOL    HW115089   3.425   1.329  11.287 -0.8331 -0.9492  0.9031
 1210SOL    HW215090   3.307   1.351  11.201 -0.0863 -1.0622 -0.0031
 1211SOL     OW15091   4.563   2.924   8.277 -0.0951 -0.4657  0.5497
 1211SOL    HW115092   4.545   2.842   8.231 -3.2227 -0.2566  1.3881
 1211SOL    HW215093   4.650   2.937   8.239  0.0706 -0.7379  0.8252
 1212SOL     OW15094   4.215   0.941   7.260  0.3330  0.2272 -0.4376
 1212SOL    HW115095   4.291   0.999   7.268 -0.4311  1.4683 -2.1860
 1212SOL    HW215096   4.139   0.998   7.271 -0.6007 -1.1360  0.2044
 1213SOL     OW15097   3.562   0.512   9.315  0.0233  0.0681 -0.3881
 1213SOL    HW115098   3.522   0.599   9.319 -3.0827 -1.3729 -0.6465
 1213SOL    HW215099   3.643   0.539   9.359 -1.1152  1.0482  1.0526
 1214SOL     OW15100   1.178   1.400   1.048  0.2756 -0.3521  0.3124
 1214SOL    HW115101   1.175   1.304   1.047  2.5675 -0.4241  0.1916
 1214SOL    HW215102   1.146   1.430   1.133  1.1617  0.1504  0.4603
 1215SOL     OW15103   1.385   2.576   2.320 -0.3995 -0.5137 -0.0615
 1215SOL    HW115104   1.451   2.570   2.251 -1.4743  0.0929 -1.1575
 1215SOL    HW215105   1.437   2.603   2.395 -1.2679  2.0847 -0.4110
 1216SOL     OW15106   0.755   0.651   8.806 -0.2685  0.4171  0.9618
 1216SOL    HW115107   0.848   0.630   8.798 -0.6344  0.0237 -2.1714
 1216SOL    HW215108   0.755   0.726   8.747 -0.3396  0.6453  1.2474
 1217SOL     OW15109   3.614   1.083   7.050  0.1918  0.2607 -0.1538
 1217SOL    HW115110   3.605   1.004   6.996  0.8800  1.3281 -1.8390
 1217SOL    HW215111   3.543   1.140   7.020  0.9841  2.1173  1.5228
 1218SOL     OW15112   3.710   3.452   3.462 -0.1750 -0.0867 -0.2013
 1218SOL    HW115113   3.804   3.473   3.457  0.4012 -2.5365  0.3958
 1218SOL    HW215114   3.707   3.366   3.420  2.1823 -0.2753  0.0035
 1219SOL     OW15115   0.170   1.758   4.554  0.2367 -0.2191  0.2560
 1219SOL    HW115116   0.189   1.722   4.467 -1.1789  2.9789 -1.3627
 1219SOL    HW215117   0.105   1.826   4.538 -0.3375 -0.3826  1.9502
 1220SOL     OW15118   3.716   1.485   4.946 -0.2337 -0.4711 -0.4905
 1220SOL    HW115119   3.747   1.451   4.862  1.8837  0.1239  0.0449
 1220SOL    HW215120   3.764   1.428   5.007 -1.9207 -2.4355 -0.9711
 1221SOL     OW15121   0.136   2.924   6.614 -0.4789  0.1406  0.0697
 1221SOL    HW115122   0.160   2.862   6.682  2.6082  0.4472 -0.7289
 1221SOL    HW215123   0.223   2.932   6.575 -0.4181 -0.1126  0.1536
 1222SOL     OW15124   0.935   2.505  12.026  0.2660  0.0452 -0.7126
 1222SOL    HW115125   0.850   2.531  12.061  0.0371  1.8290 -2.6197
 1222SOL    HW215126   0.988   2.517  12.105 -1.1610 -0.4380  0.3165
 1223SOL     OW15127   2.004   1.837   5.105  0.0387  0.2696  0.2700
 1223SOL    HW115128   2.018   1.782   5.028  0.2706  0.9238 -0.1620
 1223SOL    HW215129   1.948   1.903   5.063  0.0713 -0.4532 -0.9084
 1224SOL     OW15130   0.716   3.617  11.219 -0.2285  0.4212 -0.1360
 1224SOL    HW115131   0.783   3.608  11.286 -1.4452  2.1090  1.3000
 1224SOL    HW215132   0.710   3.525  11.193  0.7451 -0.0012  1.1676
 1225SOL     OW15133   0.171   3.540   9.156  0.0913 -0.0973 -0.1540
 1225SOL    HW115134   0.157   3.570   9.246 -1.3565  1.9715 -1.0438
 1225SOL    HW215135   0.243   3.484   9.182 -1.3314 -1.1006  1.6352
 1226SOL     OW15136   0.415   4.618   7.540  0.1195  0.6564 -0.0616
 1226SOL    HW115137   0.413   4.627   7.445 -1.2535 -0.5731 -0.1548
 1226SOL    HW215138   0.509   4.626   7.554  0.0232  0.7480  0.5335
 1227SOL     OW15139   4.498   2.786   3.924  0.2526 -0.6266  0.3258
 1227SOL    HW115140   4.550   2.809   3.848 -0.8456 -0.1449 -0.2782
 1227SOL    HW215141   4.558   2.801   3.997  1.3994  0.6311 -0.8853
 1228SOL     OW15142   1.209   0.724   4.363 -0.0413  0.0841  0.2542
 1228SOL    HW115143   1.144   0.785   4.330 -0.4200 -1.0025 -0.9944
 1228SOL    HW215144   1.155   0.645   4.369  0.7632 -0.5767 -1.3313
 1229SOL     OW15145   2.916   0.415  15.629 -0.2157 -0.0405  0.5032
 1229SOL    HW115146   2.862   0.348  15.587  1.6382 -0.6213 -1.0030
 1229SOL    HW215147   3.000   0.372  15.645 -0.4237 -0.5343  0.2807
 1230SOL     OW15148   0.189   2.786   8.674 -0.2002  0.5478  0.2205
 1230SOL    HW115149   0.149   2.821   8.753  0.3997 -0.4534  0.9510
 1230SOL    HW215150   0.136   2.831   8.608  0.0697 -0.8897 -0.9755
 1231SOL     OW15151   0.312   3.212  12.618 -0.2856  0.0679  0.4164
 1231SOL    HW115152   0.291   3.154  12.545  2.4479 -1.2994  0.6769
 1231SOL    HW215153   0.349   3.290  12.576  1.4356 -1.8876 -1.7272
 1232SOL     OW15154   1.598   3.045   5.696  0.0878 -0.5132  0.4564
 1232SOL    HW115155   1.608   3.016   5.787 -1.2206 -2.2543  0.0594
 1232SOL    HW215156   1.691   3.047   5.672 -0.5295  3.4896 -1.5299
 1233SOL     OW15157   4.312   0.469  13.287 -0.4100 -0.2825 -0.1137
 1233SOL    HW115158   4.383   0.407  13.277  0.8107  0.6801  2.4152
 1233SOL    HW215159   4.366   0.548  13.278 -0.5576 -0.0789  0.7413
 1234SOL     OW15160   3.631   1.770   6.775  0.5494 -0.4227 -0.2928
 1234SOL    HW115161   3.687   1.824   6.721  1.5620  0.8086  1.9915
 1234SOL    HW215162   3.625   1.823   6.855  1.6394 -1.8474  0.7350
 1235SOL     OW15163   1.096   4.570   5.731  0.1367  0.1021 -0.0564
 1235SOL    HW115164   1.179   4.600   5.769 -1.7028  3.2038  1.5352
 1235SOL    HW215165   1.081   4.632   5.660  2.2896 -0.7093 -1.2213
 1236SOL     OW15166   0.548   1.421   1.977  0.1732  0.4988 -0.0042
 1236SOL    HW115167   0.499   1.339   1.971 -1.3699  1.5167 -1.2014
 1236SOL    HW215168   0.618   1.390   1.919  1.7966  0.0226  2.1983
 1237SOL     OW15169   1.657   1.207   2.455 -0.4186 -0.7773  0.0913
 1237SOL    HW115170   1.593   1.260   2.503  1.2734 -0.2178  1.7498
 1237SOL    HW215171   1.601   1.132   2.439  0.0717 -0.7836 -1.6617
 1238SOL     OW15172   3.797   0.646   9.378 -0.1256  0.5147  0.2374
 1238SOL    HW115173   3.882   0.645   9.334 -0.1776  1.3770  0.1081
 1238SOL    HW215174   3.825   0.695   9.455 -0.4340  0.6292  0.2766
 1239SOL     OW15175   3.195   2.610  15.466  0.1564 -0.0378 -0.0755
 1239SOL    HW115176   3.211   2.686  15.410  2.8158 -2.0095 -1.9957
 1239SOL    HW215177   3.110   2.640  15.498  0.1516 -2.3410  2.0763
 1240SOL     OW15178   0.058   0.008   2.528 -0.5478 -0.4914  0.1156
 1240SOL    HW115179   0.093   4.672   2.461 -0.4768  0.1491 -0.4195
 1240SOL    HW215180   0.094   0.094   2.505 -0.3612 -1.0087 -1.5373
 1241SOL     OW15181   1.853   4.279   4.689  0.1197 -0.2376  0.0208
 1241SOL    HW115182   1.764   4.275   4.653 -1.2791 -1.1679  3.6619
 1241SOL    HW215183   1.827   4.281   4.781 -1.0866 -1.4676 -0.2978
 1242SOL     OW15184   2.196   2.842  17.249 -1.0302  0.6519  0.0879
 1242SOL    HW115185   2.147   2.897  17.310 -1.7846  0.1156 -0.0364
 1242SOL    HW215186   2.271   2.815  17.302  0.0713  1.5676 -1.0219
 1243SOL     OW15187   3.513   1.665   6.343  0.2695  0.5022 -0.0886
 1243SOL    HW115188   3.538   1.757   6.347  0.9593  0.2406  1.7921
 1243SOL    HW215189   3.597   1.619   6.332 -1.1803 -2.4184  1.1192
 1244SOL     OW15190   1.746   0.440  11.497  0.1291  0.3238 -0.5680
 1244SOL    HW115191   1.816   0.453  11.433  1.6452 -2.0133  0.5959
 1244SOL    HW215192   1.695   0.367  11.461  0.3078 -1.1214  2.0377
 1245SOL     OW15193   3.656   1.246   8.191 -0.1288 -0.3054  0.7025
 1245SOL    HW115194   3.567   1.248   8.157 -0.6324  0.9868  2.0784
 1245SOL    HW215195   3.696   1.316   8.140 -0.7948  1.0581  2.0391
 1246SOL     OW15196   0.440   2.684   1.927 -0.3000  0.5032 -0.3789
 1246SOL    HW115197   0.464   2.605   1.975 -1.4296  0.2934 -0.1413
 1246SOL    HW215198   0.437   2.745   2.001 -0.9761  0.6279 -0.5029
 1247SOL     OW15199   2.923   2.448  12.223  0.6149  0.7567 -0.7509
 1247SOL    HW115200   2.943   2.465  12.315  0.5062  3.6037 -1.2655
 1247SOL    HW215201   2.896   2.532  12.186 -0.8966  0.2050 -0.9049
 1248SOL     OW15202   3.074   4.198  13.979 -0.3591  0.0655  0.1840
 1248SOL    HW115203   3.144   4.263  13.966 -0.0932 -0.1530  0.4981
 1248SOL    HW215204   3.047   4.181  13.889 -1.3084 -0.1946  0.5190
 1249SOL     OW15205   4.159   2.796   6.787  0.2471 -0.1305 -0.4308
 1249SOL    HW115206   4.148   2.842   6.703 -1.7173  0.0470 -0.0888
 1249SOL    HW215207   4.102   2.721   6.770  0.1212  0.0823 -0.9586
 1250SOL     OW15208   2.044   2.208  14.260 -0.2160  0.1712 -0.4143
 1250SOL    HW115209   2.119   2.267  14.259  0.2376 -0.4790 -2.8238
 1250SOL    HW215210   2.082   2.122  14.241  2.6895  1.4400 -0.2952
 1251SOL     OW15211   3.524   3.040  14.248 -0.0917  0.2098  0.0403
 1251SOL    HW115212   3.510   3.021  14.155 -1.6950 -4.4215  1.2263
 1251SOL    HW215213   3.458   2.995  14.300  1.3467 -1.5921  0.3019
 1252SOL     OW15214   3.353   2.712   2.217  0.0100  0.4283  0.3231
 1252SOL    HW115215   3.311   2.635   2.253  0.3444 -0.3066 -0.8544
 1252SOL    HW215216   3.293   2.771   2.264  0.0362 -0.1014  1.0127
 1253SOL     OW15217   4.517   1.074   9.416  0.8296  0.4036 -0.2777
 1253SOL    HW115218   4.459   1.033   9.352  1.3355 -0.3038 -0.2912
 1253SOL    HW215219   4.596   1.040   9.373  0.7239  0.4495 -0.5075
 1254SOL     OW15220   2.990   0.364   4.695 -0.1672  0.0895 -0.3939
 1254SOL    HW115221   3.002   0.354   4.790  1.1290  1.4739 -0.3896
 1254SOL    HW215222   3.084   0.373   4.678  0.0922 -1.0255  0.3979
 1255SOL     OW15223   3.793   4.390   5.641  0.7905 -0.1543  0.6488
 1255SOL    HW115224   3.807   4.463   5.581 -1.5420 -1.3049 -1.3081
 1255SOL    HW215225   3.704   4.404   5.673  1.2473  0.6273  1.5638
 1256SOL     OW15226   2.025   0.095  14.888  0.0585  0.0830  0.2599
 1256SOL    HW115227   1.962   0.062  14.823  1.1355 -1.4880  0.0388
 1256SOL    HW215228   2.049   0.180  14.850  0.2148  0.0068  0.1875
 1257SOL     OW15229   2.029   0.266   4.485 -0.1047 -0.0626  0.3081
 1257SOL    HW115230   2.105   0.283   4.541  0.4743 -1.0712 -0.1674
 1257SOL    HW215231   2.079   0.266   4.403  0.5335  1.5298  0.7094
 1258SOL     OW15232   4.317   1.780   4.850 -0.3429 -0.5505 -0.4049
 1258SOL    HW115233   4.322   1.684   4.860 -0.4103 -0.3392  1.8287
 1258SOL    HW215234   4.386   1.800   4.787 -1.7178  1.6002 -1.1879
 1259SOL     OW15235   4.513   1.798   6.397 -0.1941  0.1562 -0.0501
 1259SOL    HW115236   4.546   1.733   6.460 -1.5841 -2.5934 -2.1365
 1259SOL    HW215237   4.585   1.859   6.383  0.3901 -0.7405 -0.9457
 1260SOL     OW15238   1.985   0.210   4.807 -0.0506 -0.4464  0.5508
 1260SOL    HW115239   2.012   0.253   4.725  0.6340 -1.9615 -0.0210
 1260SOL    HW215240   2.019   0.122   4.790 -1.1084 -0.6300 -0.6043
 1261SOL     OW15241   1.642   0.696   3.937 -0.0898 -0.1385  0.4833
 1261SOL    HW115242   1.735   0.689   3.914 -0.1347  0.4049  0.1246
 1261SOL    HW215243   1.610   0.705   3.847 -1.9172 -2.7574  0.8649
 1262SOL     OW15244   4.553   3.611  10.484 -0.5058  0.4522  0.1904
 1262SOL    HW115245   4.579   3.560  10.407  1.5732  0.6637  0.7419
 1262SOL    HW215246   4.554   3.701  10.451  2.9267  0.5541  0.5101
 1263SOL     OW15247   1.533   3.472   7.865 -0.3376 -0.1594  0.0837
 1263SOL    HW115248   1.583   3.526   7.927 -2.1887  0.1002  1.3522
 1263SOL    HW215249   1.460   3.533   7.858  1.2465  1.5575 -1.8592
 1264SOL     OW15250   3.445   3.450   1.723 -0.3176 -0.1801 -0.3398
 1264SOL    HW115251   3.350   3.454   1.716 -0.3786  0.4891  0.9737
 1264SOL    HW215252   3.456   3.355   1.713 -2.1433 -0.3370 -0.9075
 1265SOL     OW15253   1.690   0.389  14.096  0.3033 -0.0732  0.3495
 1265SOL    HW115254   1.721   0.309  14.139 -0.1818  0.7830  2.2929
 1265SOL    HW215255   1.628   0.348  14.036  1.5845 -0.5448 -0.6571
 1266SOL     OW15256   3.565   1.974   4.525 -0.4397  0.0997  0.5245
 1266SOL    HW115257   3.585   1.949   4.435  1.5212  1.4756  0.5870
 1266SOL    HW215258   3.651   1.964   4.564  0.3371  1.5094 -0.8515
 1267SOL     OW15259   2.485   3.528   4.797 -0.4741 -0.0206  0.4810
 1267SOL    HW115260   2.422   3.599   4.805 -0.6987 -0.5134  3.2135
 1267SOL    HW215261   2.552   3.576   4.748  0.6618 -0.9067  1.1476
 1268SOL     OW15262   4.215   3.379   3.889  0.2955  0.0812  0.1487
 1268SOL    HW115263   4.145   3.441   3.869  0.5693  0.8802  1.6802
 1268SOL    HW215264   4.295   3.427   3.909  1.1462 -0.7338 -1.3272
 1269SOL     OW15265   3.216   3.443  12.998 -0.0068  0.1281  0.3496
 1269SOL    HW115266   3.188   3.478  13.083  0.0741 -0.2620  0.5366
 1269SOL    HW215267   3.305   3.479  12.997  0.3001 -0.7126 -2.9652
 1270SOL     OW15268   3.136   1.876   4.270  0.2188  0.0384  0.4863
 1270SOL    HW115269   3.065   1.874   4.335 -1.0749  1.4359 -0.8777
 1270SOL    HW215270   3.206   1.843   4.327  0.8690  1.1123  0.3043
 1271SOL     OW15271   2.066   0.546   7.855  0.3571 -0.2168  0.3849
 1271SOL    HW115272   2.115   0.490   7.915  2.5066 -0.6832 -1.8046
 1271SOL    HW215273   2.131   0.607   7.820  2.6870 -2.1235  1.3880
 1272SOL     OW15274   2.062   4.509   3.597 -0.0571  0.2541  0.5014
 1272SOL    HW115275   2.058   4.449   3.671  2.1187  1.0364  1.2497
 1272SOL    HW215276   2.156   4.520   3.586 -0.1411  2.0050  1.5315
 1273SOL     OW15277   0.052   0.693   5.077  0.1603 -0.1214  0.5371
 1273SOL    HW115278   0.107   0.633   5.127  1.3520  2.1039  1.8915
 1273SOL    HW215279   4.708   0.728   5.136  0.9082  0.4796  1.0271
 1274SOL     OW15280   1.806   2.142   4.080  0.2454  0.0052 -0.1753
 1274SOL    HW115281   1.715   2.163   4.059 -0.8618 -2.6752  2.0187
 1274SOL    HW215282   1.833   2.117   3.992 -0.8769 -1.6355 -0.0508
 1275SOL     OW15283   1.697   1.309   6.775  0.0851  0.1867 -0.0058
 1275SOL    HW115284   1.760   1.264   6.831  0.7269 -0.2345 -1.0749
 1275SOL    HW215285   1.751   1.376   6.733  0.2867 -1.0696 -1.7724
 1276SOL     OW15286   3.801   2.605  15.107  0.4589  0.5668  0.0831
 1276SOL    HW115287   3.728   2.667  15.103  0.1092  0.0961 -0.8398
 1276SOL    HW215288   3.772   2.533  15.050 -1.9755  2.1804 -0.7543
 1277SOL     OW15289   3.514   4.055  16.462  0.3716  0.4751  0.7253
 1277SOL    HW115290   3.597   4.084  16.425 -0.0961  0.2628 -0.5035
 1277SOL    HW215291   3.535   3.964  16.480  0.8717  0.5229  0.3786
 1278SOL     OW15292   2.428   0.497   4.903  0.3628  0.0216  0.1316
 1278SOL    HW115293   2.434   0.406   4.872  3.4145  1.0853 -2.3949
 1278SOL    HW215294   2.520   0.519   4.892  0.4351 -1.3449 -2.0661
 1279SOL     OW15295   0.351   1.757   8.846  0.1827 -0.1602  0.0572
 1279SOL    HW115296   0.386   1.846   8.850 -0.0930  0.0735 -2.3888
 1279SOL    HW215297   0.348   1.739   8.752  0.9422 -2.6801  0.5183
 1280SOL     OW15298   3.538   1.012  16.066 -0.1164  0.0609  0.2044
 1280SOL    HW115299   3.545   1.107  16.069  1.2067 -0.0592  1.2709
 1280SOL    HW215300   3.557   0.996  16.159 -0.2823 -0.2271  0.1884
 1281SOL     OW15301   2.496   4.354   6.124  0.0390 -0.0856 -0.0547
 1281SOL    HW115302   2.443   4.340   6.046  1.1222  1.3042 -1.0608
 1281SOL    HW215303   2.567   4.397   6.076 -1.3874 -0.4892 -2.4540
 1282SOL     OW15304   0.942   0.746   1.286  0.2842 -0.4309 -0.4035
 1282SOL    HW115305   0.917   0.836   1.267 -1.1107 -0.8422 -0.5438
 1282SOL    HW215306   0.890   0.723   1.363  0.7466 -2.2837 -0.6409
 1283SOL     OW15307   0.824   3.567   7.750 -0.5732  0.1367 -0.4102
 1283SOL    HW115308   0.808   3.660   7.733  0.9405  0.2115 -1.4286
 1283SOL    HW215309   0.912   3.556   7.713  0.1763  2.4579  0.6647
 1284SOL     OW15310   3.344   2.551   8.607 -0.6429  0.0909 -0.0623
 1284SOL    HW115311   3.280   2.489   8.573 -1.7784  2.4796 -2.2177
 1284SOL    HW215312   3.377   2.589   8.526  0.6612  1.5353  1.1429
 1285SOL     OW15313   2.132   1.729   1.055  0.0939 -0.6330  0.3467
 1285SOL    HW115314   2.042   1.761   1.051  0.3339  0.0754  0.4328
 1285SOL    HW215315   2.126   1.665   1.126 -0.7600  0.9293  1.6883
 1286SOL     OW15316   2.247   1.551   2.485 -0.2340  0.0300  0.0251
 1286SOL    HW115317   2.239   1.467   2.439 -0.2433 -0.0930  0.2516
 1286SOL    HW215318   2.154   1.572   2.476  0.1936  1.3350 -1.4339
 1287SOL     OW15319   0.764   1.873   3.738  0.5654 -0.3583 -0.0646
 1287SOL    HW115320   0.837   1.830   3.694  1.0657  0.9863 -0.5707
 1287SOL    HW215321   0.699   1.812   3.704  1.4277 -2.0452  1.3321
 1288SOL     OW15322   1.747   1.618   6.678 -0.1643 -0.7382  0.4640
 1288SOL    HW115323   1.675   1.582   6.625 -1.6140  0.6022  1.5211
 1288SOL    HW215324   1.750   1.707   6.642  1.7164 -0.8119  0.4549
 1289SOL     OW15325   2.210   1.848   0.673 -0.2519  0.2173 -0.1299
 1289SOL    HW115326   2.135   1.845   0.615 -1.1313 -0.3253  1.0250
 1289SOL    HW215327   2.185   1.905   0.746 -0.6074  1.3552 -1.1440
 1290SOL     OW15328   4.001   1.688  15.180 -0.8486 -0.0249 -0.1010
 1290SOL    HW115329   4.036   1.688  15.091 -1.0422 -1.1502 -0.1723
 1290SOL    HW215330   3.912   1.719  15.161 -0.9457 -0.1339  0.1851
 1291SOL     OW15331   2.354   3.979   5.274 -0.8450  0.0220  0.4897
 1291SOL    HW115332   2.373   3.889   5.300 -1.3051 -0.3008 -0.3049
 1291SOL    HW215333   2.331   4.013   5.361  2.4169  1.8627  0.6420
 1292SOL     OW15334   2.213   0.091   7.299 -0.3911 -0.1214 -0.4812
 1292SOL    HW115335   2.131   0.138   7.289 -0.0975  0.6252  0.6164
 1292SOL    HW215336   2.237   0.078   7.207  0.8948  1.2771 -0.3376
 1293SOL     OW15337   4.267   2.493   4.718 -0.1350 -0.4793  0.1526
 1293SOL    HW115338   4.313   2.527   4.794 -3.8074 -0.7124  2.4914
 1293SOL    HW215339   4.265   2.398   4.732 -2.4338 -0.4419  0.1774
 1294SOL     OW15340   0.939   1.418   9.984 -0.2784  0.1102 -0.0108
 1294SOL    HW115341   1.025   1.377   9.982  0.5065  1.8077 -1.2598
 1294SOL    HW215342   0.936   1.474  10.061  1.4284 -2.0467  1.6384
 1295SOL     OW15343   0.469   0.927  13.304  0.2377  0.3343  0.2823
 1295SOL    HW115344   0.452   0.873  13.227  0.3709 -0.3537  0.7288
 1295SOL    HW215345   0.541   0.878  13.344 -0.1676 -1.6354 -1.3965
 1296SOL     OW15346   2.499   2.135   8.939  0.5672  0.5730 -0.4422
 1296SOL    HW115347   2.515   2.041   8.951 -1.4086  0.3361  0.2369
 1296SOL    HW215348   2.404   2.132   8.933  0.5507 -1.0867  0.5801
 1297SOL     OW15349   3.880   4.229   5.414 -0.2566  0.0732  0.2980
 1297SOL    HW115350   3.849   4.249   5.502 -1.4369 -1.6778  0.2863
 1297SOL    HW215351   3.823   4.156   5.391  0.0369  0.0924 -0.4886
 1298SOL     OW15352   1.305   1.093   0.150 -0.7374 -0.2594  0.2627
 1298SOL    HW115353   1.391   1.133   0.136 -0.6220 -0.2056  1.1409
 1298SOL    HW215354   1.272   1.091   0.060 -0.9375 -0.5882  0.3429
 1299SOL     OW15355   1.838   4.196   6.808 -0.2791  0.4418 -0.9014
 1299SOL    HW115356   1.832   4.114   6.759 -1.0987 -0.5014  0.7999
 1299SOL    HW215357   1.780   4.260   6.767  0.6008 -0.2496 -3.2453
 1300SOL     OW15358   2.846   4.299  13.600 -0.0905  0.1851  0.3889
 1300SOL    HW115359   2.933   4.279  13.636 -0.1877 -0.7089  0.1106
 1300SOL    HW215360   2.807   4.214  13.580 -1.7538  1.0252  0.1151
 1301SOL     OW15361   1.150   3.668   4.827 -0.2918 -0.2098  0.2698
 1301SOL    HW115362   1.068   3.692   4.872 -1.0059 -1.9358 -0.1042
 1301SOL    HW215363   1.115   3.595   4.776 -0.1660 -0.5019  0.6068
 1302SOL     OW15364   4.175   2.356   8.139 -0.4038  0.5984 -0.5022
 1302SOL    HW115365   4.154   2.409   8.062  2.5269 -0.5151 -2.0969
 1302SOL    HW215366   4.100   2.374   8.196  1.5751  2.0753  1.6215
 1303SOL     OW15367   3.106   3.011  14.099 -0.4514  0.0637 -0.4055
 1303SOL    HW115368   3.125   2.963  14.180 -0.7151  0.9016  0.1529
 1303SOL    HW215369   3.194   3.022  14.063 -0.6442  2.4224 -0.1483
 1304SOL     OW15370   1.514   2.409  13.361 -0.6781 -0.5525 -0.4665
 1304SOL    HW115371   1.540   2.501  13.351  0.6542 -0.7494  1.2024
 1304SOL    HW215372   1.565   2.401  13.441  1.1971  1.1643 -1.4895
 1305SOL     OW15373   0.588   3.356   8.593 -0.2567  0.2966 -0.0792
 1305SOL    HW115374   0.683   3.367   8.598  0.0677 -1.5880 -2.2421
 1305SOL    HW215375   0.562   3.394   8.677  0.2480 -0.7753  0.5606
 1306SOL     OW15376   3.588   0.804   4.693 -0.3303  0.4488  0.0123
 1306SOL    HW115377   3.586   0.843   4.605  1.0984  1.4880  0.4484
 1306SOL    HW215378   3.680   0.819   4.716  0.3383  1.2424 -3.1163
 1307SOL     OW15379   2.334   2.965  17.501  0.5967  0.0757  0.0576
 1307SOL    HW115380   2.359   2.964  17.593  1.3902 -2.1829 -0.1739
 1307SOL    HW215381   2.330   3.060  17.490 -1.7913 -0.2664 -1.9634
 1308SOL     OW15382   2.796   3.138   2.041 -0.2673 -0.6205 -1.0028
 1308SOL    HW115383   2.859   3.067   2.054  1.7208  1.4252  0.6868
 1308SOL    HW215384   2.754   3.159   2.124  2.3686  1.9089 -0.2784
 1309SOL     OW15385   2.320   1.904   4.075 -0.3799  0.5284  0.5558
 1309SOL    HW115386   2.384   1.975   4.081  1.6844 -0.9611 -4.4330
 1309SOL    HW215387   2.375   1.837   4.116  1.0849  0.4187 -1.6136
 1310SOL     OW15388   4.007   4.255   3.198  0.1030 -0.3154  1.0938
 1310SOL    HW115389   3.969   4.343   3.195  0.3321 -0.1827  2.2997
 1310SOL    HW215390   4.018   4.249   3.103 -2.3037  4.8947  0.4787
 1311SOL     OW15391   2.597   1.902  13.187  0.4260  0.1160  0.3812
 1311SOL    HW115392   2.625   1.812  13.202 -0.4113 -0.1826  0.1594
 1311SOL    HW215393   2.625   1.950  13.265 -3.4415  1.6030  0.8439
 1312SOL     OW15394   4.488   0.965   8.532  0.5705  0.2545  0.0800
 1312SOL    HW115395   4.462   1.056   8.548  0.8484  0.1238  1.2953
 1312SOL    HW215396   4.547   0.967   8.457  1.2633 -2.1238  0.5578
 1313SOL     OW15397   3.427   2.863   5.024  0.1999 -0.5328  0.1297
 1313SOL    HW115398   3.427   2.792   5.088 -0.0320 -0.8734 -0.2526
 1313SOL    HW215399   3.389   2.938   5.071 -0.3104 -2.1974  2.4107
 1314SOL     OW15400   2.851   3.944   6.320  0.7776 -0.2045  0.4612
 1314SOL    HW115401   2.814   3.859   6.344 -2.1175  0.3253 -2.1780
 1314SOL    HW215402   2.837   3.989   6.404 -0.3564  0.2643  0.0177
 1315SOL     OW15403   0.644   0.455   6.643  0.4425  0.1008  0.0159
 1315SOL    HW115404   0.550   0.469   6.651  0.4756  1.0564 -1.3170
 1315SOL    HW215405   0.680   0.536   6.679  0.6050  0.5510 -1.1768
 1316SOL     OW15406   4.566   3.732   3.290 -0.3210 -0.3661 -0.0134
 1316SOL    HW115407   4.490   3.737   3.349 -0.6341  0.6568 -0.5097
 1316SOL    HW215408   4.515   3.711   3.212  0.1083 -1.3513 -0.0184
 1317SOL     OW15409   2.780   4.582   2.855  0.1506 -0.7601 -0.3964
 1317SOL    HW115410   2.714   4.610   2.792 -0.3253 -0.5895  0.1820
 1317SOL    HW215411   2.810   4.670   2.881 -2.2835  0.1820 -0.7733
 1318SOL     OW15412   0.937   1.195   0.821 -0.3490  0.6796  0.1342
 1318SOL    HW115413   0.991   1.179   0.744 -0.1531  3.1389 -0.2108
 1318SOL    HW215414   0.976   1.272   0.862 -3.0403  0.6203  2.7843
 1319SOL     OW15415   0.676   1.503   3.219 -0.2028 -0.5492 -0.0826
 1319SOL    HW115416   0.649   1.584   3.176  1.3101 -0.5572 -1.0426
 1319SOL    HW215417   0.684   1.442   3.146 -0.1194 -0.3687 -0.2240
 1320SOL     OW15418   3.114   2.578   7.113 -0.1425 -0.4751 -0.0348
 1320SOL    HW115419   3.036   2.624   7.145  1.0980  3.0127 -2.0536
 1320SOL    HW215420   3.107   2.487   7.142 -0.5938 -0.4397 -0.0232
 1321SOL     OW15421   1.851   1.814   4.017  0.1624 -0.8987  0.3831
 1321SOL    HW115422   1.795   1.864   4.076 -0.1392 -1.0894  0.2575
 1321SOL    HW215423   1.911   1.777   4.083 -0.5225 -2.0840  0.3402
 1322SOL     OW15424   0.626   0.009   9.705  0.0127 -0.0913  0.7004
 1322SOL    HW115425   0.614   0.085   9.761  0.4585 -0.1544  0.8876
 1322SOL    HW215426   0.668   0.058   9.634  1.9638 -0.0512  1.8689
 1323SOL     OW15427   2.810   2.644   2.644 -0.5544 -0.0716 -0.5918
 1323SOL    HW115428   2.872   2.656   2.716  0.1966 -0.6414 -1.1423
 1323SOL    HW215429   2.845   2.564   2.604 -1.7416 -0.6676 -0.4511
 1324SOL     OW15430   1.797   2.395   9.197  0.1568  0.5329  0.1621
 1324SOL    HW115431   1.772   2.339   9.123  0.9061  0.2674  0.1083
 1324SOL    HW215432   1.888   2.365   9.195 -0.0843 -0.1919  0.0042
 1325SOL     OW15433   3.851   3.764  12.343 -0.3947  0.1462 -0.0560
 1325SOL    HW115434   3.880   3.739  12.256  0.3225 -1.1830  0.5635
 1325SOL    HW215435   3.789   3.837  12.334 -0.3668  0.2783  0.8008
 1326SOL     OW15436   0.041   4.004   8.624  0.2537  0.1520 -0.5484
 1326SOL    HW115437   4.705   4.051   8.682 -1.3805 -0.1286 -1.9853
 1326SOL    HW215438   4.716   3.923   8.605 -0.6007  0.5163  0.0578
 1327SOL     OW15439   4.643   2.061  17.258  0.1870 -0.0009 -0.3899
 1327SOL    HW115440   4.616   2.127  17.195  0.3150  0.7245  0.3196
 1327SOL    HW215441   4.645   2.107  17.342 -0.6843 -0.6974  0.0069
 1328SOL     OW15442   0.526   3.687   5.207 -0.0330 -0.1618 -0.8400
 1328SOL    HW115443   0.552   3.770   5.166  2.9188 -0.4232  0.4662
 1328SOL    HW215444   0.461   3.718   5.270  1.8159  2.3555 -0.1697
 1329SOL     OW15445   2.643   3.103   7.635 -0.0041  0.1928  0.2914
 1329SOL    HW115446   2.634   3.136   7.724 -1.6416  1.9945 -0.5212
 1329SOL    HW215447   2.591   3.171   7.592  0.1313  0.3656  0.3988
 1330SOL     OW15448   3.910   0.645   4.044 -0.7265  0.1274 -0.5010
 1330SOL    HW115449   3.974   0.686   3.985  1.6523 -0.0297  1.9983
 1330SOL    HW215450   3.892   0.726   4.091 -3.1683  0.1134 -1.3987
 1331SOL     OW15451   1.806   2.189  11.566 -0.2738  0.3916  0.0605
 1331SOL    HW115452   1.756   2.108  11.553 -0.0645  0.4576 -1.1332
 1331SOL    HW215453   1.781   2.245  11.493 -0.3876  0.6577  0.3084
 1332SOL     OW15454   0.670   0.879   3.766 -0.0002  0.6889  0.1900
 1332SOL    HW115455   0.642   0.967   3.740 -1.5059  0.0106 -0.4916
 1332SOL    HW215456   0.764   0.885   3.781  0.0322 -2.0676  1.0375
 1333SOL     OW15457   1.825   1.480   5.075  0.2794 -0.6071 -0.3490
 1333SOL    HW115458   1.761   1.538   5.032 -0.7786 -0.7839  0.9931
 1333SOL    HW215459   1.887   1.453   5.007  2.8138  0.6045  1.5293
 1334SOL     OW15460   4.024   1.765   3.370 -0.1697  0.4486 -0.4258
 1334SOL    HW115461   4.070   1.802   3.446  2.1176 -0.8972 -1.1541
 1334SOL    HW215462   4.061   1.821   3.302 -0.9585  2.7317  1.0212
 1335SOL     OW15463   3.041   4.709   8.670  0.1022 -0.0990 -0.0057
 1335SOL    HW115464   2.972   4.666   8.720 -0.3141  0.5637 -0.0094
 1335SOL    HW215465   3.112   4.704   8.734 -0.6844 -1.9326  0.7264
 1336SOL     OW15466   3.886   2.788  11.739  0.2895 -0.4159 -0.1609
 1336SOL    HW115467   3.840   2.813  11.819  1.4406  0.4040  0.2461
 1336SOL    HW215468   3.822   2.736  11.691 -0.4936 -0.0561  0.5007
 1337SOL     OW15469   0.808   1.067   8.156  0.0040  0.3283  0.1280
 1337SOL    HW115470   0.895   1.091   8.187 -0.2486 -0.7466  1.6967
 1337SOL    HW215471   0.780   1.004   8.222 -1.2281  1.4288  0.6782
 1338SOL     OW15472   0.705   0.440  17.540 -0.3982 -0.1125 -0.1122
 1338SOL    HW115473   0.786   0.422  17.588 -0.4073  0.5534  0.1555
 1338SOL    HW215474   0.672   0.350  17.547  1.7132 -0.9789 -1.4451
 1339SOL     OW15475   0.718   2.662   8.386  0.3999 -0.3380  0.8603
 1339SOL    HW115476   0.709   2.722   8.460 -0.0052  0.1912  0.3830
 1339SOL    HW215477   0.628   2.634   8.376  0.2232 -0.1961  2.0515
 1340SOL     OW15478   2.732   3.370   1.871  0.0240 -0.1609 -0.2900
 1340SOL    HW115479   2.678   3.334   1.800 -1.1966 -1.0354  1.0525
 1340SOL    HW215480   2.759   3.292   1.920  1.8840 -0.3105 -1.5650
 1341SOL     OW15481   1.885   1.145   3.068  0.2755  0.1340  0.0611
 1341SOL    HW115482   1.950   1.213   3.087 -0.1046 -0.3195  3.0118
 1341SOL    HW215483   1.836   1.194   3.003  1.4557  0.3107 -0.7020
 1342SOL     OW15484   3.032   2.569   7.953  0.0307 -0.0019 -0.1018
 1342SOL    HW115485   2.939   2.545   7.952 -0.4228  1.7142  1.0811
 1342SOL    HW215486   3.044   2.588   8.046  1.3995  1.1582 -0.5203
 1343SOL     OW15487   1.954   1.466  12.759  0.0550 -0.3268 -0.2852
 1343SOL    HW115488   1.989   1.515  12.685 -0.8635  1.0610  0.1966
 1343SOL    HW215489   1.864   1.453  12.730 -0.2525  2.0229 -0.3562
 1344SOL     OW15490   4.593   2.174   2.425 -0.1551  0.3430  0.3472
 1344SOL    HW115491   4.619   2.097   2.477  1.1920  0.7153  0.2146
 1344SOL    HW215492   4.501   2.182   2.450  0.1303 -0.6225  1.7103
 1345SOL     OW15493   4.189   1.639   0.730  0.5120 -0.1222 -0.2320
 1345SOL    HW115494   4.223   1.568   0.676  0.4390 -0.0899 -0.3197
 1345SOL    HW215495   4.106   1.603   0.761  0.1444  0.4298 -0.5891
 1346SOL     OW15496   1.847   2.466   9.894 -0.0225  0.3378 -0.1839
 1346SOL    HW115497   1.860   2.408   9.819 -0.8296 -0.5329  0.3553
 1346SOL    HW215498   1.751   2.472   9.893 -0.0475 -0.2974 -1.4415
 1347SOL     OW15499   2.355   3.215   7.977  0.2234  0.8432  0.4184
 1347SOL    HW115500   2.415   3.287   7.953 -1.3548  1.9042 -0.3366
 1347SOL    HW215501   2.380   3.195   8.067  0.0965  2.1428  0.7382
 1348SOL     OW15502   3.538   2.877  14.654 -0.4259 -0.5500  0.3578
 1348SOL    HW115503   3.603   2.948  14.652 -1.1583  0.0906 -0.5682
 1348SOL    HW215504   3.461   2.933  14.657 -2.0044 -2.7207  0.1689
 1349SOL     OW15505   1.187   0.952  11.695 -0.3069 -0.1657  0.0159
 1349SOL    HW115506   1.200   0.859  11.677  2.1689  0.4302 -1.2200
 1349SOL    HW215507   1.206   0.993  11.611 -0.5058  1.3858  0.7166
 1350SOL     OW15508   1.004   2.223   0.202  0.5664 -0.3140 -0.1140
 1350SOL    HW115509   0.973   2.239   0.291 -0.7798 -0.3385 -0.5826
 1350SOL    HW215510   1.069   2.155   0.219  0.0726 -0.7691 -0.0473
 1351SOL     OW15511   0.221   2.329   8.008  0.0724 -0.0417  0.0152
 1351SOL    HW115512   0.307   2.335   8.048 -0.3965 -0.6038  1.1177
 1351SOL    HW215513   0.242   2.391   7.938 -1.9579  2.0677  1.3034
 1352SOL     OW15514   0.807   2.686   3.610  0.2557  0.4603  0.3406
 1352SOL    HW115515   0.836   2.653   3.524 -2.3973 -0.8889 -0.0184
 1352SOL    HW215516   0.830   2.608   3.660  1.3574  1.7733  1.8882
 1353SOL     OW15517   2.315   0.195   9.903  0.1554  0.0105 -0.2271
 1353SOL    HW115518   2.244   0.256   9.886 -1.1849 -1.1916  1.0828
 1353SOL    HW215519   2.393   0.244   9.930  0.4287 -0.9747  0.8052
 1354SOL     OW15520   2.344   4.407  12.740 -0.4685 -0.0170 -0.2156
 1354SOL    HW115521   2.307   4.413  12.828 -1.6007 -0.4094 -0.6657
 1354SOL    HW215522   2.386   4.492  12.753 -1.4632  0.5920 -1.0362
 1355SOL     OW15523   0.908   0.028   3.890 -0.1067 -0.0753 -0.5311
 1355SOL    HW115524   0.880   0.108   3.935 -0.6175 -0.8207  0.4875
 1355SOL    HW215525   0.881   4.685   3.955 -1.1208  1.6635  0.8149
 1356SOL     OW15526   2.813   2.898   5.980 -0.5692 -0.2934 -0.3379
 1356SOL    HW115527   2.802   2.933   6.069 -3.8282 -0.2558 -0.7400
 1356SOL    HW215528   2.808   2.804   5.995 -0.7227 -0.2573 -0.1582
 1357SOL     OW15529   4.215   3.367   7.936  0.0227 -0.0588 -0.0953
 1357SOL    HW115530   4.303   3.352   7.901  0.7078  1.9578  0.7535
 1357SOL    HW215531   4.178   3.279   7.928  0.6192 -0.4352  1.4613
 1358SOL     OW15532   3.808   0.966  15.848  0.4706  0.1919  0.0122
 1358SOL    HW115533   3.735   0.905  15.839  0.5047  0.2934 -0.9549
 1358SOL    HW215534   3.883   0.913  15.819  0.1416  0.1713 -0.8132
 1359SOL     OW15535   3.441   2.261   2.051 -0.7785 -0.2308  0.6701
 1359SOL    HW115536   3.526   2.258   2.007 -1.0018 -0.8457  0.2774
 1359SOL    HW215537   3.393   2.187   2.014  1.0906 -0.6596 -0.9307
 1360SOL     OW15538   1.669   1.964  11.456 -0.9233 -0.1344 -0.1342
 1360SOL    HW115539   1.705   1.929  11.374  1.0566  1.9055 -0.1371
 1360SOL    HW215540   1.580   1.964  11.422 -0.5980 -1.3776 -1.0062
 1361SOL     OW15541   0.939   0.839   6.592  0.1759  0.4185  0.0799
 1361SOL    HW115542   0.860   0.891   6.611 -1.3771 -1.7590 -0.3748
 1361SOL    HW215543   0.920   0.807   6.504 -1.2281 -0.1838  0.5993
 1362SOL     OW15544   4.064   4.367   6.885 -0.2279 -0.4626  0.0713
 1362SOL    HW115545   4.159   4.378   6.890 -0.5061  1.6435  0.6681
 1362SOL    HW215546   4.037   4.412   6.965  0.7010  0.5961 -0.2158
 1363SOL     OW15547   4.541   1.358   9.368  0.2283 -0.0524  0.0509
 1363SOL    HW115548   4.524   1.264   9.375  0.2626 -0.1600 -1.4223
 1363SOL    HW215549   4.607   1.363   9.300 -0.3001  0.9985 -0.3795
 1364SOL     OW15550   2.401   1.983   9.463  0.1605  0.2831 -0.0168
 1364SOL    HW115551   2.461   2.003   9.391  0.9986  0.4954  0.7435
 1364SOL    HW215552   2.355   2.067   9.456 -1.5788 -0.6049  0.8855
 1365SOL     OW15553   2.321   0.460   1.467  0.0950  0.1814 -0.2828
 1365SOL    HW115554   2.382   0.461   1.393  0.4142 -0.7698 -0.0329
 1365SOL    HW215555   2.332   0.373   1.504 -1.7784  0.7680  1.6478
 1366SOL     OW15556   4.400   2.017   5.042  0.0277 -0.1985 -0.1545
 1366SOL    HW115557   4.416   1.927   5.014 -0.3440 -0.1847 -0.4120
 1366SOL    HW215558   4.335   2.008   5.112  0.5533 -1.2855  0.1996
 1367SOL     OW15559   0.132   2.807   0.946 -0.1525 -0.0264 -0.1464
 1367SOL    HW115560   0.205   2.761   0.904 -0.4446 -2.5620  2.1477
 1367SOL    HW215561   0.172   2.877   0.997 -2.3329  1.6986 -0.8411
 1368SOL     OW15562   4.152   3.997   8.663 -0.3092 -0.3086 -0.2320
 1368SOL    HW115563   4.190   4.074   8.622 -0.3340 -0.3631 -0.3568
 1368SOL    HW215564   4.189   3.997   8.751  1.1056  1.1941 -0.8380
 1369SOL     OW15565   1.140   1.423   5.249  0.2815 -0.0788 -0.7919
 1369SOL    HW115566   1.119   1.343   5.200  1.1783 -0.1174 -1.1066
 1369SOL    HW215567   1.231   1.400   5.266  0.9270  1.4187 -2.2731
 1370SOL     OW15568   2.212   1.282   2.378 -0.1534  0.0529  0.1844
 1370SOL    HW115569   2.205   1.192   2.409 -0.4303  0.7454  2.1353
 1370SOL    HW215570   2.192   1.268   2.285 -0.3767 -0.7035  0.3464
 1371SOL     OW15571   0.821   0.134   0.721 -0.0988  0.6532 -0.2308
 1371SOL    HW115572   0.798   0.092   0.804 -0.8313  4.4004  1.4399
 1371SOL    HW215573   0.832   0.219   0.763  0.2639  0.2483  0.5062
 1372SOL     OW15574   4.706   3.828   4.095  0.1359 -0.2948 -0.0815
 1372SOL    HW115575   4.656   3.795   4.169 -1.5849  3.0054  0.1985
 1372SOL    HW215576   0.046   3.757   4.086  0.5099  0.0446 -0.1452
 1373SOL     OW15577   2.702   0.339  16.170 -0.7036 -0.0826 -0.2330
 1373SOL    HW115578   2.657   0.422  16.182  0.5700  0.9001 -2.3028
 1373SOL    HW215579   2.675   0.308  16.257  1.4261  1.9704  1.1571
 1374SOL     OW15580   0.799   3.913   8.339  0.3084  0.4186  0.0721
 1374SOL    HW115581   0.782   4.007   8.348  2.6554  1.1070 -2.6069
 1374SOL    HW215582   0.861   3.932   8.269  1.0895 -0.3012  0.5645
 1375SOL     OW15583   4.064   0.139   0.761 -0.1440  0.4185 -0.7100
 1375SOL    HW115584   4.077   0.156   0.854  0.7427  0.8242 -0.9163
 1375SOL    HW215585   4.109   0.054   0.759 -1.5602 -0.3325 -1.0499
 1376SOL     OW15586   2.797   4.092   8.602  0.1574  0.1730 -0.3688
 1376SOL    HW115587   2.706   4.122   8.608  0.1766 -0.4892  3.1961
 1376SOL    HW215588   2.788   4.037   8.524 -1.2506  0.8719 -0.6972
 1377SOL     OW15589   3.361   4.227   2.789  0.1086 -0.0992  0.1913
 1377SOL    HW115590   3.324   4.271   2.712  0.9873  1.3962  0.6247
 1377SOL    HW215591   3.275   4.208   2.826 -0.3240  1.0392 -0.2364
 1378SOL     OW15592   0.744   1.187   2.675  0.2946 -0.2548 -0.5256
 1378SOL    HW115593   0.802   1.222   2.608  0.2181 -0.5230 -0.7326
 1378SOL    HW215594   0.658   1.212   2.641  0.2015  1.2001  0.7531
 1379SOL     OW15595   2.986   4.174   1.540  0.6078  0.2815 -0.5562
 1379SOL    HW115596   2.897   4.208   1.535  0.7034  0.7799  1.2009
 1379SOL    HW215597   3.013   4.180   1.632 -1.3856 -2.2422  0.1899
 1380SOL     OW15598   4.683   0.987   3.677  0.0408 -0.0778 -0.0078
 1380SOL    HW115599   4.619   1.045   3.719  0.3700  0.5254 -0.3254
 1380SOL    HW215600   0.005   1.058   3.630 -1.5215  0.1338 -1.1672
 1381SOL     OW15601   1.028   3.564   7.521 -0.1787  0.2429 -0.1898
 1381SOL    HW115602   1.033   3.470   7.541  2.3873  0.5706  0.6327
 1381SOL    HW215603   1.096   3.564   7.454  1.6156 -2.2649  1.6338
 1382SOL     OW15604   4.275   2.137   3.043  0.4665 -0.4428  0.3490
 1382SOL    HW115605   4.317   2.158   3.127 -0.5085 -0.6042  0.8751
 1382SOL    HW215606   4.335   2.175   2.979  0.0992  0.6399  0.6333
 1383SOL     OW15607   3.100   1.199   3.264  0.2429 -0.3203  0.1530
 1383SOL    HW115608   3.078   1.111   3.294  2.4392 -1.5419 -1.7630
 1383SOL    HW215609   3.030   1.218   3.201 -0.2297  1.8072  1.3447
 1384SOL     OW15610   0.096   1.897   3.334 -0.2714  0.5355 -0.0361
 1384SOL    HW115611   0.062   1.823   3.385 -1.5358  0.4772 -0.9722
 1384SOL    HW215612   0.108   1.961   3.405  0.8331  1.5932 -1.1803
 1385SOL     OW15613   4.159   2.478   0.768 -0.0327 -0.0712 -0.2077
 1385SOL    HW115614   4.078   2.427   0.760 -1.1772  2.0512 -2.3402
 1385SOL    HW215615   4.132   2.530   0.843 -1.5289 -0.4378 -0.4865
 1386SOL     OW15616   0.142   0.771   9.537  0.3459  0.2409 -0.2776
 1386SOL    HW115617   0.106   0.829   9.605  1.1773  2.6074 -1.8258
 1386SOL    HW215618   0.091   0.692   9.554  0.3775  0.3650  0.4196
 1387SOL     OW15619   4.076   3.109   2.550 -0.2169 -0.3863  0.1599
 1387SOL    HW115620   3.990   3.112   2.507  0.6752 -0.3571 -1.6337
 1387SOL    HW215621   4.103   3.199   2.533 -0.9839 -0.2861 -0.5711
 1388SOL     OW15622   0.873   0.524  14.765  0.4177  0.4719  0.0641
 1388SOL    HW115623   0.813   0.452  14.745 -0.5185  2.5071 -4.5447
 1388SOL    HW215624   0.827   0.602  14.734 -3.6607 -1.7088  0.5499
 1389SOL     OW15625   4.636   4.718  10.508  0.1349 -0.1814 -0.4384
 1389SOL    HW115626   4.651   4.679  10.594  0.6865 -1.7041 -1.2132
 1389SOL    HW215627   4.607   4.641  10.458  1.2317 -1.1709  0.4542
 1390SOL     OW15628   4.063   3.682   4.151 -0.3902 -0.1908 -0.0148
 1390SOL    HW115629   4.129   3.667   4.220 -0.3430  1.7689  0.3806
 1390SOL    HW215630   4.090   3.767   4.116  0.7388 -0.6827 -0.3528
 1391SOL     OW15631   0.897   0.145   6.166 -0.3861  0.1593  0.4310
 1391SOL    HW115632   0.930   0.092   6.093 -1.0345 -0.2807  0.4500
 1391SOL    HW215633   0.822   0.091   6.193 -1.5457  2.1489  1.2282
 1392SOL     OW15634   2.143   4.016   6.313 -0.5949 -0.2797  0.1140
 1392SOL    HW115635   2.190   4.099   6.323 -0.5693 -0.3311  0.4292
 1392SOL    HW215636   2.068   4.036   6.370 -0.8140  0.6004 -0.4779
 1393SOL     OW15637   4.478   4.173  13.137  0.1392 -0.0950  0.0742
 1393SOL    HW115638   4.502   4.080  13.142  1.1166  0.3620  3.3725
 1393SOL    HW215639   4.502   4.202  13.225 -2.8039  1.5025  0.3252
 1394SOL     OW15640   0.559   1.249   5.196 -0.6234  0.3056 -0.0828
 1394SOL    HW115641   0.543   1.316   5.129 -3.6716 -1.2687 -0.9183
 1394SOL    HW215642   0.654   1.255   5.206 -0.7045 -1.3089  1.7121
 1395SOL     OW15643   1.990   4.202   3.445  0.1251  0.3842 -0.0280
 1395SOL    HW115644   2.056   4.142   3.410 -0.3797  0.4435 -1.0774
 1395SOL    HW215645   2.038   4.264   3.500  1.4614 -0.1453 -0.6017
 1396SOL     OW15646   2.558   2.832  14.811  0.3404  0.1950 -0.0472
 1396SOL    HW115647   2.533   2.909  14.861  2.9786 -0.3780  2.1495
 1396SOL    HW215648   2.617   2.789  14.874  0.1378 -0.4121 -0.2741
 1397SOL     OW15649   0.851   1.180   6.437 -0.2203 -0.1352 -0.1685
 1397SOL    HW115650   0.872   1.185   6.343  0.5687 -0.6461 -0.0138
 1397SOL    HW215651   0.800   1.261   6.438  0.1674  0.0613  2.0470
 1398SOL     OW15652   4.577   3.162   2.705  0.1471  0.0369 -0.0591
 1398SOL    HW115653   4.644   3.195   2.646 -0.2257  1.2828  0.2229
 1398SOL    HW215654   4.622   3.149   2.788 -0.7318 -0.8927  0.2642
 1399SOL     OW15655   2.116   2.136   7.527 -0.2602 -0.2666  0.7824
 1399SOL    HW115656   2.179   2.116   7.457 -0.6006 -1.1592  0.7349
 1399SOL    HW215657   2.096   2.221   7.487 -1.3850 -1.1087 -0.4405
 1400SOL     OW15658   1.904   4.098   2.778 -0.0654 -0.5542 -0.0405
 1400SOL    HW115659   1.989   4.053   2.775 -0.7524 -1.8365 -0.4140
 1400SOL    HW215660   1.923   4.179   2.731  1.3819 -2.6445 -3.0658
 1401SOL     OW15661   1.240   2.423  13.799  0.4694  0.1240 -0.2340
 1401SOL    HW115662   1.178   2.441  13.869  1.0227  0.3928  0.1825
 1401SOL    HW215663   1.230   2.330  13.780 -0.9834  0.4928 -1.2888
 1402SOL     OW15664   3.463   1.199   3.151 -0.2181 -0.0492  0.0729
 1402SOL    HW115665   3.434   1.124   3.202 -0.1049  0.9962  1.6701
 1402SOL    HW215666   3.440   1.270   3.211  0.5088 -1.1007  1.6005
 1403SOL     OW15667   3.443   2.514   4.487 -0.6379 -0.3010  0.3817
 1403SOL    HW115668   3.531   2.477   4.502  0.1869  0.6503 -2.1861
 1403SOL    HW215669   3.416   2.524   4.578 -1.0001  0.9865  0.1217
 1404SOL     OW15670   2.860   1.389   9.727 -0.0344  0.1967 -0.0406
 1404SOL    HW115671   2.854   1.370   9.633  1.8212 -1.3516  0.1469
 1404SOL    HW215672   2.784   1.444   9.747 -0.3564  0.4587 -1.9377
 1405SOL     OW15673   4.114   2.998  10.288  0.2110  0.3350 -0.4186
 1405SOL    HW115674   4.084   2.917  10.331  3.7338 -0.6859  0.0526
 1405SOL    HW215675   4.027   3.030  10.265 -0.3400 -0.3634  0.6398
 1406SOL     OW15676   1.729   1.635   3.335 -0.2098  0.7541 -0.0442
 1406SOL    HW115677   1.710   1.556   3.285  2.0458  1.2150 -1.6530
 1406SOL    HW215678   1.645   1.674   3.358 -1.7815 -1.0613 -2.7815
 1407SOL     OW15679   3.626   0.103   6.548 -0.1762  0.4712  0.1888
 1407SOL    HW115680   3.655   0.026   6.597 -0.6488 -1.0598 -1.9246
 1407SOL    HW215681   3.546   0.055   6.527  1.6554 -1.9834 -1.2081
 1408SOL     OW15682   3.262   3.178   8.432 -0.1562  0.1165 -0.0014
 1408SOL    HW115683   3.305   3.170   8.346  1.5272  0.9660  0.7574
 1408SOL    HW215684   3.248   3.273   8.439  0.4506  0.3300 -1.5721
 1409SOL     OW15685   4.651   1.210   2.437  0.3395 -0.0463  0.1714
 1409SOL    HW115686   4.590   1.281   2.417  0.3496  0.4423  1.9155
 1409SOL    HW215687   4.716   1.223   2.367 -0.4531 -0.4098 -0.6418
 1410SOL     OW15688   3.811   1.037   8.019  0.1268 -0.8714 -0.0639
 1410SOL    HW115689   3.797   0.942   8.018  0.8435 -0.9707 -1.6599
 1410SOL    HW215690   3.724   1.062   8.049  0.5671  2.2996 -1.4164
 1411SOL     OW15691   0.491   0.199   8.147 -0.0846  1.0366  0.2695
 1411SOL    HW115692   0.544   0.125   8.116 -0.4510  0.9162 -0.0671
 1411SOL    HW215693   0.463   0.241   8.066 -1.2383  0.6554  0.4678
 1412SOL     OW15694   4.622   1.299  17.049  0.1506  0.1275  0.0664
 1412SOL    HW115695   4.597   1.383  17.011  2.4358 -0.3405 -2.3920
 1412SOL    HW215696   4.651   1.255  16.970  0.6593 -0.9021  0.8215
 1413SOL     OW15697   2.475   0.233   1.623  0.1110 -0.1130 -0.2617
 1413SOL    HW115698   2.474   0.173   1.697 -0.0681  1.4637  1.0235
 1413SOL    HW215699   2.540   0.195   1.565 -0.1451  0.6011 -1.0148
 1414SOL     OW15700   0.031   4.536   3.387 -0.1265  0.7510 -0.1756
 1414SOL    HW115701   0.115   4.543   3.341  0.0588 -0.3241 -0.0046
 1414SOL    HW215702   0.015   4.625   3.418 -1.1704  1.3022 -2.2791
 1415SOL     OW15703   3.481   0.560   9.643 -0.6841  0.1220 -0.9105
 1415SOL    HW115704   3.501   0.500   9.715 -0.8954  1.1329 -0.0047
 1415SOL    HW215705   3.510   0.642   9.683 -1.5911 -0.0812  0.1852
 1416SOL     OW15706   4.670   1.237  13.128 -0.2495 -0.1862  0.0748
 1416SOL    HW115707   4.629   1.165  13.079  0.8839 -0.4012 -0.5687
 1416SOL    HW215708   4.595   1.296  13.137  1.5489  2.3265 -1.5538
 1417SOL     OW15709   3.560   3.759  17.055 -0.7251  0.8274 -0.2079
 1417SOL    HW115710   3.509   3.698  17.109  0.0232 -0.6915 -1.1923
 1417SOL    HW215711   3.629   3.706  17.014  1.1236  0.6432  3.1108
 1418SOL     OW15712   1.703   3.207   0.087  0.0859  0.6075  0.8628
 1418SOL    HW115713   1.693   3.171  17.692 -1.2255  1.1076  0.8114
 1418SOL    HW215714   1.789   3.170   0.110 -0.0721 -0.9616 -1.0311
 1419SOL     OW15715   1.523   3.762   6.676  0.3070  0.1007 -0.1575
 1419SOL    HW115716   1.437   3.803   6.673  0.3785  0.1855 -0.9213
 1419SOL    HW215717   1.498   3.678   6.636 -1.3437 -0.4622  2.0156
 1420SOL     OW15718   4.331   3.994   7.744 -0.2129  0.5637 -0.4086
 1420SOL    HW115719   4.344   4.021   7.835  0.3196  0.0944 -0.3508
 1420SOL    HW215720   4.391   3.920   7.747 -0.1881  0.6441  0.8109
 1421SOL     OW15721   1.695   2.407   4.757 -1.5071 -0.2561  0.2116
 1421SOL    HW115722   1.765   2.419   4.820 -0.6948 -2.4493 -0.2461
 1421SOL    HW215723   1.717   2.452   4.675 -1.6434 -1.4270 -0.4711
 1422SOL     OW15724   1.689   0.551   6.308  0.4180  0.0165 -0.5098
 1422SOL    HW115725   1.698   0.618   6.376 -1.1111  0.5244 -0.8208
 1422SOL    HW215726   1.775   0.558   6.266  0.8359 -2.1882 -0.0419
 1423SOL     OW15727   1.716   2.769  10.963  0.5743 -0.6006 -0.2752
 1423SOL    HW115728   1.724   2.856  10.924  1.3073 -0.5245  0.0363
 1423SOL    HW215729   1.693   2.718  10.885  1.0479 -4.3319  1.9966
 1424SOL     OW15730   3.054   2.702   8.660 -0.1138  0.8621 -0.1368
 1424SOL    HW115731   2.980   2.646   8.681 -0.1204  1.2838  0.9691
 1424SOL    HW215732   3.091   2.666   8.579 -1.4050  0.6178 -0.6198
 1425SOL     OW15733   0.088   3.266   9.040 -0.1330 -0.0273  0.0675
 1425SOL    HW115734   0.105   3.284   9.132 -1.7262 -1.5792  0.6766
 1425SOL    HW215735   0.176   3.253   9.004 -1.2093 -1.8307 -1.8910
 1426SOL     OW15736   1.678   3.492  15.393 -0.0286  0.4538 -0.0186
 1426SOL    HW115737   1.616   3.564  15.383 -3.0477 -2.1463 -0.0578
 1426SOL    HW215738   1.669   3.438  15.314 -1.2553 -0.7366  0.9213
 1427SOL     OW15739   0.311   1.500   5.705  0.1107  0.4632 -0.4207
 1427SOL    HW115740   0.380   1.434   5.713  0.5524  0.9054 -0.5741
 1427SOL    HW215741   0.339   1.585   5.739  4.6910 -1.9293  1.9372
 1428SOL     OW15742   0.793   4.379   3.233 -0.5975 -0.4697  0.5450
 1428SOL    HW115743   0.761   4.306   3.180  1.9230  0.3133 -2.0563
 1428SOL    HW215744   0.888   4.364   3.229 -1.0854 -2.6350 -2.9628
 1429SOL     OW15745   4.511   3.890   0.055  0.5492  0.3735 -0.2544
 1429SOL    HW115746   4.588   3.942   0.079  0.7473  0.0576 -0.2004
 1429SOL    HW215747   4.543   3.812   0.010  0.3468 -0.1104  0.4280
 1430SOL     OW15748   3.359   3.042   1.222 -0.0416 -0.1858 -0.5652
 1430SOL    HW115749   3.333   3.063   1.312  0.6204 -1.3314 -0.1085
 1430SOL    HW215750   3.383   2.950   1.224  0.4796 -0.0490 -0.4027
 1431SOL     OW15751   4.485   1.427  10.300  0.2194 -0.3715  0.7517
 1431SOL    HW115752   4.415   1.481  10.264  0.2339 -0.6399  0.3166
 1431SOL    HW215753   4.545   1.496  10.330 -0.3161 -0.1966  1.4148
 1432SOL     OW15754   0.279   1.639   3.391  0.0161 -0.5534 -0.2402
 1432SOL    HW115755   0.211   1.574   3.381  1.7073 -2.1441 -1.3787
 1432SOL    HW215756   0.254   1.687   3.470  0.1836 -0.0433 -0.4976
 1433SOL     OW15757   0.728   3.153   4.355  0.0889  0.0724 -0.0560
 1433SOL    HW115758   0.818   3.120   4.359 -0.5347 -1.2225  3.4907
 1433SOL    HW215759   0.707   3.147   4.262 -2.6644 -2.5439  0.7437
 1434SOL     OW15760   4.123   0.141  11.231 -0.4105 -0.2009 -0.3525
 1434SOL    HW115761   4.153   0.136  11.322 -3.3616 -3.2267  0.4735
 1434SOL    HW215762   4.066   0.219  11.230  1.1536  0.9439  0.0004
 1435SOL     OW15763   1.456   0.410  17.310 -0.0299 -0.0767 -0.5128
 1435SOL    HW115764   1.536   0.435  17.357 -0.0589  0.5405 -0.7881
 1435SOL    HW215765   1.424   0.498  17.287 -2.0689 -1.5935 -3.4706
 1436SOL     OW15766   0.160   4.453  15.438  0.1164 -0.5059  0.8763
 1436SOL    HW115767   0.121   4.400  15.369  0.4269 -0.3031  0.5444
 1436SOL    HW215768   0.080   4.481  15.481  0.3188  1.1084  0.2004
 1437SOL     OW15769   4.717   2.773   8.029 -0.2335  0.4546  0.1603
 1437SOL    HW115770   4.723   2.685   8.066 -0.0227  0.8670  1.1019
 1437SOL    HW215771   0.070   2.801   8.081 -0.6091  1.4119  0.1942
 1438SOL     OW15772   2.177   1.153   9.845  0.5886  0.8238 -0.2976
 1438SOL    HW115773   2.200   1.073   9.892  0.4651  1.8199  1.4271
 1438SOL    HW215774   2.174   1.118   9.756 -1.5820 -0.4638  0.2763
 1439SOL     OW15775   0.818   2.492   2.629  0.0521  0.1181  0.2575
 1439SOL    HW115776   0.732   2.462   2.600  1.2793 -1.9967 -1.1618
 1439SOL    HW215777   0.879   2.485   2.556  0.5361  1.3044  0.5460
 1440SOL     OW15778   2.209   3.898  15.004  0.4998  0.3228 -0.0093
 1440SOL    HW115779   2.156   3.956  14.948 -1.0728  0.1178  1.2502
 1440SOL    HW215780   2.293   3.944  15.003  0.0338  1.1238 -1.8655
 1441SOL     OW15781   1.552   3.726  14.696 -0.2243 -0.0152  0.2966
 1441SOL    HW115782   1.640   3.759  14.716  0.2065 -1.2597  0.5111
 1441SOL    HW215783   1.553   3.725  14.600 -0.0550 -2.6075  0.3041
 1442SOL     OW15784   0.420   1.550   7.980  0.2635  0.0644  0.4915
 1442SOL    HW115785   0.383   1.474   8.025 -0.8270 -0.0347 -0.5616
 1442SOL    HW215786   0.505   1.565   8.020  0.1802 -3.2547  1.9161
 1443SOL     OW15787   1.556   3.905   2.170  0.3585 -0.3991 -0.6378
 1443SOL    HW115788   1.480   3.868   2.214 -0.9414  2.6921 -0.2580
 1443SOL    HW215789   1.620   3.835   2.181  1.7600  1.1304  0.9353
 1444SOL     OW15790   0.027   1.545  11.016 -0.6341  0.2935  0.2281
 1444SOL    HW115791   0.034   1.559  11.110 -0.4307  0.1816  0.2290
 1444SOL    HW215792   0.095   1.601  10.979 -3.4268  2.1020 -2.1151
 1445SOL     OW15793   1.233   2.271   7.317 -0.0735 -0.1236  0.1260
 1445SOL    HW115794   1.307   2.311   7.361  1.4640  1.8235 -4.1638
 1445SOL    HW215795   1.246   2.182   7.349 -0.4524  0.2333  1.2699
 1446SOL     OW15796   2.953   1.327   1.020  0.6003  0.2848  0.0914
 1446SOL    HW115797   3.002   1.387   0.964 -0.6641  1.3361  0.1011
 1446SOL    HW215798   2.963   1.243   0.976 -3.6718 -0.6490  0.8356
 1447SOL     OW15799   4.704   3.827   3.668 -0.3497 -0.0608 -0.7810
 1447SOL    HW115800   0.072   3.838   3.697  0.2083 -1.7256 -1.9258
 1447SOL    HW215801   4.708   3.752   3.609  2.4195 -0.2916 -0.3173
 1448SOL     OW15802   2.789   2.477  10.722  0.0359 -0.1291 -0.3746
 1448SOL    HW115803   2.815   2.433  10.642  0.8674  1.5815 -1.0539
 1448SOL    HW215804   2.865   2.535  10.735  0.0371  0.0071 -0.9875
 1449SOL     OW15805   1.627   4.593   0.433  0.5278  0.4206  0.2574
 1449SOL    HW115806   1.682   4.671   0.440  0.5593  0.7860 -4.0571
 1449SOL    HW215807   1.541   4.636   0.424  1.4664  1.9580 -1.3143
 1450SOL     OW15808   0.824   1.625   9.816  0.0233  0.3492 -0.2368
 1450SOL    HW115809   0.817   1.545   9.867 -1.6149 -0.1976 -1.3141
 1450SOL    HW215810   0.814   1.681   9.893 -1.4997 -1.5816  0.9433
 1451SOL     OW15811   3.586   4.645   6.915 -0.4600  0.0214  0.2031
 1451SOL    HW115812   3.608   4.675   6.827  0.9932 -0.7801  0.2821
 1451SOL    HW215813   3.563   4.553   6.899 -0.2432 -0.4520  2.5315
 1452SOL     OW15814   3.197   1.241   6.854 -0.2348  0.1628 -0.4359
 1452SOL    HW115815   3.214   1.164   6.799  0.1077 -0.0190 -0.0786
 1452SOL    HW215816   3.103   1.235   6.838 -0.3196 -0.6758  0.3911
 1453SOL     OW15817   0.114   4.364   4.267  0.8852 -0.2537  0.3301
 1453SOL    HW115818   0.095   4.361   4.361 -0.1057  1.0228  0.1755
 1453SOL    HW215819   0.121   4.459   4.261 -0.5416 -0.0642  1.6447
 1454SOL     OW15820   1.766   3.925   8.057  0.0776 -0.5939 -0.0609
 1454SOL    HW115821   1.741   3.866   8.128  0.5802  0.0685  0.6672
 1454SOL    HW215822   1.862   3.925   8.052  0.0482  1.5410 -0.5846
 1455SOL     OW15823   3.508   0.581   3.471  0.4580 -0.0511 -0.3631
 1455SOL    HW115824   3.585   0.570   3.526 -0.1064 -2.0621  0.0507
 1455SOL    HW215825   3.496   0.676   3.475 -1.1535 -0.1892 -1.6664
 1456SOL     OW15826   4.564   1.615  10.802  0.0014 -0.8739  0.2915
 1456SOL    HW115827   4.656   1.594  10.786 -0.4363 -2.6463  0.1139
 1456SOL    HW215828   4.573   1.613  10.898  1.6224 -0.1655  0.1525
 1457SOL     OW15829   2.410   1.386   0.839  0.0674 -0.7487  0.2580
 1457SOL    HW115830   2.373   1.442   0.908 -1.3436  0.7211 -1.6766
 1457SOL    HW215831   2.472   1.445   0.797  2.0624 -1.1573  2.5962
 1458SOL     OW15832   1.156   2.653   8.448  0.0858  0.0342 -0.0208
 1458SOL    HW115833   1.173   2.559   8.453  2.7390  0.4570 -1.4757
 1458SOL    HW215834   1.076   2.654   8.501 -0.7089  2.2947 -1.2779
 1459SOL     OW15835   2.591   3.581   5.102 -0.4461 -0.0098  0.0116
 1459SOL    HW115836   2.585   3.537   5.018 -1.1072  1.7763 -0.8778
 1459SOL    HW215837   2.526   3.541   5.159 -2.4537  0.5769 -1.8839
 1460SOL     OW15838   3.168   0.756   3.994 -0.1613  0.3992 -0.8520
 1460SOL    HW115839   3.097   0.746   4.057 -0.1829 -0.6597 -1.0480
 1460SOL    HW215840   3.242   0.721   4.043 -1.0379 -1.2281 -0.7263
 1461SOL     OW15841   0.897   3.537   5.652 -0.1207  0.1436  0.2970
 1461SOL    HW115842   0.877   3.597   5.580  1.3101  5.3906  4.2008
 1461SOL    HW215843   0.849   3.568   5.729  1.6972 -0.8010  1.8150
 1462SOL     OW15844   3.363   1.310   4.243  0.2671 -0.4150  0.9582
 1462SOL    HW115845   3.367   1.310   4.338  0.3396 -0.3676  0.9547
 1462SOL    HW215846   3.451   1.309   4.204  0.6140  2.4785  1.6758
 1463SOL     OW15847   1.915   4.659  11.165  0.3407 -0.1846 -0.5206
 1463SOL    HW115848   1.914   0.032  11.170  0.3721 -0.1978 -0.2784
 1463SOL    HW215849   1.966   4.655  11.084  1.6871  0.4800  0.3122
 1464SOL     OW15850   3.659   2.117   9.337 -0.9031 -0.0366 -0.2719
 1464SOL    HW115851   3.677   2.124   9.431  1.8755 -1.1956 -0.7093
 1464SOL    HW215852   3.637   2.024   9.328 -2.9597  0.3990  0.2344
 1465SOL     OW15853   4.129   4.580   3.489 -0.5062  0.3397 -0.3255
 1465SOL    HW115854   4.212   4.622   3.512  0.5776 -1.4903 -0.8888
 1465SOL    HW215855   4.123   4.509   3.553  0.3698  1.3970  0.9436
 1466SOL     OW15856   0.342   3.098   5.786 -0.1722  0.0882  0.2390
 1466SOL    HW115857   0.430   3.114   5.818 -0.2482 -1.5630  1.2656
 1466SOL    HW215858   0.357   3.053   5.703  0.1060 -0.0504  0.3655
 1467SOL     OW15859   0.829   3.588   3.498  0.2472  0.4377  0.3114
 1467SOL    HW115860   0.916   3.615   3.526  0.5425 -1.2942  1.0633
 1467SOL    HW215861   0.768   3.655   3.527 -1.1304 -0.5747 -0.2295
 1468SOL     OW15862   2.379   4.369  16.117 -0.2675  0.1067  0.1964
 1468SOL    HW115863   2.326   4.437  16.159  1.5197  2.9600 -2.1362
 1468SOL    HW215864   2.335   4.292  16.151 -0.4570 -0.2807 -0.9311
 1469SOL     OW15865   2.255   1.305  14.561  0.1211 -0.7098 -0.0501
 1469SOL    HW115866   2.167   1.276  14.539 -0.5093  0.5256  0.8656
 1469SOL    HW215867   2.238   1.399  14.572  0.6521 -0.6058 -0.1120
 1470SOL     OW15868   3.222   1.352   4.996 -0.1962  0.2364  0.1381
 1470SOL    HW115869   3.235   1.281   4.933  0.7482  1.3923 -0.9595
 1470SOL    HW215870   3.142   1.338   5.048 -0.8950 -3.0412 -1.8503
 1471SOL     OW15871   1.988   4.065   5.869 -0.3250 -0.2953 -0.0033
 1471SOL    HW115872   1.965   4.138   5.811 -2.1238  0.0490  1.1602
 1471SOL    HW215873   2.081   4.084   5.884 -0.3941  0.4106 -0.4623
 1472SOL     OW15874   2.264   2.449   3.181 -0.5712  0.1454  0.3341
 1472SOL    HW115875   2.185   2.456   3.235  0.3986 -1.7042  1.9788
 1472SOL    HW215876   2.231   2.399   3.106 -3.4767  2.6264 -0.0586
 1473SOL     OW15877   2.557   2.731   7.249 -0.5619  0.0245 -0.1517
 1473SOL    HW115878   2.464   2.731   7.270 -0.2242  3.0416  1.2787
 1473SOL    HW215879   2.588   2.754   7.337 -0.9568  3.0269 -0.8164
 1474SOL     OW15880   4.437   3.071   7.424 -0.5190  0.6137 -0.3615
 1474SOL    HW115881   4.479   2.986   7.412 -1.4881  0.2025 -0.8144
 1474SOL    HW215882   4.380   3.061   7.348  1.2250 -1.5800 -1.4060
 1475SOL     OW15883   0.602   2.544   2.127 -0.3073 -0.0818 -0.2058
 1475SOL    HW115884   0.620   2.627   2.173  0.6504 -0.1665 -0.4318
 1475SOL    HW215885   0.687   2.543   2.083 -0.9772  0.9140 -1.5339
 1476SOL     OW15886   0.855   1.799   6.717 -0.7097  0.2580 -0.6637
 1476SOL    HW115887   0.813   1.763   6.795 -0.7452  0.3772 -0.6267
 1476SOL    HW215888   0.946   1.783   6.742 -0.9739  0.1339  0.2433
 1477SOL     OW15889   2.479   0.081   1.022  0.1567 -0.1287  0.8247
 1477SOL    HW115890   2.463   4.710   1.031 -1.1692 -0.0879 -1.0041
 1477SOL    HW215891   2.405   0.124   1.065  1.3299  0.3774  2.3152
 1478SOL     OW15892   1.918   2.472   5.725 -0.0802 -0.1640  0.0250
 1478SOL    HW115893   1.963   2.516   5.797  0.6285  0.4520 -0.7986
 1478SOL    HW215894   1.988   2.421   5.684  0.7801  1.6745 -0.8130
 1479SOL     OW15895   4.236   0.461   6.937 -0.1640 -0.3100 -0.4386
 1479SOL    HW115896   4.156   0.425   6.975 -0.2641 -1.2738 -1.5505
 1479SOL    HW215897   4.224   0.556   6.942  2.0512 -0.0055 -0.9311
 1480SOL     OW15898   2.773   1.124   2.457  0.1137 -0.4320 -0.2036
 1480SOL    HW115899   2.862   1.094   2.439  0.0566 -0.3908 -0.5497
 1480SOL    HW215900   2.773   1.137   2.552  0.6145  1.5896 -0.4785
 1481SOL     OW15901   1.934   0.500  14.043 -0.3243 -0.3972 -0.8510
 1481SOL    HW115902   1.938   0.468  13.952 -0.8591 -0.4059 -0.8714
 1481SOL    HW215903   1.850   0.458  14.061  0.8463 -1.8423  1.2515
 1482SOL     OW15904   0.886   4.676   2.574  0.1299  0.2816  0.1300
 1482SOL    HW115905   0.817   4.698   2.636 -0.5447 -0.7109 -0.2716
 1482SOL    HW215906   0.860   4.595   2.530  2.0452 -0.8908  1.1292
 1483SOL     OW15907   3.383   3.752   6.637 -0.4513 -0.0831  0.0016
 1483SOL    HW115908   3.297   3.743   6.596  0.0102 -3.5276 -0.2103
 1483SOL    HW215909   3.363   3.702   6.716  2.1242  3.4834  2.8646
 1484SOL     OW15910   1.739   2.167   4.669 -0.6757 -0.0116 -0.1059
 1484SOL    HW115911   1.706   2.249   4.707  0.7308  0.2671  0.4977
 1484SOL    HW215912   1.793   2.201   4.598 -0.8314  1.0924  0.2971
 1485SOL     OW15913   2.838   3.699   4.830  0.2962 -0.7909  0.2152
 1485SOL    HW115914   2.839   3.604   4.815 -1.1196 -0.5367 -1.4608
 1485SOL    HW215915   2.896   3.711   4.906 -0.7317  0.4998  0.8062
 1486SOL     OW15916   2.231   2.857   9.717 -0.1299 -0.0796 -0.4426
 1486SOL    HW115917   2.152   2.810   9.746 -1.1905  1.1276 -1.3771
 1486SOL    HW215918   2.267   2.787   9.662  1.2018 -0.1866  0.5843
 1487SOL     OW15919   0.678   0.645   4.365  0.0522 -0.1830  0.1207
 1487SOL    HW115920   0.757   0.664   4.315  1.1956  0.7350  2.2846
 1487SOL    HW215921   0.612   0.633   4.297 -0.3497  1.3358  0.2373
 1488SOL     OW15922   3.457   0.318   7.965 -0.0030 -0.0360  0.5050
 1488SOL    HW115923   3.367   0.348   7.949  0.6015  0.6433 -1.5344
 1488SOL    HW215924   3.457   0.237   7.914  0.6904 -0.4686  1.1944
 1489SOL     OW15925   3.434   0.204   3.256 -0.3633  0.3725  0.1294
 1489SOL    HW115926   3.518   0.216   3.301 -0.8323 -1.6225  1.5826
 1489SOL    HW215927   3.374   0.265   3.300 -1.3162 -0.6299  0.2299
 1490SOL     OW15928   1.111   1.822   8.217 -0.2116 -0.2327 -0.0101
 1490SOL    HW115929   1.035   1.777   8.179 -0.1235  1.8534 -2.6325
 1490SOL    HW215930   1.178   1.754   8.217 -1.9384 -1.9570  0.7623
 1491SOL     OW15931   0.302   1.812   3.890 -0.1193  0.3620 -0.5835
 1491SOL    HW115932   0.272   1.858   3.812 -3.6395 -1.4163 -0.3026
 1491SOL    HW215933   0.222   1.829   3.940 -0.4774  0.4648 -1.1834
 1492SOL     OW15934   3.518   0.038   2.795  0.1537  0.0654 -0.7378
 1492SOL    HW115935   3.500   4.670   2.818  0.3902 -0.7926 -3.9573
 1492SOL    HW215936   3.572   0.026   2.716 -0.1423 -0.0847 -0.9144
 1493SOL     OW15937   2.321   2.915   6.607  0.0459  0.3630 -0.0969
 1493SOL    HW115938   2.237   2.944   6.571 -0.4657 -0.7149  0.2104
 1493SOL    HW215939   2.369   2.909   6.525  1.5024 -2.3704  0.9364
 1494SOL     OW15940   4.705   1.204   3.085  0.2692 -0.5044  0.2231
 1494SOL    HW115941   4.695   1.197   3.180 -0.0248 -0.1586  0.2168
 1494SOL    HW215942   0.045   1.137   3.061 -0.4289 -1.0504 -0.0619
 1495SOL     OW15943   2.292   3.676   4.607 -0.6634  0.1222 -0.2653
 1495SOL    HW115944   2.267   3.585   4.626 -0.8388  0.1011 -0.5959
 1495SOL    HW215945   2.294   3.715   4.694  0.7332 -0.4276 -0.0495
 1496SOL     OW15946   2.712   1.988   2.801  0.1994  0.6105 -0.3550
 1496SOL    HW115947   2.706   1.911   2.745  1.0920  1.4584 -1.6330
 1496SOL    HW215948   2.770   1.946   2.863 -0.9136 -1.8151 -0.9701
 1497SOL     OW15949   1.092   3.626   8.944 -0.0355 -0.1484  0.7326
 1497SOL    HW115950   0.998   3.620   8.924  0.3338  0.6786 -1.2331
 1497SOL    HW215951   1.094   3.600   9.036 -2.1492 -2.0967  0.2318
 1498SOL     OW15952   1.178   1.691  16.373  0.1979 -0.0080 -0.6914
 1498SOL    HW115953   1.155   1.765  16.316 -1.2014 -0.2568 -0.4490
 1498SOL    HW215954   1.101   1.639  16.350  0.6921 -1.4950  1.0265
 1499SOL     OW15955   2.756   0.479  15.872  0.3758 -0.4767  0.4628
 1499SOL    HW115956   2.828   0.516  15.922 -1.2788  1.3597  1.5143
 1499SOL    HW215957   2.799   0.454  15.790  0.3407 -0.2246  0.3664
 1500SOL     OW15958   1.381   2.387  15.789  0.0945  0.7049  1.1616
 1500SOL    HW115959   1.420   2.411  15.705  1.4491 -1.5793  1.1259
 1500SOL    HW215960   1.447   2.421  15.849 -0.0079  2.6745  0.1463
 1501SOL     OW15961   3.470   2.114   5.125 -0.6900 -0.0726  1.0020
 1501SOL    HW115962   3.488   2.036   5.178 -1.8746 -0.0832  1.3883
 1501SOL    HW215963   3.558   2.128   5.090 -0.2540 -1.1437  1.6566
 1502SOL     OW15964   0.252   3.659   2.776 -0.1584  0.0493 -0.2497
 1502SOL    HW115965   0.286   3.570   2.781  0.8554  0.3702 -1.5238
 1502SOL    HW215966   0.173   3.629   2.731  0.3100  0.5375 -1.3910
 1503SOL     OW15967   3.722   3.934  17.247  0.4415  0.0050 -0.4549
 1503SOL    HW115968   3.782   3.987  17.194  1.6091 -0.1949  0.6625
 1503SOL    HW215969   3.678   3.873  17.187 -0.0159 -0.5642  0.4671
 1504SOL     OW15970   0.149   1.190   7.483  0.0513  0.2505  0.0447
 1504SOL    HW115971   0.128   1.246   7.409 -0.0961  3.7111  2.6889
 1504SOL    HW215972   0.079   1.214   7.544  0.0062 -0.2843  0.2076
 1505SOL     OW15973   3.684   4.151   0.999  0.4383 -0.4102 -0.0475
 1505SOL    HW115974   3.647   4.221   1.054 -1.0435 -0.1456 -1.3793
 1505SOL    HW215975   3.678   4.186   0.910 -2.0265 -1.3179 -0.2592
 1506SOL     OW15976   4.336   2.627  16.845 -0.2480  1.1175  0.4511
 1506SOL    HW115977   4.369   2.619  16.755  0.1402 -0.4565  0.7429
 1506SOL    HW215978   4.384   2.709  16.856 -2.8209  2.3292  2.4810
 1507SOL     OW15979   4.712   3.682   7.611  0.1244 -0.0402 -0.0180
 1507SOL    HW115980   0.071   3.728   7.630  0.0064 -0.2473  0.9984
 1507SOL    HW215981   0.017   3.591   7.609  1.9168  0.5243 -0.3490
 1508SOL     OW15982   0.940   0.406   3.949  0.3577  0.0109 -0.2219
 1508SOL    HW115983   0.985   0.368   4.025  0.8621  0.7598 -0.1459
 1508SOL    HW215984   0.986   0.490   3.948 -0.3650  0.4332  1.1399
 1509SOL     OW15985   4.393   0.391   9.271  0.2610  0.3662  0.0123
 1509SOL    HW115986   4.442   0.309   9.278  0.3347  0.4757  0.7895
 1509SOL    HW215987   4.444   0.445   9.210 -1.4728  1.3570 -0.5630
 1510SOL     OW15988   4.142   2.971  15.766 -0.0166  0.4569  0.4039
 1510SOL    HW115989   4.123   2.889  15.812  0.0681 -0.2314 -0.7846
 1510SOL    HW215990   4.236   2.959  15.753 -0.3036 -1.2879 -0.1445
 1511SOL     OW15991   2.610   4.152   4.743 -0.0018 -0.5013  0.6602
 1511SOL    HW115992   2.638   4.087   4.679 -0.0532  1.1501 -1.0617
 1511SOL    HW215993   2.684   4.137   4.801 -0.2474 -1.8221  0.6163
 1512SOL     OW15994   2.517   1.243   4.123  0.2073 -0.1597  0.4520
 1512SOL    HW115995   2.427   1.226   4.151 -0.3393  0.3285 -0.9796
 1512SOL    HW215996   2.525   1.182   4.050  0.3046  0.1743  0.1808
 1513SOL     OW15997   3.388   2.424   5.612 -0.3291 -0.3971 -0.1474
 1513SOL    HW115998   3.317   2.447   5.672  0.6462 -0.6543  1.1012
 1513SOL    HW215999   3.421   2.345   5.655 -1.3126 -0.4065  0.6046
 1514SOL     OW16000   2.900   2.045   1.306 -0.3448  0.2423 -0.1910
 1514SOL    HW116001   2.886   2.137   1.328  0.3178 -0.2630  2.2851
 1514SOL    HW216002   2.809   2.016   1.292 -0.1287 -0.3568 -0.3467
 1515SOL     OW16003   3.694   1.815   1.145  0.0759  0.1267 -0.7287
 1515SOL    HW116004   3.756   1.888   1.141 -0.2296  0.4832  1.3860
 1515SOL    HW216005   3.755   1.748   1.113  0.4649 -0.9776  2.3635
 1516SOL     OW16006   3.019   1.576   7.337 -0.5631 -0.1014 -0.7853
 1516SOL    HW116007   2.979   1.573   7.250  0.1170 -1.0406 -1.0637
 1516SOL    HW216008   2.950   1.624   7.384  1.2586 -0.1487  1.8825
 1517SOL     OW16009   2.353   0.693   4.140 -0.1235  0.1206 -0.3477
 1517SOL    HW116010   2.380   0.720   4.052 -0.4474  0.3131 -0.3846
 1517SOL    HW216011   2.327   0.776   4.178  0.7635  0.6052 -0.7924
 1518SOL     OW16012   2.468   4.419   6.717 -0.1670  0.1972 -0.6760
 1518SOL    HW116013   2.427   4.453   6.637 -0.8649  1.1389  0.0853
 1518SOL    HW216014   2.551   4.392   6.677 -1.6222 -1.2936 -2.6591
 1519SOL     OW16015   1.931   4.256  17.627  0.5263  0.1176 -0.0052
 1519SOL    HW116016   1.974   4.286  17.547  2.0933 -2.0096  0.0287
 1519SOL    HW216017   1.888   4.174  17.604  0.7219  0.8910 -3.0872
 1520SOL     OW16018   2.436   1.913  10.635 -0.0610  0.1637  0.1827
 1520SOL    HW116019   2.517   1.873  10.668 -0.8623 -0.4531  1.3990
 1520SOL    HW216020   2.378   1.860  10.689 -1.9970  0.0176 -2.0561
 1521SOL     OW16021   1.779   4.158   0.336  0.1904 -0.2345 -0.1465
 1521SOL    HW116022   1.852   4.121   0.385  0.4382  0.2726 -0.1405
 1521SOL    HW216023   1.729   4.184   0.414 -3.3874 -1.9711 -1.8411
 1522SOL     OW16024   0.591   0.699   5.536  0.2837  0.5961  0.4210
 1522SOL    HW116025   0.626   0.611   5.523  3.3794  1.4779  2.7592
 1522SOL    HW216026   0.521   0.679   5.599  0.7386  0.3790  0.8622
 1523SOL     OW16027   3.844   1.611   3.784 -0.1058  0.0169 -0.0419
 1523SOL    HW116028   3.937   1.593   3.771  0.4757  1.1703  2.5265
 1523SOL    HW216029   3.852   1.705   3.802  0.4265  0.2087 -1.2319
 1524SOL     OW16030   0.782   4.059  15.929  0.4673 -0.0489 -0.2347
 1524SOL    HW116031   0.866   4.047  15.973  1.1707  0.5622 -1.4276
 1524SOL    HW216032   0.723   4.008  15.986 -2.2156 -0.0687 -3.0508
 1525SOL     OW16033   1.743   0.866   3.354  0.2980 -0.1983  0.1766
 1525SOL    HW116034   1.696   0.784   3.339  0.1648 -0.1522  0.3321
 1525SOL    HW216035   1.797   0.873   3.276 -0.3721  1.3585 -0.1571
 1526SOL     OW16036   2.912   0.546   5.283 -0.6928 -0.5379  0.3666
 1526SOL    HW116037   2.934   0.455   5.300 -1.4161 -1.2963 -2.7390
 1526SOL    HW216038   2.874   0.563   5.197 -0.1943  0.4297  0.3401
 1527SOL     OW16039   3.408   4.401   6.089 -0.2628  0.2901  0.4972
 1527SOL    HW116040   3.325   4.420   6.046  0.1146  0.0356 -0.3400
 1527SOL    HW216041   3.380   4.349   6.164 -1.6927 -0.1591 -0.3414
 1528SOL     OW16042   3.829   1.244   7.034 -0.0432  0.0392  0.0504
 1528SOL    HW116043   3.756   1.183   7.051  0.2469  0.0984  1.5586
 1528SOL    HW216044   3.807   1.283   6.950 -2.1456  1.8007  1.4078
 1529SOL     OW16045   4.517   1.526   3.768 -0.3563  0.0772  0.2500
 1529SOL    HW116046   4.522   1.620   3.786 -0.3369 -0.4340  2.9400
 1529SOL    HW216047   4.444   1.523   3.706 -0.4814 -0.7274  0.4366
 1530SOL     OW16048   0.825   0.866   5.599 -0.0511  0.2531 -0.1897
 1530SOL    HW116049   0.853   0.850   5.508  0.9657  2.4205 -0.2551
 1530SOL    HW216050   0.740   0.823   5.604 -0.0423  0.2878  0.2850
 1531SOL     OW16051   1.274   4.185  17.423 -0.5035  0.1753  0.2931
 1531SOL    HW116052   1.297   4.179  17.330 -0.5868 -1.6635  0.4019
 1531SOL    HW216053   1.311   4.102  17.454  0.6171  0.3172 -0.6560
 1532SOL     OW16054   1.382   4.486   7.090 -0.5947  0.1992 -0.6703
 1532SOL    HW116055   1.352   4.438   7.167  1.6418 -3.4691 -2.0457
 1532SOL    HW216056   1.349   4.424   7.025 -0.1021  1.2450 -1.9211
 1533SOL     OW16057   4.065   2.325   3.258  0.3146  0.1903  0.5942
 1533SOL    HW116058   4.134   2.389   3.244  1.5356 -0.7302  2.2883
 1533SOL    HW216059   3.984   2.374   3.246  0.4050 -0.0711 -1.0130
 1534SOL     OW16060   3.284   3.187  13.366 -0.2056 -0.0597  0.4111
 1534SOL    HW116061   3.310   3.253  13.430 -0.7656  0.4567  0.1120
 1534SOL    HW216062   3.218   3.234  13.313  0.9153  1.7318  0.5987
 1535SOL     OW16063   1.810   0.615   2.485  0.3078  0.1104 -0.2881
 1535SOL    HW116064   1.747   0.682   2.509  2.4508  1.4911  1.4269
 1535SOL    HW216065   1.756   0.540   2.459 -0.7472 -0.1000  2.5033
 1536SOL     OW16066   4.277   2.608  15.587  0.1018 -0.2259 -0.3750
 1536SOL    HW116067   4.306   2.603  15.496 -0.7532  0.8033 -0.7083
 1536SOL    HW216068   4.330   2.679  15.623  0.4819 -0.1419 -1.0929
 1537SOL     OW16069   3.839   1.491   7.163  0.1950  0.1710  0.3173
 1537SOL    HW116070   3.767   1.431   7.145  0.9116 -0.8777  0.9093
 1537SOL    HW216071   3.906   1.429   7.193  0.0529 -0.8869 -1.5349
 1538SOL     OW16072   0.741   1.517   4.691  0.3844  0.0254  0.5851
 1538SOL    HW116073   0.773   1.518   4.781  0.2116 -1.4037  0.6756
 1538SOL    HW216074   0.646   1.517   4.702  0.1483 -0.0715 -1.4226
 1539SOL     OW16075   3.708   2.705   8.827  0.0014  0.1968 -0.5045
 1539SOL    HW116076   3.676   2.660   8.906 -0.6703  1.2115 -0.1818
 1539SOL    HW216077   3.690   2.794   8.860  1.5434  0.1113  0.5565
 1540SOL     OW16078   3.541   1.579   3.565 -0.1247 -0.1959  0.1546
 1540SOL    HW116079   3.490   1.554   3.488  1.8084  1.1925 -1.5861
 1540SOL    HW216080   3.625   1.606   3.527  0.7153 -1.0204  1.4488
 1541SOL     OW16081   4.535   2.917   4.457  0.0391 -0.6056  0.0614
 1541SOL    HW116082   4.518   3.003   4.496 -1.4155 -1.0902  0.4681
 1541SOL    HW216083   4.527   2.927   4.362  1.7903 -0.1978 -0.0554
 1542SOL     OW16084   2.159   2.110   8.004 -0.1605 -0.2527 -0.6112
 1542SOL    HW116085   2.080   2.084   7.957  0.0786  0.5802 -1.4651
 1542SOL    HW216086   2.220   2.068   7.944 -2.2996 -0.4726 -2.6099
 1543SOL     OW16087   0.890   1.701   8.104 -0.3660  0.3321 -0.4083
 1543SOL    HW116088   0.923   1.677   8.018  0.3544 -0.4917  0.1026
 1543SOL    HW216089   0.799   1.674   8.099 -0.1095 -1.0941  2.2116
 1544SOL     OW16090   4.631   4.084   3.259 -0.1095  0.1052 -0.5148
 1544SOL    HW116091   4.535   4.085   3.266 -0.3258 -3.0857 -3.2513
 1544SOL    HW216092   4.642   3.990   3.274 -1.0394  0.3807  1.9926
 1545SOL     OW16093   2.516   0.912   6.864 -0.1522 -0.2195 -0.1161
 1545SOL    HW116094   2.484   1.002   6.861  0.0317 -0.0186  3.7996
 1545SOL    HW216095   2.436   0.864   6.839 -2.1677  1.5292  2.9279
 1546SOL     OW16096   1.630   2.286  10.469  0.0577  0.1204 -0.4694
 1546SOL    HW116097   1.659   2.241  10.548 -1.3910  0.1051  0.0528
 1546SOL    HW216098   1.654   2.378  10.480 -1.9385  0.7370 -1.2007
 1547SOL     OW16099   1.680   0.233   6.529 -0.0660 -0.2240  0.3477
 1547SOL    HW116100   1.585   0.227   6.539 -0.4462  0.6802 -2.7113
 1547SOL    HW216101   1.707   0.250   6.619  2.7110  0.8043 -0.6649
 1548SOL     OW16102   3.998   4.714  16.638  0.3954  0.9233 -0.0757
 1548SOL    HW116103   4.058   4.655  16.684 -0.6630  1.0377  1.4420
 1548SOL    HW216104   4.001   0.061  16.704 -1.8953  0.8685  0.0904
 1549SOL     OW16105   2.727   1.618   1.351 -0.1790 -0.5328 -0.2214
 1549SOL    HW116106   2.738   1.599   1.258  2.1816 -0.5971  0.0715
 1549SOL    HW216107   2.813   1.655   1.373  0.0926  0.3831 -2.8864
 1550SOL     OW16108   3.624   1.297   9.008  0.2831 -0.6255 -0.4201
 1550SOL    HW116109   3.578   1.220   8.975  1.4438 -1.9108  0.9575
 1550SOL    HW216110   3.601   1.372   8.953  0.9349  0.1999  0.4119
 1551SOL     OW16111   4.116   4.420   3.725 -0.3362  0.4058 -0.3402
 1551SOL    HW116112   4.095   4.481   3.795  1.6404 -0.2069  0.7893
 1551SOL    HW216113   4.212   4.418   3.729 -0.4449 -0.5085  1.7020
 1552SOL     OW16114   4.163   0.025  13.698 -0.4993 -0.1598  0.0774
 1552SOL    HW116115   4.111   4.673  13.670 -1.8170  0.5597  0.5936
 1552SOL    HW216116   4.110   0.048  13.774 -0.1754 -0.2522  0.3319
 1553SOL     OW16117   2.119   3.399  17.507  0.5914  0.7315 -0.2110
 1553SOL    HW116118   2.165   3.466  17.557  0.1388  0.2713  0.8305
 1553SOL    HW216119   2.050   3.450  17.463  1.2734 -0.6186 -2.8606
 1554SOL     OW16120   3.396   3.133   6.981 -0.0871  0.2478 -0.3020
 1554SOL    HW116121   3.366   3.150   7.071  1.5283  0.1093  0.2636
 1554SOL    HW216122   3.476   3.184   6.972  0.2179 -0.0774  0.5291
 1555SOL     OW16123   4.372   3.411  17.470  0.1640 -0.4137 -0.0449
 1555SOL    HW116124   4.309   3.346  17.441 -0.3311  0.3606 -0.7280
 1555SOL    HW216125   4.364   3.405  17.565 -0.0917 -0.3190 -0.0591
 1556SOL     OW16126   0.525   4.642   9.036  0.0687 -0.1206  0.0440
 1556SOL    HW116127   0.429   4.649   9.035  0.0977  0.6526  2.1629
 1556SOL    HW216128   0.559   4.690   8.961 -2.4812  0.1204 -0.9572
 1557SOL     OW16129   4.025   3.834   4.520  0.0084 -0.1019 -0.7887
 1557SOL    HW116130   3.942   3.796   4.490  0.6684 -1.1649 -1.2822
 1557SOL    HW216131   4.064   3.759   4.565 -1.2864 -0.5396 -0.3917
 1558SOL     OW16132   3.489   2.577   7.841 -0.0682  0.5106 -0.0825
 1558SOL    HW116133   3.500   2.573   7.936  1.2905  0.6266 -0.2311
 1558SOL    HW216134   3.443   2.659   7.824 -0.9999 -0.0826 -0.3995
 1559SOL     OW16135   1.206   3.979   1.936  0.5728  0.3689 -0.5878
 1559SOL    HW116136   1.230   3.977   2.029 -1.2621 -0.8314 -0.1430
 1559SOL    HW216137   1.257   3.899   1.919 -0.3124 -0.1967 -0.5746
 1560SOL     OW16138   2.201   2.301   8.187  0.0787  0.0520  0.0133
 1560SOL    HW116139   2.285   2.328   8.149 -0.2691  1.3205  0.1494
 1560SOL    HW216140   2.186   2.232   8.122 -1.1341  0.9571 -0.6675
 1561SOL     OW16141   1.851   3.677   4.817  0.5647  0.5174 -0.3955
 1561SOL    HW116142   1.791   3.727   4.872 -2.7349 -2.4123 -1.3588
 1561SOL    HW216143   1.813   3.590   4.810  1.1233  0.1289  1.3864
 1562SOL     OW16144   1.749   4.629   1.545 -0.5741 -0.2994  0.1476
 1562SOL    HW116145   1.705   4.685   1.609  1.9651  2.6713 -0.7258
 1562SOL    HW216146   1.695   4.552   1.561 -1.1668  0.0004 -0.4270
 1563SOL     OW16147   2.593   1.148   8.436 -0.0576  0.4205 -0.1186
 1563SOL    HW116148   2.569   1.059   8.463 -0.2059  1.9510  4.7462
 1563SOL    HW216149   2.607   1.185   8.523 -2.2128  0.9045  0.0130
 1564SOL     OW16150   1.296   3.192   2.985 -0.5542 -0.6823  0.1352
 1564SOL    HW116151   1.363   3.231   2.928  0.4730  0.3460  2.0395
 1564SOL    HW216152   1.256   3.134   2.921  0.9495 -1.6796  0.0941
 1565SOL     OW16153   1.164   3.857   9.369  0.2910  0.1690 -0.3440
 1565SOL    HW116154   1.090   3.813   9.328 -0.7197  0.4773  1.1505
 1565SOL    HW216155   1.206   3.780   9.408 -0.4981  1.2082  2.6007
 1566SOL     OW16156   0.627   3.895   3.868 -0.2996  0.2365  0.5346
 1566SOL    HW116157   0.650   3.950   3.794  0.5765  0.4060  0.9216
 1566SOL    HW216158   0.553   3.944   3.904  0.6791 -0.6189  3.7516
 1567SOL     OW16159   4.636   0.885   5.765 -0.4338 -0.3031 -0.1400
 1567SOL    HW116160   4.660   0.803   5.809 -1.6548  0.1692  1.3989
 1567SOL    HW216161   4.561   0.916   5.816  0.1159 -0.3055  0.6686
 1568SOL     OW16162   2.644   0.495   4.613  0.3868 -0.1826  0.2144
 1568SOL    HW116163   2.709   0.555   4.577  0.8570  0.1893  1.6828
 1568SOL    HW216164   2.684   0.412   4.587 -0.2325 -0.7419  1.0539
 1569SOL     OW16165   0.992   4.710   4.471  0.1499 -0.2476 -0.1116
 1569SOL    HW116166   1.061   4.650   4.501 -0.6118 -1.5057 -0.8996
 1569SOL    HW216167   0.924   4.689   4.535  0.7756 -0.7780  0.3855
 1570SOL     OW16168   1.072   3.271   8.972 -0.0888  0.5623 -0.3866
 1570SOL    HW116169   0.981   3.297   8.959  0.2265  1.0036 -1.6382
 1570SOL    HW216170   1.096   3.319   9.051 -3.0736  0.4145  0.6216
 1571SOL     OW16171   4.523   0.490   5.606  0.5270  0.3956  0.6721
 1571SOL    HW116172   4.483   0.486   5.519  0.4347 -1.2353  0.7886
 1571SOL    HW216173   4.442   0.507   5.655  0.6734 -0.7912  1.3316
 1572SOL     OW16174   4.360   0.516   5.371  0.4834  0.3228  0.0970
 1572SOL    HW116175   4.318   0.439   5.332  1.0389 -0.0445  0.2190
 1572SOL    HW216176   4.278   0.566   5.374 -0.2377 -0.9800  2.3409
 1573SOL     OW16177   1.127   0.304  17.626  0.7179  0.0486 -0.5819
 1573SOL    HW116178   1.175   0.276  17.548  3.3949  0.9338  0.7240
 1573SOL    HW216179   1.127   0.400  17.618  1.7671 -0.0369 -1.7553
 1574SOL     OW16180   1.552   4.359   3.013  0.5471  0.4467  0.3293
 1574SOL    HW116181   1.575   4.331   3.102  1.0497 -0.1798 -0.0000
 1574SOL    HW216182   1.625   4.416   2.987 -0.7286  1.6186 -0.6803
 1575SOL     OW16183   0.264   4.106   7.667  0.4527  0.4290 -0.5246
 1575SOL    HW116184   0.313   4.185   7.690  2.1585 -0.2968 -1.6486
 1575SOL    HW216185   0.237   4.121   7.576  0.5715  0.0761 -0.6196
 1576SOL     OW16186   1.633   4.449   9.133  0.0333 -0.4394  0.3585
 1576SOL    HW116187   1.599   4.361   9.143  1.4439 -1.1094 -0.7916
 1576SOL    HW216188   1.661   4.433   9.043 -1.6821  0.3097 -0.3146
 1577SOL     OW16189   1.163   1.331   8.013  0.2598  0.0822 -0.2462
 1577SOL    HW116190   1.160   1.237   7.996 -2.0850 -0.1964  1.5548
 1577SOL    HW216191   1.205   1.331   8.099 -1.5780 -2.0374  0.6646
 1578SOL     OW16192   3.269   4.641  13.912 -0.0031  0.5893 -0.1799
 1578SOL    HW116193   3.309   4.691  13.983  0.0548  0.7741 -0.3430
 1578SOL    HW216194   3.179   4.672  13.915 -0.3497 -0.4052 -0.2708
 1579SOL     OW16195   3.718   2.807   7.346 -0.3621 -0.0480  0.3504
 1579SOL    HW116196   3.656   2.804   7.273 -0.0667  0.5944  0.0731
 1579SOL    HW216197   3.793   2.780   7.292 -0.1226  1.6025 -0.1448
 1580SOL     OW16198   1.878   2.637   7.402 -0.2407 -0.2495  0.6452
 1580SOL    HW116199   1.882   2.582   7.480 -0.2285 -0.9016  0.1859
 1580SOL    HW216200   1.913   2.722   7.430 -2.2706  0.5385  0.8020
 1581SOL     OW16201   0.388   0.696   5.297  0.2184  0.4189 -0.0142
 1581SOL    HW116202   0.473   0.730   5.269  0.2517 -0.0300 -0.4540
 1581SOL    HW216203   0.424   0.616   5.334  1.6856  0.4161 -1.4385
 1582SOL     OW16204   0.219   2.540   1.079  0.0825 -0.0130 -0.4968
 1582SOL    HW116205   0.311   2.531   1.104 -0.0247 -1.0521 -0.4653
 1582SOL    HW216206   0.228   2.502   0.992  0.1532  0.6098 -0.7614
 1583SOL     OW16207   1.471   1.745   5.746 -0.1649 -0.6849 -0.3313
 1583SOL    HW116208   1.457   1.763   5.839  2.1509  0.2497 -0.1745
 1583SOL    HW216209   1.430   1.821   5.705  0.6366 -0.2704 -0.3516
 1584SOL     OW16210   2.884   2.495   2.992 -0.4890  0.1590 -0.1235
 1584SOL    HW116211   2.919   2.577   3.026  0.3463 -1.6288  3.2555
 1584SOL    HW216212   2.792   2.509   2.966 -0.7552  0.1681  0.8464
 1585SOL     OW16213   0.362   0.745   3.346  0.2893  0.4000 -0.9119
 1585SOL    HW116214   0.286   0.777   3.394 -0.2336 -0.3552 -1.2382
 1585SOL    HW216215   0.390   0.830   3.311  0.3585  0.3972 -0.8638
 1586SOL     OW16216   2.743   2.873   7.747 -0.1063 -0.0512  0.0541
 1586SOL    HW116217   2.734   2.811   7.674 -0.0493  0.4741 -0.4004
 1586SOL    HW216218   2.716   2.956   7.707  0.2737 -0.9641 -2.0730
 1587SOL     OW16219   2.400   1.992   8.504 -0.1214 -0.1052  0.0780
 1587SOL    HW116220   2.375   2.075   8.545 -1.0540  0.8009 -2.3076
 1587SOL    HW216221   2.347   1.929   8.554  1.2442 -0.7497  0.6917
 1588SOL     OW16222   1.358   3.106  11.829 -0.4206  0.2176  0.6429
 1588SOL    HW116223   1.432   3.137  11.777 -0.5366 -1.1540 -0.3568
 1588SOL    HW216224   1.375   3.012  11.833  0.1365  0.2053 -1.9850
 1589SOL     OW16225   0.940   0.286  15.496 -0.6301  0.3571  0.2788
 1589SOL    HW116226   0.933   0.202  15.542  1.0881 -0.6692 -1.3803
 1589SOL    HW216227   0.849   0.313  15.510 -0.4427  1.8941 -1.5137
 1590SOL     OW16228   0.973   4.409   1.987  0.0006 -0.2807 -0.4184
 1590SOL    HW116229   1.007   4.325   1.956  2.2548 -0.7480  3.3566
 1590SOL    HW216230   1.049   4.467   1.992 -2.0151  2.3973 -0.8426
 1591SOL     OW16231   1.081   0.774   6.115 -0.7806 -0.0021  0.1458
 1591SOL    HW116232   1.049   0.795   6.027 -1.1567  0.1010  0.3096
 1591SOL    HW216233   1.149   0.841   6.119 -1.4761  0.8638 -2.5238
 1592SOL     OW16234   4.499   4.519  10.905 -0.5478 -0.1234 -0.3229
 1592SOL    HW116235   4.508   4.573  10.983 -1.1439  0.0723 -0.3917
 1592SOL    HW216236   4.571   4.560  10.855  0.7357 -2.6838 -0.5536
 1593SOL     OW16237   4.585   3.671   0.465 -0.0854  0.3312  0.4041
 1593SOL    HW116238   4.621   3.607   0.404  1.6626  1.8475 -0.1449
 1593SOL    HW216239   4.510   3.711   0.422 -0.0982 -0.4676 -0.3083
 1594SOL     OW16240   2.709   3.386  12.314  0.1420  0.2506 -0.1077
 1594SOL    HW116241   2.614   3.381  12.320  0.1012 -0.8023 -1.5736
 1594SOL    HW216242   2.734   3.300  12.347 -0.7072 -0.1507 -0.5287
 1595SOL     OW16243   3.103   0.815   6.826 -0.0381 -0.2491 -0.2016
 1595SOL    HW116244   3.180   0.786   6.875  0.6803 -0.4255 -1.4252
 1595SOL    HW216245   3.032   0.802   6.888  1.1675  2.5763  1.8005
 1596SOL     OW16246   1.039   4.212   3.550  0.4611  0.1127  0.6153
 1596SOL    HW116247   1.082   4.217   3.465 -2.2690  0.7271 -0.7543
 1596SOL    HW216248   1.116   4.214   3.606  1.5724 -0.9939 -0.8817
 1597SOL     OW16249   1.640   2.979   5.945  0.2594 -0.2836  0.4726
 1597SOL    HW116250   1.656   2.887   5.962  1.2157 -0.2471 -0.1810
 1597SOL    HW216251   1.719   3.025   5.975  0.5216  0.4415 -1.3181
 1598SOL     OW16252   1.708   0.741  12.189  0.5053  0.3339  0.1323
 1598SOL    HW116253   1.628   0.725  12.140 -0.6484  1.4511  1.6579
 1598SOL    HW216254   1.776   0.722  12.124  1.5773 -1.0039  1.6184
 1599SOL     OW16255   2.925   4.169   5.875  0.3003  0.3194 -0.0366
 1599SOL    HW116256   2.888   4.252   5.844  0.3479  1.5078  3.0036
 1599SOL    HW216257   2.878   4.160   5.958  0.0806 -0.2390 -0.2273
 1600SOL     OW16258   1.189   2.489   6.098 -0.1545 -0.1958  0.4636
 1600SOL    HW116259   1.099   2.499   6.129 -0.4402 -2.4914  0.3771
 1600SOL    HW216260   1.181   2.512   6.006 -0.2409 -1.0789  0.2523
 1601SOL     OW16261   3.543   0.798   7.998 -0.0862 -0.0185  0.8113
 1601SOL    HW116262   3.540   0.812   8.092 -0.9862  1.0318  0.6229
 1601SOL    HW216263   3.537   0.704   7.978  1.4679 -0.2063  1.2743
 1602SOL     OW16264   2.877   0.043   4.392 -0.0780 -0.6786  0.2364
 1602SOL    HW116265   2.918   0.008   4.471  0.8253  0.5304  0.2915
 1602SOL    HW216266   2.819   4.694   4.366  0.3711 -0.3503 -1.6603
 1603SOL     OW16267   3.369   1.401   0.199  0.3839  0.0743  0.1557
 1603SOL    HW116268   3.293   1.398   0.141  0.9533 -1.7230 -0.4902
 1603SOL    HW216269   3.361   1.311   0.230 -1.0863  0.0437 -0.2833
 1604SOL     OW16270   1.794   3.033   1.454 -0.4639  0.0124  0.1780
 1604SOL    HW116271   1.839   3.107   1.495  1.0519  0.1351 -1.7116
 1604SOL    HW216272   1.728   3.076   1.400 -0.8477 -1.3266 -0.4248
 1605SOL     OW16273   4.428   3.209  12.583  0.4111 -0.3638  0.1556
 1605SOL    HW116274   4.378   3.168  12.654  0.2815 -0.5389 -0.0347
 1605SOL    HW216275   4.514   3.211  12.625  1.4157  1.2117 -2.0442
 1606SOL     OW16276   1.706   1.451   2.267  0.5459  0.1059 -0.1768
 1606SOL    HW116277   1.636   1.443   2.203  1.0951  0.8991 -0.8723
 1606SOL    HW216278   1.738   1.362   2.283  1.4972  0.5102  0.1817
 1607SOL     OW16279   2.016   1.650  15.382  0.0227 -0.0333 -0.2030
 1607SOL    HW116280   2.057   1.658  15.468 -2.5663 -3.1439  1.3309
 1607SOL    HW216281   1.949   1.719  15.390  0.6281  0.5431 -0.1553
 1608SOL     OW16282   2.266   2.876   5.217  0.2255  0.5091 -0.1628
 1608SOL    HW116283   2.313   2.802   5.177  1.4422  1.8677 -1.2955
 1608SOL    HW216284   2.295   2.947   5.160  2.8624 -1.0142 -0.7165
 1609SOL     OW16285   4.410   3.283   8.955 -0.2378  0.2406 -0.1729
 1609SOL    HW116286   4.410   3.195   8.916 -0.2885 -0.6987  1.9713
 1609SOL    HW216287   4.442   3.279   9.045  0.1296  0.5894 -0.2875
 1610SOL     OW16288   2.886   1.010  11.179 -0.1052 -0.3427  0.6457
 1610SOL    HW116289   2.886   1.096  11.138  0.2592  0.1187  1.6157
 1610SOL    HW216290   2.798   1.012  11.216 -0.5138 -1.0810 -0.2881
 1611SOL     OW16291   1.049   0.546   5.872  0.5776  0.4320 -0.0316
 1611SOL    HW116292   0.992   0.617   5.841 -0.6812 -0.9903 -1.0037
 1611SOL    HW216293   1.003   0.524   5.953 -0.2774 -3.2755 -1.5300
 1612SOL     OW16294   2.945   0.897  17.400  0.5782  0.6673  0.3053
 1612SOL    HW116295   2.965   0.990  17.387  4.0084 -0.0908  0.1982
 1612SOL    HW216296   2.982   0.868  17.317 -0.8780  1.3155 -0.5807
 1613SOL     OW16297   4.203   0.975  17.299  0.9861 -0.1169  0.0192
 1613SOL    HW116298   4.144   0.901  17.282 -0.7294  0.8085  2.0020
 1613SOL    HW216299   4.280   0.940  17.253  0.4385 -1.5399  0.1713
 1614SOL     OW16300   4.200   2.724   3.990 -0.3635 -0.4825 -0.1623
 1614SOL    HW116301   4.153   2.649   3.955 -0.6036  1.0181 -3.0882
 1614SOL    HW216302   4.262   2.737   3.918 -0.1095 -1.0668 -0.0508
 1615SOL     OW16303   1.429   0.571  11.437  0.4961 -0.1699  0.4689
 1615SOL    HW116304   1.498   0.637  11.441  0.6605 -0.2661 -0.8905
 1615SOL    HW216305   1.463   0.523  11.361  0.1004  1.4145 -0.7087
 1616SOL     OW16306   2.198   3.828   2.908 -0.0496 -0.0775 -0.5320
 1616SOL    HW116307   2.259   3.902   2.903 -0.5129  0.4016  1.0485
 1616SOL    HW216308   2.251   3.764   2.859  0.7831  1.2544 -1.3743
 1617SOL     OW16309   3.975   3.237  17.379 -0.3557  0.1493  0.3278
 1617SOL    HW116310   3.951   3.246  17.472 -0.9414  0.9409  0.1000
 1617SOL    HW216311   3.898   3.258  17.326 -0.5429  2.5039  1.5263
 1618SOL     OW16312   3.998   2.950   1.116 -0.1997 -0.2753  0.3248
 1618SOL    HW116313   4.079   2.968   1.067 -1.3577 -2.1155 -2.2317
 1618SOL    HW216314   3.956   3.033   1.096  0.1389  0.0511  0.9611
 1619SOL     OW16315   4.018   0.465   7.922 -0.8099 -0.3595 -0.3404
 1619SOL    HW116316   4.013   0.541   7.865  1.6955  0.5179  0.5889
 1619SOL    HW216317   4.093   0.411   7.896  0.4857  0.8768  0.8341
 1620SOL     OW16318   0.464   1.772   3.257  0.4248  0.1345 -0.3475
 1620SOL    HW116319   0.524   1.803   3.325 -1.7696 -0.3835  1.8107
 1620SOL    HW216320   0.413   1.715   3.314 -1.4471  1.0008 -1.1561
 1621SOL     OW16321   0.391   2.297   4.061 -0.3101  0.1855 -0.2637
 1621SOL    HW116322   0.307   2.316   4.018  0.6398  1.2276 -1.6507
 1621SOL    HW216323   0.363   2.290   4.152  0.3821 -0.9249 -0.1409
 1622SOL     OW16324   1.287   0.457   3.750  0.1591 -0.4383  0.2402
 1622SOL    HW116325   1.281   0.553   3.750 -1.0150 -0.5116  0.2689
 1622SOL    HW216326   1.343   0.446   3.673  0.3075 -2.6225  0.6699
 1623SOL     OW16327   0.168   2.692   6.828  0.1033 -0.0322 -0.5899
 1623SOL    HW116328   0.174   2.620   6.891 -1.4953  0.1218 -0.2447
 1623SOL    HW216329   0.108   2.649   6.766  1.3568 -3.6563  0.7482
 1624SOL     OW16330   1.399   3.642   3.609 -0.0695 -0.2620  0.3858
 1624SOL    HW116331   1.369   3.553   3.591  3.9599 -1.2931 -1.1275
 1624SOL    HW216332   1.454   3.679   3.540  0.4593 -0.8922  0.4720
 1625SOL     OW16333   0.524   3.420   2.349  0.1460 -0.0310  0.5546
 1625SOL    HW116334   0.606   3.373   2.334  0.2103 -0.2141  1.4662
 1625SOL    HW216335   0.556   3.506   2.377  1.0730 -0.1722 -0.0698
 1626SOL     OW16336   3.297   0.340  15.080  0.1243  0.0446  0.0189
 1626SOL    HW116337   3.296   0.389  14.998  0.0791 -1.8417 -1.1047
 1626SOL    HW216338   3.225   0.281  15.059  1.3330 -1.4693  0.1936
 1627SOL     OW16339   2.723   0.699   4.401 -0.5445 -0.1234 -0.1535
 1627SOL    HW116340   2.691   0.667   4.317  0.4513  1.1770 -1.0257
 1627SOL    HW216341   2.654   0.761   4.426 -0.9182 -1.3941  1.9293
 1628SOL     OW16342   2.506   3.376   1.163 -0.1963 -0.5158  0.5343
 1628SOL    HW116343   2.487   3.283   1.154 -0.3313 -0.5203  0.8723
 1628SOL    HW216344   2.479   3.414   1.080  0.6269  2.1382  1.4872
 1629SOL     OW16345   0.183   1.453   4.843  0.2539 -0.5317  0.4891
 1629SOL    HW116346   0.221   1.382   4.894 -1.1733 -0.3632  1.8003
 1629SOL    HW216347   0.121   1.494   4.903  3.0889  1.4216  2.0939
 1630SOL     OW16348   4.574   0.348  13.977 -0.1535  0.0603 -0.3105
 1630SOL    HW116349   4.523   0.272  14.003  1.9703 -1.2107  0.1770
 1630SOL    HW216350   4.577   0.325  13.884  0.2925 -3.3479  0.5695
 1631SOL     OW16351   2.276   2.743   7.292  0.1061 -0.0603  0.4473
 1631SOL    HW116352   2.208   2.711   7.232  0.3729  2.8003 -1.3791
 1631SOL    HW216353   2.220   2.791   7.353 -2.3213  0.8942 -2.5346
 1632SOL     OW16354   1.791   1.094   5.501 -0.0956 -0.5012 -0.0880
 1632SOL    HW116355   1.713   1.121   5.549 -0.6987 -1.4489 -0.5219
 1632SOL    HW216356   1.855   1.062   5.565  1.2955  1.4145 -0.5257
 1633SOL     OW16357   3.376   0.607   8.578 -0.4753  0.3584 -0.1107
 1633SOL    HW116358   3.302   0.547   8.569 -1.1717  1.1180  0.7197
 1633SOL    HW216359   3.450   0.546   8.565 -0.0278  0.7294  0.7435
 1634SOL     OW16360   0.039   4.415  10.140  0.2113 -0.3844  0.3230
 1634SOL    HW116361   0.044   4.491  10.082  1.7672 -0.4880  0.3095
 1634SOL    HW216362   4.721   4.351  10.081  1.6246 -0.7892 -0.2408
 1635SOL     OW16363   1.395   3.396  16.112  0.0050 -0.1526  0.1724
 1635SOL    HW116364   1.367   3.475  16.066  2.5296  1.2053  0.9086
 1635SOL    HW216365   1.411   3.342  16.035 -3.6388 -0.0500 -0.6364
 1636SOL     OW16366   1.703   1.100  16.892 -0.2763  0.0030  0.1981
 1636SOL    HW116367   1.757   1.168  16.853 -0.0341 -1.0640 -1.3179
 1636SOL    HW216368   1.661   1.153  16.960 -0.0881 -0.2042  0.4783
 1637SOL     OW16369   0.150   1.658   1.217  0.5638  0.0704  0.2673
 1637SOL    HW116370   0.082   1.621   1.272  0.8916 -0.5234  0.2778
 1637SOL    HW216371   0.107   1.718   1.156  1.3268 -0.6628 -0.9954
 1638SOL     OW16372   0.167   2.690   7.409 -0.5361 -0.0866  0.3289
 1638SOL    HW116373   0.242   2.686   7.468 -1.1328  2.5662  1.3033
 1638SOL    HW216374   0.092   2.725   7.457 -1.1057 -2.3818  1.1143
 1639SOL     OW16375   1.078   2.409  14.017  0.2537 -0.1611  0.2790
 1639SOL    HW116376   1.143   2.391  14.084  1.4079  2.3178 -0.2017
 1639SOL    HW216377   1.056   2.498  14.045  4.9186  0.5648  1.5359
 1640SOL     OW16378   1.314   2.533  14.615  0.0459 -0.0740 -0.6727
 1640SOL    HW116379   1.340   2.554  14.705 -0.6130  2.3096 -1.0424
 1640SOL    HW216380   1.365   2.598  14.566 -0.9434  0.0818 -1.5084
 1641SOL     OW16381   2.895   3.138  16.853  0.4768  0.0888  0.0929
 1641SOL    HW116382   2.817   3.113  16.903  1.7913  0.5594  2.3398
 1641SOL    HW216383   2.864   3.110  16.767  0.8439 -0.7928  0.2537
 1642SOL     OW16384   0.860   0.230  15.912  0.2029 -0.6218 -0.1663
 1642SOL    HW116385   0.766   0.232  15.929 -0.0976 -1.8563 -1.7384
 1642SOL    HW216386   0.890   0.271  15.993 -0.7012 -0.9451  0.3370
 1643SOL     OW16387   0.245   0.658   4.174 -0.5857  0.2722  0.5750
 1643SOL    HW116388   0.177   0.592   4.158 -0.2700 -0.1729  1.0441
 1643SOL    HW216389   0.207   0.721   4.113  2.8039 -0.3084 -2.0976
 1644SOL     OW16390   1.873   0.092   4.358 -0.3507 -0.3679 -0.1438
 1644SOL    HW116391   1.787   0.103   4.399 -0.7585 -0.2761 -1.0303
 1644SOL    HW216392   1.914   0.155   4.418 -1.8475 -0.1635  0.6489
 1645SOL     OW16393   1.311   3.432   6.143  0.0812  0.7021 -0.0395
 1645SOL    HW116394   1.391   3.468   6.181 -1.6356  3.4757  0.9742
 1645SOL    HW216395   1.305   3.484   6.063  0.1091  0.3941 -0.2418
 1646SOL     OW16396   4.554   1.209   3.818  0.2242 -0.3525 -0.0171
 1646SOL    HW116397   4.605   1.251   3.887  0.3402  1.3384 -1.1249
 1646SOL    HW216398   4.516   1.289   3.781  0.7350  0.5211  1.3489
 1647SOL     OW16399   1.081   4.056   2.577  0.0450  0.3600 -0.5607
 1647SOL    HW116400   0.995   4.046   2.535 -0.7898 -0.9229  1.4035
 1647SOL    HW216401   1.049   4.107   2.651 -0.2447 -1.5423  0.6252
 1648SOL     OW16402   2.794   3.725   5.801  0.1978 -0.0949  0.3139
 1648SOL    HW116403   2.746   3.776   5.866  0.7356  0.6161  0.1442
 1648SOL    HW216404   2.866   3.687   5.852 -0.1526 -0.2318  0.7057
 1649SOL     OW16405   3.865   1.615   2.513  0.2329  0.5517  0.2543
 1649SOL    HW116406   3.854   1.520   2.507  2.1324  0.3668 -0.0645
 1649SOL    HW216407   3.956   1.630   2.487  0.0023  1.9011  0.2659
 1650SOL     OW16408   1.692   2.097   2.557 -0.5875  0.3686  1.0590
 1650SOL    HW116409   1.609   2.129   2.522  0.3714 -1.3430 -2.6769
 1650SOL    HW216410   1.664   2.015   2.600 -0.5574  0.8434  1.9931
 1651SOL     OW16411   2.532   1.072   8.056  0.2667 -0.0612  0.5955
 1651SOL    HW116412   2.514   1.161   8.086  0.6407 -0.2356  1.3285
 1651SOL    HW216413   2.595   1.040   8.121  2.2946  0.5781 -1.0351
 1652SOL     OW16414   2.575   0.883   4.562 -0.2934 -0.4409 -0.4637
 1652SOL    HW116415   2.507   0.879   4.630  0.2246  1.7242  0.1890
 1652SOL    HW216416   2.649   0.941   4.582  0.0556 -1.0285 -0.0390
 1653SOL     OW16417   3.707   2.272   1.962 -0.6893  0.2838  0.1796
 1653SOL    HW116418   3.768   2.281   2.035 -1.9599 -1.5950  1.4864
 1653SOL    HW216419   3.722   2.358   1.922 -1.4646 -0.4629 -1.7004
 1654SOL     OW16420   2.576   3.317  17.361  0.0554 -0.1895  0.4258
 1654SOL    HW116421   2.484   3.316  17.334 -0.0259 -2.1361  0.7257
 1654SOL    HW216422   2.557   3.277  17.446  0.9456  0.6706  1.0325
 1655SOL     OW16423   4.374   4.234   5.568  0.4751  0.2182 -0.0742
 1655SOL    HW116424   4.380   4.222   5.663  0.4845 -2.1691 -0.3822
 1655SOL    HW216425   4.376   4.144   5.538  0.4526  0.1413  0.1581
 1656SOL     OW16426   1.695   1.455  16.879 -0.6986  0.1041 -1.1319
 1656SOL    HW116427   1.668   1.481  16.791  0.4812 -0.1588 -1.5702
 1656SOL    HW216428   1.761   1.390  16.856 -1.2857 -0.5739 -0.8940
 1657SOL     OW16429   2.196   0.240   6.153 -0.9292 -0.6213  0.2594
 1657SOL    HW116430   2.210   0.329   6.119  1.8221 -1.0016  0.4596
 1657SOL    HW216431   2.236   0.249   6.240  1.4934 -2.8779 -0.6162
 1658SOL     OW16432   3.762   1.358   3.137  0.5523 -0.1298 -0.0161
 1658SOL    HW116433   3.721   1.368   3.051 -0.9668 -1.1400  0.5815
 1658SOL    HW216434   3.802   1.445   3.137  0.8850 -0.2843 -1.7908
 1659SOL     OW16435   4.432   3.151  10.773 -0.4950 -0.2436  0.0706
 1659SOL    HW116436   4.424   3.233  10.821 -1.6918 -0.1274 -0.3384
 1659SOL    HW216437   4.486   3.106  10.838  0.7441  0.3117 -0.5760
 1660SOL     OW16438   0.292   3.962   8.648  0.0518 -0.2608 -0.2295
 1660SOL    HW116439   0.199   3.973   8.629  0.6863  1.1218 -2.6322
 1660SOL    HW216440   0.314   4.054   8.631 -1.2270  0.1823  0.5551
 1661SOL     OW16441   2.671   1.614  14.918 -0.4846  0.3039  0.0003
 1661SOL    HW116442   2.635   1.547  14.977  2.7900 -3.8960 -2.7442
 1661SOL    HW216443   2.603   1.619  14.851 -0.9237 -0.4189  0.3866
 1662SOL     OW16444   2.384   3.933   4.161 -0.3910  0.1605 -0.1277
 1662SOL    HW116445   2.373   3.994   4.235  0.4251  0.0664  0.0716
 1662SOL    HW216446   2.377   3.996   4.089 -0.6512 -1.5370 -1.5810
 1663SOL     OW16447   3.371   3.488   8.661  0.5824  0.0673  0.2565
 1663SOL    HW116448   3.416   3.501   8.744  1.5831 -1.7569  0.0049
 1663SOL    HW216449   3.288   3.453   8.695  0.4852  0.6058  0.5655
 1664SOL     OW16450   3.105   1.434  15.876 -0.0894  0.3080 -0.1726
 1664SOL    HW116451   3.156   1.442  15.957 -0.8515  0.6753  0.2702
 1664SOL    HW216452   3.125   1.520  15.840  0.1401  0.7391  0.9896
 1665SOL     OW16453   2.188   3.620   8.047 -0.7657 -0.4627 -0.0665
 1665SOL    HW116454   2.169   3.628   8.141  0.6168  1.4191  0.0532
 1665SOL    HW216455   2.149   3.534   8.030  0.3781 -1.3492  1.7778
 1666SOL     OW16456   0.705   3.098  16.914  0.0622  0.0733  0.0554
 1666SOL    HW116457   0.690   3.004  16.906 -1.2515  0.3666 -0.8350
 1666SOL    HW216458   0.637   3.123  16.976  2.9043  1.7974  2.4889
 1667SOL     OW16459   4.380   0.877  15.511  0.7032  0.3093 -0.4153
 1667SOL    HW116460   4.356   0.833  15.429  0.4238  0.7790 -0.5851
 1667SOL    HW216461   4.472   0.902  15.500  0.6938  0.5121 -0.0060
 1668SOL     OW16462   3.013   1.658   0.929  0.0019  0.6807  0.6429
 1668SOL    HW116463   2.956   1.687   0.858 -2.8283 -2.5931  1.5658
 1668SOL    HW216464   3.074   1.599   0.883  2.3804  3.4798  0.2272
 1669SOL     OW16465   0.565   4.046   6.765 -0.6448 -0.1249  0.3918
 1669SOL    HW116466   0.491   4.072   6.710 -0.0883  1.5962  0.4454
 1669SOL    HW216467   0.525   4.007   6.843 -0.1728 -1.8040 -0.2060
 1670SOL     OW16468   0.912   1.918   4.155  0.7627  0.3836  0.2548
 1670SOL    HW116469   0.824   1.879   4.154  0.8427  0.2355 -1.2166
 1670SOL    HW216470   0.909   1.954   4.066  0.9468  0.5844  0.3309
 1671SOL     OW16471   0.306   0.231  15.742 -0.2611  0.1571  0.0172
 1671SOL    HW116472   0.279   0.312  15.784  1.8417  0.1833  1.3267
 1671SOL    HW216473   0.319   0.167  15.812 -0.6632  0.0373 -0.0209
 1672SOL     OW16474   4.158   1.957  15.013 -0.6022  0.2969 -0.4811
 1672SOL    HW116475   4.244   1.918  15.029 -0.0035  1.4227 -1.0679
 1672SOL    HW216476   4.107   1.879  14.991 -0.4167  0.6748 -2.1950
 1673SOL     OW16477   0.131   0.996   1.933 -0.2222 -0.8334  0.0678
 1673SOL    HW116478   0.066   1.023   1.998  0.3127 -0.7228  0.5548
 1673SOL    HW216479   0.175   0.928   1.985 -1.0667 -1.5971 -0.2132
 1674SOL     OW16480   2.355   4.431   9.922 -0.0378 -0.3647  0.2714
 1674SOL    HW116481   2.357   4.434   9.826 -2.2532 -0.0919  0.2165
 1674SOL    HW216482   2.295   4.500   9.951 -0.8639 -0.0523 -2.1925
 1675SOL     OW16483   0.878   3.338   1.394  0.2594 -0.4338  0.3002
 1675SOL    HW116484   0.919   3.276   1.454  4.1121  0.5552 -1.3508
 1675SOL    HW216485   0.867   3.284   1.315 -0.3175  0.6707 -0.3874
 1676SOL     OW16486   1.661   0.160   0.798 -0.3966 -0.7562  0.4579
 1676SOL    HW116487   1.610   0.081   0.782 -0.1543 -1.0357  1.0670
 1676SOL    HW216488   1.751   0.126   0.802  0.1940  0.5300 -1.6688
 1677SOL     OW16489   4.013   0.398   3.083 -0.2868 -0.0847 -0.0342
 1677SOL    HW116490   4.060   0.353   3.153 -0.1597 -1.3360 -0.9133
 1677SOL    HW216491   3.944   0.439   3.135 -0.4887 -0.5228  0.0378
 1678SOL     OW16492   3.603   3.589   1.559 -0.1214  0.5781 -0.1211
 1678SOL    HW116493   3.571   3.518   1.614 -1.0842  1.3123  0.2757
 1678SOL    HW216494   3.518   3.625   1.531 -0.7330  1.4184  2.7406
 1679SOL     OW16495   2.911   1.305   8.693  0.7657 -0.4884  0.8597
 1679SOL    HW116496   2.944   1.319   8.781  0.9020 -1.5888  0.9757
 1679SOL    HW216497   2.875   1.216   8.695  0.8739 -0.5626 -0.3686
 1680SOL     OW16498   0.379   1.091  10.379 -0.2659  0.0482 -0.0263
 1680SOL    HW116499   0.304   1.044  10.342 -0.9484  0.3058  1.0199
 1680SOL    HW216500   0.381   1.165  10.317 -1.0632  0.8204  0.8760
 1681SOL     OW16501   4.020   4.266   9.625 -0.1039 -0.6999 -0.0333
 1681SOL    HW116502   4.001   4.180   9.663 -0.3429 -0.1779  1.0241
 1681SOL    HW216503   4.115   4.270   9.633 -0.1426 -0.9659  0.5598
 1682SOL     OW16504   3.218   0.929   0.949  0.1394 -0.1959  0.2779
 1682SOL    HW116505   3.287   0.995   0.955  0.6367 -0.8414  1.6676
 1682SOL    HW216506   3.178   0.955   1.032  0.0687  0.1626  0.1318
 1683SOL     OW16507   4.299   2.842  10.924 -0.5721 -0.2910  0.0877
 1683SOL    HW116508   4.268   2.863  11.012  0.1578  0.1040  0.2430
 1683SOL    HW216509   4.353   2.763  10.930  1.3517  1.1769  1.8731
 1684SOL     OW16510   3.549   0.880   6.735  0.4315  0.3977  0.0288
 1684SOL    HW116511   3.565   0.837   6.819 -2.1763 -1.1278 -0.2563
 1684SOL    HW216512   3.595   0.825   6.673  2.0964  1.9781 -0.1366
 1685SOL     OW16513   2.682   1.932   6.658 -0.6037 -0.4221 -0.1392
 1685SOL    HW116514   2.740   2.006   6.679 -0.2518 -0.1984 -1.8541
 1685SOL    HW216515   2.686   1.934   6.562 -1.3908  1.3522 -0.1380
 1686SOL     OW16516   1.290   3.489  11.641 -0.1384 -0.0142  0.6131
 1686SOL    HW116517   1.318   3.572  11.679  0.2385  0.2094 -0.1520
 1686SOL    HW216518   1.274   3.440  11.721 -0.7369  2.1621  1.8207
 1687SOL     OW16519   3.084   1.593   0.175  0.3204 -0.4632  0.1401
 1687SOL    HW116520   3.019   1.646   0.130 -0.6853 -3.2297 -1.6804
 1687SOL    HW216521   3.050   1.589   0.265  2.4444  0.7725  0.9887
 1688SOL     OW16522   1.196   1.181  13.437 -0.3122 -0.1931 -0.0448
 1688SOL    HW116523   1.202   1.262  13.488  2.0473  0.3905 -1.2660
 1688SOL    HW216524   1.231   1.203  13.351 -0.8481  1.3248  0.1163
 1689SOL     OW16525   2.801   0.939   7.419  0.6652  0.1307  0.0135
 1689SOL    HW116526   2.727   0.899   7.464  1.0057 -1.6591 -0.9893
 1689SOL    HW216527   2.751   0.971   7.344 -1.3508 -0.6724  1.0321
 1690SOL     OW16528   1.262   1.255   7.307 -0.0557 -0.0762 -0.0253
 1690SOL    HW116529   1.174   1.269   7.271 -0.4232 -1.1826  0.4234
 1690SOL    HW216530   1.312   1.283   7.230 -0.6692 -0.0907 -0.4315
 1691SOL     OW16531   3.499   0.129  12.631 -0.6993  0.2983  0.1552
 1691SOL    HW116532   3.419   0.160  12.588 -2.4922 -1.3591  2.2908
 1691SOL    HW216533   3.485   0.035  12.629 -1.3038  0.4115 -1.1654
 1692SOL     OW16534   2.387   4.561   1.036 -0.0672 -0.1433  0.0872
 1692SOL    HW116535   2.302   4.551   0.993 -0.6037  1.1879  0.8299
 1692SOL    HW216536   2.435   4.487   1.000  0.7885  0.2266  0.4506
 1693SOL     OW16537   4.714   4.424   9.302  0.3583  0.3243  0.7721
 1693SOL    HW116538   4.688   4.364   9.372 -0.5668 -0.5731 -0.3461
 1693SOL    HW216539   4.709   4.511   9.343 -2.4504  0.1831  0.7053
 1694SOL     OW16540   3.129   2.305   7.922 -0.2181 -0.1339  0.4415
 1694SOL    HW116541   3.186   2.363   7.872  0.8780 -3.0754 -1.7289
 1694SOL    HW216542   3.074   2.372   7.964  1.5679  1.4053  0.3109
 1695SOL     OW16543   4.007   0.499   8.224 -0.5298 -0.1489 -0.0057
 1695SOL    HW116544   3.956   0.580   8.233  0.2123  0.1981  1.1187
 1695SOL    HW216545   3.998   0.480   8.131  2.1701  0.5389 -0.4019
 1696SOL     OW16546   0.094   1.905   4.835 -0.2011  0.1367  0.3803
 1696SOL    HW116547   0.189   1.907   4.845 -0.0092 -2.2887 -0.9677
 1696SOL    HW216548   0.079   1.966   4.762  1.0412  1.4136  1.1824
 1697SOL     OW16549   4.626   4.271   9.110 -0.3149  0.5474  0.1104
 1697SOL    HW116550   4.650   4.333   9.178  0.8018 -0.4252  0.6128
 1697SOL    HW216551   4.655   4.187   9.146  2.9357  1.4501 -0.4366
 1698SOL     OW16552   0.491   0.567   4.157 -0.1060  0.1694  0.4810
 1698SOL    HW116553   0.528   0.617   4.083 -0.7989  0.0710  0.0633
 1698SOL    HW216554   0.401   0.598   4.146  1.0468  3.1375 -0.7939
 1699SOL     OW16555   3.440   2.701  14.155 -0.2892  0.7159 -0.6015
 1699SOL    HW116556   3.408   2.764  14.090 -1.3814  2.5249  1.6756
 1699SOL    HW216557   3.443   2.759  14.231 -1.1151  1.6015 -1.2297
 1700SOL     OW16558   1.549   3.578   1.576 -0.0782 -0.4558 -0.4113
 1700SOL    HW116559   1.612   3.593   1.506  0.6499 -0.2870  0.2709
 1700SOL    HW216560   1.488   3.650   1.561 -0.1275 -0.7299 -1.5209
 1701SOL     OW16561   1.128   2.864   7.833  0.1916 -0.0465 -0.1944
 1701SOL    HW116562   1.164   2.839   7.918 -0.9087 -0.1777  0.2441
 1701SOL    HW216563   1.197   2.906   7.783 -0.1242 -1.2592 -1.6699
 1702SOL     OW16564   4.632   0.386  16.162 -0.0497 -0.6321 -0.0561
 1702SOL    HW116565   4.581   0.446  16.216 -1.3218 -2.8484  1.1867
 1702SOL    HW216566   4.562   0.345  16.111 -1.4327  1.0963  0.4783
 1703SOL     OW16567   1.948   2.095   5.519  0.4853  0.4360 -0.0602
 1703SOL    HW116568   1.971   2.005   5.539  0.2203  0.4511  0.3033
 1703SOL    HW216569   1.968   2.104   5.425 -3.0661 -0.0030 -0.8613
 1704SOL     OW16570   0.316   2.694   3.853 -0.4204  0.3497  0.2114
 1704SOL    HW116571   0.397   2.643   3.849 -0.2551  0.8049 -2.2583
 1704SOL    HW216572   0.323   2.728   3.942  1.9323  2.1920 -0.6454
 1705SOL     OW16573   2.515   1.712   3.039 -0.4540  0.2196  0.2051
 1705SOL    HW116574   2.568   1.733   3.116  2.6656  0.9730 -2.1780
 1705SOL    HW216575   2.461   1.790   3.023  1.3926  1.2652 -0.8575
 1706SOL     OW16576   1.079   0.390   7.501  0.4842 -0.6823  0.4467
 1706SOL    HW116577   1.062   0.481   7.523  2.4617  0.2155 -1.7601
 1706SOL    HW216578   1.045   0.340   7.575 -0.5136 -1.9454 -0.8466
 1707SOL     OW16579   4.084   1.508  13.920 -0.0075  0.7193  0.5582
 1707SOL    HW116580   4.062   1.469  14.005 -3.5265  1.1588 -0.1553
 1707SOL    HW216581   4.178   1.497  13.911 -0.7221 -2.6386 -2.4270
 1708SOL     OW16582   0.423   3.573   8.243  0.2962 -0.0547  0.4386
 1708SOL    HW116583   0.432   3.650   8.187 -0.3504 -2.9074 -3.6238
 1708SOL    HW216584   0.511   3.556   8.279  0.0407 -0.1443  1.0210
 1709SOL     OW16585   3.562   2.402  14.068  0.2196 -0.2315 -0.0916
 1709SOL    HW116586   3.490   2.358  14.023  1.3803 -2.0268 -0.2355
 1709SOL    HW216587   3.637   2.386  14.010  0.1055  2.1512 -0.8983
 1710SOL     OW16588   3.700   2.679   3.708 -0.2570 -0.3525 -0.0366
 1710SOL    HW116589   3.642   2.744   3.668  2.3038  0.3365 -2.6275
 1710SOL    HW216590   3.740   2.728   3.780 -2.3267 -2.0728  2.2877
 1711SOL     OW16591   3.616   2.567   9.892  0.1166  0.3707  0.3183
 1711SOL    HW116592   3.640   2.622   9.967 -2.2124 -1.3792  2.3833
 1711SOL    HW216593   3.520   2.571   9.903  0.3398  1.2118  2.0175
 1712SOL     OW16594   1.662   0.778  11.220 -0.3134 -0.3507  0.8641
 1712SOL    HW116595   1.594   0.769  11.153 -0.3001 -1.1916  0.9688
 1712SOL    HW216596   1.745   0.795  11.176 -1.8637  1.4928 -1.3443
 1713SOL     OW16597   2.293   1.107  14.307 -0.2665  0.5450 -0.2702
 1713SOL    HW116598   2.370   1.076  14.259 -1.8354 -1.7175 -1.2895
 1713SOL    HW216599   2.324   1.182  14.358 -0.3317  0.8019 -0.6044
 1714SOL     OW16600   4.359   4.387   0.294  0.6652  0.1875 -0.3032
 1714SOL    HW116601   4.446   4.414   0.266  0.4754  0.7875 -0.3186
 1714SOL    HW216602   4.353   4.429   0.380  0.1941 -2.1709  0.7913
 1715SOL     OW16603   3.576   2.024   7.513 -0.2416  0.0279  0.4987
 1715SOL    HW116604   3.652   2.034   7.571  0.9621  2.6789 -1.5217
 1715SOL    HW216605   3.509   2.016   7.581 -2.3225  3.8460 -1.1205
 1716SOL     OW16606   0.392   0.467   9.173  0.5573 -0.3153  0.3358
 1716SOL    HW116607   0.449   0.543   9.157  0.0529  0.8951  4.2680
 1716SOL    HW216608   0.333   0.473   9.098  2.1403 -3.6939 -1.1809
 1717SOL     OW16609   1.137   1.272   6.036 -0.1003  0.2460 -0.8692
 1717SOL    HW116610   1.094   1.202   5.987  0.3295  0.2326 -1.2293
 1717SOL    HW216611   1.164   1.336   5.970  2.0969 -1.6804 -1.8576
 1718SOL     OW16612   2.224   1.834  12.513  0.1407 -0.0442  0.2979
 1718SOL    HW116613   2.318   1.846  12.524 -0.0639  0.3109  1.6598
 1718SOL    HW216614   2.189   1.861  12.598 -2.2183 -2.9619  0.2670
 1719SOL     OW16615   0.827   0.051  16.472  0.1192  0.3827 -0.3511
 1719SOL    HW116616   0.917   0.074  16.449  0.1910  1.4988  1.0315
 1719SOL    HW216617   0.780   0.032  16.390  0.7758 -0.2408 -0.5796
 1720SOL     OW16618   2.683   3.140   3.468 -0.2451 -0.4595  0.1975
 1720SOL    HW116619   2.671   3.230   3.437 -1.0485 -0.3720  0.7345
 1720SOL    HW216620   2.594   3.110   3.488  0.2132 -2.4177 -0.7960
 1721SOL     OW16621   4.002   1.386   9.573 -0.1591 -0.3938  0.1340
 1721SOL    HW116622   4.067   1.319   9.593  0.2187 -0.0756 -0.0344
 1721SOL    HW216623   4.040   1.441   9.506  0.3349  0.9454  1.5081
 1722SOL     OW16624   3.056   0.342   3.366  0.4429  0.1819  0.3095
 1722SOL    HW116625   3.139   0.387   3.384  0.4738 -0.2057  1.1481
 1722SOL    HW216626   3.079   0.266   3.420 -0.3360 -1.3053 -1.4656
 1723SOL     OW16627   0.718   1.098   0.688  0.2394 -0.4302  0.0990
 1723SOL    HW116628   0.776   1.086   0.612 -1.8285 -0.9494 -1.3987
 1723SOL    HW216629   0.782   1.130   0.751  1.0873 -0.4458 -0.7401
 1724SOL     OW16630   3.772   4.103   6.700  0.1593  0.9115  0.2485
 1724SOL    HW116631   3.739   4.022   6.661 -0.0324  1.4878 -0.8009
 1724SOL    HW216632   3.842   4.054   6.744  1.3535  3.5526  1.3093
 1725SOL     OW16633   0.473   4.680  14.605  0.2638  0.0004  0.4137
 1725SOL    HW116634   0.384   4.707  14.583  1.0993  3.5196  1.2486
 1725SOL    HW216635   0.517   0.041  14.619  3.6149 -1.9144  1.3697
 1726SOL     OW16636   1.887   1.806   7.945 -0.4171  0.0567 -0.0524
 1726SOL    HW116637   1.845   1.765   7.869 -1.7477  2.1097 -0.4240
 1726SOL    HW216638   1.981   1.789   7.941 -0.8488 -2.4553  0.2552
 1727SOL     OW16639   3.208   1.941   4.897  0.2441  0.5013  0.0659
 1727SOL    HW116640   3.202   2.036   4.899  1.1211  0.5493  0.5039
 1727SOL    HW216641   3.172   1.919   4.811 -0.7783  3.1722 -0.1960
 1728SOL     OW16642   2.223   1.136   8.222  0.3451  0.6394 -0.3395
 1728SOL    HW116643   2.308   1.143   8.178 -0.5015  1.7291 -1.8335
 1728SOL    HW216644   2.160   1.161   8.154 -2.4187 -1.8535  1.3441
 1729SOL     OW16645   3.054   2.758  12.536 -0.4369  0.4674  0.4418
 1729SOL    HW116646   3.113   2.721  12.470 -0.4338  0.2332  0.5746
 1729SOL    HW216647   2.986   2.691  12.540  2.0084 -2.0791 -0.2837
 1730SOL     OW16648   0.028   1.060   9.279  0.0452  0.5237 -0.7013
 1730SOL    HW116649   0.037   0.987   9.217 -1.1851 -0.8132  0.7176
 1730SOL    HW216650   0.110   1.057   9.327 -1.1726 -1.7173  1.1828
 1731SOL     OW16651   4.621   1.508  15.591 -0.0653 -0.5332 -0.6285
 1731SOL    HW116652   4.532   1.541  15.596  0.3385  0.3775  0.4978
 1731SOL    HW216653   4.601   1.437  15.530 -4.4236 -0.4390  0.7395
 1732SOL     OW16654   0.699   4.199   3.076 -0.1337 -0.1822  0.1566
 1732SOL    HW116655   0.700   4.117   3.126 -2.5109 -0.1256  0.3116
 1732SOL    HW216656   0.603   4.205   3.070 -0.3021 -0.0947  2.9413
 1733SOL     OW16657   3.058   1.637   6.003 -0.1418  0.2994  0.2524
 1733SOL    HW116658   3.065   1.553   5.957 -0.9868  0.3729 -0.0106
 1733SOL    HW216659   2.997   1.606   6.069 -1.4537  0.1499 -1.0132
 1734SOL     OW16660   0.167   1.694   2.864 -0.1262  0.1218 -0.0447
 1734SOL    HW116661   0.115   1.635   2.918 -0.6673  1.0925  0.4996
 1734SOL    HW216662   0.252   1.666   2.898  0.4845  2.5884  0.5092
 1735SOL     OW16663   3.632   3.213   2.005  0.6939 -0.4213  1.0121
 1735SOL    HW116664   3.651   3.139   1.948 -0.8323 -1.1511  1.4664
 1735SOL    HW216665   3.540   3.200   2.026  0.2367 -0.2263 -0.8886
 1736SOL     OW16666   1.550   4.505   4.961  0.5879  0.2790  0.2286
 1736SOL    HW116667   1.559   4.422   5.008  1.0120  1.0139  1.4313
 1736SOL    HW216668   1.563   4.561   5.037 -0.2932 -0.5797  1.0094
 1737SOL     OW16669   0.690   3.007   2.762 -0.0544  0.6766  0.5555
 1737SOL    HW116670   0.710   2.914   2.755 -2.8213  0.3199 -2.4560
 1737SOL    HW216671   0.736   3.033   2.682 -2.1124 -2.1411 -1.5308
 1738SOL     OW16672   0.003   1.668   4.950  0.2869  0.1902  0.3832
 1738SOL    HW116673   4.684   1.719   5.019 -0.4146 -2.6492  2.0416
 1738SOL    HW216674   0.070   1.728   4.917 -0.7533 -1.0800 -4.0183
 1739SOL     OW16675   3.233   3.673   5.641  0.6586 -0.0706 -0.5752
 1739SOL    HW116676   3.251   3.710   5.727  0.9638 -1.6060  0.0147
 1739SOL    HW216677   3.322   3.662   5.608  1.2816 -0.5801  1.3150
 1740SOL     OW16678   1.812   0.675   4.800 -0.0739 -0.1954 -0.1507
 1740SOL    HW116679   1.881   0.681   4.735 -1.6673  0.1699 -1.8184
 1740SOL    HW216680   1.841   0.714   4.882  0.3896 -1.4693  0.2909
 1741SOL     OW16681   2.936   3.859   3.916  0.4490 -0.3946  0.1495
 1741SOL    HW116682   2.901   3.939   3.878  1.8804 -1.2386 -2.9424
 1741SOL    HW216683   2.874   3.793   3.884 -0.4747  0.9536 -0.8220
 1742SOL     OW16684   4.246   2.652  17.375  0.1598  0.1303  0.1816
 1742SOL    HW116685   4.159   2.662  17.338 -0.4727 -1.8125  1.1134
 1742SOL    HW216686   4.277   2.735  17.340  1.1987 -0.4222 -0.2186
 1743SOL     OW16687   4.436   3.170   8.343 -0.0178 -0.3142  0.0800
 1743SOL    HW116688   4.520   3.205   8.372  0.1591 -0.7178  0.0632
 1743SOL    HW216689   4.458   3.079   8.323 -0.9257 -0.0787 -2.0888
 1744SOL     OW16690   3.024   2.464   4.494 -0.1327 -0.7467 -0.1582
 1744SOL    HW116691   3.017   2.559   4.491  2.3177 -0.4712  3.0854
 1744SOL    HW216692   2.982   2.446   4.578  0.7146  2.3392  0.9061
 1745SOL     OW16693   3.623   2.541   0.504 -0.2371 -0.1806  0.5082
 1745SOL    HW116694   3.571   2.476   0.552  0.7315 -0.4739  1.1706
 1745SOL    HW216695   3.565   2.616   0.518  1.5154  0.8832  2.0609
 1746SOL     OW16696   4.515   1.562   4.808 -0.3694 -0.1365  0.0892
 1746SOL    HW116697   4.508   1.638   4.750 -0.7145 -1.0682 -1.0876
 1746SOL    HW216698   4.608   1.573   4.830 -0.2937  3.3210 -1.9841
 1747SOL     OW16699   1.566   0.550   8.314  0.0053 -0.3666 -0.1135
 1747SOL    HW116700   1.640   0.513   8.363 -0.7015 -1.4921  0.0935
 1747SOL    HW216701   1.580   0.524   8.223 -1.9856  2.6626 -1.3029
 1748SOL     OW16702   0.241   0.417   5.690 -0.5991  0.5602 -0.1299
 1748SOL    HW116703   0.149   0.422   5.663 -0.5813 -0.2291 -0.3255
 1748SOL    HW216704   0.260   0.325   5.670 -0.6224  0.8024 -1.2632
 1749SOL     OW16705   3.065   4.260   3.296  0.6052  0.2741  0.1101
 1749SOL    HW116706   3.014   4.325   3.248 -0.8934 -1.8265 -1.1346
 1749SOL    HW216707   3.029   4.181   3.257  1.0270 -0.1549  0.5956
 1750SOL     OW16708   3.445   1.289   2.302  0.2557  0.1235  0.0645
 1750SOL    HW116709   3.390   1.330   2.236  1.0418 -0.8939 -1.2294
 1750SOL    HW216710   3.402   1.204   2.316  1.2060 -0.4022 -0.2022
 1751SOL     OW16711   4.061   1.963  16.216  0.3491 -0.3788 -0.0279
 1751SOL    HW116712   4.083   1.909  16.292  2.5516 -1.1964 -1.2714
 1751SOL    HW216713   4.003   2.023  16.263  0.3288 -0.5207  0.1281
 1752SOL     OW16714   3.345   2.753   8.278  0.2084  0.1107 -0.0924
 1752SOL    HW116715   3.275   2.765   8.342  0.3403 -1.5620  0.3609
 1752SOL    HW216716   3.300   2.785   8.200 -1.4409 -0.9223  0.4397
 1753SOL     OW16717   2.272   2.306   2.954  0.1520  0.3187  0.3323
 1753SOL    HW116718   2.358   2.264   2.960 -0.2142 -0.2724  1.3549
 1753SOL    HW216719   2.235   2.257   2.880 -2.2277  1.5875  0.6992
 1754SOL     OW16720   1.513   3.942   1.265  0.1549 -0.7475 -0.1898
 1754SOL    HW116721   1.478   4.027   1.289 -0.4653 -0.6015 -1.6212
 1754SOL    HW216722   1.599   3.973   1.234 -0.1932  1.2379  0.8946
 1755SOL     OW16723   1.249   4.449  14.133 -0.8115  0.5961  0.3719
 1755SOL    HW116724   1.269   4.363  14.170  0.3486  0.8678  0.3557
 1755SOL    HW216725   1.281   4.440  14.043  0.5878  0.6230  0.8784
 1756SOL     OW16726   0.541   1.614   3.629 -0.0447 -0.5350  0.2428
 1756SOL    HW116727   0.623   1.569   3.609  0.2483  0.4370 -0.7363
 1756SOL    HW216728   0.476   1.571   3.573 -1.5917  0.3315  1.3883
 1757SOL     OW16729   1.285   2.884   6.512  0.1973 -0.3084  0.6348
 1757SOL    HW116730   1.255   2.974   6.502  0.1577 -0.1129  2.5993
 1757SOL    HW216731   1.230   2.833   6.453  1.1721 -1.7365  0.9411
 1758SOL     OW16732   1.513   1.117   2.022  0.0745 -0.3064  0.0432
 1758SOL    HW116733   1.486   1.124   1.930 -1.7988 -1.0535  0.5295
 1758SOL    HW216734   1.603   1.087   2.013 -0.0828 -1.1536  1.2559
 1759SOL     OW16735   0.779   0.761   5.118  0.3943  0.1708 -0.0337
 1759SOL    HW116736   0.718   0.766   5.045  0.5569 -1.5371 -0.2769
 1759SOL    HW216737   0.843   0.698   5.088  0.4536 -0.0428  0.5373
 1760SOL     OW16738   0.784   1.700   9.560 -0.2011 -0.1437  0.5972
 1760SOL    HW116739   0.694   1.684   9.589  0.3565  1.2690  3.1599
 1760SOL    HW216740   0.826   1.675   9.643  0.9459 -1.6717 -0.4630
 1761SOL     OW16741   0.279   4.537   3.249 -0.6843 -0.1841 -0.2917
 1761SOL    HW116742   0.367   4.545   3.287 -1.0405  0.1627  0.4752
 1761SOL    HW216743   0.305   4.544   3.158  0.7197  0.5063  0.1538
 1762SOL     OW16744   4.111   1.508  15.996  0.5616  0.0172  0.1295
 1762SOL    HW116745   4.126   1.603  16.004  3.9544 -0.4961 -0.1919
 1762SOL    HW216746   4.040   1.493  16.059 -1.7167  1.5314 -2.0420
 1763SOL     OW16747   1.226   3.905   9.661  0.5056 -0.5038 -0.1978
 1763SOL    HW116748   1.278   3.839   9.615  1.5860 -0.0996  0.4490
 1763SOL    HW216749   1.142   3.860   9.648 -0.4045  1.0137  0.4704
 1764SOL     OW16750   4.621   0.026  16.204 -0.1641 -0.0065 -0.6888
 1764SOL    HW116751   4.564   0.101  16.190  0.5254  0.5598 -0.4261
 1764SOL    HW216752   4.689   0.068  16.257  1.7553 -2.8204 -0.9281
 1765SOL     OW16753   4.655   1.937   3.135  0.4141  0.1985  0.1480
 1765SOL    HW116754   4.647   2.032   3.147  2.6747  0.5059 -0.6043
 1765SOL    HW216755   4.712   1.917   3.209  1.1859  3.1965  0.3612
 1766SOL     OW16756   1.443   0.487   9.577  0.1041 -0.2287 -0.1364
 1766SOL    HW116757   1.380   0.522   9.639  0.2479 -0.6979  0.2738
 1766SOL    HW216758   1.426   0.393   9.590 -1.7354 -0.0420 -1.1591
 1767SOL     OW16759   1.345   0.071  11.091 -0.0808 -0.0754  0.1855
 1767SOL    HW116760   1.277   0.136  11.073 -0.6052 -0.1263  2.0002
 1767SOL    HW216761   1.408   0.080  11.019 -0.1068  1.2738  0.3331
 1768SOL     OW16762   0.033   0.869   9.085 -0.4229  0.9546 -0.0605
 1768SOL    HW116763   4.680   0.824   9.122 -0.2567  1.8290  1.3669
 1768SOL    HW216764   0.020   0.858   8.991 -0.5170 -2.1930  0.3288
 1769SOL     OW16765   4.696   1.111  15.696 -0.2002  0.2581  0.3702
 1769SOL    HW116766   4.610   1.153  15.703 -0.2394  0.6588 -2.4252
 1769SOL    HW216767   4.682   1.048  15.625  2.2878 -0.3415  0.4151
 1770SOL     OW16768   2.083   2.750   5.342  0.0348 -0.1807  0.4658
 1770SOL    HW116769   2.026   2.808   5.392  0.7390  0.4888  0.4906
 1770SOL    HW216770   2.129   2.818   5.293  0.2114 -0.9022 -0.3784
 1771SOL     OW16771   0.591   3.139   5.439 -0.3776  0.0783  0.2141
 1771SOL    HW116772   0.599   3.046   5.419 -0.3120  0.4047 -1.2598
 1771SOL    HW216773   0.531   3.131   5.514  0.0794  0.6022  0.6307
 1772SOL     OW16774   4.408   2.763   4.704  0.3797 -0.2210  0.3091
 1772SOL    HW116775   4.429   2.753   4.797  0.0809 -0.5186  0.3464
 1772SOL    HW216776   4.483   2.814   4.673  0.8670 -0.5315  0.9708
 1773SOL     OW16777   1.420   3.247   6.310  0.5139 -0.1116 -0.2315
 1773SOL    HW116778   1.477   3.319   6.339 -0.7879 -0.5226  3.2948
 1773SOL    HW216779   1.397   3.275   6.221  0.7217  0.6413 -0.0511
 1774SOL     OW16780   1.329   1.053   4.092 -0.3628  0.0427  0.5684
 1774SOL    HW116781   1.420   1.026   4.107  0.7667  1.8873 -2.8667
 1774SOL    HW216782   1.318   1.107   4.171  0.6749  1.8702 -0.5222
 1775SOL     OW16783   1.209   4.108   6.229  0.1545  0.1463  0.3292
 1775SOL    HW116784   1.140   4.072   6.172 -1.1825  1.9005  0.8183
 1775SOL    HW216785   1.193   4.054   6.306  3.3481 -0.8923  0.2565
 1776SOL     OW16786   2.065   3.497   7.139  0.5464 -0.0224 -0.1543
 1776SOL    HW116787   2.151   3.480   7.101  0.3793 -1.1817 -0.0250
 1776SOL    HW216788   2.075   3.507   7.234 -0.4436 -0.5882  0.0039
 1777SOL     OW16789   1.278   2.878  16.070  0.2455  0.4132  0.1217
 1777SOL    HW116790   1.265   2.829  16.152 -0.6718  0.6606  0.1126
 1777SOL    HW216791   1.227   2.952  16.101 -0.9861  0.1691 -1.3215
 1778SOL     OW16792   3.305   2.213   3.283  0.5709 -0.1187 -0.2840
 1778SOL    HW116793   3.378   2.267   3.314  0.2577  0.2805 -0.2394
 1778SOL    HW216794   3.236   2.278   3.269  0.8510 -0.1265 -1.6395
 1779SOL     OW16795   3.521   1.817   3.949 -0.2382 -0.3173  0.8006
 1779SOL    HW116796   3.553   1.867   3.874 -0.4280 -3.4058 -1.3463
 1779SOL    HW216797   3.496   1.733   3.909 -1.4423 -0.5680  2.0874
 1780SOL     OW16798   4.104   1.526   4.846  0.3657 -0.0470 -0.2263
 1780SOL    HW116799   4.044   1.600   4.853  0.1316 -0.4884  2.5612
 1780SOL    HW216800   4.151   1.549   4.766  0.6110 -1.3263 -0.4539
 1781SOL     OW16801   2.548   2.074  11.893 -0.3023 -0.7173  0.4307
 1781SOL    HW116802   2.633   2.032  11.882 -0.6333 -1.1814 -0.3968
 1781SOL    HW216803   2.520   2.098  11.981 -0.5733  3.4421 -0.7686
 1782SOL     OW16804   4.450   0.647   6.235  0.1092 -0.2830 -0.4681
 1782SOL    HW116805   4.531   0.654   6.285  0.2174  0.6146 -0.7589
 1782SOL    HW216806   4.492   0.659   6.150  0.6096 -1.9582 -0.4433
 1783SOL     OW16807   1.809   2.901  14.588  0.7038 -0.4587  0.0631
 1783SOL    HW116808   1.814   2.929  14.497  1.2410  2.1868  0.8904
 1783SOL    HW216809   1.899   2.876  14.607  0.3527 -1.7874 -0.0599
 1784SOL     OW16810   0.980   2.908   2.922 -0.1062  0.0160 -0.0154
 1784SOL    HW116811   0.917   2.904   2.994  0.4224 -1.8835  0.3442
 1784SOL    HW216812   0.968   2.817   2.894  1.5495  0.2028 -1.3036
 1785SOL     OW16813   0.920   0.006  13.365  0.0756 -0.2527 -0.6066
 1785SOL    HW116814   0.931   4.713  13.272  0.1423 -0.2642 -0.5967
 1785SOL    HW216815   0.992   4.681  13.407 -1.1494 -3.2907 -1.9530
 1786SOL     OW16816   1.186   1.774   7.713  0.3770  0.4208  0.1316
 1786SOL    HW116817   1.096   1.792   7.684  0.4301  1.0852  0.3663
 1786SOL    HW216818   1.240   1.848   7.684 -0.3115  0.2839 -1.5351
 1787SOL     OW16819   3.539   0.507   3.139  0.3016  0.1413 -0.0849
 1787SOL    HW116820   3.454   0.481   3.105 -0.5795  0.1017  2.1606
 1787SOL    HW216821   3.564   0.416   3.158  1.7942  0.9167  1.7262
 1788SOL     OW16822   3.645   4.665  16.803 -0.0406 -0.1779  0.4742
 1788SOL    HW116823   3.573   4.698  16.857 -0.9108 -0.2480 -0.6572
 1788SOL    HW216824   3.666   0.018  16.749  0.5857 -0.6489  0.0704
 1789SOL     OW16825   0.637   1.020   6.187  0.4516 -0.6680 -0.6903
 1789SOL    HW116826   0.693   1.079   6.237  1.3335 -1.5848 -0.5916
 1789SOL    HW216827   0.597   0.999   6.271  3.4064 -2.0482  0.3956
 1790SOL     OW16828   1.823   4.003  15.793 -0.5143  1.0249 -0.4330
 1790SOL    HW116829   1.728   4.014  15.801 -0.7202 -1.7752  0.7491
 1790SOL    HW216830   1.836   3.918  15.751 -3.1087 -0.2255  1.2971
 1791SOL     OW16831   0.462   3.432   0.822  0.1971  0.2489  0.2829
 1791SOL    HW116832   0.496   3.514   0.858 -3.3839  0.0146  4.2480
 1791SOL    HW216833   0.395   3.459   0.759 -0.8868 -0.4496  1.1291
 1792SOL     OW16834   3.240   2.487   1.553  0.3827 -0.6060 -0.3054
 1792SOL    HW116835   3.299   2.436   1.498  1.4268  2.1291 -1.6776
 1792SOL    HW216836   3.230   2.572   1.511  0.0089  1.1931  3.3853
 1793SOL     OW16837   1.771   0.656   9.118 -0.7500 -0.5314 -0.2121
 1793SOL    HW116838   1.755   0.636   9.210 -0.2031 -0.9733 -0.2099
 1793SOL    HW216839   1.716   0.733   9.110  0.4522  0.3404  0.0153
 1794SOL     OW16840   1.356   3.687  11.795 -0.0731 -0.4106  0.3046
 1794SOL    HW116841   1.287   3.635  11.836 -1.0557 -0.1369 -0.9904
 1794SOL    HW216842   1.336   3.777  11.818  0.6616  0.3564 -2.0407
 1795SOL     OW16843   2.424   3.273   2.875 -0.6977 -0.1780  0.5407
 1795SOL    HW116844   2.436   3.367   2.888  1.7857 -0.4999  0.7305
 1795SOL    HW216845   2.383   3.258   2.790 -0.1069 -3.0884  0.7630
 1796SOL     OW16846   4.369   2.725   2.391  0.3335 -0.2763  0.4796
 1796SOL    HW116847   4.313   2.651   2.416  1.4787 -0.7520  1.6396
 1796SOL    HW216848   4.316   2.799   2.362 -1.8879 -1.8833  0.4814
 1797SOL     OW16849   3.047   2.234  10.529  0.0736 -0.6903 -0.1455
 1797SOL    HW116850   3.123   2.200  10.482 -0.7855 -1.1704 -1.1864
 1797SOL    HW216851   3.077   2.324  10.513 -2.4578 -0.1239 -1.7596
 1798SOL     OW16852   2.662   0.911   2.215 -0.6087  0.0071  0.0637
 1798SOL    HW116853   2.745   0.906   2.167 -0.4678 -2.9319  0.6267
 1798SOL    HW216854   2.637   0.999   2.187 -0.7955 -0.7949 -2.3114
 1799SOL     OW16855   4.512   0.110   9.323  0.1887  0.3496  0.2872
 1799SOL    HW116856   4.450   0.039   9.304 -0.8304  1.2324  0.3892
 1799SOL    HW216857   4.559   0.109   9.239  1.1230 -0.8784  0.8238
 1800SOL     OW16858   0.390   4.081   0.614  0.3434  1.0137  0.2695
 1800SOL    HW116859   0.478   4.113   0.594 -0.2513  0.4815 -3.0844
 1800SOL    HW216860   0.332   4.146   0.575  1.1342  2.1565  0.9789
 1801SOL     OW16861   4.331   1.720  11.120 -0.5535 -0.1107 -0.2301
 1801SOL    HW116862   4.376   1.709  11.204  1.7920 -0.0123 -1.4543
 1801SOL    HW216863   4.385   1.778  11.066 -0.6852 -0.8005 -1.0996
 1802SOL     OW16864   1.231   1.369   1.357  0.5539  0.4008 -0.1041
 1802SOL    HW116865   1.252   1.283   1.320 -0.0887  0.0965  0.2510
 1802SOL    HW216866   1.146   1.356   1.397 -0.1756 -0.6223 -1.9952
 1803SOL     OW16867   1.079   3.453   9.187 -0.2636  0.0721 -0.3742
 1803SOL    HW116868   1.088   3.497   9.272  1.6107 -0.4194 -0.3131
 1803SOL    HW216869   0.999   3.407   9.212 -0.4870 -0.4055 -1.9683
 1804SOL     OW16870   4.152   3.235   2.833 -0.3664  0.2270 -0.2762
 1804SOL    HW116871   4.063   3.201   2.841  0.2673 -1.1877  0.7862
 1804SOL    HW216872   4.155   3.281   2.749  0.4929 -0.2351 -0.5066
 1805SOL     OW16873   4.001   1.128   7.240 -0.2159  0.3033  0.2292
 1805SOL    HW116874   4.001   1.196   7.308 -1.0435 -0.0053  0.5313
 1805SOL    HW216875   3.942   1.160   7.171  0.1545  0.8977  0.1872
 1806SOL     OW16876   2.608   3.964   3.981  0.0544 -0.4355 -0.0634
 1806SOL    HW116877   2.666   3.945   4.055  1.6467  0.6591 -1.0131
 1806SOL    HW216878   2.653   4.041   3.944 -0.4841  0.0848  0.3616
 1807SOL     OW16879   4.697   2.419   5.110  0.4293 -0.2062 -0.1086
 1807SOL    HW116880   4.713   2.328   5.086 -1.0865 -0.2596 -0.9124
 1807SOL    HW216881   0.025   2.456   5.038 -0.6464  1.3404 -0.0834
 1808SOL     OW16882   2.356   3.452   8.352  0.0600  0.2798 -0.1138
 1808SOL    HW116883   2.313   3.369   8.331 -0.6469  0.8428 -0.8523
 1808SOL    HW216884   2.300   3.520   8.315  0.4333  0.5144 -0.2543
 1809SOL     OW16885   4.268   2.951  10.591  0.0331  0.2029 -0.2219
 1809SOL    HW116886   4.300   2.975  10.678 -0.1885 -1.4136  0.3018
 1809SOL    HW216887   4.307   3.018  10.535  1.6666 -0.0687  0.5760
 1810SOL     OW16888   4.722   3.643  13.360 -0.7731 -0.4516  0.0513
 1810SOL    HW116889   4.640   3.690  13.370  0.7927  2.6992 -2.0514
 1810SOL    HW216890   4.693   3.552  13.355 -1.5843 -0.0900 -1.8109
 1811SOL     OW16891   2.969   0.653  15.968 -0.2327 -0.4291  0.1019
 1811SOL    HW116892   2.987   0.732  15.917 -0.0464 -0.2444  0.4564
 1811SOL    HW216893   3.054   0.652  16.011  0.2126  1.2044 -0.7301
 1812SOL     OW16894   4.086   2.577   1.733  0.4132  0.3277 -0.2335
 1812SOL    HW116895   4.068   2.666   1.762 -0.2672  0.5083 -1.2055
 1812SOL    HW216896   4.149   2.559   1.802  1.1125 -0.5455 -1.1071
 1813SOL     OW16897   0.371   1.049  13.506  0.6342 -0.5324 -0.2836
 1813SOL    HW116898   0.445   1.066  13.566 -1.4177 -3.7958  3.1312
 1813SOL    HW216899   0.427   1.009  13.440 -0.7112 -1.3168 -0.9240
 1814SOL     OW16900   2.137   2.631   8.497  0.5058  0.5084  0.1145
 1814SOL    HW116901   2.228   2.642   8.469  0.1479  2.3038 -0.3527
 1814SOL    HW216902   2.096   2.576   8.431  1.4711 -1.2513  0.9872
 1815SOL     OW16903   4.451   1.168  15.688  0.0821  0.4651 -0.0965
 1815SOL    HW116904   4.379   1.106  15.679  1.0479 -0.3824 -1.9490
 1815SOL    HW216905   4.416   1.245  15.734 -1.9436 -0.9922  0.7796
 1816SOL     OW16906   3.655   3.429   2.257 -0.3170  0.2414 -0.2569
 1816SOL    HW116907   3.599   3.468   2.324  1.0411  0.8665  0.5091
 1816SOL    HW216908   3.633   3.338   2.275 -1.9182  0.5742 -0.5451
 1817SOL     OW16909   2.780   3.407   7.187  1.2488  0.3306 -0.3204
 1817SOL    HW116910   2.756   3.490   7.229 -0.9211 -1.0574  1.1790
 1817SOL    HW216911   2.874   3.422   7.178  1.2121  0.8017  0.0615
 1818SOL     OW16912   1.656   0.115   4.509  0.3193  0.3071  0.0218
 1818SOL    HW116913   1.674   0.044   4.571 -1.8209  2.2737  2.8598
 1818SOL    HW216914   1.670   0.187   4.570  0.8466  2.6346 -2.8091
 1819SOL     OW16915   4.717   0.074   6.909  0.3973  0.0124 -0.0326
 1819SOL    HW116916   0.069   0.018   6.930 -0.7684 -1.7269 -0.4438
 1819SOL    HW216917   4.687   0.089   6.999 -2.9705  0.2768 -1.1763
 1820SOL     OW16918   3.299   4.511  15.995  0.1545  0.3909  0.0002
 1820SOL    HW116919   3.312   4.490  16.088 -1.2542 -0.8905 -0.1022
 1820SOL    HW216920   3.207   4.534  15.998  0.2474  0.5679  1.8535
 1821SOL     OW16921   3.262   1.557   6.455  0.2902 -0.1532 -0.0131
 1821SOL    HW116922   3.298   1.616   6.389  0.9207  0.9702  1.3288
 1821SOL    HW216923   3.337   1.551   6.514 -0.2429  1.2415  0.8117
 1822SOL     OW16924   2.097   1.838   8.882  0.3698  0.1237  0.1006
 1822SOL    HW116925   2.055   1.900   8.824  0.2034  0.1297  0.2278
 1822SOL    HW216926   2.102   1.752   8.840 -1.5053 -0.7101  1.5433
 1823SOL     OW16927   0.633   4.365  15.448  0.4944 -0.6333 -0.4239
 1823SOL    HW116928   0.637   4.340  15.540 -2.3456  2.9095  0.6158
 1823SOL    HW216929   0.668   4.453  15.455 -2.6701  0.3598  2.7923
 1824SOL     OW16930   1.296   4.181  13.082  0.1671 -0.2198 -0.4240
 1824SOL    HW116931   1.353   4.104  13.074 -0.7942 -1.0628  0.8553
 1824SOL    HW216932   1.257   4.165  12.996 -2.9208  0.4690  0.8388
 1825SOL     OW16933   4.179   3.079   1.723  0.6894  0.3784 -0.5316
 1825SOL    HW116934   4.107   3.092   1.785  1.1874  1.0917 -0.1168
 1825SOL    HW216935   4.138   3.109   1.642 -1.8186 -1.9258 -0.1317
 1826SOL     OW16936   3.385   2.296  12.860 -1.0053 -0.2741  0.5284
 1826SOL    HW116937   3.395   2.320  12.952 -0.7047  0.1862  0.3770
 1826SOL    HW216938   3.302   2.249  12.867 -1.3818 -0.0237 -2.2124
 1827SOL     OW16939   3.864   2.136  16.288  0.4204 -0.8092  0.1036
 1827SOL    HW116940   3.848   2.226  16.262 -2.8370 -0.9708  1.5904
 1827SOL    HW216941   3.775   2.110  16.314  1.0357 -3.2744 -0.2134
 1828SOL     OW16942   2.951   1.997   7.491  0.2159  0.2128 -0.3318
 1828SOL    HW116943   3.042   1.989   7.521  0.1315  1.5790  0.3064
 1828SOL    HW216944   2.914   2.064   7.548  0.1613 -1.7706  1.9777
 1829SOL     OW16945   1.027   1.083   5.889 -0.2918  0.3349  0.2098
 1829SOL    HW116946   1.082   1.020   5.843 -0.2461  0.6420 -0.1469
 1829SOL    HW216947   0.938   1.079   5.855  0.2545 -2.7594 -0.8599
 1830SOL     OW16948   0.943   3.596   8.271  0.1638  0.3394 -1.1540
 1830SOL    HW116949   0.969   3.622   8.360 -1.4600 -0.4879 -0.4388
 1830SOL    HW216950   1.022   3.599   8.218  2.0040 -0.3288  1.5338
 1831SOL     OW16951   3.905   3.503   2.213  0.3242 -0.7838  0.1435
 1831SOL    HW116952   3.932   3.412   2.200  1.3547 -0.8178  2.4354
 1831SOL    HW216953   3.811   3.490   2.213  0.1548  0.3176  2.9892
 1832SOL     OW16954   0.623   0.717   2.667  0.4385 -0.2848  0.0410
 1832SOL    HW116955   0.657   0.628   2.669 -0.8201 -0.8424 -2.8642
 1832SOL    HW216956   0.664   0.742   2.749  0.1201  0.6520 -0.0820
 1833SOL     OW16957   0.904   0.004   0.999  0.0092 -0.0470  0.2083
 1833SOL    HW116958   0.850   0.082   1.011  2.0060  1.3123  0.3446
 1833SOL    HW216959   0.830   4.667   0.992 -0.0354  0.0964 -0.4905
 1834SOL     OW16960   0.572   3.011   3.707 -0.9025 -0.0873 -0.7348
 1834SOL    HW116961   0.623   3.053   3.638 -0.8230  1.6655  0.4201
 1834SOL    HW216962   0.539   3.094   3.741  0.6855 -0.1704  0.9819
 1835SOL     OW16963   1.858   4.335   7.360  0.1197  0.6696  0.2250
 1835SOL    HW116964   1.863   4.250   7.318 -0.0186  1.7707 -2.0248
 1835SOL    HW216965   1.798   4.333   7.435 -0.3909  2.9770 -0.0970
 1836SOL     OW16966   1.520   0.303  11.653 -0.1216  0.0505  0.1835
 1836SOL    HW116967   1.567   0.387  11.659 -0.2247  0.0847  0.5563
 1836SOL    HW216968   1.450   0.317  11.717 -0.5969  1.3309 -0.6115
 1837SOL     OW16969   1.589   0.683   4.555 -0.2051 -0.2458  0.0585
 1837SOL    HW116970   1.529   0.623   4.599 -0.8289  0.8055  0.6507
 1837SOL    HW216971   1.673   0.638   4.563  0.2874  0.8202  1.0322
 1838SOL     OW16972   3.778   1.697   8.435  0.4900 -0.2939 -0.6156
 1838SOL    HW116973   3.831   1.776   8.446  2.1348 -1.0686 -2.9037
 1838SOL    HW216974   3.847   1.633   8.422  1.1781 -0.0253  1.8441
 1839SOL     OW16975   0.981   1.481   6.272 -0.3912 -0.3516  0.4053
 1839SOL    HW116976   0.887   1.501   6.279 -0.7914 -2.5167  0.9684
 1839SOL    HW216977   0.985   1.465   6.178  0.5494  0.1302  0.3607
 1840SOL     OW16978   0.515   0.660   3.569 -0.0420  0.2454  0.3417
 1840SOL    HW116979   0.507   0.750   3.600  0.5210  0.8777 -1.3455
 1840SOL    HW216980   0.474   0.668   3.482 -0.9473  3.6439  1.1011
 1841SOL     OW16981   2.347   0.031   9.674 -0.1571 -0.7043  0.1310
 1841SOL    HW116982   2.418   4.691   9.684  0.8538  0.3538 -0.3140
 1841SOL    HW216983   2.337   0.075   9.759 -2.1650 -0.8424 -0.0385
 1842SOL     OW16984   0.296   2.897   0.343 -0.4856 -0.0613 -0.2225
 1842SOL    HW116985   0.372   2.875   0.289  0.7428 -0.7659  1.7997
 1842SOL    HW216986   0.286   2.821   0.401  0.8639 -1.6585 -2.0965
 1843SOL     OW16987   1.129   0.657   8.595  0.3924  0.2347  0.9312
 1843SOL    HW116988   1.121   0.715   8.518  2.0155 -1.1203 -0.2513
 1843SOL    HW216989   1.129   0.720   8.667 -0.7894  0.9937  0.2689
 1844SOL     OW16990   1.443   1.763   8.509  0.1789 -0.0427  0.2803
 1844SOL    HW116991   1.478   1.851   8.499  0.2172 -0.1198 -0.2795
 1844SOL    HW216992   1.360   1.776   8.556  0.5009  0.3801  0.7245
 1845SOL     OW16993   0.029   0.577  11.010  0.0102  0.3591  0.3304
 1845SOL    HW116994   0.106   0.618  10.971 -0.6390  1.6761  0.4115
 1845SOL    HW216995   0.028   0.494  10.963 -1.0219  1.1588 -1.0427
 1846SOL     OW16996   3.702   4.671  15.998 -0.0946 -0.5867  0.5007
 1846SOL    HW116997   3.759   4.671  15.921  0.4804  0.3542  0.9261
 1846SOL    HW216998   3.773   4.706  16.052 -1.5465 -0.1389  2.1494
 1847SOL     OW16999   4.396   1.510   4.113 -0.0643 -0.0134 -0.3085
 1847SOL    HW117000   4.470   1.514   4.173 -0.7744 -0.0794  0.5849
 1847SOL    HW217001   4.326   1.507   4.179  0.4884  0.7242  0.3097
 1848SOL     OW17002   4.124   0.418   9.149 -0.3926  0.1129 -0.0738
 1848SOL    HW117003   4.207   0.390   9.186 -1.3443  0.4345  2.2641
 1848SOL    HW217004   4.069   0.340   9.147 -0.4496  0.2174 -3.6581
 1849SOL     OW17005   2.982   2.371  15.513  0.3875  0.6835 -0.3570
 1849SOL    HW117006   2.948   2.348  15.426  0.7157  0.4468 -0.4258
 1849SOL    HW217007   2.966   2.465  15.513 -1.4841  0.3653 -0.2330
 1850SOL     OW17008   3.178   3.723   3.873 -0.0241  0.1043 -0.3747
 1850SOL    HW117009   3.088   3.752   3.891 -0.4483 -0.0018 -2.3832
 1850SOL    HW217010   3.221   3.808   3.863 -3.4468  2.2177  2.9540
 1851SOL     OW17011   3.670   2.218   8.889  0.4379 -0.0023  0.6535
 1851SOL    HW117012   3.630   2.152   8.832  0.4683  0.4171  0.1388
 1851SOL    HW217013   3.629   2.289   8.839 -0.0982 -0.6668  0.1383
 1852SOL     OW17014   2.209   4.315   5.769  0.2120 -0.6171 -0.1642
 1852SOL    HW117015   2.139   4.295   5.707 -0.2381  0.1938  0.0759
 1852SOL    HW217016   2.175   4.391   5.816  3.8877  1.2209 -0.4769
 1853SOL     OW17017   1.920   2.044   9.377 -0.3018  0.6824  0.3742
 1853SOL    HW117018   1.852   2.112   9.375 -1.0286 -0.0359  0.9877
 1853SOL    HW217019   1.874   1.969   9.340  2.2213 -1.2633  1.1987
 1854SOL     OW17020   1.642   4.563   9.803 -1.1474  0.3303  0.3702
 1854SOL    HW117021   1.659   4.483   9.753  0.3550  1.5707 -1.1369
 1854SOL    HW217022   1.710   4.556   9.870  1.5884  1.1903 -2.3224
 1855SOL     OW17023   0.877   2.293   7.457 -0.3113  0.0672 -0.7728
 1855SOL    HW117024   0.824   2.214   7.470  0.5015 -0.5506 -1.2399
 1855SOL    HW217025   0.810   2.360   7.468 -1.3361 -1.3644  1.7804
 1856SOL     OW17026   1.793   4.310   0.734 -0.5269 -0.7061 -0.2898
 1856SOL    HW117027   1.783   4.225   0.692 -1.4740  0.9891 -3.5647
 1856SOL    HW217028   1.740   4.298   0.812 -0.0057  0.2099  0.2113
 1857SOL     OW17029   0.276   0.031   2.768 -0.4840  0.1622  0.2773
 1857SOL    HW117030   0.203   0.090   2.748  0.2649  0.7211 -0.7785
 1857SOL    HW217031   0.348   0.088   2.743 -0.9094  0.3472 -0.5004
 1858SOL     OW17032   1.000   2.218   1.718  0.0100 -0.1671 -0.3127
 1858SOL    HW117033   1.022   2.177   1.801 -0.3206  3.9096  1.7494
 1858SOL    HW217034   0.955   2.298   1.744 -0.0481  0.4651 -2.3048
 1859SOL     OW17035   0.023   4.380   8.659 -0.1322 -0.0396 -0.2838
 1859SOL    HW117036   4.706   4.438   8.724 -1.1750 -1.0574 -0.0265
 1859SOL    HW217037   0.114   4.404   8.672 -0.4484  1.2618 -0.5008
 1860SOL     OW17038   3.914   2.856   4.196  0.3740  0.3246 -0.1387
 1860SOL    HW117039   3.965   2.783   4.231  0.8685  0.8818  0.3125
 1860SOL    HW217040   3.886   2.894   4.279 -1.5220  0.9693 -1.0640
 1861SOL     OW17041   3.921   3.162   0.260 -0.5940  0.0701  0.1759
 1861SOL    HW117042   3.913   3.239   0.316  0.8197 -0.2523  0.8096
 1861SOL    HW217043   3.851   3.103   0.287 -2.4259  2.7531  1.3245
 1862SOL     OW17044   4.550   2.806   0.120  0.6898  0.0209 -0.5753
 1862SOL    HW117045   4.535   2.780   0.029 -1.1773  0.2540 -0.3143
 1862SOL    HW217046   4.487   2.877   0.132  1.9306  1.3407 -1.7523
 1863SOL     OW17047   3.967   4.311   6.632 -0.1518 -0.6102  0.0206
 1863SOL    HW117048   3.973   4.340   6.723  0.1093 -0.8821  0.0866
 1863SOL    HW217049   3.886   4.260   6.626 -0.4363 -0.1134 -0.4186
 1864SOL     OW17050   4.288   4.221   7.983 -0.0502  0.1809 -0.0211
 1864SOL    HW117051   4.232   4.280   8.035 -0.7252 -0.2626 -0.2369
 1864SOL    HW217052   4.347   4.286   7.946  0.7475 -0.4675  0.1277
 1865SOL     OW17053   4.132   4.394   6.435 -0.0839  0.4311  0.2570
 1865SOL    HW117054   4.070   4.367   6.503 -2.7515  1.0507 -1.8978
 1865SOL    HW217055   4.134   4.310   6.389  1.5183  0.8065 -0.3719
 1866SOL     OW17056   3.034   1.227   7.717  0.3657  0.0187 -0.0391
 1866SOL    HW117057   2.948   1.267   7.709 -1.1263 -3.3240 -0.6847
 1866SOL    HW217058   3.092   1.299   7.692  1.0743 -1.1928 -1.9688
 1867SOL     OW17059   4.600   2.422   6.142  0.2287 -0.6855 -0.2721
 1867SOL    HW117060   4.687   2.449   6.111 -0.2142  2.1552  0.9223
 1867SOL    HW217061   4.569   2.358   6.078 -0.7080  1.3486 -1.8834
 1868SOL     OW17062   3.885   1.593   6.821 -0.5275  0.1861 -0.1531
 1868SOL    HW117063   3.917   1.633   6.741  0.6440 -0.0222  0.2107
 1868SOL    HW217064   3.792   1.612   6.807 -0.0869  2.1741 -0.2589
 1869SOL     OW17065   3.267   2.820   2.481 -0.4365 -0.2107 -0.4045
 1869SOL    HW117066   3.300   2.747   2.533 -1.7060 -1.6746 -1.6739
 1869SOL    HW217067   3.335   2.884   2.500 -1.0545  0.6984 -1.2498
 1870SOL     OW17068   2.124   1.588   8.788 -0.2754  0.2221 -0.8461
 1870SOL    HW117069   2.219   1.600   8.798 -0.4276  0.8739 -0.1212
 1870SOL    HW217070   2.134   1.510   8.734  1.1782 -0.4758  0.4395
 1871SOL     OW17071   2.776   0.405   1.624 -0.5042  0.1601 -0.6224
 1871SOL    HW117072   2.681   0.405   1.621 -0.5619  2.4524  1.2027
 1871SOL    HW217073   2.780   0.333   1.687  0.6202 -0.1472 -1.0322
 1872SOL     OW17074   0.962   4.078   9.367 -0.2731  0.0669  0.2700
 1872SOL    HW117075   1.032   4.014   9.351  2.1729  2.7696  0.1557
 1872SOL    HW217076   0.907   4.031   9.429  0.5245 -1.2910 -0.0345
 1873SOL     OW17077   4.084   2.561  16.533 -0.2415 -0.3015 -0.9046
 1873SOL    HW117078   4.172   2.598  16.543 -0.3622 -0.3130  0.2311
 1873SOL    HW217079   4.050   2.616  16.463 -0.1424  0.0797 -0.6530
 1874SOL     OW17080   1.817   3.244   6.073  0.8637  0.1897  0.4761
 1874SOL    HW117081   1.749   3.306   6.046  0.6742  0.9999  2.8833
 1874SOL    HW217082   1.890   3.246   6.011 -1.6475 -0.4256 -2.5413
 1875SOL     OW17083   0.993   2.133   7.148  0.0336 -0.4974 -0.0844
 1875SOL    HW117084   1.046   2.195   7.098  0.1270  0.9894  1.8474
 1875SOL    HW217085   0.930   2.190   7.192  0.6740 -0.7494  1.1757
 1876SOL     OW17086   1.095   0.107  15.841 -0.8997  0.6745 -0.3031
 1876SOL    HW117087   1.162   0.172  15.864 -1.4790  1.3425 -0.5041
 1876SOL    HW217088   1.015   0.157  15.857 -2.1834 -1.5682  0.3552
 1877SOL     OW17089   2.120   0.926   8.348 -0.0297  0.0806 -0.0395
 1877SOL    HW117090   2.164   1.002   8.311  0.9126  1.7723  4.5856
 1877SOL    HW217091   2.176   0.851   8.330 -0.0720 -0.1741  0.8888
 1878SOL     OW17092   4.072   0.204   1.813 -0.3786 -0.0619  0.5811
 1878SOL    HW117093   4.129   0.202   1.890  1.1326  2.4629 -0.4632
 1878SOL    HW217094   4.031   0.120   1.833  0.0217 -0.1386  1.0960
 1879SOL     OW17095   2.032   4.506  14.731  0.4119  0.3212  0.0172
 1879SOL    HW117096   1.944   4.482  14.703  0.5409  0.8690 -0.8828
 1879SOL    HW217097   2.034   4.589  14.684 -2.5322  1.1790  1.4865
 1880SOL     OW17098   4.372   3.012   6.475  0.1249  0.2462  0.1686
 1880SOL    HW117099   4.284   3.003   6.511  1.4182 -0.8655  3.0154
 1880SOL    HW217100   4.435   3.040   6.541 -0.8998 -0.9839  1.6609
 1881SOL     OW17101   2.026   0.891   6.948  0.1611 -0.2593  0.2896
 1881SOL    HW117102   1.989   0.955   7.008 -0.5172  0.5438 -0.9810
 1881SOL    HW217103   1.955   0.827   6.948 -0.1813  0.1182 -0.5443
 1882SOL     OW17104   3.343   3.662   7.624 -0.4705 -0.7097  0.2703
 1882SOL    HW117105   3.325   3.578   7.664 -2.1879 -0.8765 -0.8876
 1882SOL    HW217106   3.436   3.674   7.647 -0.8302 -0.2140  1.4327
 1883SOL     OW17107   0.523   0.787  14.964 -0.0776 -0.6649  0.3454
 1883SOL    HW117108   0.465   0.711  14.965  1.6624 -1.9918 -0.6675
 1883SOL    HW217109   0.478   0.870  14.946  3.7332  0.5849 -3.4431
 1884SOL     OW17110   4.464   1.368  11.548  0.4167 -0.1699 -0.5006
 1884SOL    HW117111   4.534   1.303  11.538  0.2606 -0.9109  3.0338
 1884SOL    HW217112   4.455   1.393  11.456  0.6993  0.6803 -0.3036
 1885SOL     OW17113   1.087   3.747   3.996  0.6992  0.4882  0.2925
 1885SOL    HW117114   1.132   3.692   3.932  0.8947  2.6945 -1.4488
 1885SOL    HW217115   0.999   3.710   3.996  1.9912 -2.6569  1.9654
 1886SOL     OW17116   0.784   0.902   1.728 -0.1567 -0.2930 -0.2325
 1886SOL    HW117117   0.776   0.926   1.820  0.5458 -1.1659  0.0625
 1886SOL    HW217118   0.705   0.947   1.700 -1.8287 -2.8640  0.4137
 1887SOL     OW17119   3.396   4.146  12.035  0.3950 -0.4608 -0.2874
 1887SOL    HW117120   3.427   4.219  12.088  0.7624  1.1431 -2.7333
 1887SOL    HW217121   3.464   4.082  12.056  1.9075  2.1173  2.7166
 1888SOL     OW17122   1.958   4.520   3.057 -0.2125  0.4981  0.7466
 1888SOL    HW117123   1.925   4.434   3.082  3.1958 -1.1082 -0.2531
 1888SOL    HW217124   1.875   4.566   3.047 -0.1293  0.6718  0.8664
 1889SOL     OW17125   4.403   2.039   3.386 -0.5475  0.5143  0.9497
 1889SOL    HW117126   4.391   2.114   3.444  0.1209  1.1368  0.2780
 1889SOL    HW217127   4.491   2.058   3.354 -0.7993 -0.8576 -0.5481
 1890SOL     OW17128   0.147   1.021   4.763 -0.3606  0.2317  0.6000
 1890SOL    HW117129   0.159   1.016   4.858 -2.9838  1.5820  1.0102
 1890SOL    HW217130   0.077   0.959   4.740 -0.3283  0.2978  0.3263
 1891SOL     OW17131   3.115   2.813  10.318 -0.0975  0.1208 -0.2877
 1891SOL    HW117132   3.142   2.735  10.366 -0.3317  0.6817  0.7697
 1891SOL    HW217133   3.130   2.882  10.384 -1.1146 -0.1513  0.2140
 1892SOL     OW17134   2.900   1.869   1.729 -0.6205 -0.1803 -0.1934
 1892SOL    HW117135   2.895   1.774   1.736  0.4618 -0.3040 -1.1570
 1892SOL    HW217136   2.940   1.872   1.642 -0.9392  2.7140 -0.2412
 1893SOL     OW17137   3.475   2.858   0.263  0.5054 -0.6328  0.5371
 1893SOL    HW117138   3.471   2.766   0.237  0.6276 -1.3120  2.8455
 1893SOL    HW217139   3.424   2.896   0.192  0.4482  0.7011  1.2907
 1894SOL     OW17140   3.660   1.300   3.401 -0.4501 -0.1641  0.0890
 1894SOL    HW117141   3.706   1.299   3.317  0.3992  0.7009  0.5434
 1894SOL    HW217142   3.679   1.381   3.449 -1.1271 -0.6114  1.0908
 1895SOL     OW17143   1.730   4.276   8.624 -0.1026  0.2601  0.4389
 1895SOL    HW117144   1.683   4.205   8.582  1.9358 -0.7188 -0.1918
 1895SOL    HW217145   1.671   4.345   8.595 -0.1583 -0.7734 -1.8555
 1896SOL     OW17146   0.128   2.364   4.004  0.0556 -0.7753  0.6032
 1896SOL    HW117147   0.094   2.427   3.941  1.6440 -0.7637 -0.2382
 1896SOL    HW217148   0.127   2.420   4.081 -0.3751 -0.0076  0.0366
 1897SOL     OW17149   3.881   2.020   5.507 -0.2867  0.1326 -0.5010
 1897SOL    HW117150   3.872   1.946   5.567 -2.3684  0.1231 -0.8091
 1897SOL    HW217151   3.792   2.053   5.492 -0.9785 -1.4421  0.1332
 1898SOL     OW17152   3.138   1.897   2.888  0.2072  0.2938 -0.2979
 1898SOL    HW117153   3.145   1.990   2.910 -0.3260 -0.2038  2.0012
 1898SOL    HW217154   3.114   1.905   2.796 -0.6801  1.0250 -0.0048
 1899SOL     OW17155   3.980   2.656   1.999  0.1900 -0.1969 -0.4683
 1899SOL    HW117156   3.987   2.684   2.090 -0.0325  0.1319 -0.5528
 1899SOL    HW217157   4.043   2.713   1.954  0.7648 -1.1517 -0.8770
 1900SOL     OW17158   1.396   1.798  15.635  0.6454 -0.3330 -0.0397
 1900SOL    HW117159   1.353   1.881  15.618 -0.7873 -1.1637 -0.5287
 1900SOL    HW217160   1.440   1.779  15.552 -1.3502 -1.1225 -0.9234
 1901SOL     OW17161   0.725   2.478  15.107 -0.0986  0.6258 -0.0345
 1901SOL    HW117162   0.645   2.528  15.091 -0.2753  0.5119  0.5135
 1901SOL    HW217163   0.709   2.396  15.060  0.4392  0.3501  0.2604
 1902SOL     OW17164   0.714   0.143   1.494 -0.6532 -0.6556  0.0822
 1902SOL    HW117165   0.795   0.148   1.443 -0.4587  1.7021  0.6392
 1902SOL    HW217166   0.677   0.231   1.480  0.6250 -0.5076 -2.3118
 1903SOL     OW17167   1.685   2.244   6.218 -0.1596 -0.1805 -0.2285
 1903SOL    HW117168   1.666   2.192   6.140 -0.2410  0.6788 -0.7758
 1903SOL    HW217169   1.624   2.202   6.277 -0.9247 -0.4724 -1.2249
 1904SOL     OW17170   1.426   2.085   6.630  0.7053 -0.4575 -0.3515
 1904SOL    HW117171   1.390   2.048   6.711 -1.0558  0.8313 -0.5455
 1904SOL    HW217172   1.473   2.164   6.654  0.4205 -0.3721 -0.0721
 1905SOL     OW17173   3.096   1.191   3.788 -0.2789  0.8775  0.2817
 1905SOL    HW117174   3.156   1.265   3.773 -1.0708  2.1225  3.2993
 1905SOL    HW217175   3.153   1.119   3.814 -2.7581 -1.1419  0.0406
 1906SOL     OW17176   3.644   0.055   3.767  0.4097  0.2209 -0.1576
 1906SOL    HW117177   3.717   4.720   3.745  0.5542  0.5425 -0.5166
 1906SOL    HW217178   3.592   0.004   3.829 -0.2995 -1.5498 -2.2253
 1907SOL     OW17179   1.240   3.988   3.981 -0.4346  0.6339  0.2384
 1907SOL    HW117180   1.184   3.914   3.958  3.0706 -1.1404 -2.5537
 1907SOL    HW217181   1.298   3.954   4.049  0.3490  1.7236  0.1271
 1908SOL     OW17182   2.117   3.341  11.027  0.3711  0.5401  0.0658
 1908SOL    HW117183   2.072   3.302  10.951  0.0413 -1.2940  1.1942
 1908SOL    HW217184   2.049   3.399  11.059  0.1323  1.3148 -1.8176
 1909SOL     OW17185   1.845   2.690   2.886 -0.0620  0.2607  0.1724
 1909SOL    HW117186   1.814   2.602   2.867 -0.2553  0.5642 -0.8972
 1909SOL    HW217187   1.923   2.687   2.942  0.2515  0.4012 -0.2575
 1910SOL     OW17188   3.863   3.171   2.861 -0.2208 -0.0248  0.3755
 1910SOL    HW117189   3.845   3.100   2.799 -0.2570 -0.0037  0.3623
 1910SOL    HW217190   3.777   3.212   2.863  1.0453  2.7843 -3.0451
 1911SOL     OW17191   2.533   3.348   5.416  0.1532  0.2659 -0.1760
 1911SOL    HW117192   2.562   3.271   5.366 -1.8319  0.9487 -2.3740
 1911SOL    HW217193   2.618   3.391   5.421  0.2196  0.2788 -1.3655
 1912SOL     OW17194   3.814   3.901  14.936 -0.1224 -0.4165 -0.2522
 1912SOL    HW117195   3.758   3.953  14.994  0.4793  1.1412 -1.0519
 1912SOL    HW217196   3.767   3.920  14.855 -0.8799  0.7094  0.4474
 1913SOL     OW17197   2.748   2.315   7.071 -0.8980  0.3111  0.3180
 1913SOL    HW117198   2.689   2.253   7.113 -0.3820 -0.2618  0.1845
 1913SOL    HW217199   2.814   2.327   7.139 -1.0876 -0.4286  0.6263
 1914SOL     OW17200   4.185   1.065   6.646  0.3604 -0.1160 -0.1112
 1914SOL    HW117201   4.231   1.145   6.621  2.6832 -1.6224 -0.7055
 1914SOL    HW217202   4.128   1.083   6.722  0.1849 -1.9563  0.2022
 1915SOL     OW17203   4.663   3.565  16.823 -0.5122  0.0307 -0.4068
 1915SOL    HW117204   4.674   3.654  16.856 -1.9225  0.0477 -0.0033
 1915SOL    HW217205   4.622   3.575  16.737 -1.5721  1.0793  0.2282
 1916SOL     OW17206   3.698   2.814   3.352 -0.1776 -0.1169  0.3481
 1916SOL    HW117207   3.687   2.838   3.444  1.4068  1.5481  0.1021
 1916SOL    HW217208   3.784   2.856   3.352  0.8942 -2.2726  1.8615
 1917SOL     OW17209   2.287   0.898   9.232 -0.1616  0.2051  0.2213
 1917SOL    HW117210   2.365   0.926   9.183 -1.2476  2.1333 -0.3972
 1917SOL    HW217211   2.238   0.848   9.166 -1.3553  1.0341  0.4849
 1918SOL     OW17212   4.331   1.529   3.538 -0.6090  0.9393  0.1916
 1918SOL    HW117213   4.367   1.613   3.511  1.5056  0.3372  1.1802
 1918SOL    HW217214   4.257   1.519   3.478 -1.2262  1.7947  0.7978
 1919SOL     OW17215   1.162   2.070   9.053  0.6151 -0.0485  0.6156
 1919SOL    HW117216   1.198   2.019   9.126 -0.1940 -0.7934  0.4886
 1919SOL    HW217217   1.076   2.028   9.047  1.4214 -1.4753 -0.9276
 1920SOL     OW17218   4.480   4.256   4.266  0.2050 -0.5347  0.8957
 1920SOL    HW117219   4.544   4.188   4.287  0.4091 -0.0389  1.8817
 1920SOL    HW217220   4.398   4.218   4.299  0.8478 -1.1772  1.7638
 1921SOL     OW17221   2.477   0.910   8.498 -0.0134  0.5510  0.2980
 1921SOL    HW117222   2.513   0.826   8.525 -2.0247  0.0710  1.4704
 1921SOL    HW217223   2.401   0.891   8.444  1.3099  1.0364 -1.7452
 1922SOL     OW17224   4.495   4.282  12.668  0.0529 -0.2813 -0.1664
 1922SOL    HW117225   4.492   4.224  12.744  0.8536  1.4331  1.1494
 1922SOL    HW217226   4.429   4.348  12.691  0.9023  0.7715 -0.7671
 1923SOL     OW17227   2.926   2.501  15.247  0.3314 -0.9089 -0.1267
 1923SOL    HW117228   2.953   2.421  15.201  0.8914 -0.8216  0.0563
 1923SOL    HW217229   2.833   2.478  15.253  0.2784 -1.0013 -1.3766
 1924SOL     OW17230   1.161   3.791   2.667  0.0512 -0.3059 -0.4759
 1924SOL    HW117231   1.073   3.754   2.669 -1.1381  2.5271 -0.3957
 1924SOL    HW217232   1.156   3.876   2.624  1.1585 -0.1084 -0.2271
 1925SOL     OW17233   0.991   1.650  13.124  0.7470 -0.3630  0.0209
 1925SOL    HW117234   1.018   1.658  13.033 -0.6643 -1.7065 -0.5192
 1925SOL    HW217235   0.983   1.555  13.132  4.5854 -0.7358 -0.7380
 1926SOL     OW17236   0.519   1.053   6.447 -0.2271  0.1068  0.4250
 1926SOL    HW117237   0.431   1.039   6.414 -0.5312 -1.3197  1.8186
 1926SOL    HW217238   0.495   1.113   6.518 -1.8961 -0.8402  0.6623
 1927SOL     OW17239   4.536   2.558   0.234  0.1195 -0.2613  0.6179
 1927SOL    HW117240   4.524   2.640   0.186 -0.4092  0.1716  1.4804
 1927SOL    HW217241   4.496   2.495   0.174 -2.1849  0.8032  1.0000
 1928SOL     OW17242   3.247   4.092  11.260 -0.4100 -0.6108  0.1539
 1928SOL    HW117243   3.217   4.043  11.184 -1.6049  2.9904 -1.7106
 1928SOL    HW217244   3.227   4.181  11.230  0.6624  0.5954  3.0173
 1929SOL     OW17245   3.605   2.465   4.752  0.0503 -0.1878  1.0010
 1929SOL    HW117246   3.630   2.402   4.685  4.3138  2.8512 -0.2656
 1929SOL    HW217247   3.636   2.419   4.831 -0.2036  2.1796  2.4742
 1930SOL     OW17248   3.091   1.361   4.587 -0.2683  0.9381  0.1218
 1930SOL    HW117249   3.008   1.352   4.541  1.3630 -1.3511 -2.4294
 1930SOL    HW217250   3.092   1.453   4.614 -0.0098  0.5632  1.3612
 1931SOL     OW17251   0.824   3.876   9.859  0.0320 -0.1619  0.5540
 1931SOL    HW117252   0.757   3.837   9.915  0.3428 -2.7019 -0.8726
 1931SOL    HW217253   0.792   3.964   9.839 -1.9178 -1.3136 -1.3484
 1932SOL     OW17254   3.221   2.628  14.526  0.0569 -0.0892  0.2567
 1932SOL    HW117255   3.189   2.542  14.497  1.3065 -1.0015  1.5925
 1932SOL    HW217256   3.134   2.666  14.520  0.2141  0.5564  1.9628
 1933SOL     OW17257   3.818   0.019   7.246 -0.1519  1.0345  0.2908
 1933SOL    HW117258   3.744   4.683   7.259  0.8202 -0.4313 -0.6355
 1933SOL    HW217259   3.861   4.710   7.166 -1.3464  1.9260 -0.6970
 1934SOL     OW17260   2.064   4.523   8.729 -0.4853 -0.3742  0.0125
 1934SOL    HW117261   2.013   4.581   8.673 -1.1384 -1.3526 -0.4163
 1934SOL    HW217262   2.080   4.580   8.804 -2.2078  0.0977  0.0321
 1935SOL     OW17263   2.378   3.751   6.489  0.2662  0.5086 -0.1263
 1935SOL    HW117264   2.346   3.733   6.577 -0.3920  0.3361 -0.3979
 1935SOL    HW217265   2.416   3.838   6.502  0.8484  0.4407 -1.3579
 1936SOL     OW17266   1.453   2.383   4.874 -0.0498 -0.1199 -0.0662
 1936SOL    HW117267   1.536   2.369   4.828 -0.7805 -2.0759 -0.8030
 1936SOL    HW217268   1.451   2.477   4.888  3.8179 -0.1720  0.8213
 1937SOL     OW17269   4.539   1.668   7.475 -0.1450  0.4139  0.0315
 1937SOL    HW117270   4.444   1.672   7.474 -0.1607 -0.0139 -0.1999
 1937SOL    HW217271   4.558   1.575   7.471  0.1307  0.5973 -3.6445
 1938SOL     OW17272   0.471   3.959   7.387  0.0150 -0.1775 -0.3806
 1938SOL    HW117273   0.507   4.046   7.405  1.0289 -0.8740  0.9528
 1938SOL    HW217274   0.465   3.919   7.474 -0.7050 -0.2167 -0.4432
 1939SOL     OW17275   0.018   0.782   3.227  0.2185 -0.1273  1.0341
 1939SOL    HW117276   4.719   0.843   3.298  1.3358  1.2387  0.2036
 1939SOL    HW217277   0.036   0.851   3.164  0.5792 -1.1134  0.0656
 1940SOL     OW17278   4.712   3.599   1.820  0.3495  0.2648 -0.1527
 1940SOL    HW117279   0.008   3.626   1.730  1.1279 -2.6771 -0.8747
 1940SOL    HW217280   0.018   3.674   1.872 -2.0101  2.2484 -1.7198
 1941SOL     OW17281   0.276   4.057   4.643 -0.2027 -0.2321  0.3789
 1941SOL    HW117282   0.251   4.016   4.560 -1.2011  0.9267  0.0999
 1941SOL    HW217283   0.192   4.101   4.661 -0.1070 -0.5070  1.5190
 1942SOL     OW17284   4.372   3.752   3.477  0.0272 -0.0958  0.2363
 1942SOL    HW117285   4.404   3.811   3.545  0.0149 -0.5519  0.6295
 1942SOL    HW217286   4.282   3.786   3.475 -0.3445 -1.1191 -0.2417
 1943SOL     OW17287   3.800   4.127   2.956 -0.4349 -0.1085 -0.6872
 1943SOL    HW117288   3.743   4.137   3.033  1.2121 -0.9191  0.6387
 1943SOL    HW217289   3.738   4.133   2.884 -1.5581  1.1759  0.3680
 1944SOL     OW17290   4.191   0.480   5.065  0.4224 -0.2060 -0.2928
 1944SOL    HW117291   4.245   0.415   5.020  1.2814  1.1799 -1.2751
 1944SOL    HW217292   4.144   0.426   5.128  0.0922 -0.4909 -0.7809
 1945SOL     OW17293   0.517   1.769  17.254 -0.0821 -0.4109 -1.0717
 1945SOL    HW117294   0.523   1.679  17.222  2.9160 -0.8038  0.5479
 1945SOL    HW217295   0.554   1.750  17.340  0.3436 -0.3183 -1.2352
 1946SOL     OW17296   2.888   3.097   2.884  0.1443  0.3540 -0.2472
 1946SOL    HW117297   2.845   3.064   2.806  0.1615 -0.4170  0.0683
 1946SOL    HW217298   2.859   3.188   2.893  0.1429  0.0891  2.4023
 1947SOL     OW17299   4.124   4.041   4.124  0.1567  0.3161  0.0348
 1947SOL    HW117300   4.125   4.118   4.067 -1.3948 -0.0079 -0.4467
 1947SOL    HW217301   4.178   3.973   4.082 -0.4241  0.0859 -0.3388
 1948SOL     OW17302   1.770   4.096   7.197 -0.0106  0.3372 -0.2626
 1948SOL    HW117303   1.748   4.110   7.105  2.2975  0.9401 -0.7080
 1948SOL    HW217304   1.742   4.006   7.213  0.8259  0.1163 -0.0565
 1949SOL     OW17305   1.840   1.343   7.898 -0.1708  0.3323 -0.4822
 1949SOL    HW117306   1.747   1.345   7.874  0.4105  0.8766 -2.6879
 1949SOL    HW217307   1.884   1.381   7.823  1.2868  0.2684  0.3431
 1950SOL     OW17308   2.577   4.477   4.399  0.0015  0.1110 -0.2853
 1950SOL    HW117309   2.502   4.470   4.458  0.6265 -0.0471  0.4955
 1950SOL    HW217310   2.547   4.516   4.317 -0.6065  0.9718  0.3532
 1951SOL     OW17311   0.500   4.281   9.950  0.0512  0.2370 -0.3172
 1951SOL    HW117312   0.435   4.215   9.929 -1.3298  1.2228  0.8729
 1951SOL    HW217313   0.474   4.355   9.895 -0.1123  0.1158 -0.4009
 1952SOL     OW17314   3.198   0.610   3.239 -0.3162  0.0570  0.0025
 1952SOL    HW117315   3.207   0.533   3.182 -0.0210 -0.6995  1.0696
 1952SOL    HW217316   3.269   0.584   3.297 -1.7186 -0.9982  1.2714
 1953SOL     OW17317   0.261   3.906   8.008  0.3677  0.2547 -0.6944
 1953SOL    HW117318   0.206   3.828   8.011 -0.7215  1.1176  1.7105
 1953SOL    HW217319   0.281   3.919   8.101 -0.2466 -1.6620 -0.2833
 1954SOL     OW17320   2.492   3.237  15.179  0.0235  0.2787  0.1884
 1954SOL    HW117321   2.566   3.269  15.231  0.7760 -0.4186 -0.4538
 1954SOL    HW217322   2.440   3.217  15.256 -0.9406  0.1942 -0.4817
 1955SOL     OW17323   2.622   2.861   4.608  0.2575 -0.2687 -0.3379
 1955SOL    HW117324   2.571   2.897   4.535 -1.3965 -0.1539  0.8533
 1955SOL    HW217325   2.610   2.936   4.667  0.9893  0.8638 -1.6530
 1956SOL     OW17326   2.298   1.458   7.963  0.5326 -0.0707  0.5116
 1956SOL    HW117327   2.310   1.552   7.959 -1.2706  0.0610 -1.6796
 1956SOL    HW217328   2.206   1.445   7.989  0.3477  0.9055  0.3298
 1957SOL     OW17329   0.196   0.021   7.646 -0.5091  0.1826 -0.0128
 1957SOL    HW117330   0.277   4.694   7.653 -0.6645  0.0540  0.8020
 1957SOL    HW217331   0.132   4.678   7.620 -0.4664 -0.6456  2.0774
 1958SOL     OW17332   2.705   4.684   2.541  0.0215 -0.0693  0.0767
 1958SOL    HW117333   2.768   0.012   2.490 -1.8059 -0.1448 -2.2737
 1958SOL    HW217334   2.749   4.600   2.529 -1.0167 -0.5302 -0.5423
 1959SOL     OW17335   3.723   0.288  14.851 -0.2576  0.2590 -0.5385
 1959SOL    HW117336   3.710   0.195  14.837 -0.9541  0.4728 -1.2773
 1959SOL    HW217337   3.795   0.290  14.914  0.0201  0.4711 -0.8622
 1960SOL     OW17338   3.340   2.803   0.899 -0.0582 -0.2422  0.4847
 1960SOL    HW117339   3.319   2.871   0.962 -1.7057 -1.5308  1.3321
 1960SOL    HW217340   3.403   2.756   0.953 -1.1014 -1.9627  0.2120
 1961SOL     OW17341   3.323   3.215   7.224  0.0441 -0.5169 -0.3468
 1961SOL    HW117342   3.263   3.290   7.224  0.8269  0.1002 -0.2450
 1961SOL    HW217343   3.333   3.181   7.313  0.9746  0.2124 -0.1760
 1962SOL     OW17344   1.766   0.658   0.230 -0.1392 -0.4532  0.3973
 1962SOL    HW117345   1.687   0.618   0.264  0.2150 -0.2558  1.4607
 1962SOL    HW217346   1.818   0.658   0.311 -0.0929 -2.2847  0.3694
 1963SOL     OW17347   1.597   2.610   6.875  0.7686 -0.3364 -0.5309
 1963SOL    HW117348   1.639   2.673   6.934 -0.1588  0.9824 -1.2785
 1963SOL    HW217349   1.551   2.666   6.812  0.3515  0.7472  0.7334
 1964SOL     OW17350   2.392   3.043   2.519 -0.4451 -0.0957  0.6664
 1964SOL    HW117351   2.357   3.129   2.544 -0.9643 -0.0719 -0.1575
 1964SOL    HW217352   2.310   2.998   2.535  0.0216 -1.2353 -0.2180
 1965SOL     OW17353   1.610   2.965  11.317  0.5551  0.0124 -0.1369
 1965SOL    HW117354   1.523   2.975  11.355 -1.2913 -3.1503 -3.4987
 1965SOL    HW217355   1.656   2.926  11.392 -0.3619 -0.6833  0.0614
 1966SOL     OW17356   0.006   0.222  12.685 -0.7912 -0.3523 -0.2111
 1966SOL    HW117357   0.026   0.315  12.692 -0.0946 -0.4898 -0.3665
 1966SOL    HW217358   4.676   0.211  12.764  2.0109 -0.9553  1.5817
 1967SOL     OW17359   2.307   1.418   3.789 -0.4204 -0.2490 -0.6621
 1967SOL    HW117360   2.234   1.468   3.752  1.6992  3.0724 -0.3898
 1967SOL    HW217361   2.302   1.337   3.738 -1.4391  0.7921 -2.2330
 1968SOL     OW17362   3.590   0.444   8.524  0.3710 -0.2229 -0.7191
 1968SOL    HW117363   3.671   0.481   8.559 -0.7759  1.9628 -0.3609
 1968SOL    HW217364   3.600   0.350   8.534  0.3986  0.1142  2.3613
 1969SOL     OW17365   3.371   3.332   2.317  0.5453  0.7121  0.5605
 1969SOL    HW117366   3.380   3.313   2.411  0.8014  0.0785  0.4120
 1969SOL    HW217367   3.410   3.250   2.286  2.6938  1.9146  0.0801
 1970SOL     OW17368   1.024   3.985   4.425  0.3165  0.1486  0.6217
 1970SOL    HW117369   0.994   3.960   4.512  0.8852  0.7467  0.9911
 1970SOL    HW217370   1.059   3.898   4.407 -2.0788 -1.0005  1.4796
 1971SOL     OW17371   1.800   0.181   3.833  0.2989  0.0116 -0.1901
 1971SOL    HW117372   1.833   0.217   3.915 -0.3228  0.6670 -0.2291
 1971SOL    HW217373   1.790   0.260   3.782 -0.2147  0.0441 -0.0406
 1972SOL     OW17374   3.670   1.143   5.812  0.0899 -0.4999  0.2132
 1972SOL    HW117375   3.617   1.171   5.887  0.8602  2.7954 -0.4364
 1972SOL    HW217376   3.611   1.169   5.741  0.2532 -0.5790  0.0493
 1973SOL     OW17377   0.326   1.019  14.450 -0.2912 -0.4835 -0.4199
 1973SOL    HW117378   0.369   0.934  14.446  1.8644  0.5566  0.4731
 1973SOL    HW217379   0.400   1.071  14.483 -0.7438 -1.6221  2.4173
 1974SOL     OW17380   3.089   0.627   9.418  0.3612  0.0784 -0.1757
 1974SOL    HW117381   3.050   0.714   9.407 -1.6418 -1.0743 -2.4125
 1974SOL    HW217382   3.172   0.645   9.462 -0.8196  1.7592  1.3720
 1975SOL     OW17383   1.150   0.449   4.627 -0.2671  0.1573 -0.4500
 1975SOL    HW117384   1.122   0.384   4.562  0.4221  0.1909 -0.7905
 1975SOL    HW217385   1.088   0.520   4.613  0.7371  1.0661 -0.2973
 1976SOL     OW17386   1.352   1.036   6.334  0.5533 -0.3301 -0.0039
 1976SOL    HW117387   1.444   1.048   6.360  0.1383  0.9047  0.8650
 1976SOL    HW217388   1.321   1.017   6.423  0.6295  0.1281  0.1177
 1977SOL     OW17389   1.823   2.252  16.702 -0.0015 -0.1446 -0.1372
 1977SOL    HW117390   1.887   2.307  16.657 -1.6446  2.9161  1.2976
 1977SOL    HW217391   1.754   2.247  16.635 -0.4678  1.6227  0.2032
 1978SOL     OW17392   3.548   4.576   9.561 -0.1165  0.0079  0.1305
 1978SOL    HW117393   3.469   4.586   9.509  0.2097 -0.5597 -0.4762
 1978SOL    HW217394   3.552   4.670   9.578  0.1914  0.4803 -2.6192
 1979SOL     OW17395   1.131   3.213   8.386 -0.0012 -0.3341 -0.3903
 1979SOL    HW117396   1.171   3.288   8.429 -2.3378  0.1199  0.9774
 1979SOL    HW217397   1.143   3.229   8.292  1.6361 -0.3325 -0.1869
 1980SOL     OW17398   2.313   4.363   7.350  0.2378 -0.1830  0.4667
 1980SOL    HW117399   2.276   4.335   7.266 -0.2842 -2.6247  1.5227
 1980SOL    HW217400   2.258   4.441   7.363  1.9391  1.2192 -0.8427
 1981SOL     OW17401   0.142   0.471  15.877  0.0636 -0.0090  0.1881
 1981SOL    HW117402   0.140   0.427  15.962  1.5012 -0.5356 -0.0476
 1981SOL    HW217403   0.195   0.542  15.914 -2.2383  0.8765  1.7742
 1982SOL     OW17404   4.082   4.555   7.590  0.7785  0.8190  0.3428
 1982SOL    HW117405   4.069   4.463   7.610  1.8970  1.2287  2.9146
 1982SOL    HW217406   3.990   4.582   7.587 -0.5628 -3.6757  0.8547
 1983SOL     OW17407   0.387   2.445  15.185 -0.6714 -0.0254  0.2272
 1983SOL    HW117408   0.411   2.493  15.264  3.3738 -0.9442 -0.4327
 1983SOL    HW217409   0.307   2.398  15.209  0.0935 -1.1119  0.6465
 1984SOL     OW17410   0.166   2.306   6.169  0.3342 -0.0603  0.0928
 1984SOL    HW117411   0.170   2.384   6.114 -2.0724  0.8678  1.2384
 1984SOL    HW217412   0.254   2.306   6.208 -0.4536  1.4840  1.8319
 1985SOL     OW17413   3.970   3.077   1.885 -0.4338  0.1061 -0.1146
 1985SOL    HW117414   3.923   3.053   1.964  0.1508 -1.3471 -0.2128
 1985SOL    HW217415   3.977   3.168   1.915 -1.1554 -0.5334  1.9916
 1986SOL     OW17416   1.117   3.251   5.832 -0.3816  1.0528  0.3102
 1986SOL    HW117417   1.141   3.344   5.830  0.5704  0.7883 -0.2915
 1986SOL    HW217418   1.054   3.242   5.761 -0.2349  0.2178  0.2870
 1987SOL     OW17419   1.632   4.174   4.604  0.3775  0.0736 -0.1706
 1987SOL    HW117420   1.561   4.184   4.667  1.0605 -2.8699  1.1036
 1987SOL    HW217421   1.576   4.206   4.534  1.7680 -0.3105 -1.4526
 1988SOL     OW17422   1.776   0.051   2.129 -0.2136 -0.2691 -0.3510
 1988SOL    HW117423   1.829   0.129   2.147 -1.3094  0.7002 -1.3303
 1988SOL    HW217424   1.806   4.708   2.192  0.0830  0.5384  0.3518
 1989SOL     OW17425   0.822   0.530   1.107 -0.5861  0.0624  0.5827
 1989SOL    HW117426   0.747   0.578   1.142 -2.5580 -2.0072 -0.8196
 1989SOL    HW217427   0.897   0.583   1.137 -1.2874  1.4917 -0.1820
 1990SOL     OW17428   3.846   4.111  13.051 -0.0429 -0.0617  0.0523
 1990SOL    HW117429   3.808   4.120  12.963 -3.0490 -0.9609  1.2837
 1990SOL    HW217430   3.813   4.182  13.104  2.0461  1.7516 -1.0835
 1991SOL     OW17431   3.719   3.192   6.797 -0.6866  0.8675  0.7748
 1991SOL    HW117432   3.704   3.153   6.711  0.4129 -0.4002  1.1623
 1991SOL    HW217433   3.653   3.261   6.809  1.1444  2.4750  1.6334
 1992SOL     OW17434   1.331   4.684   4.688  0.7529 -0.5480  0.2060
 1992SOL    HW117435   1.272   4.654   4.758 -0.2068  3.1064  0.9867
 1992SOL    HW217436   1.305   4.628   4.615  1.2281 -1.9261  1.0937
 1993SOL     OW17437   3.517   0.551  15.124  0.2709  0.2564  0.6381
 1993SOL    HW117438   3.461   0.474  15.114 -0.0087  0.2903  1.9446
 1993SOL    HW217439   3.476   0.625  15.080 -0.7103 -0.9818 -0.5131
 1994SOL     OW17440   4.161   1.843   9.012  0.2834  0.5454  0.4132
 1994SOL    HW117441   4.137   1.752   8.997  1.9571 -0.4943  4.0047
 1994SOL    HW217442   4.122   1.885   8.936 -0.9813 -1.6977 -0.1710
 1995SOL     OW17443   1.273   0.239  17.431  0.2514  0.1238  0.0904
 1995SOL    HW117444   1.337   0.297  17.390  1.8562 -2.7420 -1.4730
 1995SOL    HW217445   1.274   0.161  17.375  0.0294 -0.6021  1.0976
 1996SOL     OW17446   0.285   2.542   5.159 -0.1431 -0.0632 -0.7663
 1996SOL    HW117447   0.330   2.625   5.175 -1.2148  0.0492  1.5572
 1996SOL    HW217448   0.271   2.506   5.246  1.8011 -0.2043 -0.5099
 1997SOL     OW17449   4.516   0.671  15.977  0.0968 -0.2691  0.1628
 1997SOL    HW117450   4.521   0.622  15.895 -1.0590 -0.4104  0.1793
 1997SOL    HW217451   4.450   0.738  15.962  1.8547  1.4594  0.1656
 1998SOL     OW17452   2.129   0.143   5.495 -0.4868  0.2442 -0.4020
 1998SOL    HW117453   2.173   0.227   5.483 -1.3347  0.6634 -0.5645
 1998SOL    HW217454   2.087   0.155   5.410  0.8535  1.3513 -0.8995
 1999SOL     OW17455   0.735   3.832   7.810  0.6793 -0.0831  0.5082
 1999SOL    HW117456   0.670   3.848   7.878 -2.3968 -0.3878 -2.3372
 1999SOL    HW217457   0.818   3.852   7.852  0.6750  0.9505  0.0316
 2000SOL     OW17458   1.279   0.866  11.084 -0.1008 -0.5079  0.0597
 2000SOL    HW117459   1.214   0.891  11.019 -1.8401 -1.7300  1.3187
 2000SOL    HW217460   1.219   0.838  11.153 -0.3558 -0.6669 -0.2272
 2001SOL     OW17461   2.946   3.855  10.369 -0.1008  0.8492  0.2085
 2001SOL    HW117462   2.897   3.936  10.386 -1.5125  0.0259  0.0475
 2001SOL    HW217463   2.916   3.844  10.279  0.8537 -3.3879  0.4215
 2002SOL     OW17464   2.576   2.762   0.606  0.2622 -0.4373  0.4513
 2002SOL    HW117465   2.636   2.832   0.582 -1.0788  0.2335 -0.9961
 2002SOL    HW217466   2.563   2.725   0.518 -0.5812  0.5624  0.1583
 2003SOL     OW17467   3.750   2.169   5.177 -0.0380 -0.0577 -0.4195
 2003SOL    HW117468   3.706   2.149   5.260 -1.4240 -0.9435 -1.3555
 2003SOL    HW217469   3.839   2.166   5.212 -0.8173  0.9759  1.6231
 2004SOL     OW17470   4.355   3.927   5.189  0.8274 -0.1138  0.2907
 2004SOL    HW117471   4.354   3.996   5.123 -2.1384 -1.7630 -1.3590
 2004SOL    HW217472   4.272   3.879   5.191  0.1429  1.1019  0.8266
 2005SOL     OW17473   3.577   2.725   7.587  0.1688 -1.1202  0.1374
 2005SOL    HW117474   3.654   2.673   7.607  0.6816 -0.2512  0.4133
 2005SOL    HW217475   3.603   2.790   7.521  1.2070 -0.7908  0.8752
 2006SOL     OW17476   1.748   2.403   8.150  0.1638 -0.0184  0.0703
 2006SOL    HW117477   1.832   2.388   8.107 -1.0744 -1.6386 -1.7904
 2006SOL    HW217478   1.716   2.313   8.163 -1.9686  0.5822 -0.9224
 2007SOL     OW17479   1.679   1.383   8.906  0.2461 -0.2602  0.5708
 2007SOL    HW117480   1.662   1.458   8.849 -1.8060  0.8687  2.6740
 2007SOL    HW217481   1.592   1.344   8.897 -1.6996  3.6599  2.4396
 2008SOL     OW17482   4.558   0.228   6.753  0.5107  0.4155 -0.1593
 2008SOL    HW117483   4.528   0.292   6.817  1.4016  1.2503 -0.5626
 2008SOL    HW217484   4.587   0.154   6.807 -0.0592 -0.0206 -0.4543
 2009SOL     OW17485   2.876   1.490  12.057  0.3788  0.1041  0.0017
 2009SOL    HW117486   2.782   1.470  12.062  0.4203  0.2821  1.4852
 2009SOL    HW217487   2.891   1.470  12.150  1.4788  2.1434  0.2628
 2010SOL     OW17488   4.127   4.092   3.760 -0.1005 -0.0743 -0.0421
 2010SOL    HW117489   4.159   4.160   3.818  0.6183  2.0705 -2.9414
 2010SOL    HW217490   4.064   4.147   3.714 -1.7798 -2.8084 -1.0324
 2011SOL     OW17491   2.539   3.073  14.953  0.1048  0.5799  0.1366
 2011SOL    HW117492   2.629   3.086  14.983 -0.6071  2.6206  1.4471
 2011SOL    HW217493   2.492   3.116  15.025  0.2523 -0.1713  0.6843
 2012SOL     OW17494   4.228   1.294   4.861 -0.6902 -0.4407 -0.0417
 2012SOL    HW117495   4.190   1.275   4.946  2.1336 -1.3227  1.0078
 2012SOL    HW217496   4.193   1.382   4.846  2.0246  0.3112 -1.8923
 2013SOL     OW17497   1.405   4.214   6.569  0.0608 -0.1597  0.1231
 2013SOL    HW117498   1.364   4.266   6.499  0.8077  0.5149  0.1930
 2013SOL    HW217499   1.497   4.211   6.543 -0.1499  0.0899 -0.6486
 2014SOL     OW17500   4.460   1.041   2.523  0.2732  0.1443 -0.1172
 2014SOL    HW117501   4.538   1.070   2.476 -0.2190 -1.6638 -2.0503
 2014SOL    HW217502   4.430   0.979   2.456  1.8481 -1.7933  0.9484
 2015SOL     OW17503   2.186   0.615  14.921  0.0060 -0.1438  0.4837
 2015SOL    HW117504   2.241   0.689  14.896 -1.1361 -0.0641 -1.8440
 2015SOL    HW217505   2.252   0.563  14.966  0.2339  1.5347  2.1185
 2016SOL     OW17506   0.079   0.919   7.452  0.2778  0.0696 -0.9921
 2016SOL    HW117507   0.135   0.865   7.509 -0.7024  2.1179  1.9068
 2016SOL    HW217508   0.117   1.006   7.459 -0.1579  0.3782 -2.5202
 2017SOL     OW17509   1.361   0.137   3.868 -0.5325 -0.0642  0.6328
 2017SOL    HW117510   1.283   0.086   3.887 -1.0201  0.2025 -0.5968
 2017SOL    HW217511   1.354   0.151   3.773  0.9569  0.0606  0.5309
 2018SOL     OW17512   0.868   3.171   6.454  0.0874 -0.3915 -0.1151
 2018SOL    HW117513   0.782   3.202   6.425  0.9772  1.7568 -0.4483
 2018SOL    HW217514   0.918   3.188   6.374 -0.6367 -1.1074 -0.7186
 2019SOL     OW17515   4.033   1.924   7.460 -0.0693 -0.4717 -0.0557
 2019SOL    HW117516   4.003   1.841   7.423 -0.0996  1.2176 -3.7708
 2019SOL    HW217517   4.033   1.980   7.382 -2.1752  0.0348  0.3032
 2020SOL     OW17518   4.624   0.475   3.000  0.1259  0.1819 -0.4765
 2020SOL    HW117519   4.704   0.504   3.044 -0.2627  1.1852 -0.4312
 2020SOL    HW217520   4.632   0.509   2.911  0.2594  0.3299 -0.4077
 2021SOL     OW17521   2.246   4.024   2.323  0.5919 -0.3681 -0.7100
 2021SOL    HW117522   2.164   4.021   2.272  1.5682  0.0323 -2.2994
 2021SOL    HW217523   2.237   3.946   2.378 -2.3319  1.4179  1.3483
 2022SOL     OW17524   3.328   2.341  13.121 -0.2363  0.4649  0.1899
 2022SOL    HW117525   3.321   2.393  13.200  0.6064 -1.1412  1.3225
 2022SOL    HW217526   3.245   2.296  13.132  0.2768 -0.5890 -0.2081
 2023SOL     OW17527   0.255   0.667  16.301  0.2053 -0.1323  0.2991
 2023SOL    HW117528   0.208   0.594  16.261  2.0576 -0.5670 -1.0771
 2023SOL    HW217529   0.215   0.746  16.263  1.0380  1.9265  3.7204
 2024SOL     OW17530   2.112   0.786  13.602  0.0677  0.2352 -0.2251
 2024SOL    HW117531   2.051   0.856  13.624  0.8874  1.8758 -3.3195
 2024SOL    HW217532   2.192   0.832  13.627  1.0552 -1.9099  0.6425
 2025SOL     OW17533   3.060   3.524   2.090 -0.0718 -0.0095  0.1614
 2025SOL    HW117534   3.144   3.567   2.076 -0.5595  0.7918 -0.3385
 2025SOL    HW217535   3.013   3.552   2.011 -0.6870 -1.8531 -0.1422
 2026SOL     OW17536   0.404   1.183   1.915 -0.1224 -0.2988 -0.2358
 2026SOL    HW117537   0.406   1.147   2.004 -0.0960 -0.0928 -0.1524
 2026SOL    HW217538   0.313   1.168   1.890 -0.3336 -0.1437  0.4256
 2027SOL     OW17539   0.168   0.925  16.132  0.2132 -0.2808  0.3835
 2027SOL    HW117540   0.118   0.917  16.213 -0.2031  1.6331  0.3013
 2027SOL    HW217541   0.100   0.953  16.071  2.0209  0.3666 -1.3073
 2028SOL     OW17542   0.082   2.965  14.174  0.4402  0.1593  0.3681
 2028SOL    HW117543   0.075   2.906  14.099 -0.5871  0.3018  0.3525
 2028SOL    HW217544   0.155   3.024  14.155  0.3586 -0.1340 -0.8668
 2029SOL     OW17545   4.432   2.499   4.958 -0.3637  0.1278  0.3997
 2029SOL    HW117546   4.450   2.460   5.044  0.7591  0.5709  0.3718
 2029SOL    HW217547   4.521   2.522   4.931  0.8332 -4.2942  0.6617
 2030SOL     OW17548   0.696   1.728   4.166  0.0206  0.2046 -0.5796
 2030SOL    HW117549   0.699   1.657   4.102  1.0264  2.2128 -2.7600
 2030SOL    HW217550   0.625   1.780   4.127 -1.6943 -0.6030  1.4112
 2031SOL     OW17551   1.020   0.701  14.880 -0.2538 -0.1135 -0.6203
 2031SOL    HW117552   0.959   0.772  14.898  1.5050  0.9333  1.2614
 2031SOL    HW217553   0.959   0.631  14.857 -1.3711  0.7923 -0.4217
 2032SOL     OW17554   3.640   4.161   7.901  0.3273 -0.1977 -0.2103
 2032SOL    HW117555   3.608   4.119   7.982 -1.1452  1.1986 -0.0694
 2032SOL    HW217556   3.734   4.151   7.912  0.4351 -0.7121 -1.6273
 2033SOL     OW17557   3.524   0.049   8.933 -0.1477 -0.6036 -0.4010
 2033SOL    HW117558   3.538   0.013   9.021  2.7531  1.1817 -0.1160
 2033SOL    HW217559   3.565   0.136   8.935 -0.1138 -0.6332  0.5341
 2034SOL     OW17560   4.286   4.605  15.025  0.5712  0.1230 -0.2702
 2034SOL    HW117561   4.293   4.699  15.038  0.9789  0.3001 -1.7396
 2034SOL    HW217562   4.378   4.580  15.013  0.4931  0.2543 -1.1571
 2035SOL     OW17563   3.202   0.440  11.855 -0.0701 -0.3189 -0.9622
 2035SOL    HW117564   3.171   0.370  11.914  0.0774 -1.6366 -2.4374
 2035SOL    HW217565   3.212   0.505  11.924  1.9924  0.0548 -1.6137
 2036SOL     OW17566   1.355   3.141   5.551 -0.7926  0.3472 -0.1021
 2036SOL    HW117567   1.433   3.097   5.587 -0.4383  0.2015 -1.0617
 2036SOL    HW217568   1.385   3.232   5.559 -1.7261  0.6375  0.0857
 2037SOL     OW17569   1.982   0.901   1.585 -0.5014  0.2842 -0.2992
 2037SOL    HW117570   1.936   0.817   1.582  1.5431 -0.7688 -1.8432
 2037SOL    HW217571   1.936   0.943   1.658 -0.3039  0.2412 -0.1525
 2038SOL     OW17572   4.545   2.989   1.826 -0.6152 -0.7415  0.5796
 2038SOL    HW117573   4.602   2.994   1.903 -0.4603 -0.7410  0.4639
 2038SOL    HW217574   4.524   3.080   1.804 -1.9188 -0.7477  1.8141
 2039SOL     OW17575   0.274   1.222   0.722  0.6145  0.1695  0.2091
 2039SOL    HW117576   0.211   1.284   0.686 -0.1827 -0.9435 -0.3299
 2039SOL    HW217577   0.226   1.139   0.712 -2.3509  1.8691  0.4026
 2040SOL     OW17578   3.994   2.265   3.666 -0.4750 -0.1307  0.6001
 2040SOL    HW117579   4.040   2.306   3.739 -1.0141 -0.3772  1.0744
 2040SOL    HW217580   3.926   2.332   3.656  0.2127  0.4506 -0.1374
 2041SOL     OW17581   1.091   2.761   5.561 -0.2810  0.4373 -1.0442
 2041SOL    HW117582   1.086   2.856   5.551 -1.8452  0.3418 -1.1298
 2041SOL    HW217583   1.050   2.737   5.644  1.6533  2.2159  0.4430
 2042SOL     OW17584   4.470   1.876  17.312 -0.3380  0.1349 -0.1851
 2042SOL    HW117585   4.545   1.930  17.287  0.0297 -1.7175 -3.0741
 2042SOL    HW217586   4.398   1.925  17.272 -1.7113 -2.6214 -1.1139
 2043SOL     OW17587   2.394   1.372   1.989 -0.1334  0.0895 -0.0596
 2043SOL    HW117588   2.392   1.413   2.076  0.1139  0.4936 -0.2453
 2043SOL    HW217589   2.485   1.394   1.968 -0.1606  0.0019 -0.2611
 2044SOL     OW17590   0.742   3.310   2.260  0.0373  0.1546  0.0486
 2044SOL    HW117591   0.790   3.380   2.216  0.3448  0.0304  0.1872
 2044SOL    HW217592   0.766   3.235   2.205  0.4062  1.1841 -1.2060
 2045SOL     OW17593   4.136   0.379   2.706 -0.9346  0.2166  0.4466
 2045SOL    HW117594   4.232   0.382   2.703 -0.8656 -1.2005  0.9591
 2045SOL    HW217595   4.111   0.442   2.639 -0.7202 -0.8311 -0.6108
 2046SOL     OW17596   0.195   3.383   7.068 -0.1836 -0.2225  0.6420
 2046SOL    HW117597   0.152   3.309   7.026 -0.1098 -0.2616  0.6364
 2046SOL    HW217598   0.144   3.387   7.149  1.1864  0.1581  1.4795
 2047SOL     OW17599   3.140   4.275   1.337  0.0362  0.4234  0.2038
 2047SOL    HW117600   3.081   4.231   1.398  0.7616  0.6164  1.0277
 2047SOL    HW217601   3.065   4.280   1.277  0.9368 -0.1039 -0.9504
 2048SOL     OW17602   3.717   1.181   2.367  0.3105 -0.5206  0.3638
 2048SOL    HW117603   3.625   1.198   2.387  0.4291  0.1329  0.3358
 2048SOL    HW217604   3.716   1.216   2.278 -0.9768  1.2595  1.0699
 2049SOL     OW17605   2.529   0.964   3.556  0.3169 -0.0562  0.3751
 2049SOL    HW117606   2.606   1.009   3.591  1.1035 -1.7315  0.7730
 2049SOL    HW217607   2.484   0.927   3.633  0.2396 -0.5561  0.0883
 2050SOL     OW17608   3.241   4.585   7.405  0.2369 -0.0413  0.1234
 2050SOL    HW117609   3.178   4.584   7.477 -1.1309  0.1524 -1.0857
 2050SOL    HW217610   3.282   4.498   7.412 -0.7389 -0.4168  1.2712
 2051SOL     OW17611   0.470   3.358   7.509 -0.2928 -0.3183 -0.3915
 2051SOL    HW117612   0.482   3.452   7.523 -0.6738  0.1300 -3.1711
 2051SOL    HW217613   0.429   3.339   7.594  0.6160 -0.9300 -0.0970
 2052SOL     OW17614   1.567   0.986   2.650 -0.4008 -0.7450  0.4257
 2052SOL    HW117615   1.563   0.891   2.637 -1.3477 -0.6103 -0.2846
 2052SOL    HW217616   1.494   1.006   2.591  1.5343  1.5894 -1.1909
 2053SOL     OW17617   2.412   2.310  14.257 -0.6816  0.8553 -0.3733
 2053SOL    HW117618   2.472   2.295  14.330  0.7951 -1.6647 -2.0791
 2053SOL    HW217619   2.464   2.370  14.204  0.3894 -1.7531 -2.2674
 2054SOL     OW17620   3.406   2.114   5.914 -0.0172 -0.2404  0.1910
 2054SOL    HW117621   3.380   2.204   5.935 -0.3182 -0.4560  0.7220
 2054SOL    HW217622   3.425   2.085   6.003  0.9891 -0.3054 -0.0400
 2055SOL     OW17623   3.969   3.978   9.662  0.7380 -0.4263  0.0916
 2055SOL    HW117624   4.015   3.965   9.579  1.3826  0.8523  0.2423
 2055SOL    HW217625   3.968   3.890   9.699 -0.8068 -0.1489  0.7093
 2056SOL     OW17626   0.500   1.754   4.693 -0.1218 -0.7452  0.3896
 2056SOL    HW117627   0.475   1.669   4.727  1.0275 -1.0396  0.5037
 2056SOL    HW217628   0.499   1.743   4.598  0.4409  3.0164 -0.0476
 2057SOL     OW17629   1.980   1.561  13.299 -0.1586 -0.0106 -0.1180
 2057SOL    HW117630   1.885   1.570  13.289  0.0239  0.0037 -2.0008
 2057SOL    HW217631   1.994   1.469  13.321 -1.1811 -0.0383  0.4257
 2058SOL     OW17632   1.025   1.435  15.082  0.1439 -0.1154 -0.7193
 2058SOL    HW117633   1.105   1.469  15.122 -0.1988  1.5101 -1.4214
 2058SOL    HW217634   1.055   1.423  14.993  2.7652 -2.5159  0.5002
 2059SOL     OW17635   1.936   4.389   1.869  0.1359 -0.2533 -0.1612
 2059SOL    HW117636   1.902   4.354   1.951  1.4667 -0.5963  0.2380
 2059SOL    HW217637   1.875   4.461   1.852 -1.8580 -2.1694 -1.1050
 2060SOL     OW17638   0.937   4.428   3.930 -0.7322  0.1145  0.4228
 2060SOL    HW117639   1.004   4.364   3.906  1.2633  1.3398  2.7279
 2060SOL    HW217640   0.908   4.395   4.015 -1.0941  2.4404  1.1884
 2061SOL     OW17641   0.399   0.358  14.555  0.3646 -0.3640  0.0184
 2061SOL    HW117642   0.461   0.292  14.586  0.5733  0.4591  1.3506
 2061SOL    HW217643   0.344   0.318  14.488  0.6485 -1.6800  0.5736
 2062SOL     OW17644   3.397   0.325   9.465 -0.5143  0.4594  0.4090
 2062SOL    HW117645   3.432   0.374   9.391  1.1427 -1.1920  0.0897
 2062SOL    HW217646   3.412   0.396   9.528 -1.2664  1.3029 -0.3669
 2063SOL     OW17647   2.372   1.747   1.228  0.1967  0.9288  0.2544
 2063SOL    HW117648   2.399   1.695   1.304 -2.6323 -1.2806 -0.2485
 2063SOL    HW217649   2.292   1.783   1.266  0.9177  0.6288  2.1096
 2064SOL     OW17650   1.887   2.431  11.087 -0.0299  1.0291 -0.0703
 2064SOL    HW117651   1.957   2.390  11.137 -0.2490 -0.2172 -0.7939
 2064SOL    HW217652   1.910   2.524  11.091 -2.0432  1.5126  0.2766
 2065SOL     OW17653   2.546   3.554   1.379  0.5087  0.1557  0.1693
 2065SOL    HW117654   2.535   3.503   1.299 -0.5180  1.3859 -0.4671
 2065SOL    HW217655   2.468   3.523   1.424 -0.8517  0.1282 -2.2514
 2066SOL     OW17656   4.398   1.974  16.575 -0.2023 -0.2748 -0.2442
 2066SOL    HW117657   4.353   1.890  16.565  1.8826 -1.7298  2.7789
 2066SOL    HW217658   4.347   2.035  16.523 -0.3407 -0.2431 -0.0711
 2067SOL     OW17659   2.957   2.168   5.751 -0.5117 -0.2997  0.1235
 2067SOL    HW117660   2.975   2.076   5.773  0.0710 -0.0702  0.6024
 2067SOL    HW217661   2.866   2.165   5.723 -0.6279  1.4150  0.3700
 2068SOL     OW17662   2.855   2.350   0.606 -0.3201 -0.1083 -0.4684
 2068SOL    HW117663   2.865   2.418   0.539  0.7909 -1.4787 -1.6915
 2068SOL    HW217664   2.839   2.275   0.548 -0.4877 -0.3780 -0.0747
 2069SOL     OW17665   1.608   0.713   2.685  0.1323 -0.5313  0.2265
 2069SOL    HW117666   1.660   0.727   2.765 -0.6327 -2.6863  1.1117
 2069SOL    HW217667   1.535   0.655   2.708 -1.0730  0.3153 -1.4246
 2070SOL     OW17668   0.095   4.134   5.396 -0.4107 -0.3876  0.2002
 2070SOL    HW117669   0.076   4.047   5.430  2.3147 -0.5632  1.3020
 2070SOL    HW217670   0.188   4.123   5.375  0.1803 -0.8604  3.0796
 2071SOL     OW17671   2.089   2.220  12.656  0.0072  0.8165 -0.0302
 2071SOL    HW117672   2.165   2.206  12.711  0.1915 -0.3921 -0.6016
 2071SOL    HW217673   2.021   2.183  12.712  1.2156 -1.0589  0.1893
 2072SOL     OW17674   1.002   3.766   1.897 -0.0541  0.9779 -0.5437
 2072SOL    HW117675   0.961   3.733   1.976  0.5873  0.9228 -0.2314
 2072SOL    HW217676   1.024   3.859   1.907  0.2255  1.0881 -2.1927
 2073SOL     OW17677   2.656   4.698   9.311  0.1897  0.3730 -0.4476
 2073SOL    HW117678   2.654   4.602   9.312  0.9305  0.3529 -1.1437
 2073SOL    HW217679   2.742   4.713   9.350 -0.0122  1.2079 -0.3223
 2074SOL     OW17680   1.267   2.345  12.207  0.1684  0.0828  0.3242
 2074SOL    HW117681   1.356   2.363  12.176  0.1167 -2.0037 -1.0609
 2074SOL    HW217682   1.267   2.251  12.189 -0.5422  0.5115 -1.8175
 2075SOL     OW17683   2.824   1.554   1.083 -0.2158 -0.0098 -0.0277
 2075SOL    HW117684   2.893   1.606   1.040 -0.4390 -1.1515 -1.7508
 2075SOL    HW217685   2.874   1.482   1.120 -0.1953 -0.1658 -0.3557
 2076SOL     OW17686   0.527   3.774   8.099 -0.0344 -0.1619  0.1835
 2076SOL    HW117687   0.601   3.713   8.092 -0.2815 -0.2969 -1.4434
 2076SOL    HW217688   0.562   3.863   8.104 -2.1236  0.5596  2.0362
 2077SOL     OW17689   4.134   2.793   7.379 -0.1256  0.3788  0.1740
 2077SOL    HW117690   4.081   2.833   7.448  1.3659  1.3558  0.7522
 2077SOL    HW217691   4.154   2.874   7.331 -0.5899  0.1403 -0.4285
 2078SOL     OW17692   1.895   1.897   2.644 -0.4029  0.9857  0.0619
 2078SOL    HW117693   1.828   1.834   2.616  0.7961  0.2550 -1.1228
 2078SOL    HW217694   1.897   1.956   2.570  3.1370  1.9653  0.9631
 2079SOL     OW17695   1.384   2.658  16.815  0.1896 -0.1877  0.1592
 2079SOL    HW117696   1.448   2.641  16.885  1.2608  1.3288 -0.4444
 2079SOL    HW217697   1.408   2.591  16.752  0.7329 -0.6814  0.8968
 2080SOL     OW17698   3.194   3.685  11.946 -0.3769  0.1614 -0.6191
 2080SOL    HW117699   3.132   3.729  12.004 -1.6464 -0.1335 -1.7621
 2080SOL    HW217700   3.219   3.756  11.887  2.3346  2.1010  2.8351
 2081SOL     OW17701   0.215   2.320   5.758  0.0244  0.2918 -0.1756
 2081SOL    HW117702   0.275   2.311   5.831  0.7927  2.2831 -0.5636
 2081SOL    HW217703   0.187   2.411   5.749 -0.8428  0.0743  0.3160
 2082SOL     OW17704   4.020   2.422  14.995 -0.2994  0.4588  0.1670
 2082SOL    HW117705   3.925   2.411  14.997 -0.4769  1.9330  0.1916
 2082SOL    HW217706   4.053   2.343  15.039  1.6617  1.4751  0.5324
 2083SOL     OW17707   2.245   1.067   3.135 -0.0037  0.2760  0.0736
 2083SOL    HW117708   2.286   1.041   3.052 -1.0790  0.4467 -0.5027
 2083SOL    HW217709   2.203   1.151   3.115  0.0214  0.1785 -0.3905
 2084SOL     OW17710   4.379   1.869   7.828 -0.0683 -0.1476 -0.1003
 2084SOL    HW117711   4.319   1.927   7.873  0.1626 -0.2605  0.3563
 2084SOL    HW217712   4.346   1.878   7.738 -1.0010  1.7190  0.4337
 2085SOL     OW17713   2.275   3.253   6.024  0.3318 -0.2486 -0.3433
 2085SOL    HW117714   2.321   3.194   5.964  0.7410  0.8385 -1.0934
 2085SOL    HW217715   2.336   3.326   6.028  0.4883 -0.2139 -2.9077
 2086SOL     OW17716   3.550   0.239   3.608  0.0432 -0.3451 -0.0911
 2086SOL    HW117717   3.543   0.318   3.661  3.0965 -0.8556  1.1019
 2086SOL    HW217718   3.578   0.185   3.682 -0.7660 -3.0460 -1.7729
 2087SOL     OW17719   4.054   2.002   8.812 -0.0480 -0.3446  0.4024
 2087SOL    HW117720   4.032   2.083   8.766  0.9672 -0.0295  0.4590
 2087SOL    HW217721   4.036   1.931   8.751  0.3772 -1.2375  1.3104
 2088SOL     OW17722   1.079   0.771   9.623 -0.2067 -0.6078 -0.2584
 2088SOL    HW117723   1.029   0.690   9.615 -0.7122 -0.0357 -2.8599
 2088SOL    HW217724   1.079   0.776   9.719  1.9694 -0.8732 -0.2424
 2089SOL     OW17725   0.116   4.445   6.619 -0.5529 -0.4158 -0.7353
 2089SOL    HW117726   0.202   4.404   6.622  0.3810  1.6448 -0.2095
 2089SOL    HW217727   0.059   4.378   6.579 -1.3110  0.3024 -0.8521
 2090SOL     OW17728   4.122   2.049   5.660 -0.5983 -0.1191  0.3370
 2090SOL    HW117729   4.083   2.011   5.738  0.8679  3.6904  2.8994
 2090SOL    HW217730   4.049   2.035   5.599 -0.2841  1.0701 -0.3162
 2091SOL     OW17731   0.463   1.984   7.743 -0.2259 -0.3008 -0.7360
 2091SOL    HW117732   0.435   1.968   7.833 -1.4110  2.0316 -0.7090
 2091SOL    HW217733   0.504   1.900   7.722 -1.4953 -1.0118 -0.3743
 2092SOL     OW17734   2.886   1.168   4.849 -0.3272 -0.0371 -0.4662
 2092SOL    HW117735   2.858   1.258   4.832 -0.5646 -0.2496 -1.2222
 2092SOL    HW217736   2.973   1.174   4.811 -0.4455  1.6863 -0.4539
 2093SOL     OW17737   2.793   1.884   4.080  0.2834 -0.1459  0.2795
 2093SOL    HW117738   2.883   1.869   4.107 -0.3751 -0.5997  2.2457
 2093SOL    HW217739   2.747   1.803   4.058  1.5235 -0.7362 -0.1184
 2094SOL     OW17740   1.528   3.730   5.698 -0.0959  0.5292 -0.3286
 2094SOL    HW117741   1.533   3.780   5.780 -1.6932 -0.6222  0.4649
 2094SOL    HW217742   1.593   3.778   5.647  2.2185 -0.5034  1.6800
 2095SOL     OW17743   0.275   0.679   3.794 -0.4533  0.0377 -0.5062
 2095SOL    HW117744   0.250   0.726   3.714  2.1559  1.1630 -0.6637
 2095SOL    HW217745   0.271   0.591   3.758  0.0793 -0.1827 -0.0314
 2096SOL     OW17746   3.879   3.801   3.294  0.3171 -0.3712  0.2787
 2096SOL    HW117747   3.831   3.883   3.298 -0.8300 -0.9072 -2.7723
 2096SOL    HW217748   3.855   3.769   3.207 -2.7259  1.3299  0.4915
 2097SOL     OW17749   3.063   2.566  10.720 -0.0309  0.4577 -0.3386
 2097SOL    HW117750   3.055   2.523  10.636 -0.4771 -0.8955  0.4037
 2097SOL    HW217751   3.098   2.652  10.696  0.3826  0.7936  1.4360
 2098SOL     OW17752   4.632   4.043   7.829  0.6916  0.5642  0.1470
 2098SOL    HW117753   4.604   3.968   7.880  2.1600  0.5816  0.9747
 2098SOL    HW217754   4.707   4.003   7.785  0.5711 -1.1327  1.5387
 2099SOL     OW17755   4.367   2.097   2.114  0.0667 -0.4122 -0.1665
 2099SOL    HW117756   4.453   2.063   2.140 -0.2598  0.0639  1.5508
 2099SOL    HW217757   4.375   2.187   2.146  3.7501 -1.0560  0.7108
 2100SOL     OW17758   1.579   2.059   7.294 -0.5665  0.3049 -0.0350
 2100SOL    HW117759   1.631   1.980   7.276 -1.1703 -0.6214  2.2305
 2100SOL    HW217760   1.491   2.021   7.285 -0.6496  0.7565 -1.1045
 2101SOL     OW17761   4.067   2.882   3.752  0.4919 -0.0077  0.3114
 2101SOL    HW117762   4.057   2.961   3.700  0.2868  0.2056  0.6790
 2101SOL    HW217763   4.103   2.921   3.831 -1.6794 -0.9953  1.8020
 2102SOL     OW17764   2.446   3.112  12.960 -0.2282 -0.5178 -0.2101
 2102SOL    HW117765   2.393   3.115  13.040  0.7616  0.1788  0.4161
 2102SOL    HW217766   2.485   3.025  12.962 -3.0873 -1.7512  2.7387
 2103SOL     OW17767   1.969   4.700  15.796 -0.2982 -0.5694  0.6182
 2103SOL    HW117768   1.887   4.673  15.755  0.4161  1.0792 -1.8916
 2103SOL    HW217769   1.977   0.071  15.779  0.9980 -0.5922  1.1048
 2104SOL     OW17770   1.930   2.520  10.456 -0.3008 -0.2312  0.2261
 2104SOL    HW117771   1.915   2.499  10.364 -0.4236 -1.5282  0.5397
 2104SOL    HW217772   1.843   2.555  10.475 -0.6976 -1.8484  1.3013
 2105SOL     OW17773   0.163   0.513   8.210  0.2142 -0.0312  0.0467
 2105SOL    HW117774   0.252   0.538   8.184  0.1700 -0.1558 -0.2210
 2105SOL    HW217775   0.115   0.591   8.181 -2.0382 -1.6929 -0.6475
 2106SOL     OW17776   3.933   1.744   5.971  0.5098  0.2800  0.2205
 2106SOL    HW117777   4.002   1.718   5.911 -1.4931 -2.3311 -0.9541
 2106SOL    HW217778   3.975   1.805   6.031  1.8593 -0.6307  0.1873
 2107SOL     OW17779   2.600   2.264  12.806  0.0519  0.6727  0.4274
 2107SOL    HW117780   2.627   2.222  12.887  1.0421  0.3969 -0.0491
 2107SOL    HW217781   2.680   2.311  12.783 -0.3643  1.2582  0.1617
 2108SOL     OW17782   2.817   1.565   3.331 -0.3045  0.2629  0.5572
 2108SOL    HW117783   2.855   1.548   3.245 -2.9135 -1.0617 -0.3581
 2108SOL    HW217784   2.862   1.496   3.380  0.3614  1.0910  1.0902
 2109SOL     OW17785   0.193   0.152   0.713 -0.2747  0.0872 -0.2331
 2109SOL    HW117786   0.189   0.156   0.809 -0.2858  1.3259 -0.2839
 2109SOL    HW217787   0.271   0.103   0.686  0.5462 -0.6973  3.5553
 2110SOL     OW17788   4.229   0.767   4.148 -0.1193 -0.2533 -0.2341
 2110SOL    HW117789   4.278   0.840   4.111 -2.3666  0.8297 -1.0490
 2110SOL    HW217790   4.184   0.728   4.073 -0.7777 -2.9428  1.5630
 2111SOL     OW17791   0.495   4.550  13.614  0.1027  0.1621  0.0824
 2111SOL    HW117792   0.512   4.629  13.562 -1.2864 -1.4708 -2.8412
 2111SOL    HW217793   0.408   4.524  13.583  0.4542  2.2693 -2.6579
 2112SOL     OW17794   1.630   1.138   8.744  0.4323 -0.0117 -0.1244
 2112SOL    HW117795   1.638   1.068   8.809 -2.2562 -1.2279 -1.1126
 2112SOL    HW217796   1.559   1.192   8.779  1.2356  0.8593  0.1834
 2113SOL     OW17797   3.500   4.068  13.111 -0.4594 -0.1543 -0.5060
 2113SOL    HW117798   3.416   4.101  13.142  0.9412  1.5714  1.3971
 2113SOL    HW217799   3.517   4.115  13.029  0.0339  2.0635  0.8912
 2114SOL     OW17800   1.201   1.898   6.031 -0.0796 -0.7498 -0.1846
 2114SOL    HW117801   1.289   1.883   5.995 -0.4035 -0.7896 -0.9377
 2114SOL    HW217802   1.219   1.981   6.075 -0.2660 -0.0182 -1.5254
 2115SOL     OW17803   0.571   1.359   3.437 -0.5658 -0.2937 -0.1624
 2115SOL    HW117804   0.578   1.399   3.350  1.1671 -0.2837 -0.0120
 2115SOL    HW217805   0.659   1.327   3.456 -0.4887 -1.7728 -3.0798
 2116SOL     OW17806   2.496   0.816   0.756 -0.0612  0.4559 -0.4338
 2116SOL    HW117807   2.522   0.866   0.834 -2.3592 -0.4552  0.9066
 2116SOL    HW217808   2.493   0.885   0.690 -1.8823 -0.0826 -0.8939
 2117SOL     OW17809   3.799   0.334   7.896  0.0262  0.4152  0.0203
 2117SOL    HW117810   3.881   0.382   7.909 -0.1389  1.4493 -2.9162
 2117SOL    HW217811   3.795   0.325   7.801  0.4907  2.2578 -0.1723
 2118SOL     OW17812   3.240   1.301   9.113  0.3692  0.4604 -0.0757
 2118SOL    HW117813   3.228   1.387   9.073  3.0167  1.1717  0.6410
 2118SOL    HW217814   3.332   1.304   9.139  0.7219 -2.9867 -0.9432
 2119SOL     OW17815   2.122   0.482  16.911  0.7907 -0.4539 -0.3355
 2119SOL    HW117816   2.075   0.483  16.995  2.8131 -0.5980  0.7999
 2119SOL    HW217817   2.185   0.550  16.937 -2.4866  1.5430  2.3968
 2120SOL     OW17818   1.407   2.594   3.033  0.2884 -0.2451 -0.5532
 2120SOL    HW117819   1.466   2.540   3.084  0.5836 -0.9348 -1.6327
 2120SOL    HW217820   1.364   2.533   2.973 -0.3724 -0.9833  0.6817
 2121SOL     OW17821   0.393   4.238   3.105  0.1709  0.2184 -0.1931
 2121SOL    HW117822   0.394   4.287   3.188 -4.0976 -0.5577  0.3110
 2121SOL    HW217823   0.299   4.239   3.088  0.0806 -0.9802  0.2045
 2122SOL     OW17824   2.206   4.171   4.844  0.1514  0.2143 -0.0539
 2122SOL    HW117825   2.175   4.248   4.798  1.4253  1.4674  1.1792
 2122SOL    HW217826   2.238   4.115   4.773 -1.7013  1.1138 -1.5657
 2123SOL     OW17827   2.999   2.451   6.384 -0.4815  0.6936  0.2150
 2123SOL    HW117828   2.989   2.450   6.479 -0.6995 -0.4206  0.1809
 2123SOL    HW217829   2.921   2.411   6.345  0.5136  0.7488 -1.8758
 2124SOL     OW17830   1.072   1.135   8.586 -0.3631 -0.6192  0.1749
 2124SOL    HW117831   1.051   1.204   8.523 -0.4932 -0.4571  0.3968
 2124SOL    HW217832   1.109   1.180   8.661  0.4092  0.2058 -0.6928
 2125SOL     OW17833   0.192   4.251   2.639 -0.8741 -0.0152  0.7604
 2125SOL    HW117834   0.283   4.241   2.609 -1.2896  0.7995 -0.7650
 2125SOL    HW217835   0.195   4.329   2.694  0.8062  1.1053 -0.9239
 2126SOL     OW17836   4.576   0.374   7.475 -0.2049  0.5114  0.1227
 2126SOL    HW117837   4.483   0.376   7.451  0.2832 -0.4314 -1.8693
 2126SOL    HW217838   4.598   0.288   7.440  0.4558  1.0192 -0.7190
 2127SOL     OW17839   1.435   2.574   9.119  0.0073 -0.2303  0.3754
 2127SOL    HW117840   1.467   2.641   9.179 -1.0773 -0.0922  0.8015
 2127SOL    HW217841   1.416   2.635   9.048 -0.8907  0.1589  0.9466
 2128SOL     OW17842   0.376   0.225   7.278  0.1346  0.3768  0.4245
 2128SOL    HW117843   0.471   0.233   7.286  0.3417 -0.9186 -0.9451
 2128SOL    HW217844   0.351   0.264   7.362  1.5191 -0.2052  1.1006
 2129SOL     OW17845   2.587   0.127   4.052  0.5760 -0.2261 -0.8224
 2129SOL    HW117846   2.652   0.174   4.000 -0.7485  2.6996  0.1632
 2129SOL    HW217847   2.589   0.174   4.136  0.6111 -1.4813 -0.1324
 2130SOL     OW17848   1.396   1.335   6.781 -0.1986  0.0228  0.0602
 2130SOL    HW117849   1.454   1.377   6.718 -0.3711 -0.1818 -0.2329
 2130SOL    HW217850   1.414   1.243   6.765  0.2456  0.3565 -1.3738
 2131SOL     OW17851   2.959   0.700   4.567  0.0173  0.5620 -0.1928
 2131SOL    HW117852   3.018   0.665   4.501 -0.3182 -0.8318  0.2433
 2131SOL    HW217853   2.877   0.698   4.516 -0.0983  1.3685 -0.0417
 2132SOL     OW17854   3.432   2.799   1.687  0.1589 -0.1144  0.5947
 2132SOL    HW117855   3.426   2.884   1.729  0.5000  1.0272 -1.6472
 2132SOL    HW217856   3.484   2.815   1.608 -0.4977  1.0022  0.3924
 2133SOL     OW17857   0.157   1.179   2.180 -0.5701 -0.2307 -0.9262
 2133SOL    HW117858   0.149   1.274   2.172  1.2118 -0.0160 -0.0607
 2133SOL    HW217859   0.079   1.147   2.134 -2.2651 -0.4820  2.1329
 2134SOL     OW17860   0.522   0.859  14.595  0.6057 -0.3889 -0.3216
 2134SOL    HW117861   0.531   0.784  14.655  0.7699 -1.3873 -1.6010
 2134SOL    HW217862   0.450   0.898  14.645  0.8306 -0.2806 -0.0785
 2135SOL     OW17863   1.582   1.498   5.723 -0.1076  0.3499 -0.0202
 2135SOL    HW117864   1.543   1.585   5.733 -2.3212 -0.7658  0.9290
 2135SOL    HW217865   1.615   1.509   5.633 -0.8711  0.9750 -0.2227
 2136SOL     OW17866   4.341   0.764   8.652 -0.1592  0.0387 -0.0140
 2136SOL    HW117867   4.341   0.694   8.587  1.8654 -1.0551  1.1327
 2136SOL    HW217868   4.409   0.818   8.612  0.5884 -0.0659  1.1112
 2137SOL     OW17869   4.280   2.409  10.673 -0.4105 -0.8381  0.0630
 2137SOL    HW117870   4.302   2.498  10.645 -3.5289 -1.1716 -3.4240
 2137SOL    HW217871   4.185   2.410  10.684 -0.4600 -0.0503 -0.4141
 2138SOL     OW17872   1.502   2.005  16.244  0.0428 -0.3209 -0.0151
 2138SOL    HW117873   1.572   1.945  16.270  0.3535  0.2656  0.4980
 2138SOL    HW217874   1.417   1.976  16.278  1.2442 -1.5898  1.8750
 2139SOL     OW17875   4.087   0.059  17.352  0.2308  0.6915  0.2631
 2139SOL    HW117876   4.179   0.064  17.377 -0.0773  0.2797  1.5214
 2139SOL    HW217877   4.045   0.078  17.436  0.6548  0.5397  0.5065
 2140SOL     OW17878   1.858   4.058   3.051 -1.0865 -0.2238  0.8942
 2140SOL    HW117879   1.899   3.973   3.032 -0.3412  0.3429 -0.0750
 2140SOL    HW217880   1.828   4.068   2.961  2.9377 -1.9951 -0.6615
 2141SOL     OW17881   4.571   1.582   5.215 -0.4817  1.0076 -0.0560
 2141SOL    HW117882   4.622   1.663   5.210  2.2357 -0.6917  0.2687
 2141SOL    HW217883   4.553   1.577   5.121  3.3285  0.4935 -0.7430
 2142SOL     OW17884   3.905   1.927   9.290  0.5237 -0.2891 -0.2983
 2142SOL    HW117885   3.811   1.927   9.312  0.5170  1.1356 -0.3293
 2142SOL    HW217886   3.906   1.949   9.197  0.1631  3.1041  0.5061
 2143SOL     OW17887   2.836   1.040  14.772 -0.0536 -0.4225  0.1022
 2143SOL    HW117888   2.859   1.066  14.683 -0.9016 -0.0323  0.0003
 2143SOL    HW217889   2.923   1.019  14.808 -0.4984  0.3255  1.6130
 2144SOL     OW17890   1.538   4.093   6.945 -0.4723 -0.2220  0.0714
 2144SOL    HW117891   1.502   4.005   6.954  1.5192 -0.9728  0.6298
 2144SOL    HW217892   1.575   4.085   6.858 -1.9527 -0.4787 -0.5333
 2145SOL     OW17893   3.099   2.362  12.654 -0.0177  0.4132 -0.0443
 2145SOL    HW117894   3.078   2.271  12.675  0.1391  0.8282  1.8682
 2145SOL    HW217895   3.114   2.391  12.744  3.0498 -1.4083  0.0514
 2146SOL     OW17896   3.013   0.794   9.133  0.4348 -0.0924 -0.1048
 2146SOL    HW117897   3.106   0.775   9.147 -0.0846 -1.0278  2.1036
 2146SOL    HW217898   2.986   0.837   9.214 -0.1993  0.5041 -0.6356
 2147SOL     OW17899   2.783   2.318  14.406 -0.3590  0.2702  0.7009
 2147SOL    HW117900   2.754   2.320  14.315  3.2614 -0.7964 -0.5015
 2147SOL    HW217901   2.821   2.406  14.400  1.3999 -0.4415  1.3756
 2148SOL     OW17902   3.614   3.882   2.231 -0.7113 -0.1127 -0.2019
 2148SOL    HW117903   3.629   3.958   2.175 -1.2056  1.2882  1.5551
 2148SOL    HW217904   3.696   3.836   2.215  0.4897  1.2108  2.0600
 2149SOL     OW17905   3.333   0.634   8.235 -0.0556  0.4276 -0.4596
 2149SOL    HW117906   3.396   0.563   8.233 -0.4008  0.1068  0.2889
 2149SOL    HW217907   3.386   0.714   8.234  0.9792 -0.2810 -3.0023
 2150SOL     OW17908   3.757   2.414   3.643  0.1165 -0.2554 -0.0596
 2150SOL    HW117909   3.663   2.395   3.644  0.3869 -1.7418 -1.7674
 2150SOL    HW217910   3.764   2.508   3.654  1.1098 -0.2168 -1.0680
 2151SOL     OW17911   4.212   3.008  12.301  0.1895 -0.6333  0.2584
 2151SOL    HW117912   4.173   2.920  12.299  0.8315 -0.9332  0.8826
 2151SOL    HW217913   4.141   3.071  12.310  0.8040  0.2361 -0.9633
 2152SOL     OW17914   3.221   0.932   8.393 -0.2899 -0.1971 -0.3591
 2152SOL    HW117915   3.161   0.858   8.382  0.4636 -0.4625 -2.6920
 2152SOL    HW217916   3.211   0.959   8.484 -0.4244 -1.5601  0.0264
 2153SOL     OW17917   1.125   0.874   4.038 -0.3707  0.5077  0.0916
 2153SOL    HW117918   1.199   0.927   4.067 -1.2095  1.6572  0.1316
 2153SOL    HW217919   1.084   0.940   3.981  0.5538  1.8722  1.0073
 2154SOL     OW17920   2.655   1.931   6.397 -0.0448 -0.2329 -0.0472
 2154SOL    HW117921   2.585   1.866   6.402  1.0846 -1.3792  0.8962
 2154SOL    HW217922   2.730   1.872   6.385  0.3200  0.5091 -1.3497
 2155SOL     OW17923   1.767   0.092   0.456  0.0736  0.0313  0.2345
 2155SOL    HW117924   1.825   0.104   0.531  1.8464 -4.1167 -0.5336
 2155SOL    HW217925   1.812   0.134   0.383  0.0060  0.4515  0.4316
 2156SOL     OW17926   3.326   3.634   6.171  0.5199  0.0872  0.0738
 2156SOL    HW117927   3.394   3.613   6.108  0.2117  1.6390 -0.7484
 2156SOL    HW217928   3.252   3.572   6.166 -0.3716  1.2804 -1.2846
 2157SOL     OW17929   3.977   3.143   3.125  0.2277  0.5430 -0.8780
 2157SOL    HW117930   4.072   3.146   3.111  0.0033 -0.7216 -2.6002
 2157SOL    HW217931   3.940   3.162   3.039 -0.6780  2.8200 -0.0012
 2158SOL     OW17932   0.594   3.906   5.091  0.0452 -0.4552  0.5704
 2158SOL    HW117933   0.529   3.948   5.034  1.3268  2.1817  1.0274
 2158SOL    HW217934   0.659   3.866   5.034 -0.2541 -1.8043  1.1791
 2159SOL     OW17935   0.584   2.445  11.498  0.1592  0.4443 -0.4877
 2159SOL    HW117936   0.588   2.415  11.407  1.7197 -0.6871 -0.0413
 2159SOL    HW217937   0.532   2.525  11.485 -1.5132 -0.4890  0.3608
 2160SOL     OW17938   3.837   2.922   9.119  0.0901 -0.6530 -0.0255
 2160SOL    HW117939   3.760   2.951   9.070  1.9618  2.0424 -1.3461
 2160SOL    HW217940   3.789   2.874   9.187  1.2912 -1.6502  0.1154
 2161SOL     OW17941   3.629   0.285   9.201 -0.5413  0.0153 -0.3990
 2161SOL    HW117942   3.580   0.276   9.120 -0.9769  0.7773 -0.2215
 2161SOL    HW217943   3.627   0.378   9.225  0.9478 -1.0736  4.0086
 2162SOL     OW17944   1.578   1.187   5.641 -0.5158  0.2542  0.0076
 2162SOL    HW117945   1.547   1.197   5.731  0.5364 -1.7194  0.5929
 2162SOL    HW217946   1.502   1.229   5.600 -1.4545  0.6427  2.1573
 2163SOL     OW17947   1.478   1.906  11.239  0.5337 -0.2703 -0.7615
 2163SOL    HW117948   1.432   1.975  11.192 -0.6698 -0.2565  0.4132
 2163SOL    HW217949   1.518   1.854  11.170 -0.7532 -3.0043  0.5721
 2164SOL     OW17950   1.167   1.888   2.031 -0.2089  0.2029 -0.8537
 2164SOL    HW117951   1.236   1.899   1.966  0.8453  0.8238  0.3672
 2164SOL    HW217952   1.210   1.852   2.109  1.2035 -0.6003 -2.0153
 2165SOL     OW17953   0.978   1.269   8.366  0.5190 -0.8476 -0.1933
 2165SOL    HW117954   1.007   1.359   8.351 -0.9356 -1.2444 -5.4949
 2165SOL    HW217955   0.887   1.279   8.393  1.6518  1.7459  2.6272
 2166SOL     OW17956   2.126   4.383   4.645 -0.3102  0.2200  0.0441
 2166SOL    HW117957   2.089   4.423   4.567  1.3461  1.9418  0.1549
 2166SOL    HW217958   2.060   4.314   4.657  0.6952 -0.3255  2.4478
 2167SOL     OW17959   3.286   3.932   0.897  0.1491 -0.0421  0.5778
 2167SOL    HW117960   3.335   3.862   0.941  0.2970 -0.0437  0.4157
 2167SOL    HW217961   3.330   4.011   0.926 -0.3141 -0.2819  1.9156
 2168SOL     OW17962   2.269   3.944   7.033 -0.2005 -0.5963  0.1419
 2168SOL    HW117963   2.286   4.036   7.054 -0.8775 -1.1057  2.8946
 2168SOL    HW217964   2.185   3.954   6.987  0.2961  1.8321 -0.2290
 2169SOL     OW17965   1.399   4.420   4.306 -0.1648 -0.1563 -0.0481
 2169SOL    HW117966   1.338   4.349   4.291 -0.0326  0.2062 -2.3022
 2169SOL    HW217967   1.348   4.490   4.264 -2.2269 -1.5135  0.1974
 2170SOL     OW17968   2.210   2.159   6.249  0.2556  0.7768  0.5047
 2170SOL    HW117969   2.275   2.126   6.310 -0.7043 -1.5374  0.2800
 2170SOL    HW217970   2.193   2.244   6.291 -0.1843  0.6425  0.6001
 2171SOL     OW17971   2.625   1.667   5.065  0.2983 -0.0439  0.0661
 2171SOL    HW117972   2.706   1.718   5.054  0.9343 -0.9644  0.4848
 2171SOL    HW217973   2.650   1.575   5.065  2.4718  0.5446 -1.0469
 2172SOL     OW17974   1.366   3.425   1.440  0.1145 -0.1169 -0.1669
 2172SOL    HW117975   1.282   3.470   1.433 -1.0798 -2.3356  0.0740
 2172SOL    HW217976   1.412   3.493   1.491 -2.2546  1.9904 -0.8214
 2173SOL     OW17977   2.354   1.419  11.199 -0.5007 -0.4642 -0.3500
 2173SOL    HW117978   2.409   1.471  11.258 -0.8685 -1.0929  0.5430
 2173SOL    HW217979   2.268   1.449  11.229  0.2572  0.0045  1.3670
 2174SOL     OW17980   4.488   2.317   5.680 -0.0940  0.4579 -0.0433
 2174SOL    HW117981   4.432   2.361   5.744 -1.1449 -0.1252 -0.5671
 2174SOL    HW217982   4.482   2.228   5.715 -0.0775  1.1222  1.6134
 2175SOL     OW17983   1.219   0.072   6.475  0.2894  0.8662  0.6269
 2175SOL    HW117984   1.124   0.058   6.475  0.4626 -0.3148  0.9368
 2175SOL    HW217985   1.222   0.127   6.397 -1.3771 -2.0842 -1.5157
 2176SOL     OW17986   2.555   4.032   8.274 -0.4995  0.0272  0.1729
 2176SOL    HW117987   2.597   4.116   8.256 -0.0216 -0.6198 -1.7568
 2176SOL    HW217988   2.465   4.060   8.285  0.0070  2.5169 -2.1066
 2177SOL     OW17989   3.149   0.925   7.611  0.1371  0.3066  0.2536
 2177SOL    HW117990   3.100   0.866   7.668 -1.0785  0.0713 -1.0279
 2177SOL    HW217991   3.102   1.006   7.630  0.6503  1.2895 -2.5487
 2178SOL     OW17992   2.340   1.055   2.883 -0.3545 -0.1276 -0.1205
 2178SOL    HW117993   2.265   1.086   2.834  0.3188  1.0197 -0.4173
 2178SOL    HW217994   2.412   1.078   2.823 -0.5815  0.9452  0.0156
 2179SOL     OW17995   4.641   0.216   2.830 -0.5989  0.1534 -0.0153
 2179SOL    HW117996   4.695   0.272   2.774  1.2317  0.3843  2.0161
 2179SOL    HW217997   4.708   0.168   2.878 -0.9686  0.8320  1.1621
 2180SOL     OW17998   0.926   1.808   3.335  0.2444 -0.5050  0.2384
 2180SOL    HW117999   0.951   1.899   3.323  1.2067 -0.5776  1.7142
 2180SOL    HW218000   0.898   1.789   3.245  2.9926  1.0132 -0.9729
 2181SOL     OW18001   4.486   2.733   6.759 -0.2781 -0.0418 -0.8235
 2181SOL    HW118002   4.392   2.722   6.740 -0.2040  0.9544 -1.7592
 2181SOL    HW218003   4.502   2.640   6.778  0.2260 -0.0051 -1.0653
 2182SOL     OW18004   4.192   0.443   4.104 -0.1376 -0.0443  0.0737
 2182SOL    HW118005   4.286   0.441   4.122 -0.4502 -4.2924  1.2186
 2182SOL    HW218006   4.195   0.447   4.008  0.0930  1.3833  0.1514
 2183SOL     OW18007   4.226   2.827  13.125 -0.3543  0.1559  0.5891
 2183SOL    HW118008   4.256   2.847  13.036 -2.8810 -1.0205 -0.5288
 2183SOL    HW218009   4.268   2.744  13.144 -0.0998 -0.5268 -2.9310
 2184SOL     OW18010   1.891   1.723   0.646 -0.3316  0.0739 -0.2579
 2184SOL    HW118011   1.907   1.789   0.578 -2.2766 -0.7561 -1.5145
 2184SOL    HW218012   1.882   1.782   0.721  0.8856 -0.6042  0.4131
 2185SOL     OW18013   2.119   4.244   7.781 -0.4023 -0.4377  0.1844
 2185SOL    HW118014   2.171   4.245   7.861 -0.6464 -0.3407  0.3422
 2185SOL    HW218015   2.052   4.309   7.802 -0.0257 -0.4588  1.4595
 2186SOL     OW18016   2.009   1.757  12.895  0.4661  0.1281 -0.1372
 2186SOL    HW118017   1.942   1.705  12.940  1.7989 -0.1023  1.6120
 2186SOL    HW218018   1.957   1.780  12.819 -1.7883 -0.9693  1.0674
 2187SOL     OW18019   3.308   0.716   5.966 -0.4714 -0.5738 -0.5138
 2187SOL    HW118020   3.363   0.776   6.017  2.0012 -2.0154 -1.4973
 2187SOL    HW218021   3.362   0.642   5.936  1.6962  0.5067  0.7145
 2188SOL     OW18022   1.755   2.337   1.831 -0.5627  0.5619  0.3375
 2188SOL    HW118023   1.798   2.417   1.802  1.3673  0.0003  1.6292
 2188SOL    HW218024   1.819   2.269   1.811  0.9601  2.5915 -1.5414
 2189SOL     OW18025   4.200   3.071   0.321 -0.6720 -0.2668 -0.1006
 2189SOL    HW118026   4.185   3.067   0.416  0.3601 -1.8209 -0.0089
 2189SOL    HW218027   4.112   3.092   0.290 -0.8996 -2.4500 -0.9333
 2190SOL     OW18028   1.796   2.731   5.252 -0.5469  0.4529  0.8549
 2190SOL    HW118029   1.844   2.654   5.222 -2.2204 -1.1748  2.3626
 2190SOL    HW218030   1.832   2.737   5.341  3.6341  2.1752 -0.9627
 2191SOL     OW18031   0.000   2.388   8.387 -0.2452  0.7985  0.0092
 2191SOL    HW118032   4.641   2.426   8.419 -0.6719  1.0187 -1.3452
 2191SOL    HW218033   0.066   2.443   8.429 -0.8846  1.5002  0.0916
 2192SOL     OW18034   3.709   3.584   8.839 -0.1903  0.1535 -0.3250
 2192SOL    HW118035   3.787   3.638   8.827  0.4516 -0.5097  0.9237
 2192SOL    HW218036   3.709   3.577   8.934 -0.7122 -3.1265 -0.5502
 2193SOL     OW18037   0.428   3.647   9.076 -0.0391 -0.0355  0.2294
 2193SOL    HW118038   0.438   3.580   9.008 -0.7030 -2.0622  2.1384
 2193SOL    HW218039   0.334   3.657   9.090 -0.6813 -1.2551 -3.2207
 2194SOL     OW18040   2.686   0.162   9.776 -0.4074  0.0075 -0.6166
 2194SOL    HW118041   2.677   0.069   9.795  1.1107 -0.0425 -0.1983
 2194SOL    HW218042   2.620   0.202   9.833 -0.3833  0.0696 -0.6321
 2195SOL     OW18043   1.361   3.080  11.315 -0.1218 -0.0821  0.3561
 2195SOL    HW118044   1.360   3.176  11.308  0.6810 -0.0925  0.0769
 2195SOL    HW218045   1.350   3.062  11.222 -3.1722  0.5698  0.5874
 2196SOL     OW18046   0.740   1.602  12.729  0.3629 -0.1847 -0.3875
 2196SOL    HW118047   0.683   1.623  12.803  2.3867 -2.4673  1.8233
 2196SOL    HW218048   0.673   1.597  12.661 -1.1354  1.6263  0.9338
 2197SOL     OW18049   0.144   2.190   1.046 -0.7828 -0.0399 -0.8842
 2197SOL    HW118050   0.217   2.204   0.985  0.4735 -2.3766  0.0754
 2197SOL    HW218051   0.093   2.256   1.000 -2.3589 -0.1706  0.6813
 2198SOL     OW18052   2.564   1.122  16.818  0.3833 -0.9381  0.3245
 2198SOL    HW118053   2.639   1.063  16.820  0.5005 -0.7835  0.5139
 2198SOL    HW218054   2.539   1.119  16.726  0.6885 -0.4634  0.2278
 2199SOL     OW18055   0.454   2.514   0.863 -0.0132  0.2247  0.2307
 2199SOL    HW118056   0.429   2.605   0.847  0.3809  0.5976  1.6820
 2199SOL    HW218057   0.538   2.517   0.818 -0.2867  3.6232 -0.0973
 2200SOL     OW18058   3.674   4.527  15.708 -0.1145  0.1797  0.3957
 2200SOL    HW118059   3.586   4.507  15.677  0.3981 -0.2589 -0.7721
 2200SOL    HW218060   3.729   4.497  15.636  1.8786 -0.3533  2.1286
 2201SOL     OW18061   2.250   2.108  11.194  0.0316  0.2301  0.6498
 2201SOL    HW118062   2.291   2.089  11.109 -1.1343 -1.3658  0.4492
 2201SOL    HW218063   2.317   2.053  11.235  0.3090 -0.0554 -0.1740
 2202SOL     OW18064   2.398   1.643  15.655 -0.1789  0.8661 -0.0488
 2202SOL    HW118065   2.445   1.719  15.621  0.6024  0.3309 -0.1926
 2202SOL    HW218066   2.476   1.587  15.663  0.0033  0.8700 -1.8844
 2203SOL     OW18067   1.531   1.022  10.987 -0.3818 -0.1169  0.5868
 2203SOL    HW118068   1.480   1.101  11.007  1.1784  1.2086 -0.6582
 2203SOL    HW218069   1.471   0.951  11.009 -0.4537 -0.7413 -1.6782
 2204SOL     OW18070   2.759   3.321   4.929 -0.1670 -0.1738 -0.3504
 2204SOL    HW118071   2.839   3.270   4.913  0.7358  0.5756  1.7883
 2204SOL    HW218072   2.773   3.379   4.855 -1.9884 -1.2876 -1.5640
 2205SOL     OW18073   0.528   3.484   4.609  0.0175  0.3021  0.3707
 2205SOL    HW118074   0.519   3.551   4.542  2.2017  0.2091 -0.0160
 2205SOL    HW218075   0.606   3.436   4.581 -0.4697 -0.2288 -0.0698
 2206SOL     OW18076   3.221   3.933   2.936 -0.4749 -0.2960 -0.2990
 2206SOL    HW118077   3.164   4.000   2.899 -1.2671 -0.1788  1.1171
 2206SOL    HW218078   3.252   3.899   2.852 -1.4180 -2.6724  0.3092
 2207SOL     OW18079   1.033   0.072   9.546  0.4225  0.3215  0.5327
 2207SOL    HW118080   1.031   0.094   9.639  1.6790  1.8596  0.2069
 2207SOL    HW218081   0.942   0.095   9.524  0.0986 -0.6752  0.8574
 2208SOL     OW18082   2.415   0.389   8.520 -0.1095 -0.0317 -0.8631
 2208SOL    HW118083   2.510   0.376   8.512  0.1178  2.1585 -1.5445
 2208SOL    HW218084   2.384   0.309   8.478  1.1518 -1.5705  1.0818
 2209SOL     OW18085   2.339   4.109   9.427  0.3443 -0.2029 -0.1439
 2209SOL    HW118086   2.331   4.075   9.338  0.7706  0.4628 -0.4368
 2209SOL    HW218087   2.342   4.027   9.477  0.3324  1.3157  2.3673
 2210SOL     OW18088   0.869   3.106   3.340  0.1614 -0.1573  0.6150
 2210SOL    HW118089   0.851   3.200   3.343  1.9043  0.1581  1.0326
 2210SOL    HW218090   0.797   3.077   3.395 -1.2801  2.0307 -0.0807
 2211SOL     OW18091   4.460   2.839   3.153 -0.1544  0.1662  0.0633
 2211SOL    HW118092   4.390   2.874   3.209 -0.3552  1.1832 -0.8417
 2211SOL    HW218093   4.493   2.767   3.207 -3.1351 -0.3388  1.2798
 2212SOL     OW18094   0.075   0.109   5.845  0.6700  0.1576 -0.0028
 2212SOL    HW118095   0.170   0.103   5.829  0.9474  0.0685  1.6457
 2212SOL    HW218096   0.049   0.180   5.786 -0.0133 -0.0156  0.0932
 2213SOL     OW18097   1.685   1.967   8.851 -0.0814  0.0273  0.3395
 2213SOL    HW118098   1.703   1.899   8.916  2.1799  0.8304  0.5692
 2213SOL    HW218099   1.595   1.977   8.881 -0.4116 -0.3914 -0.5234
 2214SOL     OW18100   2.084   2.063   8.699  0.2403  0.9024  0.2509
 2214SOL    HW118101   2.075   2.131   8.632 -0.5368  0.5510 -0.0131
 2214SOL    HW218102   2.129   2.104   8.773 -0.1391 -0.5299  1.2797
 2215SOL     OW18103   2.460   4.580   4.159  0.0029  0.0166  0.1126
 2215SOL    HW118104   2.523   4.644   4.125 -0.6293 -0.0737 -1.2602
 2215SOL    HW218105   2.391   4.645   4.174 -0.5464 -0.2110 -1.3435
 2216SOL     OW18106   2.187   1.686  10.183 -0.0912  0.0092  0.4270
 2216SOL    HW118107   2.203   1.749  10.113  0.9171  1.3785  1.8871
 2216SOL    HW218108   2.161   1.744  10.255  0.2485  0.2424  0.3602
 2217SOL     OW18109   2.845   3.150  11.718  0.5366  0.5723 -0.3357
 2217SOL    HW118110   2.886   3.229  11.753  3.0857 -0.5988 -0.6468
 2217SOL    HW218111   2.921   3.092  11.721  1.4535  1.7620 -0.2181
 2218SOL     OW18112   4.479   1.895   9.671 -0.2730  0.5784  0.8130
 2218SOL    HW118113   4.569   1.912   9.645 -0.6178  0.5415 -0.4094
 2218SOL    HW218114   4.429   1.904   9.589  0.6632  0.4351  0.2220
 2219SOL     OW18115   4.390   1.171  10.276 -0.3444 -0.4596 -0.0524
 2219SOL    HW118116   4.415   1.263  10.268 -1.2619 -0.2114 -0.0539
 2219SOL    HW218117   4.296   1.188  10.269 -0.7515 -1.9937  1.8287
 2220SOL     OW18118   3.488   2.872   4.748  0.5312 -0.2047 -0.0504
 2220SOL    HW118119   3.563   2.816   4.768  0.2469 -0.0791  1.3670
 2220SOL    HW218120   3.449   2.866   4.836 -1.6555 -0.7588 -1.0650
 2221SOL     OW18121   3.815   0.520   3.246  0.6101 -0.1710  0.0481
 2221SOL    HW118122   3.838   0.523   3.339 -0.1742  1.7257  0.1696
 2221SOL    HW218123   3.746   0.586   3.251  1.7540  1.1706 -1.7822
 2222SOL     OW18124   1.360   3.750   1.982  0.0200  0.4554  0.2862
 2222SOL    HW118125   1.431   3.700   2.022  0.4729 -0.6902 -1.9303
 2222SOL    HW218126   1.292   3.731   2.047 -0.6800 -1.2285 -0.9398
 2223SOL     OW18127   3.895   0.093   4.844  0.2026 -0.7831 -0.2563
 2223SOL    HW118128   3.805   0.112   4.821  0.3747  1.2592  0.8049
 2223SOL    HW218129   3.895   0.088   4.940  2.7227  1.6071 -0.1491
 2224SOL     OW18130   3.315   1.438  17.479 -0.4725  0.6017 -0.3735
 2224SOL    HW118131   3.280   1.526  17.468 -0.0344  0.2663 -4.3470
 2224SOL    HW218132   3.409   1.458  17.479 -0.0645 -1.3750  1.3370
 2225SOL     OW18133   3.568   0.730   6.965  0.1106  0.4149 -0.4557
 2225SOL    HW118134   3.485   0.710   7.008  0.9473 -0.8250  0.6147
 2225SOL    HW218135   3.621   0.662   7.007 -1.6541  0.5744  2.0228
 2226SOL     OW18136   3.137   2.706   3.772 -0.3492 -0.4755 -0.6980
 2226SOL    HW118137   3.158   2.792   3.734  1.6516 -0.5015  0.3430
 2226SOL    HW218138   3.068   2.736   3.830 -0.9079 -0.3144 -1.4484
 2227SOL     OW18139   0.032   4.409  13.491  0.0664 -0.5784  0.3489
 2227SOL    HW118140   0.067   4.443  13.574 -0.5969 -2.2568  1.3266
 2227SOL    HW218141   0.099   4.449  13.436 -2.5857  1.7651 -1.1694
 2228SOL     OW18142   3.477   1.494   1.194  1.1835  0.5394 -0.3949
 2228SOL    HW118143   3.469   1.541   1.111 -0.6278  0.3822 -0.3012
 2228SOL    HW218144   3.454   1.564   1.255  0.9727 -0.7580  1.0063
 2229SOL     OW18145   2.343   2.855   7.636 -0.4924  0.2627 -0.2541
 2229SOL    HW118146   2.257   2.828   7.669 -1.6104  0.8649 -2.6617
 2229SOL    HW218147   2.348   2.938   7.682 -0.2966 -0.0320  0.2604
 2230SOL     OW18148   3.624   4.127   3.152  0.4478  0.1389 -0.1337
 2230SOL    HW118149   3.529   4.121   3.160  0.5537 -1.4658 -0.0122
 2230SOL    HW218150   3.639   4.220   3.169  2.1345 -0.2140  0.2364
 2231SOL     OW18151   2.804   4.172   0.460  0.1398  0.4055 -0.1895
 2231SOL    HW118152   2.768   4.190   0.373 -2.4963 -0.9498  0.6072
 2231SOL    HW218153   2.887   4.130   0.441  0.5822  0.6565  1.1755
 2232SOL     OW18154   1.723   4.461   0.205  0.0167 -0.4449  0.5150
 2232SOL    HW118155   1.706   4.520   0.278 -1.2166 -0.2932  0.1193
 2232SOL    HW218156   1.812   4.482   0.177 -0.5016 -1.5561 -2.0079
 2233SOL     OW18157   2.094   2.473   4.627  0.3225  0.0579 -0.3019
 2233SOL    HW118158   2.047   2.517   4.698 -0.3897  1.7019 -1.7993
 2233SOL    HW218159   2.175   2.469   4.679  1.6234  1.6739 -2.1993
 2234SOL     OW18160   0.137   0.109   7.185  0.0126  0.0019  0.3884
 2234SOL    HW118161   0.212   0.168   7.194 -0.7015  1.0021 -0.2952
 2234SOL    HW218162   0.166   0.037   7.242 -1.8549  0.2649  1.6607
 2235SOL     OW18163   2.470   2.270   3.292  0.6556  0.2149 -0.2754
 2235SOL    HW118164   2.521   2.201   3.251  0.1990 -0.5342  0.4377
 2235SOL    HW218165   2.386   2.262   3.248 -0.3409  0.9231  1.5126
 2236SOL     OW18166   0.355   2.026  11.064 -0.2671 -0.0703 -0.2175
 2236SOL    HW118167   0.373   1.979  10.983 -0.7128 -2.2193  0.9207
 2236SOL    HW218168   0.431   2.002  11.118 -1.3159 -0.5551  1.0383
 2237SOL     OW18169   0.592   1.936  11.180  0.2468  0.4599 -0.5748
 2237SOL    HW118170   0.683   1.912  11.165  0.4692  1.3580 -0.6776
 2237SOL    HW218171   0.563   1.871  11.244  2.2844 -0.7008 -0.8324
 2238SOL     OW18172   4.567   2.489   4.411 -0.1973 -0.0157 -0.8258
 2238SOL    HW118173   4.483   2.512   4.449 -0.5586 -0.5103 -1.3233
 2238SOL    HW218174   4.632   2.548   4.448  0.5518 -0.9841 -0.5809
 2239SOL     OW18175   2.523   2.855   6.014 -0.4111  0.3314  0.3390
 2239SOL    HW118176   2.552   2.937   6.055 -1.2773 -1.1926  4.0443
 2239SOL    HW218177   2.587   2.856   5.944 -0.3921 -0.3192  0.3520
 2240SOL     OW18178   3.135   2.222  12.891  0.0662  0.1979 -0.1454
 2240SOL    HW118179   3.148   2.239  12.984 -0.6896 -1.2173  0.2212
 2240SOL    HW218180   3.055   2.171  12.896 -0.6511  1.2340 -1.2653
 2241SOL     OW18181   1.337   0.566  14.117  0.5109 -0.1028 -0.0764
 2241SOL    HW118182   1.299   0.480  14.133 -1.1145  0.7882  0.8455
 2241SOL    HW218183   1.281   0.622  14.171  1.0725  1.0707 -0.7058
 2242SOL     OW18184   0.123   1.641  11.296 -0.4942  0.1694  0.9906
 2242SOL    HW118185   0.177   1.627  11.374  0.0015 -0.2351  0.5761
 2242SOL    HW218186   0.182   1.692  11.240 -1.8969  0.7254  0.0156
 2243SOL     OW18187   4.503   4.359   5.326  0.1318  0.0064  0.1736
 2243SOL    HW118188   4.519   4.272   5.288 -0.8040  0.4166 -1.1526
 2243SOL    HW218189   4.477   4.349   5.418  1.6228  0.0973  0.6032
 2244SOL     OW18190   3.392   3.776  15.320 -0.0967 -0.0590  0.4655
 2244SOL    HW118191   3.350   3.861  15.305  1.9587  0.8112 -0.3829
 2244SOL    HW218192   3.454   3.788  15.393  0.9297 -1.3508 -0.2060
 2245SOL     OW18193   1.354   2.014   7.665 -0.6002 -0.2591  0.2362
 2245SOL    HW118194   1.382   1.982   7.750 -0.8516 -0.5611  0.2083
 2245SOL    HW218195   1.318   2.101   7.682 -2.9351 -0.9009 -1.4094
 2246SOL     OW18196   3.062   4.156  10.192 -0.3938 -0.2662  0.2298
 2246SOL    HW118197   3.069   4.221  10.122  1.0646 -0.9831 -0.2858
 2246SOL    HW218198   3.024   4.077  10.154  0.9646 -1.2831  0.9700
 2247SOL     OW18199   1.394   3.599   5.931  1.0371  0.3523 -0.6985
 2247SOL    HW118200   1.444   3.616   5.851  1.7032  0.4395 -0.2709
 2247SOL    HW218201   1.308   3.578   5.895  0.5111 -1.3864  1.5883
 2248SOL     OW18202   0.705   3.889   2.775  0.4568  0.4281  0.5699
 2248SOL    HW118203   0.654   3.820   2.818  1.2511  0.5139  1.6482
 2248SOL    HW218204   0.750   3.838   2.707 -0.2833  0.6482 -0.0857
 2249SOL     OW18205   1.960   0.372   9.208  0.1241  0.2316  0.4106
 2249SOL    HW118206   2.038   0.405   9.163  0.2701  0.6869  0.9996
 2249SOL    HW218207   1.974   0.278   9.209  2.3106  0.5653  0.8038
 2250SOL     OW18208   3.389   2.730   5.280  0.3579 -0.0584 -0.3087
 2250SOL    HW118209   3.478   2.725   5.317  0.8695 -0.2146 -1.5790
 2250SOL    HW218210   3.358   2.654   5.329  0.7889  1.1458  1.8413
 2251SOL     OW18211   4.518   4.272  13.401 -0.4303  0.4587 -0.3377
 2251SOL    HW118212   4.478   4.249  13.485  1.8241 -0.1625  0.5770
 2251SOL    HW218213   4.565   4.348  13.436 -2.5524  1.4190  0.3979
 2252SOL     OW18214   2.931   0.070   2.402 -0.0331  0.3923 -0.2751
 2252SOL    HW118215   3.016   0.072   2.446 -0.4383 -0.8694  0.5591
 2252SOL    HW218216   2.971   0.020   2.331 -1.5269 -1.2740  0.0588
 2253SOL     OW18217   3.103   3.972   1.117 -0.0885 -0.1319  0.1295
 2253SOL    HW118218   3.152   4.043   1.073 -1.0829  1.4041  1.5181
 2253SOL    HW218219   3.024   3.979   1.063  1.0118 -0.2549 -1.5281
 2254SOL     OW18220   0.248   0.842   6.134  0.1625  0.6996 -0.0065
 2254SOL    HW118221   0.182   0.860   6.067  0.3101  0.9265 -0.0914
 2254SOL    HW218222   0.326   0.871   6.086  0.5009 -1.3484 -0.6995
 2255SOL     OW18223   0.966   3.767   9.142 -1.1071  0.0888  0.9270
 2255SOL    HW118224   0.914   3.777   9.222 -1.0365 -0.6173  1.0626
 2255SOL    HW218225   0.895   3.784   9.081 -1.2825  2.4645  1.7730
 2256SOL     OW18226   1.092   2.456   0.703 -0.5043 -0.3392  0.1611
 2256SOL    HW118227   1.142   2.419   0.630  2.1697 -0.2351  1.9233
 2256SOL    HW218228   1.004   2.436   0.672  0.3803  0.1367 -2.6509
 2257SOL     OW18229   2.675   1.233   6.927 -0.3043 -0.4703 -0.0297
 2257SOL    HW118230   2.659   1.327   6.919  0.0950 -0.1022  3.5183
 2257SOL    HW218231   2.607   1.207   6.990 -0.3700  0.5528  0.3248
 2258SOL     OW18232   0.820   4.107  16.274  0.1242  0.8042  0.4618
 2258SOL    HW118233   0.822   4.097  16.369 -0.8720 -0.5359  0.3462
 2258SOL    HW218234   0.752   4.172  16.256  0.9165  1.8056  1.1200
 2259SOL     OW18235   4.701   3.386   9.627  0.7661  0.2931  0.1519
 2259SOL    HW118236   0.071   3.373   9.608  0.5580  1.6076 -1.8433
 2259SOL    HW218237   4.694   3.427   9.713 -0.6813 -0.4606  0.3900
 2260SOL     OW18238   3.505   0.768   3.143  0.1717  0.0853 -0.8913
 2260SOL    HW118239   3.545   0.806   3.064 -0.0127  1.2260 -0.4351
 2260SOL    HW218240   3.521   0.674   3.142 -1.0180 -0.1186 -0.5306
 2261SOL     OW18241   0.373   1.159   7.724  0.5090 -0.4852  0.5182
 2261SOL    HW118242   0.381   1.240   7.674 -1.8222  0.4484  1.6492
 2261SOL    HW218243   0.412   1.187   7.806  4.0307 -0.8400 -1.0560
 2262SOL     OW18244   2.855   4.119   7.860  0.1867 -0.6238 -0.0323
 2262SOL    HW118245   2.829   4.183   7.793 -1.8565 -0.8218  0.5665
 2262SOL    HW218246   2.774   4.115   7.911  0.7143  2.3018  1.0718
 2263SOL     OW18247   4.517   0.321   3.834 -0.1131 -0.3509 -0.0285
 2263SOL    HW118248   4.570   0.246   3.807 -0.3980 -0.2436 -0.8787
 2263SOL    HW218249   4.430   0.292   3.807 -0.0071  0.1394 -0.8885
 2264SOL     OW18250   2.064   3.050  16.243 -0.0528  0.1146  0.3147
 2264SOL    HW118251   2.107   3.029  16.160  0.2714  0.7193  0.3276
 2264SOL    HW218252   2.044   3.142  16.224 -0.8082 -0.1823 -0.3356
 2265SOL     OW18253   4.319   1.699   3.933 -0.0185  0.3869 -0.4125
 2265SOL    HW118254   4.300   1.753   4.010 -0.7634  0.3566 -0.5715
 2265SOL    HW218255   4.367   1.625   3.971 -2.2654 -0.8072  0.0827
 2266SOL     OW18256   3.911   3.589   5.565 -0.5120 -0.4823  0.1264
 2266SOL    HW118257   3.979   3.521   5.564  1.0827  1.1256 -0.4081
 2266SOL    HW218258   3.860   3.547   5.635  1.2247  0.2912  1.8809
 2267SOL     OW18259   1.622   1.921   0.077  0.0671 -0.0953  0.1411
 2267SOL    HW118260   1.581   1.839   0.105  1.0159  0.4430  3.1262
 2267SOL    HW218261   1.656   1.902  17.684 -1.2595 -2.4916  0.1433
 2268SOL     OW18262   1.642   2.216   6.797 -0.2962  0.0794 -0.7347
 2268SOL    HW118263   1.600   2.212   6.882 -1.2676 -1.2721 -1.2835
 2268SOL    HW218264   1.714   2.153   6.802 -0.1330  0.1891 -1.6913
 2269SOL     OW18265   1.378   2.163   2.965  0.0143  0.0667 -1.2646
 2269SOL    HW118266   1.300   2.212   2.941 -0.9598 -1.2036 -0.6491
 2269SOL    HW218267   1.426   2.235   3.005 -0.5507 -0.3355  0.1320
 2270SOL     OW18268   1.162   2.246   1.488  0.4322  0.2408  0.0346
 2270SOL    HW118269   1.125   2.227   1.575 -2.4061  0.9039 -1.0144
 2270SOL    HW218270   1.248   2.204   1.484  0.4507  0.3378 -0.6027
 2271SOL     OW18271   3.761   3.889   7.335 -0.5882  0.0151 -0.0726
 2271SOL    HW118272   3.736   3.800   7.361 -1.5737  0.1695 -0.4957
 2271SOL    HW218273   3.781   3.924   7.422  0.3024  0.5224 -0.4902
 2272SOL     OW18274   0.902   1.202   6.162  0.4941 -0.4424  0.0964
 2272SOL    HW118275   0.986   1.239   6.134  1.3352 -2.7781 -0.4197
 2272SOL    HW218276   0.880   1.140   6.093  0.1597  2.1861 -2.1464
 2273SOL     OW18277   4.269   0.452   5.741  0.5227 -0.3222  0.2039
 2273SOL    HW118278   4.335   0.384   5.753  0.7243 -0.0377  0.6877
 2273SOL    HW218279   4.190   0.400   5.723  0.7585 -1.4865  2.4351
 2274SOL     OW18280   1.675   2.856   1.762 -0.0617  0.0858  0.2296
 2274SOL    HW118281   1.714   2.942   1.749 -0.7122  0.5812  1.5349
 2274SOL    HW218282   1.641   2.872   1.850 -0.2714  0.0665  0.1518
 2275SOL     OW18283   3.888   2.381   0.771 -0.5092  0.2319 -0.2860
 2275SOL    HW118284   3.811   2.400   0.825 -0.9927 -0.0993 -0.8657
 2275SOL    HW218285   3.932   2.311   0.819 -0.9935  0.8103  1.0095
 2276SOL     OW18286   2.749   1.878   7.908  0.1372 -0.0781 -0.4407
 2276SOL    HW118287   2.812   1.947   7.887 -0.6792  0.2612 -1.7774
 2276SOL    HW218288   2.666   1.925   7.917 -0.4844 -1.1919 -0.4218
 2277SOL     OW18289   1.418   4.191   1.386 -0.1488 -0.1892  0.3979
 2277SOL    HW118290   1.328   4.178   1.355 -0.4545  0.8116  0.8601
 2277SOL    HW218291   1.405   4.225   1.475  0.1189  0.9460 -0.0057
 2278SOL     OW18292   2.040   1.832  12.316 -0.4969 -0.1803 -0.4301
 2278SOL    HW118293   1.972   1.851  12.381 -0.2870  1.0538 -0.5672
 2278SOL    HW218294   2.114   1.831  12.376 -1.0898  1.4926  0.3138
 2279SOL     OW18295   1.249   1.814  15.290  0.0505 -0.5054  0.0698
 2279SOL    HW118296   1.171   1.806  15.235  0.2302  1.1730 -0.4295
 2279SOL    HW218297   1.250   1.726  15.328 -1.3566  0.4235  2.1787
 2280SOL     OW18298   1.414   3.951   0.724  0.2392 -0.5070 -0.1070
 2280SOL    HW118299   1.371   3.867   0.743 -0.7383  0.1602  0.5710
 2280SOL    HW218300   1.433   3.972   0.815  0.4462  0.2717 -0.3350
 2281SOL     OW18301   2.743   3.146   1.047 -0.1399 -0.5440 -0.5789
 2281SOL    HW118302   2.791   3.163   0.966 -0.6457 -0.3825 -0.8460
 2281SOL    HW218303   2.651   3.152   1.019 -0.3838  1.0139  0.5882
 2282SOL     OW18304   1.355   1.457  15.524 -0.2753  0.4299 -0.2531
 2282SOL    HW118305   1.368   1.392  15.455  0.0004  0.4037 -0.1782
 2282SOL    HW218306   1.443   1.456  15.561 -0.0756  2.0440 -0.6797
 2283SOL     OW18307   0.388   0.283  10.012 -0.5158  0.2519  0.2059
 2283SOL    HW118308   0.331   0.241  10.076 -1.4568  1.7865  0.3750
 2283SOL    HW218309   0.348   0.370  10.006 -0.2373  0.2858 -1.3633
 2284SOL     OW18310   3.265   1.946   3.618 -0.1613  0.2519  0.6123
 2284SOL    HW118311   3.266   1.968   3.525  1.0711  0.4688  0.6848
 2284SOL    HW218312   3.355   1.934   3.646 -0.4758 -0.8886  1.1691
 2285SOL     OW18313   3.519   0.559   4.791  0.2532  0.1302  0.6647
 2285SOL    HW118314   3.538   0.643   4.749 -2.2761 -0.4893 -1.7562
 2285SOL    HW218315   3.502   0.593   4.878  1.2424 -1.2178  1.3932
 2286SOL     OW18316   1.581   0.346   6.162 -0.0515  1.4309  0.1220
 2286SOL    HW118317   1.603   0.429   6.204  1.8934  1.0242 -0.0776
 2286SOL    HW218318   1.624   0.356   6.077 -3.2686  0.4603 -1.6199
 2287SOL     OW18319   2.730   2.429  17.503 -0.2466 -0.1966 -0.1304
 2287SOL    HW118320   2.706   2.336  17.504 -1.0082 -0.0110 -2.6052
 2287SOL    HW218321   2.821   2.415  17.529 -0.5577 -0.2582  0.9499
 2288SOL     OW18322   1.453   0.206   9.572 -0.2000 -0.5505  0.3739
 2288SOL    HW118323   1.433   0.137   9.509 -0.0349  0.7562 -1.0991
 2288SOL    HW218324   1.516   0.160   9.627  0.8159  0.3953 -0.0025
 2289SOL     OW18325   2.218   3.806   5.095 -0.5689 -0.2251 -0.1604
 2289SOL    HW118326   2.262   3.881   5.136  0.4640 -1.0971  0.3577
 2289SOL    HW218327   2.159   3.850   5.035 -0.6661  0.2930  0.3142
 2290SOL     OW18328   1.337   4.208  11.523  0.2009 -0.5348 -0.0896
 2290SOL    HW118329   1.394   4.146  11.476  0.3344  0.5276 -1.3281
 2290SOL    HW218330   1.255   4.192  11.476 -1.0642 -0.0982  1.9658
 2291SOL     OW18331   0.473   3.169  17.059  0.8900  0.1891 -0.2459
 2291SOL    HW118332   0.409   3.239  17.050 -0.9683 -1.7942 -2.1792
 2291SOL    HW218333   0.502   3.177  17.150  1.3917 -3.2775 -0.1000
 2292SOL     OW18334   3.241   1.041   6.263 -0.4091 -0.3675  0.1236
 2292SOL    HW118335   3.322   1.091   6.274 -0.5155 -0.1155 -0.2231
 2292SOL    HW218336   3.279   0.953   6.255  0.2442  0.0065 -0.8653
 2293SOL     OW18337   3.207   4.222   6.994  0.5360  0.2202  0.5940
 2293SOL    HW118338   3.282   4.192   6.944 -0.3578 -0.2708 -0.4567
 2293SOL    HW218339   3.144   4.205   6.923  0.2762  0.3409  0.7944
 2294SOL     OW18340   4.338   2.880   9.088  1.0062  0.1897 -0.6515
 2294SOL    HW118341   4.338   2.828   9.008 -0.8514 -0.7301 -0.0580
 2294SOL    HW218342   4.249   2.915   9.081  0.4162 -0.9973  0.9321
 2295SOL     OW18343   0.520   1.729   7.059 -1.0240  0.3737 -0.4631
 2295SOL    HW118344   0.576   1.681   6.999  0.1901  0.8841  0.2632
 2295SOL    HW218345   0.550   1.819   7.048 -0.6963  0.0492 -2.1912
 2296SOL     OW18346   2.988   4.407   8.895  0.0129 -0.2258 -0.0710
 2296SOL    HW118347   2.919   4.418   8.830 -1.7518 -0.6841  1.7357
 2296SOL    HW218348   2.954   4.460   8.967 -0.8686  0.8748 -1.3007
 2297SOL     OW18349   4.012   1.432   5.762  0.1948 -0.0577  0.1991
 2297SOL    HW118350   3.977   1.414   5.849  1.8753  0.4083  0.9768
 2297SOL    HW218351   4.023   1.342   5.732 -1.8769 -0.0950 -0.4308
 2298SOL     OW18352   3.664   1.446   6.518  0.1791 -0.7279 -0.6222
 2298SOL    HW118353   3.741   1.452   6.462  1.4216 -0.4948  1.1141
 2298SOL    HW218354   3.671   1.355   6.545 -0.3434 -0.0647  1.7599
 2299SOL     OW18355   1.198   3.403  14.895 -0.1762  0.0426  0.2986
 2299SOL    HW118356   1.253   3.481  14.888  2.1051 -1.7255 -1.4334
 2299SOL    HW218357   1.212   3.361  14.810  1.9315  0.8825  0.2254
 2300SOL     OW18358   4.636   1.766  13.159  0.2147  0.1994 -0.5441
 2300SOL    HW118359   4.589   1.683  13.166  0.5535  0.2187  1.9536
 2300SOL    HW218360   0.006   1.745  13.169 -1.0542 -4.1336  1.9973
 2301SOL     OW18361   2.220   2.610   2.828  0.0570 -0.2758  1.1772
 2301SOL    HW118362   2.179   2.630   2.744  1.5575  2.5017  1.0716
 2301SOL    HW218363   2.211   2.517   2.848  1.2432 -0.8188 -0.8636
 2302SOL     OW18364   4.545   0.175   6.201  0.4993  0.0222  0.1330
 2302SOL    HW118365   4.526   0.163   6.294 -2.5093 -0.9926 -0.5985
 2302SOL    HW218366   4.465   0.137   6.164  0.5278 -0.1998  0.3001
 2303SOL     OW18367   2.873   2.839   1.586 -0.2493 -0.0882  0.3472
 2303SOL    HW118368   2.848   2.772   1.523 -1.0799  0.2519  0.3146
 2303SOL    HW218369   2.867   2.792   1.669  1.7312 -1.3372 -0.2086
 2304SOL     OW18370   0.670   4.574   6.869 -0.5419 -0.4365 -0.2595
 2304SOL    HW118371   0.653   4.480   6.871 -0.9197 -0.3905 -1.6505
 2304SOL    HW218372   0.581   4.610   6.869  0.1504  1.3037  0.6349
 2305SOL     OW18373   4.185   4.432   4.634  0.7656 -0.2683  0.1019
 2305SOL    HW118374   4.128   4.506   4.613  3.1048  2.3790  3.2200
 2305SOL    HW218375   4.151   4.402   4.718 -0.1865  0.2875 -0.0870
 2306SOL     OW18376   4.160   4.531   9.402  0.2325 -0.5121 -0.1916
 2306SOL    HW118377   4.152   4.528   9.498  1.1882 -0.6085 -0.1075
 2306SOL    HW218378   4.086   4.580   9.367 -0.7104 -1.1248  0.9574
 2307SOL     OW18379   4.369   3.550  15.810  0.0424 -0.2287  0.1626
 2307SOL    HW118380   4.448   3.594  15.777 -0.6757  1.4361  0.7024
 2307SOL    HW218381   4.306   3.586  15.748  0.4626  0.8005  0.3354
 2308SOL     OW18382   3.067   4.222   7.666 -0.0467 -0.0445 -0.4340
 2308SOL    HW118383   3.151   4.259   7.693  0.2568 -1.1413  0.1266
 2308SOL    HW218384   3.017   4.236   7.747 -0.9243  1.6603 -1.2515
 2309SOL     OW18385   4.496   3.386   1.287  0.1554  0.6687 -0.1860
 2309SOL    HW118386   4.480   3.480   1.292 -0.1307  0.5791  0.5503
 2309SOL    HW218387   4.491   3.360   1.195  1.8187 -0.0482 -0.0721
 2310SOL     OW18388   1.603   4.236   0.150 -0.4213  0.2226 -0.6808
 2310SOL    HW118389   1.644   4.317   0.181 -0.9220 -0.5930  2.1049
 2310SOL    HW218390   1.652   4.170   0.199 -1.4840  0.2602  0.4205
 2311SOL     OW18391   0.481   3.917  12.978  0.5475 -0.3592 -0.1589
 2311SOL    HW118392   0.538   3.888  13.049 -0.1054  0.6820  0.7768
 2311SOL    HW218393   0.513   4.000  12.943 -0.2355 -0.6017 -1.4624
 2312SOL     OW18394   0.476   2.035   3.741 -0.2144 -0.4310 -0.2614
 2312SOL    HW118395   0.415   2.096   3.782  0.4182  1.8775 -2.7611
 2312SOL    HW218396   0.459   2.064   3.651  0.3477  1.0308  0.1120
 2313SOL     OW18397   3.867   3.843  13.150  0.1168  0.8261 -1.0554
 2313SOL    HW118398   3.881   3.937  13.136  0.6196  0.9183  0.0918
 2313SOL    HW218399   3.863   3.803  13.063  2.1031 -1.8153  0.0785
 2314SOL     OW18400   2.537   0.189   9.506  0.6031 -0.4324  0.3829
 2314SOL    HW118401   2.528   0.121   9.439  2.3309  0.5644 -0.8736
 2314SOL    HW218402   2.525   0.146   9.591  0.3816 -1.3648 -0.1156
 2315SOL     OW18403   4.383   3.214   7.651  0.1689 -0.0011 -0.2267
 2315SOL    HW118404   4.432   3.156   7.708  0.1925 -0.0001 -0.2457
 2315SOL    HW218405   4.394   3.171   7.566  0.6109  1.4265 -0.9003
 2316SOL     OW18406   1.814   2.809   8.845  0.0260  0.0608  0.0588
 2316SOL    HW118407   1.893   2.780   8.799 -0.2744  2.6572 -2.0832
 2316SOL    HW218408   1.744   2.751   8.816  2.5216 -1.7259 -2.4343
 2317SOL     OW18409   1.889   2.901   8.434  0.0003  0.2230 -0.5939
 2317SOL    HW118410   1.853   2.823   8.476  0.4274  0.1746 -0.3158
 2317SOL    HW218411   1.863   2.970   8.494 -0.7699 -1.5773  1.1268
 2318SOL     OW18412   4.116   0.107   8.771 -0.0508  0.2405  0.2071
 2318SOL    HW118413   4.084   0.197   8.774 -3.7449 -0.9902 -2.1911
 2318SOL    HW218414   4.109   0.091   8.677 -3.0377 -0.4794  0.5524
 2319SOL     OW18415   1.747   3.321   2.744 -0.0110  0.2746  0.0709
 2319SOL    HW118416   1.817   3.279   2.793  0.6262  1.2017 -0.0395
 2319SOL    HW218417   1.761   3.262   2.670  2.3966  0.2986  0.5026
 2320SOL     OW18418   2.744   2.247  11.326  0.1517 -0.1166  0.0222
 2320SOL    HW118419   2.775   2.300  11.399 -0.9684 -1.3466  1.3934
 2320SOL    HW218420   2.709   2.315  11.268 -0.9676 -0.8183 -0.1393
 2321SOL     OW18421   2.855   3.325   1.493  0.1886 -0.0250 -0.2397
 2321SOL    HW118422   2.937   3.324   1.542  0.6291 -0.0976 -0.9824
 2321SOL    HW218423   2.832   3.417   1.509  0.9914  0.1714 -0.2234
 2322SOL     OW18424   0.785   0.138   4.840 -0.3916  0.2895 -0.0656
 2322SOL    HW118425   0.852   0.202   4.816  0.2978 -0.0933  0.8229
 2322SOL    HW218426   0.779   0.073   4.770  2.0161  0.1531 -0.1588
 2323SOL     OW18427   4.131   1.577  11.785  0.3039  0.1513  0.5747
 2323SOL    HW118428   4.155   1.585  11.877 -0.1068  2.3888  0.4853
 2323SOL    HW218429   4.180   1.497  11.768  0.0185  0.0847  0.0749
 2324SOL     OW18430   2.598   2.894  14.119 -0.2871  0.2607  0.1278
 2324SOL    HW118431   2.668   2.906  14.184 -0.1242 -1.8611  0.3519
 2324SOL    HW218432   2.626   2.953  14.049 -0.6842 -0.2756 -0.4812
 2325SOL     OW18433   2.362   4.140   9.951  0.6920  0.1543 -0.4088
 2325SOL    HW118434   2.431   4.107   9.894  2.0307 -1.9653  2.4334
 2325SOL    HW218435   2.379   4.235   9.948  1.3289 -0.0300 -2.0735
 2326SOL     OW18436   3.834   3.856  17.495 -0.2818  0.3009 -0.1958
 2326SOL    HW118437   3.799   3.888  17.412  0.0775  2.2035  0.3943
 2326SOL    HW218438   3.882   3.929  17.533 -0.9840  0.8587 -0.3728
 2327SOL     OW18439   4.522   3.221  16.438  0.5421  0.4545 -0.2177
 2327SOL    HW118440   4.590   3.281  16.467  0.0481 -0.1893  2.2192
 2327SOL    HW218441   4.566   3.172  16.368 -0.0467  0.4651 -0.6024
 2328SOL     OW18442   1.471   2.783  13.912 -0.1789  0.2536  0.1853
 2328SOL    HW118443   1.505   2.866  13.879  2.3465 -1.9824 -2.8059
 2328SOL    HW218444   1.400   2.809  13.970  1.0585  0.1822  1.7259
 2329SOL     OW18445   2.161   0.566   3.981 -0.0599 -0.1132  0.7619
 2329SOL    HW118446   2.217   0.516   3.922  1.2152 -1.2342  2.9370
 2329SOL    HW218447   2.219   0.595   4.051  1.1377 -2.8147  0.8905
 2330SOL     OW18448   3.124   3.705   6.501 -0.1968 -0.0131 -0.3315
 2330SOL    HW118449   3.070   3.681   6.426  0.2721 -0.6524 -0.4625
 2330SOL    HW218450   3.085   3.784   6.537 -0.2013  0.2712 -0.9635
 2331SOL     OW18451   1.607   4.319   0.503 -0.3792  0.2167 -0.0373
 2331SOL    HW118452   1.649   4.333   0.588 -0.6351 -0.0540  0.1348
 2331SOL    HW218453   1.611   4.403   0.458 -1.3507 -0.8036 -2.0039
 2332SOL     OW18454   0.866   4.328   4.166  0.0027 -0.4398 -0.0913
 2332SOL    HW118455   0.786   4.278   4.151  1.7812 -2.8331 -1.4644
 2332SOL    HW218456   0.910   4.245   4.181 -1.7515 -1.0333  1.7162
 2333SOL     OW18457   4.454   0.347   9.902  0.2619  0.7962  0.0920
 2333SOL    HW118458   4.474   0.429   9.858 -1.6707  0.2667 -1.7344
 2333SOL    HW218459   4.505   0.291   9.843 -1.7193  0.2908 -1.1179
 2334SOL     OW18460   1.319   1.111   1.263 -0.0779 -0.1193  0.1862
 2334SOL    HW118461   1.308   1.127   1.169 -2.9456  0.9891  0.7103
 2334SOL    HW218462   1.357   1.024   1.254 -1.9915 -0.9695  0.3302
 2335SOL     OW18463   4.243   2.976   4.234 -0.4234  0.1045 -0.4632
 2335SOL    HW118464   4.328   2.965   4.275  1.6614  1.3893 -4.4621
 2335SOL    HW218465   4.256   2.962   4.140  0.7925 -0.9342 -0.1368
 2336SOL     OW18466   1.349   2.096   7.074 -0.0536 -0.3761  0.2586
 2336SOL    HW118467   1.433   2.137   7.052  1.1192 -2.3072  1.1473
 2336SOL    HW218468   1.318   2.129   7.159 -0.2396  0.3852 -0.1055
 2337SOL     OW18469   2.931   2.989   3.127 -0.1359 -0.3197 -0.3941
 2337SOL    HW118470   2.932   3.056   3.059 -0.2944 -0.0810 -0.1624
 2337SOL    HW218471   2.836   2.987   3.133 -0.1722  1.7805 -0.5047
 2338SOL     OW18472   3.442   2.172  11.340 -0.2581 -0.7421  0.4790
 2338SOL    HW118473   3.448   2.207  11.429  1.0038 -2.1102  0.9258
 2338SOL    HW218474   3.529   2.143  11.314 -0.0328 -0.3958  0.8561
 2339SOL     OW18475   2.082   0.852   7.315  0.4408 -0.7991  0.1733
 2339SOL    HW118476   2.075   0.838   7.409 -0.0661  0.9226  0.3838
 2339SOL    HW218477   2.008   0.906   7.288  1.0048  0.2749  0.7981
 2340SOL     OW18478   4.092   2.840   1.389 -0.4758 -0.0821  0.6438
 2340SOL    HW118479   4.042   2.830   1.308 -0.7057  3.6724  0.3520
 2340SOL    HW218480   4.072   2.759   1.437  0.4450  0.4890  1.9673
 2341SOL     OW18481   0.531   0.939  16.286 -0.5423  0.0167  0.4133
 2341SOL    HW118482   0.530   0.909  16.377 -1.5367 -0.4027  0.2607
 2341SOL    HW218483   0.554   1.029  16.310  2.3451  0.0152 -2.3473
 2342SOL     OW18484   2.790   0.213  15.503 -0.1461  0.1707  0.1363
 2342SOL    HW118485   2.750   0.156  15.568  1.4335  0.9193  1.7492
 2342SOL    HW218486   2.727   0.193  15.433  1.4767  0.5729 -1.4365
 2343SOL     OW18487   1.405   3.741   1.432 -0.5958  0.2064 -0.0389
 2343SOL    HW118488   1.391   3.684   1.356 -1.6200 -1.6095  1.5099
 2343SOL    HW218489   1.422   3.825   1.389 -0.2494  0.7747  1.2258
 2344SOL     OW18490   4.521   2.394  10.814  0.5726  0.3956  0.2487
 2344SOL    HW118491   4.434   2.368  10.784  0.0923 -0.0225  1.9989
 2344SOL    HW218492   4.511   2.485  10.842 -1.0412  1.7793 -4.9519
 2345SOL     OW18493   2.115   0.499   2.282  0.5727  0.5132 -0.1512
 2345SOL    HW118494   2.147   0.535   2.364 -2.1240 -1.6431  1.8262
 2345SOL    HW218495   2.065   0.421   2.306  1.0398  0.0810 -0.5638
 2346SOL     OW18496   1.286   2.257   3.261 -0.4551  0.4327 -0.0847
 2346SOL    HW118497   1.360   2.285   3.207 -0.3508 -0.0024 -0.1669
 2346SOL    HW218498   1.329   2.183   3.304 -0.5172  0.5941  0.2530
 2347SOL     OW18499   2.774   4.063  10.411  0.0771  0.1100 -0.2021
 2347SOL    HW118500   2.687   4.039  10.379  0.6207  0.5730 -2.0127
 2347SOL    HW218501   2.782   4.156  10.390  1.5752  0.0111 -0.1042
 2348SOL     OW18502   0.038   2.659  11.635  0.3423 -0.1376  0.1336
 2348SOL    HW118503   0.063   2.631  11.547 -0.6359  1.6823 -0.7247
 2348SOL    HW218504   0.116   2.706  11.666 -0.6761  1.5619  0.1291
 2349SOL     OW18505   2.586   1.259  17.155 -0.0614 -0.5574 -0.3328
 2349SOL    HW118506   2.566   1.280  17.246  1.4234 -1.6946  0.2633
 2349SOL    HW218507   2.527   1.320  17.111  0.9765  2.4206  2.3985
 2350SOL     OW18508   3.723   1.224  15.957  0.4384  0.4770 -0.0077
 2350SOL    HW118509   3.791   1.271  15.908 -1.1565  3.0411  0.2487
 2350SOL    HW218510   3.749   1.133  15.943 -1.8064 -0.1999  0.3146
 2351SOL     OW18511   1.549   3.731   8.196 -0.6175 -0.1470  0.0606
 2351SOL    HW118512   1.604   3.759   8.269 -0.2534 -1.1378  0.1733
 2351SOL    HW218513   1.472   3.781   8.224 -0.6496 -0.0316 -0.2376
 2352SOL     OW18514   3.215   0.992   3.559 -0.3476 -0.0013 -0.1583
 2352SOL    HW118515   3.179   0.949   3.637  0.3186  0.4475  0.3995
 2352SOL    HW218516   3.146   1.053   3.532  1.4983  2.3101  0.3688
 2353SOL     OW18517   0.611   0.990   5.015 -0.1719 -0.8442  0.3298
 2353SOL    HW118518   0.565   1.069   5.043 -0.4192 -1.8362  2.7296
 2353SOL    HW218519   0.616   0.944   5.098 -3.1266 -1.0352  0.3862
 2354SOL     OW18520   2.977   0.294   5.353  0.2134  0.5518  0.5629
 2354SOL    HW118521   2.919   0.258   5.420  0.6510 -0.1438  0.5806
 2354SOL    HW218522   3.054   0.240   5.374  0.6458  0.1973 -2.0019
 2355SOL     OW18523   1.489   2.642   4.960  0.2502  0.0544  0.5187
 2355SOL    HW118524   1.517   2.603   5.043  2.7235 -0.5368 -0.5706
 2355SOL    HW218525   1.398   2.656   4.984  0.2251  0.8940 -0.0675
 2356SOL     OW18526   1.245   1.055   2.798 -0.1283 -0.1984  0.4459
 2356SOL    HW118527   1.281   1.101   2.722  0.7895 -2.8722 -0.7165
 2356SOL    HW218528   1.330   1.023   2.827  0.8109  1.3705 -0.5630
 2357SOL     OW18529   4.268   4.141   9.757  0.0213  0.3983  0.0545
 2357SOL    HW118530   4.303   4.178   9.838  0.5720  0.2644 -0.1210
 2357SOL    HW218531   4.274   4.047   9.769  0.2111  0.2227 -1.4301
 2358SOL     OW18532   0.515   2.647   7.885  0.4516 -0.2841  0.2042
 2358SOL    HW118533   0.507   2.556   7.857 -2.5880  0.4724 -1.3322
 2358SOL    HW218534   0.567   2.692   7.818  2.1302 -2.2802  0.1526
 2359SOL     OW18535   4.723   4.216   4.064 -0.5308  0.5866 -0.1890
 2359SOL    HW118536   0.007   4.303   4.024 -1.4709  0.3368 -0.9092
 2359SOL    HW218537   0.024   4.250   4.150 -0.1660 -0.9743  0.3236
 2360SOL     OW18538   4.380   4.682   3.527  0.5929  0.2924 -0.0911
 2360SOL    HW118539   4.431   4.601   3.537  1.3492  0.7111 -0.5567
 2360SOL    HW218540   4.380   4.693   3.432 -3.3975  0.6274 -0.0521
 2361SOL     OW18541   4.300   1.819   9.413  0.3336 -0.0838 -0.2112
 2361SOL    HW118542   4.283   1.910   9.389  1.6367 -0.3145 -2.0044
 2361SOL    HW218543   4.386   1.800   9.376  0.4627  0.3459 -0.1279
 2362SOL     OW18544   2.125   2.527  13.647  0.1206  0.2854  0.0763
 2362SOL    HW118545   2.047   2.478  13.621 -0.6549  0.4295  2.1724
 2362SOL    HW218546   2.097   2.619  13.648  0.6667  0.4128  2.5708
 2363SOL     OW18547   0.940   3.432   7.273  0.2136  0.2035 -0.7837
 2363SOL    HW118548   0.850   3.402   7.273  0.5253 -0.7365  0.2041
 2363SOL    HW218549   0.983   3.348   7.257  0.6275  0.8443 -3.0196
 2364SOL     OW18550   1.188   1.968   0.019  0.7345 -0.3928  0.5231
 2364SOL    HW118551   1.099   2.000  17.692  0.3025 -1.6223  0.5135
 2364SOL    HW218552   1.194   1.979   0.114  0.5741 -3.3770  0.8787
 2365SOL     OW18553   0.162   2.848  14.427  0.4446  0.7487  0.3570
 2365SOL    HW118554   0.168   2.762  14.387 -0.2635  1.9695 -2.3902
 2365SOL    HW218555   0.167   2.905  14.350 -0.2989  1.2694  0.6885
 2366SOL     OW18556   1.026   0.477   8.801 -0.1238  0.1467 -0.2267
 2366SOL    HW118557   1.118   0.481   8.828 -0.5367 -0.3742  1.2314
 2366SOL    HW218558   1.036   0.543   8.732  5.0308 -0.4558 -0.1161
 2367SOL     OW18559   3.201   1.407   2.194  0.0466 -0.2429 -0.4124
 2367SOL    HW118560   3.151   1.480   2.230 -0.0099 -0.7540  0.5524
 2367SOL    HW218561   3.130   1.363   2.147  0.7213 -1.3259 -0.4033
 2368SOL     OW18562   3.230   0.822   2.350 -0.1096 -0.5601 -0.3189
 2368SOL    HW118563   3.165   0.757   2.379 -1.3227  0.4696 -0.7545
 2368SOL    HW218564   3.233   0.796   2.258  4.0677 -0.0633 -0.3126
 2369SOL     OW18565   1.898   2.855   5.495 -0.0534 -0.0244  0.1150
 2369SOL    HW118566   1.838   2.793   5.537 -0.9764  1.1346  0.5310
 2369SOL    HW218567   1.923   2.913   5.567  1.5698  0.3400 -0.7432
 2370SOL     OW18568   1.428   1.268   2.230  0.4131  0.1473  0.6907
 2370SOL    HW118569   1.444   1.228   2.145 -1.7856  1.7213 -0.4630
 2370SOL    HW218570   1.451   1.200   2.293 -0.5606  0.7507  1.7045
 2371SOL     OW18571   3.521   3.279   8.520  0.7012  0.4142  0.0157
 2371SOL    HW118572   3.450   3.239   8.470  0.9808  0.8448 -0.7397
 2371SOL    HW218573   3.485   3.364   8.547 -0.9036  0.2802 -1.6586
 2372SOL     OW18574   3.004   0.092  13.607 -0.3812  0.1838 -0.3840
 2372SOL    HW118575   2.958   0.023  13.655  3.0614 -3.3188 -2.1649
 2372SOL    HW218576   3.075   0.037  13.575 -0.8891 -0.4800 -0.3797
 2373SOL     OW18577   1.979   4.509   0.116  0.3797  0.2218 -0.2767
 2373SOL    HW118578   2.003   4.482   0.027  0.3552  0.5268 -0.3753
 2373SOL    HW218579   2.046   4.577   0.128  2.2720 -1.9880  1.5401
 2374SOL     OW18580   2.616   3.792   8.093 -0.3624 -0.0882 -0.0337
 2374SOL    HW118581   2.544   3.827   8.040  0.3987  1.1648 -0.2396
 2374SOL    HW218582   2.613   3.861   8.159  0.6832 -1.8488  1.8755
 2375SOL     OW18583   4.125   2.661   6.468  0.0843  0.4034  0.1541
 2375SOL    HW118584   4.087   2.593   6.524 -2.0344  2.0559  0.7469
 2375SOL    HW218585   4.059   2.652   6.400  0.5847 -0.9110 -0.1686
 2376SOL     OW18586   0.583   3.339  15.791 -0.5236  0.1464 -0.1989
 2376SOL    HW118587   0.666   3.385  15.804  0.2490 -1.3753  0.2656
 2376SOL    HW218588   0.535   3.397  15.733 -2.7675 -1.4384  0.0950
 2377SOL     OW18589   1.323   4.339   0.507  0.2378 -0.7093  0.1964
 2377SOL    HW118590   1.293   4.255   0.472  0.8956 -0.8694  0.0330
 2377SOL    HW218591   1.415   4.341   0.481  0.3350 -0.0883  0.5862
 2378SOL     OW18592   3.317   0.506   7.537 -1.0569 -0.2821 -0.1832
 2378SOL    HW118593   3.251   0.544   7.478 -1.4597 -1.3158 -0.3962
 2378SOL    HW218594   3.303   0.414   7.515 -1.0287 -0.1303 -0.8200
 2379SOL     OW18595   2.465   2.888   6.358  0.7665  0.3000 -0.3312
 2379SOL    HW118596   2.561   2.887   6.358  0.7623 -0.4222  2.1054
 2379SOL    HW218597   2.440   2.816   6.301 -0.5579 -0.0815  0.7392
 2380SOL     OW18598   3.650   1.956   6.979  0.2271 -0.1865 -0.6660
 2380SOL    HW118599   3.716   2.026   6.974 -0.7065  0.8202  1.0399
 2380SOL    HW218600   3.575   1.991   6.932 -1.3244 -0.7934  1.3881
 2381SOL     OW18601   3.111   0.248   6.087  0.2205 -0.2127  0.1976
 2381SOL    HW118602   3.046   0.229   6.155 -1.1321 -2.6034 -1.7635
 2381SOL    HW218603   3.167   0.302   6.141  0.9208  1.4394 -2.1997
 2382SOL     OW18604   3.076   3.799  13.695 -0.1182  0.4000 -0.3576
 2382SOL    HW118605   3.148   3.860  13.713 -0.0780  0.4607 -0.7172
 2382SOL    HW218606   3.063   3.760  13.781 -1.4903  2.3937  0.3267
 2383SOL     OW18607   2.647   3.041   3.886  0.4293  0.2471  0.3983
 2383SOL    HW118608   2.660   3.045   3.980 -2.1272  1.8123  0.6721
 2383SOL    HW218609   2.677   3.125   3.852 -0.4710  0.4375  0.0730
 2384SOL     OW18610   0.327   2.419   1.471 -0.1782  0.3699  0.0786
 2384SOL    HW118611   0.293   2.373   1.548  1.7193 -3.5966 -1.4385
 2384SOL    HW218612   0.241   2.424   1.430  0.6953 -0.0536 -1.7758
 2385SOL     OW18613   1.426   0.705   9.386  0.1487  0.2953  0.0505
 2385SOL    HW118614   1.414   0.766   9.459  0.2415 -0.9070  1.0586
 2385SOL    HW218615   1.412   0.622   9.432  1.6515  0.2254  0.3852
 2386SOL     OW18616   1.202   2.635   2.704 -0.2757  0.0416  0.5016
 2386SOL    HW118617   1.249   2.718   2.701  0.5304 -0.5049 -2.6996
 2386SOL    HW218618   1.114   2.670   2.691  0.4288  1.6363  0.1613
 2387SOL     OW18619   2.231   4.081  11.791  0.1127 -0.3267 -0.4796
 2387SOL    HW118620   2.265   4.171  11.787  0.2808 -0.2966  1.6818
 2387SOL    HW218621   2.169   4.086  11.863 -0.2629 -1.5086 -0.7146
 2388SOL     OW18622   0.187   0.782   6.950 -0.1630  0.0423 -0.2470
 2388SOL    HW118623   0.172   0.689   6.939 -1.3187  0.2252 -0.2159
 2388SOL    HW218624   0.223   0.790   7.039 -0.9020 -1.4182  0.1749
 2389SOL     OW18625   3.225   1.495  16.419  0.3144 -0.3211  0.0584
 2389SOL    HW118626   3.184   1.409  16.429  0.1403 -0.3789 -1.0812
 2389SOL    HW218627   3.303   1.478  16.367  1.1993  2.7225  0.3696
 2390SOL     OW18628   1.354   2.268   8.878 -0.4299 -0.0350  0.3158
 2390SOL    HW118629   1.321   2.194   8.827 -0.2133 -0.0494  0.1963
 2390SOL    HW218630   1.333   2.244   8.969 -1.1698  0.7231  0.3415
 2391SOL     OW18631   3.608   0.628   5.491 -0.2281  0.2840 -0.0204
 2391SOL    HW118632   3.641   0.576   5.564  1.0932  0.6439 -0.3588
 2391SOL    HW218633   3.654   0.712   5.486 -2.4368  1.4256 -0.8829
 2392SOL     OW18634   0.160   2.575   3.290  0.1153 -0.1534  0.5305
 2392SOL    HW118635   0.171   2.624   3.208  0.7813 -0.3024  0.5281
 2392SOL    HW218636   0.235   2.613   3.337 -1.5451  1.6758  1.6834
 2393SOL     OW18637   3.325   4.513   3.004  0.0653  0.4476  0.3839
 2393SOL    HW118638   3.269   4.571   3.056 -1.2375 -0.8815  0.4911
 2393SOL    HW218639   3.288   4.525   2.917  1.2034  1.6776  0.0829
 2394SOL     OW18640   4.599   3.913   8.088  0.1769  0.3739 -0.2483
 2394SOL    HW118641   4.623   3.973   8.159 -0.1913 -1.5064  1.4732
 2394SOL    HW218642   4.673   3.853   8.087 -0.3608 -0.2693 -2.0878
 2395SOL     OW18643   0.560   2.441   4.991 -0.2507  0.2601 -0.0561
 2395SOL    HW118644   0.485   2.496   4.970  0.7206  0.9310 -1.8427
 2395SOL    HW218645   0.533   2.367   4.937  1.4970 -1.4858  1.4541
 2396SOL     OW18646   0.318   3.196  13.353  0.2836  0.0498  0.3937
 2396SOL    HW118647   0.327   3.101  13.358 -0.6635 -0.0507  0.1957
 2396SOL    HW218648   0.365   3.220  13.432  3.2723  0.1312 -1.4117
 2397SOL     OW18649   0.194   0.722   7.622 -0.1297 -0.2078 -0.4471
 2397SOL    HW118650   0.123   0.706   7.683 -0.6488  1.7736 -0.5519
 2397SOL    HW218651   0.207   0.633   7.587  0.2324 -0.2213 -0.2827
 2398SOL     OW18652   0.260   1.244   6.400  0.4449  0.7188 -0.4315
 2398SOL    HW118653   0.268   1.198   6.484  0.5200 -0.1288 -0.8986
 2398SOL    HW218654   0.268   1.168   6.342 -1.8420  0.2348 -0.1258
 2399SOL     OW18655   3.349   0.737   9.475 -0.0861  0.4753 -0.3571
 2399SOL    HW118656   3.357   0.827   9.507 -0.5862  0.8914 -1.4099
 2399SOL    HW218657   3.416   0.700   9.533  1.6874  0.0764 -2.6662
 2400SOL     OW18658   2.808   2.146   2.307  0.3283 -0.0326  0.2069
 2400SOL    HW118659   2.894   2.127   2.271 -0.4218 -0.3281 -1.4246
 2400SOL    HW218660   2.767   2.189   2.231 -0.6200 -1.1818  0.0703
 2401SOL     OW18661   3.031   4.276   9.326  0.1851 -0.1246 -0.5627
 2401SOL    HW118662   2.980   4.344   9.284 -2.5066 -1.0669  1.1193
 2401SOL    HW218663   3.059   4.223   9.251 -2.8067 -1.9385 -0.4236
 2402SOL     OW18664   3.168   0.287   6.361  0.2338  0.6411 -0.9146
 2402SOL    HW118665   3.232   0.309   6.429  0.0698 -0.5465 -0.3624
 2402SOL    HW218666   3.125   0.211   6.402 -1.2973  1.3310 -1.2720
 2403SOL     OW18667   2.921   4.609   9.495 -0.4455 -1.0066  0.3944
 2403SOL    HW118668   3.014   4.598   9.516 -0.2345  0.8673  0.4428
 2403SOL    HW218669   2.929   4.703   9.515 -1.6991 -0.4095 -1.8882
 2404SOL     OW18670   3.573   3.382   4.135  0.1667  0.1887  0.0335
 2404SOL    HW118671   3.648   3.436   4.156  0.5584 -0.7074  0.9440
 2404SOL    HW218672   3.510   3.425   4.077 -0.0011  0.1232  0.1668
 2405SOL     OW18673   4.045   1.631   8.396  0.2132  0.3316  0.1777
 2405SOL    HW118674   4.137   1.656   8.393 -0.0210  1.3044  1.2254
 2405SOL    HW218675   4.047   1.558   8.457  2.5117 -1.5508 -2.1775
 2406SOL     OW18676   3.658   4.168   2.188  0.0854 -0.7038  0.4028
 2406SOL    HW118677   3.733   4.215   2.152  0.1450 -0.7455  0.4754
 2406SOL    HW218678   3.587   4.230   2.166  0.7167  0.4820  1.6793
 2407SOL     OW18679   0.463   3.371  10.853 -0.3876 -0.3972 -0.7393
 2407SOL    HW118680   0.485   3.446  10.907  0.2205 -0.7213 -0.5408
 2407SOL    HW218681   0.368   3.378  10.864 -0.3894 -1.7109  0.1180
 2408SOL     OW18682   1.962   0.053  15.359  0.3208 -0.2520  0.1449
 2408SOL    HW118683   1.942   4.688  15.391  2.1411 -1.4170 -1.9233
 2408SOL    HW218684   1.931   0.040  15.270 -2.3057 -0.2674  1.0716
 2409SOL     OW18685   0.986   3.527   3.034  0.5766  0.1134 -0.5406
 2409SOL    HW118686   1.011   3.457   2.973 -0.3993 -1.7744  1.2254
 2409SOL    HW218687   1.026   3.605   2.995  1.4397  0.8119  1.7602
 2410SOL     OW18688   1.236   4.574   2.355 -0.4002  0.2338  0.1958
 2410SOL    HW118689   1.174   4.590   2.284 -1.3311  0.8096  1.1401
 2410SOL    HW218690   1.193   4.506   2.406 -0.4159  0.4677  0.4984
 2411SOL     OW18691   0.659   1.367   8.343 -0.2188  0.7416 -0.3594
 2411SOL    HW118692   0.690   1.368   8.434  0.5463  0.5306 -0.6098
 2411SOL    HW218693   0.656   1.272   8.327 -1.6200  0.3614  2.1831
 2412SOL     OW18694   0.661   3.595   8.386 -0.0143  0.1633  0.3461
 2412SOL    HW118695   0.742   3.621   8.430  0.7930 -1.1135 -0.4148
 2412SOL    HW218696   0.635   3.516   8.433  2.1812 -0.7022  0.0768
 2413SOL     OW18697   1.661   0.118  15.199  0.0464  0.6348  0.1917
 2413SOL    HW118698   1.660   0.088  15.290  0.9867 -2.3287 -0.7811
 2413SOL    HW218699   1.736   0.073  15.160  1.3054  0.7683  2.5137
 2414SOL     OW18700   3.145   3.576   1.315 -0.3243  0.0600  0.1259
 2414SOL    HW118701   3.139   3.488   1.279  0.9949  0.0945 -0.1794
 2414SOL    HW218702   3.061   3.582   1.361  0.2410 -2.2294  1.4242
 2415SOL     OW18703   2.881   0.300  12.199 -0.1076 -0.1024 -0.0351
 2415SOL    HW118704   2.798   0.257  12.176 -1.0643  1.9744 -0.4049
 2415SOL    HW218705   2.846   0.378  12.241 -2.2489 -0.8419 -0.4607
 2416SOL     OW18706   2.211   2.963  16.011  0.9269 -0.5240 -0.4071
 2416SOL    HW118707   2.259   3.001  15.937  1.1945 -0.7367 -0.3428
 2416SOL    HW218708   2.279   2.909  16.051  1.3669 -0.1663 -0.6742
 2417SOL     OW18709   2.128   2.127   8.406 -0.2688 -0.1637  0.0305
 2417SOL    HW118710   2.186   2.052   8.389  0.7678  0.5709  0.3227
 2417SOL    HW218711   2.155   2.176   8.329 -0.4264  0.4827  0.3874
 2418SOL     OW18712   2.500   4.331   5.557 -0.2769  0.1885  0.2021
 2418SOL    HW118713   2.465   4.256   5.510  0.6837 -1.2143  1.6883
 2418SOL    HW218714   2.454   4.403   5.515  2.1887  1.0538 -1.0472
 2419SOL     OW18715   0.620   0.683   1.168 -0.2087 -0.0509 -0.6052
 2419SOL    HW118716   0.565   0.632   1.108 -1.6953  0.4442  0.3388
 2419SOL    HW218717   0.644   0.758   1.115 -3.6737  1.3188 -0.2439
 2420SOL     OW18718   1.093   4.553   3.580  0.0016  0.1493  0.1121
 2420SOL    HW118719   1.072   4.620   3.515 -1.2044 -0.4640 -0.1425
 2420SOL    HW218720   1.185   4.531   3.565 -0.6457 -1.3496 -1.6435
 2421SOL     OW18721   0.655   1.862   6.454 -0.4600 -0.5337  0.6081
 2421SOL    HW118722   0.579   1.831   6.404  0.1719  1.2029 -1.4335
 2421SOL    HW218723   0.617   1.864   6.542 -0.9772  0.1534  0.3719
 2422SOL     OW18724   4.296   4.650   8.845 -0.3186  0.7759 -0.2795
 2422SOL    HW118725   4.343   4.652   8.762 -2.1810 -0.3910 -1.3597
 2422SOL    HW218726   4.230   4.715   8.823 -1.7496 -0.5906 -0.0239
 2423SOL     OW18727   0.781   0.920  17.599 -1.1221  0.1510  0.2807
 2423SOL    HW118728   0.700   0.904  17.551 -0.5415 -0.7072 -0.3933
 2423SOL    HW218729   0.749   0.998  17.645  0.9920  0.1990  1.7118
 2424SOL     OW18730   3.668   2.481   5.857 -0.2120  0.0999  0.5285
 2424SOL    HW118731   3.585   2.435   5.865  0.3306 -0.7533  1.2921
 2424SOL    HW218732   3.715   2.439   5.784 -1.2694 -2.2006  1.1530
 2425SOL     OW18733   0.177   0.786   6.596  0.1108  0.1146 -0.0507
 2425SOL    HW118734   0.166   0.698   6.561  2.0212  0.5207 -1.6411
 2425SOL    HW218735   0.271   0.804   6.605  0.3759  0.3672 -3.3568
 2426SOL     OW18736   0.323   1.140   1.188 -0.1594  0.1310  0.3197
 2426SOL    HW118737   0.291   1.229   1.204 -0.7927  0.0296 -0.3894
 2426SOL    HW218738   0.408   1.139   1.231 -0.0097  0.0603  0.0234
 2427SOL     OW18739   1.211   4.567   8.202  0.2659  0.3803 -0.2425
 2427SOL    HW118740   1.222   4.661   8.184 -0.1834  0.6390  0.8440
 2427SOL    HW218741   1.163   4.537   8.125 -1.1162 -0.3400  0.9028
 2428SOL     OW18742   2.620   4.629   9.842 -0.5465 -0.0449  0.1479
 2428SOL    HW118743   2.572   4.568   9.897 -0.6040 -0.7447 -0.6779
 2428SOL    HW218744   2.661   4.580   9.771 -0.2864  0.2106  0.1219
 2429SOL     OW18745   3.820   2.049   3.642  0.0587  0.1061  0.4289
 2429SOL    HW118746   3.885   2.119   3.652 -0.6596  0.9608 -0.8422
 2429SOL    HW218747   3.842   1.981   3.704  2.8994  1.5770  1.0270
 2430SOL     OW18748   2.329   2.710   8.121  0.3299  0.1126 -0.1002
 2430SOL    HW118749   2.353   2.681   8.209 -0.6765 -0.2375  0.0555
 2430SOL    HW218750   2.404   2.759   8.088  0.2983 -0.5579 -1.1705
 2431SOL     OW18751   3.134   3.813   0.659 -0.5730  0.2946  0.0394
 2431SOL    HW118752   3.183   3.872   0.716  1.3246 -2.5897  1.3835
 2431SOL    HW218753   3.181   3.731   0.648 -1.4824  0.0453 -1.8717
 2432SOL     OW18754   0.683   0.238   4.403 -0.0616  0.3899 -0.3499
 2432SOL    HW118755   0.624   0.163   4.410  1.3836 -0.6646  0.6604
 2432SOL    HW218756   0.670   0.265   4.312  1.0366 -0.6273 -0.8179
 2433SOL     OW18757   0.577   2.280  11.268 -0.1047 -0.1703  0.2093
 2433SOL    HW118758   0.493   2.251  11.303 -0.0083 -1.2590 -0.4875
 2433SOL    HW218759   0.564   2.300  11.175 -0.2947 -2.1009 -0.1648
 2434SOL     OW18760   2.573   3.890   7.303  0.1573  0.1097  0.4118
 2434SOL    HW118761   2.578   3.978   7.342  1.4186 -0.2392  1.0384
 2434SOL    HW218762   2.479   3.881   7.319 -0.0494  0.5445 -0.5918
 2435SOL     OW18763   1.678   4.640  15.379 -0.5782 -0.1991 -0.9846
 2435SOL    HW118764   1.592   4.599  15.379 -1.2502  1.2062 -0.9608
 2435SOL    HW218765   1.740   4.570  15.358 -1.9536 -1.7595  0.1810
 2436SOL     OW18766   0.045   0.260   5.313 -0.6059 -0.6018 -0.0748
 2436SOL    HW118767   0.131   0.223   5.328 -0.7947 -0.6405  0.9049
 2436SOL    HW218768   0.056   0.278   5.220  0.1152  0.1658  0.1526
 2437SOL     OW18769   2.222   0.405   4.617  0.3442  0.1398 -0.7075
 2437SOL    HW118770   2.276   0.351   4.675 -1.4139  0.5148  1.2803
 2437SOL    HW218771   2.281   0.476   4.594  1.5136 -0.5843  0.0484
 2438SOL     OW18772   1.077   4.591   2.859  0.1986 -0.3900  0.3534
 2438SOL    HW118773   1.164   4.552   2.865  0.7092  1.0534  2.3559
 2438SOL    HW218774   1.025   4.526   2.904  1.4721  0.5323  3.1378
 2439SOL     OW18775   0.662   1.509   8.118  0.7800 -0.2879  0.0864
 2439SOL    HW118776   0.649   1.450   8.192 -0.2249 -1.0218 -0.6750
 2439SOL    HW218777   0.664   1.444   8.047  1.7328  0.8159 -0.8824
 2440SOL     OW18778   1.353   4.456   9.458 -0.0332  0.1972  0.2754
 2440SOL    HW118779   1.337   4.370   9.496  0.3821  0.7646  1.7048
 2440SOL    HW218780   1.262   4.482   9.448  0.1673  0.5513 -0.6817
 2441SOL     OW18781   1.020   4.329   6.395 -0.0746 -0.2865  0.0803
 2441SOL    HW118782   1.092   4.286   6.351 -0.9921 -0.1224 -1.5672
 2441SOL    HW218783   0.969   4.374   6.327 -0.1996 -1.2698 -0.4768
 2442SOL     OW18784   1.115   1.876  16.165  0.0828  0.1205 -0.5289
 2442SOL    HW118785   1.093   1.920  16.247 -1.2215 -1.0436 -0.2687
 2442SOL    HW218786   1.078   1.945  16.110  1.2586  0.3674 -1.0214
 2443SOL     OW18787   2.795   0.427   3.381 -0.6316  0.1801  0.1652
 2443SOL    HW118788   2.787   0.501   3.321  0.6962  0.6734  0.5885
 2443SOL    HW218789   2.886   0.397   3.373 -0.8373 -0.3968 -0.0067
 2444SOL     OW18790   2.273   2.109   5.468  0.2237 -0.1561  0.0558
 2444SOL    HW118791   2.301   2.018   5.459 -0.7287 -0.3598 -0.9385
 2444SOL    HW218792   2.266   2.144   5.379  0.1180 -0.6513 -0.1329
 2445SOL     OW18793   4.086   2.691   7.692  0.4682 -0.1218  0.2104
 2445SOL    HW118794   4.092   2.616   7.632 -1.7032 -0.2816  0.1947
 2445SOL    HW218795   3.991   2.692   7.699  0.3737 -0.1051 -0.9711
 2446SOL     OW18796   3.188   0.058   5.113 -0.3984  0.0928 -0.1933
 2446SOL    HW118797   3.152   0.056   5.201  0.9627 -2.9594  0.2941
 2446SOL    HW218798   3.201   4.691   5.083 -0.0320 -0.2100  0.8726
 2447SOL     OW18799   2.353   3.261  12.750  0.5729 -0.0622  0.0753
 2447SOL    HW118800   2.377   3.218  12.832 -1.1991 -0.1227  0.5590
 2447SOL    HW218801   2.434   3.266  12.699  1.2334  0.4040  1.1707
 2448SOL     OW18802   1.506   2.060   9.139 -0.6511  0.0928  0.3757
 2448SOL    HW118803   1.446   2.029   9.071 -1.1576 -0.5239  1.1127
 2448SOL    HW218804   1.454   2.129   9.180  0.4865  2.3654 -2.0057
 2449SOL     OW18805   0.797   1.731   2.205 -0.0887  0.0574  0.4163
 2449SOL    HW118806   0.845   1.798   2.254 -0.5194 -0.0027  0.9328
 2449SOL    HW218807   0.806   1.752   2.113 -1.6198 -1.3768 -0.0672
 2450SOL     OW18808   3.956   2.632  15.328 -0.6018 -0.2797 -0.2849
 2450SOL    HW118809   3.925   2.721  15.345  1.5123  0.0500  1.9380
 2450SOL    HW218810   3.907   2.623  15.246 -1.0477 -1.5020  0.1104
 2451SOL     OW18811   1.356   0.153   3.557  0.2986  0.4141 -0.0796
 2451SOL    HW118812   1.447   0.127   3.545 -0.4580 -1.7621 -1.1058
 2451SOL    HW218813   1.370   0.247   3.548  1.3155  0.2027 -0.7117
 2452SOL     OW18814   3.271   3.261   3.712  0.5988 -0.2112 -0.1397
 2452SOL    HW118815   3.366   3.260   3.724  0.4846  2.1327  0.9860
 2452SOL    HW218816   3.261   3.340   3.660 -0.7629  0.9299  1.8328
 2453SOL     OW18817   0.701   2.318  16.161 -0.0302 -0.5782 -0.0410
 2453SOL    HW118818   0.632   2.260  16.192 -2.0149  0.8458 -1.7875
 2453SOL    HW218819   0.739   2.273  16.086  0.6491 -0.1770  0.0572
 2454SOL     OW18820   2.340   1.928   1.529 -0.0729  0.2539 -0.2408
 2454SOL    HW118821   2.434   1.922   1.516 -0.0517  0.0283  0.0142
 2454SOL    HW218822   2.327   2.021   1.548  0.4007  0.5031 -1.1386
 2455SOL     OW18823   0.760   3.068   2.460 -0.1320 -0.2805  0.0259
 2455SOL    HW118824   0.760   2.976   2.434  0.0770 -0.1242 -0.5311
 2455SOL    HW218825   0.746   3.119   2.380  1.5474 -1.5808 -1.1247
 2456SOL     OW18826   1.497   4.679  13.873 -0.0796  0.4361  0.3238
 2456SOL    HW118827   1.537   4.636  13.797  1.3192  1.0449  0.7222
 2456SOL    HW218828   1.406   4.671  13.846  0.4179 -1.6017 -0.7611
 2457SOL     OW18829   4.274   1.072   5.432  0.3566 -0.4442 -0.2011
 2457SOL    HW118830   4.235   1.024   5.359  2.1914  2.3211 -3.0302
 2457SOL    HW218831   4.293   1.000   5.493  0.3105  0.1757  0.5436
 2458SOL     OW18832   0.719   0.169   3.119  0.2111 -0.0358  0.0743
 2458SOL    HW118833   0.799   0.146   3.167 -0.5144 -2.1774  0.2367
 2458SOL    HW218834   0.691   0.252   3.159 -0.0974 -1.2167  2.2953
 2459SOL     OW18835   0.947   3.093  16.267  0.0066  0.2322 -0.4510
 2459SOL    HW118836   0.963   3.147  16.345  1.3072  0.2433 -0.7278
 2459SOL    HW218837   1.024   3.125  16.218  0.5330 -0.6246 -0.1856
 2460SOL     OW18838   0.265   0.970   9.429  0.3507 -0.1531 -0.7285
 2460SOL    HW118839   0.225   0.896   9.476 -0.1157  0.7786  0.3398
 2460SOL    HW218840   0.280   0.933   9.342  0.1521  0.5730 -1.0627
 2461SOL     OW18841   2.415   0.944   4.321 -0.0481 -0.1994 -0.3945
 2461SOL    HW118842   2.457   0.971   4.402 -1.9743  0.6330  0.3176
 2461SOL    HW218843   2.330   0.985   4.332  0.1786 -0.4993  2.3950
 2462SOL     OW18844   3.459   2.555   2.953  0.0265 -0.3347  0.6206
 2462SOL    HW118845   3.426   2.540   3.041  0.1416 -3.3763  0.1347
 2462SOL    HW218846   3.550   2.525   2.964 -0.4125 -0.4733  3.8374
 2463SOL     OW18847   2.337   0.791  14.758 -0.1441 -0.5790  0.3901
 2463SOL    HW118848   2.322   0.848  14.682 -0.0908 -0.0467  0.7825
 2463SOL    HW218849   2.391   0.727  14.710 -1.8423 -1.2185 -0.6617
 2464SOL     OW18850   4.068   1.784   2.011  0.3541 -0.0280  0.3135
 2464SOL    HW118851   4.146   1.758   2.059  0.5670 -0.6033 -0.3446
 2464SOL    HW218852   4.054   1.873   2.044 -3.2598 -0.6585  0.4718
 2465SOL     OW18853   4.444   3.057   0.551 -0.0659  0.6764 -0.2829
 2465SOL    HW118854   4.367   3.040   0.606 -0.1198 -0.3404 -0.6768
 2465SOL    HW218855   4.456   2.967   0.523  0.3448  0.3780  0.8391
 2466SOL     OW18856   0.695   2.431   8.066  0.2443 -0.4203  0.6684
 2466SOL    HW118857   0.746   2.495   8.017 -2.2116 -0.3237 -1.7432
 2466SOL    HW218858   0.614   2.480   8.081 -1.2537 -2.2739 -1.3099
 2467SOL     OW18859   2.120   2.214   9.931 -0.2142  0.0641  0.1213
 2467SOL    HW118860   2.111   2.129   9.973 -2.1328  0.2250  0.0425
 2467SOL    HW218861   2.134   2.186   9.841  0.0829  0.8233 -0.0748
 2468SOL     OW18862   0.604   0.272  15.987  0.3207 -0.2078  0.1710
 2468SOL    HW118863   0.538   0.331  16.023 -1.1866 -1.6234 -0.2771
 2468SOL    HW218864   0.558   0.189  15.974  2.7768 -1.7514  1.3347
 2469SOL     OW18865   2.918   4.496  13.394  0.7430 -0.2514 -0.1142
 2469SOL    HW118866   2.909   4.419  13.450  1.4770  2.0575  3.1744
 2469SOL    HW218867   2.939   4.558  13.464  0.9459  0.3844 -0.7410
 2470SOL     OW18868   1.045   0.341  16.586 -0.5477 -0.0057 -0.2340
 2470SOL    HW118869   1.113   0.313  16.647  0.3705  1.0730 -0.7636
 2470SOL    HW218870   1.024   0.434  16.601  1.1461  0.6229 -1.8482
 2471SOL     OW18871   2.573   2.791   9.159 -0.4249  0.0392 -0.1210
 2471SOL    HW118872   2.627   2.817   9.234  0.0884 -0.9045 -0.1662
 2471SOL    HW218873   2.492   2.757   9.197  0.0229 -0.9429 -0.0426
 2472SOL     OW18874   2.251   0.695  12.797  0.2162  0.1164  0.5848
 2472SOL    HW118875   2.321   0.657  12.744  0.0311  2.0659 -1.0278
 2472SOL    HW218876   2.231   0.627  12.861  0.7626 -0.5750  0.0233
 2473SOL     OW18877   3.710   1.593   4.533  0.1601 -0.7275  0.1941
 2473SOL    HW118878   3.699   1.510   4.581 -0.4311  1.0475  3.1176
 2473SOL    HW218879   3.760   1.557   4.460  1.1497  0.9113  0.0882
 2474SOL     OW18880   1.100   2.764   6.752  0.5403  0.0429  0.2808
 2474SOL    HW118881   1.122   2.676   6.722 -2.1499  0.3517 -2.6041
 2474SOL    HW218882   1.169   2.810   6.703  0.0861  0.3740 -0.0463
 2475SOL     OW18883   2.817   3.227  14.955  0.3600 -0.1249 -0.2194
 2475SOL    HW118884   2.818   3.173  15.034 -1.3640 -0.5272 -0.4717
 2475SOL    HW218885   2.909   3.243  14.974  0.7267  0.2308 -2.3777
 2476SOL     OW18886   2.441   3.506   6.038 -0.5935 -0.2630 -0.5081
 2476SOL    HW118887   2.509   3.442   6.018 -1.8333 -1.9428  0.7411
 2476SOL    HW218888   2.455   3.581   5.979 -0.1333  0.4869  0.5466
 2477SOL     OW18889   2.374   4.115   3.948  0.5176  0.6135  0.0338
 2477SOL    HW118890   2.467   4.095   3.949  0.2808 -0.5283 -0.8110
 2477SOL    HW218891   2.381   4.156   3.861 -2.1473 -1.2939 -1.0851
 2478SOL     OW18892   0.373   0.833  16.510 -0.2193  0.0871 -0.3342
 2478SOL    HW118893   0.307   0.901  16.493  0.4832  0.4141 -1.7156
 2478SOL    HW218894   0.344   0.777  16.438 -0.4161 -1.3313  0.8349
 2479SOL     OW18895   3.634   3.527   5.267  0.2122 -0.5188 -0.1637
 2479SOL    HW118896   3.539   3.515   5.264  0.2101 -0.9595  1.3292
 2479SOL    HW218897   3.651   3.556   5.178  0.4077 -2.0331 -0.6096
 2480SOL     OW18898   0.846   3.888   5.469  0.5856 -0.0715  0.5698
 2480SOL    HW118899   0.846   3.936   5.386 -1.5021 -2.3637 -0.7522
 2480SOL    HW218900   0.830   3.799   5.437  1.4848 -0.3695  0.9722
 2481SOL     OW18901   1.320   4.487   5.241  0.3553 -0.2835  0.4261
 2481SOL    HW118902   1.366   4.569   5.224 -1.1587  0.8003  1.5731
 2481SOL    HW218903   1.235   4.520   5.270  0.7178  2.2707 -1.4279
 2482SOL     OW18904   3.908   0.348   1.967 -0.6124  0.2051  0.0964
 2482SOL    HW118905   3.952   0.303   1.894 -1.9313  0.6362 -0.9592
 2482SOL    HW218906   3.831   0.296   1.989 -0.0078  0.2134  2.2636
 2483SOL     OW18907   0.585   3.238  14.826  0.3575 -0.3975  0.5844
 2483SOL    HW118908   0.591   3.329  14.796  0.2204 -0.3722  0.6329
 2483SOL    HW218909   0.677   3.223  14.848 -0.0026 -0.3824  2.0880
 2484SOL     OW18910   0.442   1.231   8.912 -0.2719 -0.3123  0.3518
 2484SOL    HW118911   0.431   1.288   8.835 -1.9452 -0.3373  0.5734
 2484SOL    HW218912   0.502   1.281   8.968 -1.1565 -0.8608  1.7910
 2485SOL     OW18913   3.844   4.082   2.446  0.0976 -0.0721  0.3931
 2485SOL    HW118914   3.778   4.139   2.408  1.6290 -0.4252 -2.7979
 2485SOL    HW218915   3.885   4.137   2.513 -1.0947  2.8064 -1.2697
 2486SOL     OW18916   2.335   0.756   8.325  0.0524 -0.0129 -0.4271
 2486SOL    HW118917   2.407   0.755   8.262  1.0177  0.7090  0.6711
 2486SOL    HW218918   2.306   0.666   8.343 -0.2214  0.3893  1.1159
 2487SOL     OW18919   4.403   3.018   5.478  0.3764  0.1187  0.2419
 2487SOL    HW118920   4.477   2.961   5.498 -1.0225 -2.1010 -0.8783
 2487SOL    HW218921   4.376   3.042   5.567 -0.1565  0.3046  0.0330
 2488SOL     OW18922   4.295   4.204   9.511 -0.4059 -0.3935 -0.1590
 2488SOL    HW118923   4.308   4.115   9.478  0.9731  0.0327 -0.7722
 2488SOL    HW218924   4.284   4.191   9.605 -1.6176  1.5191 -0.0475
 2489SOL     OW18925   2.284   1.470   7.333 -0.1470 -0.0741  0.1901
 2489SOL    HW118926   2.206   1.447   7.383  1.0441  0.9505  2.5477
 2489SOL    HW218927   2.246   1.514   7.257  1.0918  0.3607 -0.1767
 2490SOL     OW18928   3.254   4.598   7.981  0.4908  0.1323  0.2207
 2490SOL    HW118929   3.176   4.545   7.965  0.6103 -0.0890  0.3756
 2490SOL    HW218930   3.221   4.645   8.057  1.5831  1.6442 -0.2419
 2491SOL     OW18931   2.102   0.125   2.306  0.4873 -0.4350 -1.1281
 2491SOL    HW118932   2.021   0.168   2.332 -0.1380 -1.3871 -1.5301
 2491SOL    HW218933   2.064   0.047   2.267 -1.5063 -0.2175  0.4276
 2492SOL     OW18934   3.710   3.541   3.186  0.0108 -0.1897 -0.2690
 2492SOL    HW118935   3.706   3.535   3.282 -1.1197 -3.2642 -0.4903
 2492SOL    HW218936   3.670   3.456   3.167  1.4816 -0.5704 -1.6521
 2493SOL     OW18937   3.816   1.534   0.535  0.7264  0.2221  0.1099
 2493SOL    HW118938   3.849   1.511   0.621 -0.1584  0.0021  0.3829
 2493SOL    HW218939   3.793   1.447   0.502  1.0221 -0.1962  1.0144
 2494SOL     OW18940   4.597   2.576   2.538 -0.5672 -0.5952  0.3998
 2494SOL    HW118941   4.543   2.638   2.489  0.7619  0.3370  0.1108
 2494SOL    HW218942   4.533   2.512   2.569 -2.0864 -0.3902 -2.3843
 2495SOL     OW18943   4.371   4.280   5.868  0.2293 -0.4391 -0.2386
 2495SOL    HW118944   4.393   4.371   5.852  0.3078 -0.7957 -2.1390
 2495SOL    HW218945   4.286   4.288   5.912  1.4431 -1.7878  2.3430
 2496SOL     OW18946   1.091   3.367   2.810  0.0550  0.1099  0.5650
 2496SOL    HW118947   1.127   3.285   2.841 -0.7690 -0.8142 -0.8745
 2496SOL    HW218948   1.161   3.398   2.753  0.5925 -2.5641 -0.2327
 2497SOL     OW18949   0.849   0.534   7.260  0.4125 -0.3510 -0.1046
 2497SOL    HW118950   0.892   0.454   7.233 -0.8552 -1.4625  1.1468
 2497SOL    HW218951   0.833   0.574   7.175  2.6021  2.6334  0.9016
 2498SOL     OW18952   1.495   3.872   7.263 -0.4211 -0.0406  0.3909
 2498SOL    HW118953   1.517   3.920   7.342  0.3850 -0.2092  0.2641
 2498SOL    HW218954   1.577   3.827   7.244 -0.7019  0.0740 -1.1204
 2499SOL     OW18955   1.274   1.539  15.168  0.3680  0.5188  0.1320
 2499SOL    HW118956   1.326   1.494  15.235 -1.9097 -1.0367  0.8653
 2499SOL    HW218957   1.343   1.597  15.134  0.0436  0.8704  0.0792
 2500SOL     OW18958   1.713   4.572  16.741  0.2872 -0.1924 -0.3177
 2500SOL    HW118959   1.652   4.502  16.764 -0.0906  0.0730 -0.4944
 2500SOL    HW218960   1.745   4.541  16.657  2.8130  1.8188 -0.0981
 2501SOL     OW18961   3.154   3.321   1.239 -0.1380 -0.0213  0.5086
 2501SOL    HW118962   3.224   3.274   1.284  1.4008  1.2661 -0.5465
 2501SOL    HW218963   3.087   3.253   1.230 -1.8707  1.6265  1.1462
 2502SOL     OW18964   1.906   4.075   3.734 -0.3183 -0.4027  0.0308
 2502SOL    HW118965   1.862   4.023   3.667 -1.2108  0.3919  0.0011
 2502SOL    HW218966   1.837   4.142   3.734  1.5545  1.4857 -2.7435
 2503SOL     OW18967   0.184   4.267  15.642  0.5149  0.7476 -0.8273
 2503SOL    HW118968   0.173   4.314  15.560  0.3044  0.6367 -0.8612
 2503SOL    HW218969   0.156   4.331  15.707  1.6682  0.0030  0.4217
 2504SOL     OW18970   1.686   0.380   2.452  0.0592 -0.2242 -0.2899
 2504SOL    HW118971   1.593   0.356   2.444 -0.4272  1.0898  1.3927
 2504SOL    HW218972   1.733   0.302   2.481 -0.6993 -0.5687  0.0275
 2505SOL     OW18973   2.226   2.892   2.697 -0.1902 -0.0711  0.4807
 2505SOL    HW118974   2.169   2.815   2.706 -0.7092  0.2454 -0.1103
 2505SOL    HW218975   2.304   2.842   2.673  0.8017  1.6090  0.2382
 2506SOL     OW18976   1.210   0.284   9.467  0.5154 -0.1386  1.3007
 2506SOL    HW118977   1.296   0.252   9.494  0.8238 -1.0586 -0.7177
 2506SOL    HW218978   1.160   0.204   9.485 -0.9688  0.4332 -0.2407
 2507SOL     OW18979   3.037   1.424   3.486  0.3802 -0.7623  0.0776
 2507SOL    HW118980   3.067   1.512   3.510  0.0793 -1.2389  2.2279
 2507SOL    HW218981   3.098   1.396   3.418 -0.4014 -2.3064  0.0245
 2508SOL     OW18982   1.084   0.920   2.021  0.3538 -0.3411 -0.0626
 2508SOL    HW118983   1.102   1.014   2.021  0.0657 -0.2969 -1.8070
 2508SOL    HW218984   0.995   0.915   1.989  0.1924 -0.7571  0.4387
 2509SOL     OW18985   4.113   2.371  11.993  0.0537 -0.5513  0.0870
 2509SOL    HW118986   4.109   2.464  11.971  0.6988 -0.0590  2.0251
 2509SOL    HW218987   4.084   2.370  12.084  0.0694 -1.9179  0.0823
 2510SOL     OW18988   4.416   4.222   7.058 -0.1390  0.5524  0.3013
 2510SOL    HW118989   4.464   4.175   6.990 -1.0539 -0.8350  0.6090
 2510SOL    HW218990   4.426   4.312   7.027  1.4680  0.3757  0.3194
 2511SOL     OW18991   1.838   3.794   6.302  0.0217  0.0657 -0.0841
 2511SOL    HW118992   1.742   3.801   6.297  0.0755  1.7104  1.4732
 2511SOL    HW218993   1.853   3.754   6.216  0.0098 -2.3943  1.0435
 2512SOL     OW18994   2.733   4.158   6.120  0.3604  0.5979  0.3716
 2512SOL    HW118995   2.695   4.243   6.144  1.6178  0.2452  3.5753
 2512SOL    HW218996   2.739   4.115   6.205 -3.7485 -2.0515 -0.7129
 2513SOL     OW18997   0.185   1.485   2.288 -0.1956 -0.5403 -0.2722
 2513SOL    HW118998   0.119   1.528   2.342  0.3172  2.6722 -2.1890
 2513SOL    HW218999   0.132   1.460   2.212  0.5086  1.3418 -1.3701
 2514SOL     OW19000   1.003   1.427   8.803  0.3799 -0.2732 -0.1812
 2514SOL    HW119001   1.086   1.380   8.801 -1.4443 -3.4306 -1.6288
 2514SOL    HW219002   1.021   1.497   8.865  2.3179 -1.8109  0.9910
 2515SOL     OW19003   2.652   3.728   6.336 -0.1734 -0.2277 -0.6908
 2515SOL    HW119004   2.624   3.794   6.273  1.2380  0.2399 -0.8344
 2515SOL    HW219005   2.575   3.711   6.389 -0.0049 -0.1514 -0.4169
 2516SOL     OW19006   2.731   1.027   9.244  0.1916  0.2703  0.3353
 2516SOL    HW119007   2.676   1.005   9.320 -0.5181 -0.5412 -0.4215
 2516SOL    HW219008   2.662   1.067   9.192 -0.0682 -0.8500 -0.1715
 2517SOL     OW19009   0.888   0.285   6.887  0.2592 -0.1841 -0.0495
 2517SOL    HW119010   0.842   0.369   6.883  0.7356  0.1479  1.2702
 2517SOL    HW219011   0.910   0.277   6.795  0.3844 -0.1673 -0.0214
 2518SOL     OW19012   1.623   0.670  14.127 -0.0033  0.0920  0.3023
 2518SOL    HW119013   1.531   0.657  14.104  0.4637 -0.2182 -1.3893
 2518SOL    HW219014   1.652   0.579  14.127 -0.1654  0.0477  1.5142
 2519SOL     OW19015   2.838   1.353  17.569 -0.0142 -0.0648  0.2238
 2519SOL    HW119016   2.920   1.377  17.612 -0.5742 -0.2399  1.4040
 2519SOL    HW219017   2.773   1.341  17.639  0.0189  0.5399  0.3552
 2520SOL     OW19018   3.571   2.761   1.022 -0.2071  0.5051  0.5638
 2520SOL    HW119019   3.618   2.789   1.100 -0.3820 -0.4831  1.0198
 2520SOL    HW219020   3.638   2.770   0.955  0.1366  2.4697  1.1685
 2521SOL     OW19021   1.792   3.776   2.011 -0.1581 -0.1021 -0.0505
 2521SOL    HW119022   1.829   3.843   1.954  3.5352 -0.3691  2.0801
 2521SOL    HW219023   1.869   3.722   2.023 -0.1479  0.4047  2.1514
 2522SOL     OW19024   2.524   3.913   6.174  0.2625  0.3431 -0.1413
 2522SOL    HW119025   2.569   3.919   6.090  0.9961  0.2425  0.2400
 2522SOL    HW219026   2.437   3.885   6.146  0.6508 -0.4040 -0.5975
 2523SOL     OW19027   0.864   2.371   6.034  0.3932 -0.1441  0.4567
 2523SOL    HW119028   0.773   2.373   6.062  0.4928 -0.1476  0.7834
 2523SOL    HW219029   0.914   2.406   6.108  1.6661 -0.4988 -0.2340
 2524SOL     OW19030   2.755   2.011  13.397  0.0235 -0.2618 -0.4067
 2524SOL    HW119031   2.812   2.039  13.326 -0.1843  2.5540  0.5705
 2524SOL    HW219032   2.704   2.089  13.420 -0.0584 -0.0751 -1.2167
 2525SOL     OW19033   1.699   0.172  15.822  0.7578 -0.1485 -0.0264
 2525SOL    HW119034   1.734   0.119  15.750  0.0467  0.7904 -1.0640
 2525SOL    HW219035   1.773   0.233  15.829 -0.9559  1.8166  1.0098
 2526SOL     OW19036   1.322   1.549   1.577  0.1566 -0.5320 -0.7796
 2526SOL    HW119037   1.303   1.522   1.487 -2.0349  0.2405 -0.5597
 2526SOL    HW219038   1.271   1.489   1.633 -1.2009  0.6210 -0.7776
 2527SOL     OW19039   0.922   4.702   6.864  0.0985 -0.3707 -0.3590
 2527SOL    HW119040   0.906   0.071   6.884 -0.6445 -0.8533  1.2623
 2527SOL    HW219041   0.831   4.674   6.865 -0.0536  0.1453  0.1636
 2528SOL     OW19042   1.044   2.109  16.019  0.2287  0.4706  0.2078
 2528SOL    HW119043   1.093   2.104  15.937  1.1666  2.2485  0.6548
 2528SOL    HW219044   0.958   2.146  15.997  0.5418  1.9614  1.4811
 2529SOL     OW19045   3.592   0.868  11.585  0.2258 -0.9500  0.2592
 2529SOL    HW119046   3.540   0.788  11.576 -0.4673 -0.3213 -1.3862
 2529SOL    HW219047   3.651   0.860  11.510 -0.0297 -1.8687  0.1526
 2530SOL     OW19048   1.985   1.455   4.854 -0.0291  0.9083  0.2908
 2530SOL    HW119049   1.920   1.432   4.788  0.8897 -0.4917 -0.1281
 2530SOL    HW219050   2.016   1.536   4.814 -2.5863  2.0783  0.7016
 2531SOL     OW19051   2.213   2.125   3.230 -0.0967 -0.0883 -0.3590
 2531SOL    HW119052   2.142   2.106   3.291  0.4050  2.2440  0.9867
 2531SOL    HW219053   2.168   2.144   3.148  2.0800  0.4407 -1.4206
 2532SOL     OW19054   0.431   4.310   5.772 -0.1960  0.1757 -0.6933
 2532SOL    HW119055   0.491   4.253   5.724 -0.0110 -0.7598  0.6317
 2532SOL    HW219056   0.354   4.327   5.718 -1.3992  0.0815  0.9538
 2533SOL     OW19057   1.529   4.199  15.532 -0.3092 -0.4913  0.0975
 2533SOL    HW119058   1.499   4.287  15.505 -0.4277 -0.5627 -0.0068
 2533SOL    HW219059   1.448   4.167  15.572  0.2587 -1.1793  0.6896
 2534SOL     OW19060   0.344   3.331   4.359 -0.0348  0.1637 -0.0143
 2534SOL    HW119061   0.358   3.237   4.352  0.1038  0.1441  0.5109
 2534SOL    HW219062   0.333   3.341   4.454 -5.3239  1.3534 -0.7650
 2535SOL     OW19063   0.811   3.456   6.620  0.4278  0.4867  0.0755
 2535SOL    HW119064   0.725   3.461   6.662 -0.3706  2.5391 -1.7884
 2535SOL    HW219065   0.844   3.367   6.625  3.2055  1.4808 -0.4813
 2536SOL     OW19066   0.919   3.267   5.616 -0.0981 -0.2506 -0.3955
 2536SOL    HW119067   0.921   3.360   5.593 -0.1329 -0.7061 -2.2807
 2536SOL    HW219068   0.839   3.260   5.667  0.6866 -1.1051  0.7257
 2537SOL     OW19069   2.761   2.604  11.326  0.2943 -0.0579 -0.4496
 2537SOL    HW119070   2.852   2.634  11.320  0.6554 -0.4533  2.8464
 2537SOL    HW219071   2.778   2.534  11.388 -2.5907  1.4862  2.0723
 2538SOL     OW19072   0.049   3.906   1.074 -0.2222 -0.6503 -0.0662
 2538SOL    HW119073   0.077   3.991   1.040 -1.1860  0.8722  2.9258
 2538SOL    HW219074   4.676   3.914   1.072 -0.1301  1.1883  3.1718
 2539SOL     OW19075   1.122   1.191   4.279 -0.1914 -0.1950  0.3215
 2539SOL    HW119076   1.029   1.182   4.255  0.2663 -2.1399 -0.6968
 2539SOL    HW219077   1.139   1.273   4.233  1.5286 -1.2916 -0.9693
 2540SOL     OW19078   1.867   1.780   6.336  0.1228 -0.7237  0.7105
 2540SOL    HW119079   1.913   1.840   6.278  0.8995 -2.5042 -0.4793
 2540SOL    HW219080   1.812   1.833   6.394 -1.1147  0.5444 -1.6302
 2541SOL     OW19081   1.058   2.790   4.549 -0.0133 -0.7263 -0.1149
 2541SOL    HW119082   1.129   2.768   4.489 -1.0718 -1.6235 -1.0466
 2541SOL    HW219083   1.001   2.833   4.486  0.7351  0.0181 -0.2697
 2542SOL     OW19084   4.299   1.484  10.860  0.0828 -0.2673 -0.0803
 2542SOL    HW119085   4.352   1.526  10.792 -2.6462 -0.1433 -2.1484
 2542SOL    HW219086   4.363   1.467  10.929  0.1089  0.6676  0.1268
 2543SOL     OW19087   2.150   1.750   3.469  0.0348  0.0846 -0.5619
 2543SOL    HW119088   2.237   1.789   3.460 -0.4767  1.1208 -0.9323
 2543SOL    HW219089   2.102   1.819   3.516 -1.9315 -1.8441  0.2902
 2544SOL     OW19090   4.538   2.962   4.173 -0.0153 -0.4935 -0.3419
 2544SOL    HW119091   4.632   2.960   4.155 -0.1587 -2.7037 -0.8382
 2544SOL    HW219092   4.529   3.055   4.148  0.6864 -0.4742 -0.5065
 2545SOL     OW19093   4.031   3.283   5.841 -0.0710 -0.2270 -0.1695
 2545SOL    HW119094   4.073   3.227   5.906  0.7495 -0.8495 -1.2503
 2545SOL    HW219095   3.942   3.291   5.878 -0.5668 -1.1997 -1.1596
 2546SOL     OW19096   0.353   1.636  11.074 -0.4981  0.0028 -0.3421
 2546SOL    HW119097   0.339   1.661  10.983  0.8278  1.9956  0.0092
 2546SOL    HW219098   0.335   1.542  11.078  0.6668 -0.2213 -0.4618
 2547SOL     OW19099   3.492   3.618   3.514 -0.5406 -1.1289  0.1352
 2547SOL    HW119100   3.542   3.692   3.549 -0.1787 -1.3100 -0.0012
 2547SOL    HW219101   3.565   3.566   3.481 -0.6118 -1.2106  0.1087
 2548SOL     OW19102   3.120   2.803   5.944 -0.4367 -0.3771 -0.1972
 2548SOL    HW119103   3.095   2.751   6.021  1.8847 -1.7680 -0.3742
 2548SOL    HW219104   3.032   2.814   5.907  0.2249  1.9434 -1.0528
 2549SOL     OW19105   1.503   1.473   4.903 -0.8847  0.1749  0.3842
 2549SOL    HW119106   1.473   1.433   4.985  0.3951 -0.2804  0.6296
 2549SOL    HW219107   1.559   1.544   4.935 -1.3348  0.1699  1.1836
 2550SOL     OW19108   4.460   0.421   4.159 -0.0114 -0.5944 -0.0184
 2550SOL    HW119109   4.434   0.346   4.211  0.1830  0.2209  1.2566
 2550SOL    HW219110   4.556   0.421   4.160 -0.0325  0.0097  1.4325
 2551SOL     OW19111   1.437   0.605   9.065  0.1715  0.4891 -0.1311
 2551SOL    HW119112   1.380   0.570   9.133  0.7302  2.4590  1.3343
 2551SOL    HW219113   1.432   0.539   8.995  0.9208 -2.1064  2.2635
 2552SOL     OW19114   2.235   0.374   0.940 -0.0015 -0.4265 -0.4158
 2552SOL    HW119115   2.237   0.335   1.027  2.6901  0.9568  0.1690
 2552SOL    HW219116   2.295   0.316   0.894 -1.9321 -2.0967 -0.8166
 2553SOL     OW19117   0.100   2.808  13.951 -0.4783 -0.0718  0.2651
 2553SOL    HW119118   0.098   2.712  13.952 -1.0346 -0.0697 -0.8746
 2553SOL    HW219119   0.045   2.822  13.874 -1.6889 -0.4024  1.0685
 2554SOL     OW19120   4.551   4.156  12.012 -0.3702  0.2099 -0.2424
 2554SOL    HW119121   4.606   4.082  12.037 -0.5311 -0.2086 -1.0971
 2554SOL    HW219122   4.600   4.230  12.047  1.1032 -1.8943  2.1214
 2555SOL     OW19123   2.289   1.064  10.593 -0.4292 -0.3709 -0.1622
 2555SOL    HW119124   2.286   1.159  10.598  0.2917 -0.1704 -3.9555
 2555SOL    HW219125   2.381   1.054  10.569  0.5259  1.3897  2.7446
 2556SOL     OW19126   2.032   3.275  14.370 -0.3298  0.1632 -0.4309
 2556SOL    HW119127   2.087   3.197  14.361  0.3605  0.6540 -0.5067
 2556SOL    HW219128   2.089   3.344  14.335 -0.2036 -2.2581 -4.9607
 2557SOL     OW19129   0.112   4.076   9.428 -0.6039 -0.1224 -0.0887
 2557SOL    HW119130   0.055   4.109   9.359 -0.8225  1.6123  0.9297
 2557SOL    HW219131   0.049   4.072   9.500 -2.5949  0.2016 -1.8061
 2558SOL     OW19132   1.277   2.200   1.984  0.1285 -0.1185  0.4468
 2558SOL    HW119133   1.238   2.116   1.961  0.0903  0.1603 -0.4818
 2558SOL    HW219134   1.369   2.183   1.964 -0.0633 -0.9874  0.2822
 2559SOL     OW19135   1.683   2.516   6.310  0.1590  0.1160 -0.1175
 2559SOL    HW119136   1.611   2.547   6.254  1.2312  1.9295 -0.4878
 2559SOL    HW219137   1.689   2.430   6.269 -0.4936 -1.0492  2.1785
 2560SOL     OW19138   1.367   0.039  16.473 -0.1797 -0.4737  0.2712
 2560SOL    HW119139   1.381   0.065  16.382  1.6474  1.0080  0.9757
 2560SOL    HW219140   1.416   0.105  16.522  0.3824 -0.8794  0.2604
 2561SOL     OW19141   1.761   3.028   6.499  0.0945  0.3409  0.4353
 2561SOL    HW119142   1.683   2.977   6.479 -0.8480  2.1698 -0.5838
 2561SOL    HW219143   1.789   3.051   6.410  1.1404  0.2073  0.7285
 2562SOL     OW19144   2.482   0.445   5.635 -0.0317  0.2692 -0.1029
 2562SOL    HW119145   2.565   0.460   5.591  0.0744 -0.4768 -0.1549
 2562SOL    HW219146   2.496   0.360   5.679 -1.1717  1.5474  2.7764
 2563SOL     OW19147   3.551   1.149   6.409 -0.5650  0.1794 -0.4192
 2563SOL    HW119148   3.567   1.149   6.503 -0.0942  2.5179 -0.4966
 2563SOL    HW219149   3.470   1.201   6.414 -1.4539 -1.5873  3.3167
 2564SOL     OW19150   2.751   0.700  16.142 -0.6982 -0.7423 -0.3644
 2564SOL    HW119151   2.687   0.631  16.160  1.1239 -2.6454 -1.0597
 2564SOL    HW219152   2.831   0.649  16.124  0.2708  0.7778 -0.3480
 2565SOL     OW19153   3.962   2.544   5.329  0.2940 -0.2138  0.3971
 2565SOL    HW119154   4.010   2.622   5.301  0.6971 -0.5884  0.0391
 2565SOL    HW219155   3.884   2.535   5.275 -0.6831  0.3605  1.7092
 2566SOL     OW19156   4.051   4.369   4.203 -0.0985 -0.0447  0.1705
 2566SOL    HW119157   3.972   4.419   4.186 -0.1811 -0.1125  0.3642
 2566SOL    HW219158   4.037   4.351   4.296  1.0723 -0.0758  0.3415
 2567SOL     OW19159   2.029   0.814  13.045  0.1533 -0.4349 -0.4149
 2567SOL    HW119160   2.043   0.720  13.034  0.8912 -0.3669 -0.0587
 2567SOL    HW219161   2.030   0.826  13.140  0.8933 -0.2013 -0.4533
 2568SOL     OW19162   3.541   3.079  13.335 -0.2706 -0.8630  0.0129
 2568SOL    HW119163   3.578   3.154  13.383 -1.0667 -0.1167 -0.5472
 2568SOL    HW219164   3.456   3.117  13.315  0.0570  0.4190  1.0546
 2569SOL     OW19165   3.443   4.004   6.098  0.0432 -0.4777  0.1695
 2569SOL    HW119166   3.521   3.957   6.127  1.3500  0.2243 -2.2140
 2569SOL    HW219167   3.385   3.981   6.171 -0.9705 -0.5739 -0.6778
 2570SOL     OW19168   2.910   2.105   7.921 -0.1236  0.2627 -0.4693
 2570SOL    HW119169   2.938   2.074   8.007 -0.0490  0.3669 -0.4564
 2570SOL    HW219170   2.966   2.178   7.896  1.4284 -1.4835 -2.0795
 2571SOL     OW19171   1.761   4.454  11.239 -0.4854 -0.2636  0.0841
 2571SOL    HW119172   1.668   4.478  11.237 -0.1572  1.0052 -0.1370
 2571SOL    HW219173   1.797   4.535  11.203 -0.7620 -0.4640 -0.6572
 2572SOL     OW19174   4.156   3.509   8.485 -0.0561 -0.0500  0.1716
 2572SOL    HW119175   4.205   3.463   8.553 -2.1702  0.6939  2.1914
 2572SOL    HW219176   4.209   3.589   8.479 -0.7043  0.3879  0.2738
 2573SOL     OW19177   2.545   2.132   2.627  0.2200  0.1843 -0.2042
 2573SOL    HW119178   2.615   2.085   2.672 -0.1473  2.0563  2.3263
 2573SOL    HW219179   2.473   2.109   2.685 -0.8946  0.4824 -1.4522
 2574SOL     OW19180   2.507   2.352   9.937 -0.3795 -0.1783  0.5676
 2574SOL    HW119181   2.483   2.265   9.969  0.3147 -0.7129 -0.3819
 2574SOL    HW219182   2.596   2.358   9.972 -0.1943  0.2815 -0.0022
 2575SOL     OW19183   1.423   1.548   2.363  0.2443  0.7260 -0.3603
 2575SOL    HW119184   1.449   1.494   2.437 -0.1163  0.7129 -0.2478
 2575SOL    HW219185   1.363   1.489   2.318 -1.1992  1.5306  0.5000
 2576SOL     OW19186   0.816   3.807   5.763  0.3835 -0.5194  0.0673
 2576SOL    HW119187   0.841   3.862   5.688  0.7563 -1.6581 -0.6458
 2576SOL    HW219188   0.721   3.816   5.754  0.4514  0.9677  0.9471
 2577SOL     OW19189   0.442   0.782   6.576  0.1741 -0.4749 -1.0557
 2577SOL    HW119190   0.468   0.861   6.529  0.4661  0.3604  0.5263
 2577SOL    HW219191   0.469   0.709   6.520  0.7105 -1.1738  0.1302
 2578SOL     OW19192   4.353   0.476  10.596  0.3457  0.4565 -0.3267
 2578SOL    HW119193   4.333   0.398  10.649  0.4279  0.5503 -0.1602
 2578SOL    HW219194   4.417   0.444  10.532  0.0722  0.6962 -0.7183
 2579SOL     OW19195   2.116   3.383   3.584 -0.1354 -0.6764  0.2559
 2579SOL    HW119196   2.094   3.443   3.655 -0.7582  0.3129 -0.7624
 2579SOL    HW219197   2.208   3.369   3.605  0.4331  2.6990  0.0050
 2580SOL     OW19198   3.666   0.869  12.748 -0.1868  0.9490 -0.2469
 2580SOL    HW119199   3.664   0.882  12.843  0.4864 -0.6160 -0.0126
 2580SOL    HW219200   3.585   0.911  12.721 -0.2240  1.2462  0.3147
 2581SOL     OW19201   0.836   3.114   2.088  0.0431 -0.1745 -0.1040
 2581SOL    HW119202   0.779   3.056   2.037  0.7739 -0.7920 -0.2120
 2581SOL    HW219203   0.901   3.061   2.135 -0.2112  1.1898  1.7752
 2582SOL     OW19204   3.849   4.104   8.583 -0.1590  0.6771 -0.1389
 2582SOL    HW119205   3.917   4.129   8.521  0.1195  0.9891  0.2983
 2582SOL    HW219206   3.896   4.032   8.625 -1.5971 -0.1265  0.1187
 2583SOL     OW19207   1.758   2.102   3.597  0.0988  0.1258 -0.0613
 2583SOL    HW119208   1.796   2.017   3.620 -0.2267 -0.3732 -1.4164
 2583SOL    HW219209   1.821   2.157   3.645 -0.2830  1.0816 -0.6493
 2584SOL     OW19210   2.237   1.078  15.656 -0.0100  0.0578 -1.0426
 2584SOL    HW119211   2.217   1.137  15.729 -0.5359  1.0777 -2.0294
 2584SOL    HW219212   2.330   1.070  15.675  0.1543  0.1999 -1.8164
 2585SOL     OW19213   2.505   0.753   5.710  0.4414  0.1838  0.0306
 2585SOL    HW119214   2.513   0.712   5.796  2.3461  1.5146  0.4704
 2585SOL    HW219215   2.498   0.846   5.730  0.1360  0.0196  0.6753
 2586SOL     OW19216   2.365   0.025  12.029  0.3151 -0.2447 -0.0725
 2586SOL    HW119217   2.296   0.023  11.963  0.6768  0.8582 -0.4826
 2586SOL    HW219218   2.317   4.697  12.095 -2.0618  1.9931 -0.0299
 2587SOL     OW19219   2.989   1.564   4.335 -0.2018  0.6320 -0.2380
 2587SOL    HW119220   3.042   1.598   4.407 -0.3354  1.1990 -0.4090
 2587SOL    HW219221   3.041   1.488   4.307 -1.4219 -0.4226  0.3091
 2588SOL     OW19222   3.051   4.328   8.363 -0.5205  0.0288  0.4745
 2588SOL    HW119223   3.108   4.369   8.428 -0.1175  0.1929  0.0190
 2588SOL    HW219224   2.971   4.354   8.408 -1.3023  1.3834 -1.7038
 2589SOL     OW19225   2.313   4.705  15.719  0.0774 -0.1363 -0.3997
 2589SOL    HW119226   2.379   4.637  15.705  0.5124  0.3666 -0.7922
 2589SOL    HW219227   2.226   4.665  15.729  0.2224 -0.3363  0.0508
 2590SOL     OW19228   0.787   0.438   7.594  0.0935 -1.0882  0.1612
 2590SOL    HW119229   0.750   0.497   7.528  0.0883 -2.6801 -1.2428
 2590SOL    HW219230   0.707   0.394   7.623 -0.8041  0.2021 -0.3398
 2591SOL     OW19231   3.156   4.142   4.777  0.2910  0.1373 -0.2266
 2591SOL    HW119232   3.193   4.054   4.764  1.9606  0.9737 -1.0723
 2591SOL    HW219233   3.148   4.147   4.873 -2.0860 -2.4760 -0.2862
 2592SOL     OW19234   3.692   2.293   4.549  0.3200  0.4027 -0.0419
 2592SOL    HW119235   3.755   2.332   4.489  0.2719  1.1394  0.3812
 2592SOL    HW219236   3.720   2.203   4.533 -0.8231  0.3915 -1.9615
 2593SOL     OW19237   1.951   4.225   5.623  0.2749  0.5870  0.2963
 2593SOL    HW119238   1.926   4.270   5.542 -2.4011 -0.0058  0.7698
 2593SOL    HW219239   1.889   4.276   5.676  0.1677  1.7708 -0.9719
 2594SOL     OW19240   0.633   4.338  15.986 -0.3362 -0.3377  0.3922
 2594SOL    HW119241   0.636   4.250  15.950 -0.2001 -0.6008  1.0432
 2594SOL    HW219242   0.650   4.318  16.078  0.9804 -0.1481  0.1867
 2595SOL     OW19243   2.105   2.961   6.883 -0.3109  0.4079  0.1400
 2595SOL    HW119244   2.042   3.030   6.905 -2.0134 -0.5801 -1.6054
 2595SOL    HW219245   2.160   3.004   6.817  0.0581 -0.1087  0.1087
 2596SOL     OW19246   3.080   0.039   5.373  0.4075 -0.4096  0.2614
 2596SOL    HW119247   3.115   0.045   5.462 -2.3151  1.9842  1.1735
 2596SOL    HW219248   3.116   4.676   5.352 -1.5270 -1.1383 -0.0852
 2597SOL     OW19249   2.764   3.428  16.848  0.4704  0.1612 -0.0484
 2597SOL    HW119250   2.838   3.487  16.836  0.3716  0.4157  0.5724
 2597SOL    HW219251   2.804   3.345  16.823  1.6751  0.5632  0.5585
 2598SOL     OW19252   0.184   3.184  12.130 -0.0663  0.0845 -0.5827
 2598SOL    HW119253   0.273   3.218  12.138 -0.5683  1.2242  0.1349
 2598SOL    HW219254   0.174   3.120  12.200 -0.1011 -0.4482 -1.0711
 2599SOL     OW19255   3.595   4.590  11.593 -0.3639  0.4790 -0.1594
 2599SOL    HW119256   3.689   4.574  11.600 -0.5926 -1.6532 -2.1176
 2599SOL    HW219257   3.558   4.504  11.614 -0.9897  0.9659  0.7407
 2600SOL     OW19258   4.065   3.411  12.610  0.3773 -0.3243 -0.3998
 2600SOL    HW119259   3.978   3.371  12.620  0.3801  0.2999  2.2187
 2600SOL    HW219260   4.109   3.396  12.694  2.2362  1.0483 -1.1259
 2601SOL     OW19261   0.562   4.555  10.849  0.2368  0.3257 -0.0823
 2601SOL    HW119262   0.511   4.579  10.927 -2.1002 -1.7199 -0.9739
 2601SOL    HW219263   0.522   4.626  10.798 -0.3103  0.7049  0.8549
 2602SOL     OW19264   1.540   2.083   5.727 -0.3989  0.1120  0.2948
 2602SOL    HW119265   1.451   2.057   5.703 -0.9752  1.0878  1.4309
 2602SOL    HW219266   1.547   2.176   5.707 -0.5465  0.5075  2.1069
 2603SOL     OW19267   0.686   0.128  13.296 -0.3284  0.1372 -0.8660
 2603SOL    HW119268   0.730   0.207  13.325  0.4297 -1.1980  1.5604
 2603SOL    HW219269   0.759   0.067  13.300 -0.4036 -0.1055 -3.1776
 2604SOL     OW19270   2.434   2.222  13.853  0.1385  0.6835 -0.4927
 2604SOL    HW119271   2.512   2.170  13.875  0.4830  1.1423 -0.6271
 2604SOL    HW219272   2.386   2.150  13.811 -0.5369  0.9743 -0.2212
 2605SOL     OW19273   4.365   2.054   8.390  0.1385 -0.1909 -0.3545
 2605SOL    HW119274   4.396   2.084   8.476 -2.4707  2.8829 -0.4917
 2605SOL    HW219275   4.383   2.132   8.338 -1.8137  0.5439  0.0747
 2606SOL     OW19276   0.018   2.903  16.039  0.4985 -0.3098  0.0747
 2606SOL    HW119277   0.034   2.952  15.959 -1.3125 -2.0498 -1.3452
 2606SOL    HW219278   0.089   2.839  16.049  1.5203  0.8091 -0.0293
 2607SOL     OW19279   0.392   2.208   5.942  0.1259 -0.3848  0.3389
 2607SOL    HW119280   0.376   2.134   5.884  0.8385 -0.4620  0.2368
 2607SOL    HW219281   0.387   2.161   6.025 -1.9199 -0.3622  0.2262
 2608SOL     OW19282   3.689   0.537   4.331  0.3071  0.6557  0.3383
 2608SOL    HW119283   3.750   0.577   4.393 -0.7261  2.9441 -0.0925
 2608SOL    HW219284   3.660   0.463   4.385 -1.0360 -2.0131 -4.0392
 2609SOL     OW19285   4.433   1.677  12.227  0.4012 -0.1788 -0.1167
 2609SOL    HW119286   4.521   1.702  12.255  0.1148  1.9056 -1.0366
 2609SOL    HW219287   4.386   1.760  12.236 -1.7118 -1.3274 -0.6730
 2610SOL     OW19288   4.657   2.159   5.018 -0.0245  0.3703  0.2985
 2610SOL    HW119289   4.568   2.130   5.039 -0.5282  0.7820 -1.2667
 2610SOL    HW219290   4.698   2.133   5.101  0.5663  0.1863 -0.0543
 2611SOL     OW19291   1.302   3.171   4.808 -0.2493 -0.6254  0.8399
 2611SOL    HW119292   1.394   3.180   4.829  0.0691 -1.9318  0.0178
 2611SOL    HW219293   1.267   3.127   4.885 -0.8649  1.1292  1.5686
 2612SOL     OW19294   2.426   3.800   3.851 -0.4432 -0.3062  0.0506
 2612SOL    HW119295   2.461   3.712   3.863  0.8077 -0.1321 -2.1875
 2612SOL    HW219296   2.463   3.852   3.922  2.6064  0.9125 -2.4043
 2613SOL     OW19297   4.068   3.905   8.052  0.2411 -0.1449  0.1970
 2613SOL    HW119298   4.103   3.818   8.069 -0.6474 -1.1452 -3.0505
 2613SOL    HW219299   4.155   3.943   8.037 -0.1286  0.7311  0.2448
 2614SOL     OW19300   2.929   4.341   2.874 -0.1252 -0.5562  0.1140
 2614SOL    HW119301   2.872   4.410   2.841  0.8378 -0.1533 -0.7058
 2614SOL    HW219302   2.942   4.354   2.968 -0.4188 -1.5650  0.2935
 2615SOL     OW19303   3.364   3.203   4.648  0.1068 -0.0289 -0.3184
 2615SOL    HW119304   3.348   3.270   4.714  0.0632 -0.1779 -0.1777
 2615SOL    HW219305   3.326   3.126   4.690  0.0931  0.4762  0.5853
 2616SOL     OW19306   4.325   0.734   8.253  0.5293 -0.0375 -0.4467
 2616SOL    HW119307   4.270   0.812   8.258 -0.7675 -0.8605 -1.8259
 2616SOL    HW219308   4.308   0.707   8.162  0.1568  0.0800 -0.4142
 2617SOL     OW19309   3.628   3.262  17.648  0.0073  0.4424 -0.2140
 2617SOL    HW119310   3.617   3.357  17.648 -2.1495  0.1834 -4.5576
 2617SOL    HW219311   3.545   3.230  17.683  0.2660  0.4051  0.3609
 2618SOL     OW19312   2.808   3.718   1.676 -0.0221  0.6139  0.5758
 2618SOL    HW119313   2.867   3.791   1.658  1.1327 -0.5599 -0.4190
 2618SOL    HW219314   2.793   3.677   1.590  0.7593  0.4896  0.4986
 2619SOL     OW19315   0.703   2.734   2.699  0.1076  0.3516  0.1329
 2619SOL    HW119316   0.740   2.673   2.635 -2.3955 -0.9437 -0.0839
 2619SOL    HW219317   0.650   2.672   2.749  0.2038 -1.5208 -2.1080
 2620SOL     OW19318   4.646   1.844   5.142  0.9601  0.4675  0.2003
 2620SOL    HW119319   4.650   1.923   5.088  0.6070  0.8638  0.7539
 2620SOL    HW219320   4.707   1.869   5.211  0.9724  0.4076  0.2110
 2621SOL     OW19321   0.483   1.554  14.630  0.5287 -0.1100  0.4787
 2621SOL    HW119322   0.507   1.647  14.629  1.5822 -0.3793 -0.5336
 2621SOL    HW219323   0.519   1.522  14.713  0.3202 -0.4982  0.4186
 2622SOL     OW19324   2.265   3.539  12.767 -0.4938 -0.4258 -0.0357
 2622SOL    HW119325   2.274   3.522  12.673 -1.3794  3.4669 -0.8428
 2622SOL    HW219326   2.315   3.461  12.792 -2.6563 -2.0214 -0.7009
 2623SOL     OW19327   3.426   2.180   0.796  0.4339 -0.1762 -0.5450
 2623SOL    HW119328   3.493   2.112   0.796  1.7702  1.1317  0.6651
 2623SOL    HW219329   3.344   2.133   0.807  0.8757 -0.3241  2.1466
 2624SOL     OW19330   4.397   3.826   3.074  0.7145  0.1729 -0.5188
 2624SOL    HW119331   4.406   3.919   3.097  1.1042  0.7186 -2.8368
 2624SOL    HW219332   4.466   3.823   3.007  1.3602  1.2203  0.0937
 2625SOL     OW19333   0.531   1.624   2.184  0.2731 -0.3874  0.2684
 2625SOL    HW119334   0.529   1.571   2.104 -3.4401 -1.4820  1.0927
 2625SOL    HW219335   0.614   1.671   2.176  0.3909 -0.3956  1.5275
 2626SOL     OW19336   0.960   2.610  17.383 -0.1027 -0.2669 -0.2118
 2626SOL    HW119337   0.984   2.628  17.474  0.2020  1.2172 -0.5912
 2626SOL    HW219338   1.033   2.640  17.330 -0.3604 -3.5310 -2.4051
 2627SOL     OW19339   0.905   4.174   8.514  0.3957 -0.2486  0.0481
 2627SOL    HW119340   0.947   4.248   8.558 -0.3684 -0.6500  1.4424
 2627SOL    HW219341   0.877   4.134   8.596 -0.6475 -0.8396 -0.5971
 2628SOL     OW19342   0.950   0.265   2.514  0.6452 -0.0807 -0.3706
 2628SOL    HW119343   0.859   0.271   2.487  0.1170 -1.1921  1.2061
 2628SOL    HW219344   0.968   0.176   2.484 -2.8745 -1.6182  2.1324
 2629SOL     OW19345   2.736   2.644   3.948 -0.5314 -0.5026  0.3832
 2629SOL    HW119346   2.795   2.570   3.939 -0.0042 -0.1656  1.0861
 2629SOL    HW219347   2.651   2.607   3.972 -1.3269  1.9119  1.3281
 2630SOL     OW19348   1.151   4.075   8.420 -0.1991 -0.0945  0.0846
 2630SOL    HW119349   1.057   4.073   8.438 -0.2037  0.3113  0.1120
 2630SOL    HW219350   1.156   4.137   8.347  2.9227  0.4261  0.7201
 2631SOL     OW19351   3.476   1.712   1.026  0.1179 -0.6853 -0.1746
 2631SOL    HW119352   3.531   1.744   1.098 -0.1040 -0.8163  0.0511
 2631SOL    HW219353   3.424   1.792   1.023 -0.2485 -0.9740 -1.7895
 2632SOL     OW19354   2.636   2.218  13.578 -0.2409  0.3604  0.3129
 2632SOL    HW119355   2.727   2.224  13.607 -0.2922  2.5663  0.0377
 2632SOL    HW219356   2.598   2.154  13.638 -2.8691 -0.0114 -1.7394
 2633SOL     OW19357   1.316   0.446   9.268  0.1744 -0.2503 -0.7619
 2633SOL    HW119358   1.265   0.432   9.348  2.0791  0.4779  0.5792
 2633SOL    HW219359   1.295   0.363   9.225 -3.3815 -0.5076  1.5088
 2634SOL     OW19360   3.000   2.186   5.226  0.3532 -0.5481  0.1431
 2634SOL    HW119361   3.071   2.234   5.182 -0.1197  0.0507  0.0430
 2634SOL    HW219362   3.011   2.102   5.180  1.9223  0.0585 -0.6150
 2635SOL     OW19363   3.049   2.447   1.741 -0.3127  0.1752 -0.3587
 2635SOL    HW119364   3.128   2.452   1.686 -0.7857 -0.4553 -1.0927
 2635SOL    HW219365   3.014   2.363   1.711 -0.1810  0.2169 -0.6312
 2636SOL     OW19366   2.923   0.326   8.884  0.3824 -0.4200 -0.0059
 2636SOL    HW119367   2.890   0.255   8.939 -0.8500  0.2172  0.0669
 2636SOL    HW219368   2.896   0.394   8.946 -2.5536 -0.0635 -1.6669
 2637SOL     OW19369   2.367   0.844   3.335 -0.6773  0.8603 -0.3341
 2637SOL    HW119370   2.398   0.860   3.425 -2.0339  0.0866  0.2659
 2637SOL    HW219371   2.335   0.932   3.317 -1.9803  0.8238  1.7834
 2638SOL     OW19372   3.407   2.332   5.302 -0.0422 -0.1312 -0.4424
 2638SOL    HW119373   3.424   2.272   5.374  0.5817  0.0179 -0.4623
 2638SOL    HW219374   3.427   2.272   5.230 -0.9505  0.0026 -0.8166
 2639SOL     OW19375   1.077   4.037   5.816  0.9144  0.3825  0.1171
 2639SOL    HW119376   1.014   4.083   5.760 -1.6124 -1.5333  1.4322
 2639SOL    HW219377   1.108   3.971   5.754  0.8723  0.3410  0.1410
 2640SOL     OW19378   1.074   3.271  17.035  0.1925  0.3095  0.5339
 2640SOL    HW119379   1.143   3.268  17.101  0.4008  2.3459  0.4189
 2640SOL    HW219380   1.120   3.332  16.976 -0.4954  2.9175  2.7193
 2641SOL     OW19381   1.474   3.228   1.599 -0.4339 -0.0804  0.4995
 2641SOL    HW119382   1.528   3.217   1.521 -2.1224  0.0593 -0.6682
 2641SOL    HW219383   1.413   3.296   1.570  0.9551 -0.3992 -3.0883
 2642SOL     OW19384   1.579   1.367   2.996 -0.3184  0.1739 -0.1560
 2642SOL    HW119385   1.496   1.347   2.953 -1.1603  1.6241  0.7926
 2642SOL    HW219386   1.612   1.437   2.940 -0.4289  0.9663  0.7808
 2643SOL     OW19387   3.745   2.524   4.028 -0.2368 -0.0832 -0.3482
 2643SOL    HW119388   3.660   2.517   3.985  0.4407 -1.0010 -1.5300
 2643SOL    HW219389   3.730   2.607   4.072  0.0998  0.4888 -1.3031
 2644SOL     OW19390   3.607   0.539   7.962  0.8914 -0.2800 -0.1773
 2644SOL    HW119391   3.534   0.478   7.973  0.1614  1.2036  3.2312
 2644SOL    HW219392   3.675   0.476   7.939  0.6778  0.5554 -3.0287
 2645SOL     OW19393   3.952   0.906   5.690 -0.1025 -0.0363  0.1012
 2645SOL    HW119394   4.007   0.831   5.713  1.2360  0.9504  0.1169
 2645SOL    HW219395   3.909   0.884   5.607  1.9633  0.5086 -1.1226
 2646SOL     OW19396   1.388   2.062   3.432 -0.3092  0.6307  0.3004
 2646SOL    HW119397   1.400   2.088   3.523 -0.3681  0.9260  0.2223
 2646SOL    HW219398   1.388   1.966   3.437 -1.1177  0.7178  1.9413
 2647SOL     OW19399   0.977   2.252   8.660 -0.0085 -0.3088  0.2042
 2647SOL    HW119400   1.003   2.304   8.737 -1.6470  1.5684 -0.5130
 2647SOL    HW219401   0.986   2.309   8.584  0.0719 -1.0245 -0.3180
 2648SOL     OW19402   3.235   2.480   7.717 -0.4885 -0.8582 -0.2140
 2648SOL    HW119403   3.318   2.516   7.746 -1.8576  0.5804  1.8871
 2648SOL    HW219404   3.196   2.557   7.674  0.9599  1.2033  2.1517
 2649SOL     OW19405   0.165   1.278   7.217  0.4599  0.6906 -0.3247
 2649SOL    HW119406   0.215   1.241   7.145  0.5432 -0.1006  0.1358
 2649SOL    HW219407   0.074   1.295   7.193  0.2646  0.0984 -0.0039
 2650SOL     OW19408   1.398   1.019   7.748  0.0014 -0.2869 -0.2444
 2650SOL    HW119409   1.438   1.105   7.733 -0.6822  0.0941  0.0881
 2650SOL    HW219410   1.305   1.036   7.766  0.5437  1.8822  0.5045
 2651SOL     OW19411   1.131   2.385   6.935  0.1292  0.4851  0.5635
 2651SOL    HW119412   1.125   2.472   6.896  2.3045 -0.5679 -2.1386
 2651SOL    HW219413   1.216   2.397   6.978  0.8896 -1.4135 -0.4258
 2652SOL     OW19414   4.479   0.781   7.603  0.2993 -0.6160 -0.1043
 2652SOL    HW119415   4.520   0.781   7.516 -1.1716 -1.6697 -0.7864
 2652SOL    HW219416   4.433   0.864   7.593 -0.4551 -1.2860 -2.1584
 2653SOL     OW19417   3.612   2.045   6.554 -0.2708  0.1431 -0.2865
 2653SOL    HW119418   3.539   2.050   6.616  0.5509  0.5379  0.6537
 2653SOL    HW219419   3.686   2.029   6.613 -1.0399  1.9433  1.1702
 2654SOL     OW19420   1.692   1.596  12.623 -0.7866  0.0666  0.3406
 2654SOL    HW119421   1.712   1.609  12.530  1.6440 -2.8798  0.4478
 2654SOL    HW219422   1.757   1.659  12.653  1.8883 -3.9707  3.0914
 2655SOL     OW19423   1.087   3.057   4.624 -0.4895  0.3536  0.0044
 2655SOL    HW119424   1.179   3.085   4.621 -0.2595 -0.2768  0.8317
 2655SOL    HW219425   1.087   2.977   4.678 -0.5460 -0.9563 -1.9409
 2656SOL     OW19426   0.798   1.428   0.366 -0.1824 -0.6262 -0.5875
 2656SOL    HW119427   0.846   1.400   0.288 -0.7931 -1.8372 -0.5412
 2656SOL    HW219428   0.772   1.516   0.340  1.4024 -0.0938 -0.3846
 2657SOL     OW19429   0.291   4.093   3.733  0.0535 -0.3769 -0.2678
 2657SOL    HW119430   0.284   4.096   3.828  2.0177  0.9581 -0.1646
 2657SOL    HW219431   0.386   4.100   3.726  0.0057 -0.0370 -0.5636
 2658SOL     OW19432   3.014   1.241   2.786  0.0701 -0.0936 -0.6385
 2658SOL    HW119433   2.990   1.304   2.718 -1.0802  0.6833  0.4871
 2658SOL    HW219434   2.933   1.190   2.787  0.9105 -1.4125  1.9757
 2659SOL     OW19435   4.541   1.919  10.126  0.2221  0.2747 -0.2345
 2659SOL    HW119436   4.560   2.011  10.144  0.1516  0.6369 -1.9945
 2659SOL    HW219437   4.465   1.921  10.067 -1.4754 -1.4560  1.9277
 2660SOL     OW19438   3.521   3.167   3.239 -0.1359 -0.2704 -0.1073
 2660SOL    HW119439   3.504   3.074   3.257 -3.6084  0.4501  0.2146
 2660SOL    HW219440   3.431   3.192   3.257 -0.3321  0.1929 -1.7767
 2661SOL     OW19441   3.421   1.602  15.777 -0.1485 -0.3246 -0.2452
 2661SOL    HW119442   3.432   1.520  15.729  0.0162 -1.2073  1.3298
 2661SOL    HW219443   3.472   1.655  15.715 -3.0801  0.9601 -1.6060
 2662SOL     OW19444   2.077   1.112   7.737 -0.9899  0.2627 -0.4058
 2662SOL    HW119445   2.120   1.117   7.822  0.5306 -3.6206 -0.9598
 2662SOL    HW219446   2.110   1.186   7.687 -0.1166 -0.1578 -0.4509
 2663SOL     OW19447   2.938   3.878   6.068 -0.2593  0.8078  0.9573
 2663SOL    HW119448   2.925   3.927   6.149  1.5187  4.4513 -0.9614
 2663SOL    HW219449   2.878   3.923   6.010  0.1790 -0.0636 -0.1807
 2664SOL     OW19450   3.832   1.992   3.355 -0.1563 -0.0951  0.0228
 2664SOL    HW119451   3.922   2.017   3.331 -0.2815 -0.3429 -0.7271
 2664SOL    HW219452   3.841   2.034   3.440 -0.7470  0.4974 -0.2103
 2665SOL     OW19453   0.923   0.941   7.524 -0.1609  0.3887 -0.1170
 2665SOL    HW119454   0.869   0.887   7.582  0.8014 -1.3028 -0.8074
 2665SOL    HW219455   0.994   0.880   7.504  0.1110  0.2260  1.3373
 2666SOL     OW19456   0.933   1.540   3.977 -0.0463  0.6682 -0.1242
 2666SOL    HW119457   0.944   1.577   4.065  1.0916 -0.0110  0.0245
 2666SOL    HW219458   0.838   1.528   3.978 -0.0304  0.5446  0.0520
 2667SOL     OW19459   4.238   1.188   6.303 -0.6512  0.4207  0.0839
 2667SOL    HW119460   4.184   1.215   6.228 -0.7423  1.2250  0.4469
 2667SOL    HW219461   4.266   1.106   6.262  2.0484  1.2648  0.2747
 2668SOL     OW19462   4.120   0.935   8.528 -0.0833  0.5368  0.0601
 2668SOL    HW119463   4.141   0.972   8.443  1.1429  0.9639  0.5435
 2668SOL    HW219464   4.198   0.895   8.567 -0.7507 -0.1562  0.6902
 2669SOL     OW19465   4.587   2.199   3.248  0.5020 -0.5205 -0.1362
 2669SOL    HW119466   4.597   2.280   3.198  0.7365 -0.1124  0.5752
 2669SOL    HW219467   4.574   2.243   3.332 -2.4588 -0.5830 -0.5542
 2670SOL     OW19468   4.089   3.003   9.041  0.7450 -0.7270 -0.3817
 2670SOL    HW119469   4.004   2.997   9.083  1.5459 -2.1204  1.0210
 2670SOL    HW219470   4.063   2.947   8.968  1.5789 -1.6011 -0.0160
 2671SOL     OW19471   3.712   3.592  15.677 -0.4818 -0.2398 -0.2131
 2671SOL    HW119472   3.754   3.597  15.592  0.2685 -1.2243  0.0948
 2671SOL    HW219473   3.644   3.526  15.663 -0.1783 -0.5279 -0.3261
 2672SOL     OW19474   1.560   3.528   8.508 -0.3169 -0.7006  0.2175
 2672SOL    HW119475   1.599   3.579   8.578  0.6414 -0.4349 -0.5059
 2672SOL    HW219476   1.489   3.590   8.495  0.0102  0.0920  2.2179
 2673SOL     OW19477   3.438   1.346   9.296  0.0995  0.3353  0.2780
 2673SOL    HW119478   3.441   1.382   9.385  1.6839  3.4013 -1.0356
 2673SOL    HW219479   3.485   1.264   9.312  0.6863  0.7479  0.6385
 2674SOL     OW19480   3.807   2.061  17.280 -0.8028 -0.2797 -0.3828
 2674SOL    HW119481   3.797   2.129  17.347 -0.7502 -3.2908  2.6687
 2674SOL    HW219482   3.754   2.094  17.208 -0.3033  0.3188 -0.4752
 2675SOL     OW19483   0.220   3.517   8.431 -0.2157  0.2220 -0.3726
 2675SOL    HW119484   0.298   3.558   8.394  0.3416 -1.3734 -0.9787
 2675SOL    HW219485   0.248   3.427   8.415 -0.3303  0.4231 -1.6651
 2676SOL     OW19486   0.662   3.522  17.172  0.0730  0.2198 -0.2340
 2676SOL    HW119487   0.714   3.447  17.144  0.3485 -0.6517  2.6383
 2676SOL    HW219488   0.578   3.496  17.135 -1.5544 -0.2603  3.8168
 2677SOL     OW19489   1.592   2.762  14.163  0.0707 -0.0077 -0.3965
 2677SOL    HW119490   1.559   2.701  14.228  3.3200  0.9934  2.2007
 2677SOL    HW219491   1.531   2.743  14.092 -0.9535 -0.8710  0.7325
 2678SOL     OW19492   1.923   3.030   6.270 -0.5940 -0.7536  0.6529
 2678SOL    HW119493   1.885   3.088   6.205  2.2667 -0.1565 -0.4827
 2678SOL    HW219494   1.996   3.088   6.290 -1.1949 -1.5142  5.1103
 2679SOL     OW19495   4.625   1.959   2.603  0.2203  0.4689 -0.0651
 2679SOL    HW119496   4.692   1.925   2.543 -0.0268  0.0912 -0.1300
 2679SOL    HW219497   4.657   1.936   2.691 -2.4888 -1.1504  0.5105
 2680SOL     OW19498   0.045   3.998   6.520  0.0902 -0.0046 -0.1870
 2680SOL    HW119499   4.693   3.974   6.465 -0.6271 -0.1202  0.8417
 2680SOL    HW219500   4.722   3.986   6.603 -0.3242  2.4122 -0.0609
 2681SOL     OW19501   0.903   3.113   8.513 -0.4273  0.3469 -0.5412
 2681SOL    HW119502   0.896   3.045   8.446  1.5698 -1.1676  0.8085
 2681SOL    HW219503   0.995   3.136   8.497  0.3596 -1.7473  0.9462
 2682SOL     OW19504   0.865   0.279   8.782 -0.2293 -0.3297 -0.0491
 2682SOL    HW119505   0.929   0.350   8.780  0.3358 -0.7991  1.2230
 2682SOL    HW219506   0.908   0.211   8.730  0.5254  1.1350 -1.3320
 2683SOL     OW19507   4.705   0.679  12.922  0.3349  0.0018 -0.0939
 2683SOL    HW119508   4.678   0.671  13.014  0.2427 -1.7184 -0.2695
 2683SOL    HW219509   4.715   0.771  12.902  1.5176 -0.5732 -2.0762
 2684SOL     OW19510   4.248   2.737  16.111 -0.0759  0.0848 -0.0372
 2684SOL    HW119511   4.331   2.762  16.069  1.9885 -1.7757  2.8984
 2684SOL    HW219512   4.192   2.731  16.034 -1.0519 -0.0211  0.6734
 2685SOL     OW19513   0.851   0.690  11.177  0.2331  0.2192 -0.5429
 2685SOL    HW119514   0.871   0.783  11.184 -0.9676  0.5624 -1.7336
 2685SOL    HW219515   0.755   0.694  11.175  0.2341  0.9028  0.6218
 2686SOL     OW19516   4.337   4.402   3.260 -0.4883 -0.4106  0.8676
 2686SOL    HW119517   4.374   4.412   3.348  1.2757  0.5174  0.0123
 2686SOL    HW219518   4.328   4.493   3.231 -2.4265 -0.7217  0.5078
 2687SOL     OW19519   4.096   3.354   5.565  0.3139  0.2793 -0.4291
 2687SOL    HW119520   4.058   3.288   5.507 -0.7106  0.2763  0.2423
 2687SOL    HW219521   4.092   3.308   5.649  0.6378  1.4804  0.2470
 2688SOL     OW19522   4.642   0.293   5.042  0.2002  0.3974 -0.1664
 2688SOL    HW119523   4.554   0.279   5.078  0.8924 -1.0186  0.9689
 2688SOL    HW219524   4.615   0.366   4.988 -0.2988  0.9735  0.8621
 2689SOL     OW19525   0.487   4.549  17.579 -0.2681 -0.3573  0.4793
 2689SOL    HW119526   0.475   4.559  17.673 -2.9282  2.4332 -0.1199
 2689SOL    HW219527   0.575   4.584  17.566  0.6584 -2.9625 -0.1539
 2690SOL     OW19528   2.005   1.304  12.977  0.6250 -0.3501  0.9243
 2690SOL    HW119529   1.992   1.375  12.914 -1.5938 -1.6764 -0.1072
 2690SOL    HW219530   1.924   1.302  13.028  1.2390 -0.6594  1.8890
 2691SOL     OW19531   3.531   0.271  11.024  0.4445  0.1920 -0.1549
 2691SOL    HW119532   3.487   0.300  10.944  1.3111 -1.1642 -1.1188
 2691SOL    HW219533   3.463   0.274  11.091 -1.1289 -3.5545 -1.6270
 2692SOL     OW19534   1.979   3.020   5.914 -0.0567 -0.0423 -0.3287
 2692SOL    HW119535   2.051   3.001   5.854  0.7212  1.3872  0.1521
 2692SOL    HW219536   2.001   2.961   5.987 -2.2298  0.4392  0.7370
 2693SOL     OW19537   2.581   0.658   8.543  0.1068  0.7628  0.2579
 2693SOL    HW119538   2.632   0.604   8.483 -0.8046  0.9599 -0.6939
 2693SOL    HW219539   2.519   0.600   8.587  0.3749  0.1786 -0.1331
 2694SOL     OW19540   2.244   0.433   1.834 -0.0094  0.2642  0.7469
 2694SOL    HW119541   2.281   0.469   1.914  0.5595  0.2082  0.5124
 2694SOL    HW219542   2.160   0.400   1.867 -0.6125  3.5740  2.4524
 2695SOL     OW19543   3.983   4.671   7.886 -0.5273 -0.2939 -0.4863
 2695SOL    HW119544   4.043   0.008   7.841  0.0586 -0.8759 -0.4872
 2695SOL    HW219545   4.043   4.643   7.956 -0.5149  0.0028 -0.3764
 2696SOL     OW19546   0.231   1.874   7.585 -0.3950  0.5471  0.4038
 2696SOL    HW119547   0.255   1.840   7.671 -1.1198  0.0668  0.4087
 2696SOL    HW219548   0.136   1.885   7.588 -1.1358 -5.6434 -0.8287
 2697SOL     OW19549   0.601   1.919   2.450 -0.2090 -0.3348 -0.0194
 2697SOL    HW119550   0.578   1.995   2.396  0.2554 -0.8117 -0.8792
 2697SOL    HW219551   0.605   1.966   2.534 -0.3535 -1.2091  0.4772
 2698SOL     OW19552   1.261   2.820  14.079  0.1177  0.3078  0.0660
 2698SOL    HW119553   1.236   2.818  14.172 -0.8705 -0.8893 -0.2231
 2698SOL    HW219554   1.195   2.762  14.042  0.6065 -0.8962  1.0763
 2699SOL     OW19555   3.188   2.574   3.390  0.4414 -0.2237  0.3380
 2699SOL    HW119556   3.116   2.637   3.386  2.8211  2.4610 -0.0350
 2699SOL    HW219557   3.138   2.499   3.422 -0.1101  0.4098  0.9613
 2700SOL     OW19558   4.671   1.136   6.346  0.6179 -0.1081 -0.1312
 2700SOL    HW119559   4.634   1.074   6.283  0.4422  0.3021 -0.4338
 2700SOL    HW219560   4.656   1.080   6.423 -1.0414  0.2107 -0.2228
 2701SOL     OW19561   2.656   0.259   5.325 -0.8731 -0.0735  0.0834
 2701SOL    HW119562   2.708   0.214   5.258 -1.0591  0.1556 -0.2131
 2701SOL    HW219563   2.621   0.332   5.274  2.3911 -0.0992 -2.2274
 2702SOL     OW19564   1.956   4.504   6.789 -0.0211  0.3294  0.2948
 2702SOL    HW119565   1.865   4.534   6.795 -0.8555 -2.3274  0.9290
 2702SOL    HW219566   2.002   4.572   6.740 -0.3318 -0.2481 -0.8018
 2703SOL     OW19567   4.027   1.362   7.373  0.9285 -0.1945 -0.2125
 2703SOL    HW119568   4.052   1.416   7.448  2.0648 -0.6257 -0.2864
 2703SOL    HW219569   4.061   1.411   7.298  0.6632 -1.1571 -0.9538
 2704SOL     OW19570   1.839   1.865   3.737 -0.0791 -0.8159  0.6342
 2704SOL    HW119571   1.845   1.836   3.828 -1.1058 -1.4783  0.4903
 2704SOL    HW219572   1.866   1.791   3.682 -1.9932 -0.4953 -0.7215
 2705SOL     OW19573   4.388   3.397   5.944 -0.2358  0.0836 -0.1128
 2705SOL    HW119574   4.330   3.322   5.961 -2.0374  1.5400  0.2415
 2705SOL    HW219575   4.332   3.451   5.888 -1.8979 -1.8841 -0.3849
 2706SOL     OW19576   2.059   4.057   3.969  0.2332  0.5551  0.1523
 2706SOL    HW119577   2.023   4.018   4.049  0.1138 -0.4873 -0.4046
 2706SOL    HW219578   2.152   4.039   3.977 -0.0142 -0.0185  1.6980
 2707SOL     OW19579   1.529   2.631   6.140  0.7642 -0.7219 -0.0347
 2707SOL    HW119580   1.509   2.597   6.052  1.8505 -0.7362 -0.2726
 2707SOL    HW219581   1.455   2.690   6.156  0.2936 -0.9274 -1.4029
 2708SOL     OW19582   0.948   4.205   7.157  0.0730 -0.5007  0.3358
 2708SOL    HW119583   0.902   4.131   7.118  0.2670 -0.6855  0.4590
 2708SOL    HW219584   0.907   4.206   7.243 -2.0838  0.7929 -0.6826
 2709SOL     OW19585   0.652   1.485   4.404  0.0429  0.8314  0.0882
 2709SOL    HW119586   0.720   1.517   4.463  0.7331 -0.2843 -0.1117
 2709SOL    HW219587   0.622   1.416   4.463 -2.2937  1.3158 -0.5460
 2710SOL     OW19588   3.651   4.613   3.503 -0.3535 -0.0327  0.3708
 2710SOL    HW119589   3.654   4.613   3.407  0.1972 -0.3651  0.3870
 2710SOL    HW219590   3.738   4.640   3.533 -0.8996  3.9364 -1.6621
 2711SOL     OW19591   4.307   2.249   4.902 -0.0376 -0.8191 -0.1218
 2711SOL    HW119592   4.357   2.177   4.942  0.2550 -1.1079 -1.0080
 2711SOL    HW219593   4.347   2.322   4.949 -1.7326 -1.1448  1.8514
 2712SOL     OW19594   0.853   1.960   8.765 -0.2715  0.8170 -0.1870
 2712SOL    HW119595   0.850   2.051   8.733 -0.6016  0.1331 -2.0842
 2712SOL    HW219596   0.879   1.910   8.688  1.2280  0.3670  0.6043
 2713SOL     OW19597   3.548   0.784   8.849 -0.4291 -0.1629  0.2310
 2713SOL    HW119598   3.580   0.700   8.883 -0.2696 -0.3433 -0.3696
 2713SOL    HW219599   3.626   0.823   8.809 -1.3569  2.7687  1.2380
 2714SOL     OW19600   3.822   1.128   9.123 -0.0825  0.0217  0.7664
 2714SOL    HW119601   3.786   1.144   9.210 -1.0160 -0.4460  0.4672
 2714SOL    HW219602   3.749   1.169   9.077  1.1929  0.2882 -1.0271
 2715SOL     OW19603   3.570   2.812   6.465  0.0653  0.0845 -0.1377
 2715SOL    HW119604   3.544   2.835   6.376 -3.0578 -0.1466  0.7461
 2715SOL    HW219605   3.525   2.729   6.480  1.0449 -0.5422 -0.6521
 2716SOL     OW19606   3.043   2.726   7.717  0.2562 -0.1685  0.3718
 2716SOL    HW119607   3.058   2.697   7.806  2.7338  0.6231  0.2138
 2716SOL    HW219608   3.104   2.800   7.710 -0.8444  0.4707 -2.8935
 2717SOL     OW19609   0.545   2.776   3.570 -0.0662 -0.0357  0.0588
 2717SOL    HW119610   0.556   2.860   3.614  2.5128  0.5480 -1.7226
 2717SOL    HW219611   0.628   2.731   3.586  2.2130  4.0775 -0.1925
 2718SOL     OW19612   1.623   0.683   8.745  0.0273 -0.1455 -0.0574
 2718SOL    HW119613   1.631   0.590   8.765 -1.4959  0.2591  2.5477
 2718SOL    HW219614   1.556   0.708   8.809 -1.8279 -0.7812 -1.7767
 2719SOL     OW19615   0.070   4.691  11.065  0.0425  0.0277  0.0074
 2719SOL    HW119616   4.708   4.648  11.080 -0.9907  1.7896 -0.8482
 2719SOL    HW219617   0.091   4.715  11.155  3.9578 -0.5590 -0.7684
 2720SOL     OW19618   1.854   0.639   4.445 -0.0967  0.4301 -0.1773
 2720SOL    HW119619   1.875   0.641   4.352  1.8464 -0.3236  0.2394
 2720SOL    HW219620   1.895   0.554   4.463 -3.8240 -1.4792 -0.8292
 2721SOL     OW19621   1.754   2.920   2.727 -0.4226 -0.0899  0.2173
 2721SOL    HW119622   1.821   2.930   2.659 -1.5805  1.1403 -0.7466
 2721SOL    HW219623   1.777   2.838   2.771  4.5235  2.0818  1.7125
 2722SOL     OW19624   4.271   3.568   5.063  0.1924  1.0018 -0.7301
 2722SOL    HW119625   4.249   3.483   5.102 -3.5957  3.2273  1.9202
 2722SOL    HW219626   4.318   3.549   4.981  1.6891  0.0014  0.3680
 2723SOL     OW19627   1.534   2.194   1.873 -0.1070 -0.0742 -0.0282
 2723SOL    HW119628   1.610   2.250   1.856 -0.1146  0.0657  0.4065
 2723SOL    HW219629   1.464   2.230   1.817  0.9486  0.8382 -0.7535
 2724SOL     OW19630   0.499   1.720   9.391  0.1168 -0.3252 -0.0766
 2724SOL    HW119631   0.513   1.811   9.418  2.1294 -0.3496 -1.0078
 2724SOL    HW219632   0.514   1.685   9.478  1.9605  0.1028 -0.2027
 2725SOL     OW19633   2.435   3.019  14.433  0.1900  0.7039 -0.6747
 2725SOL    HW119634   2.528   3.022  14.454 -0.0374 -1.7223  0.5920
 2725SOL    HW219635   2.404   3.086  14.494  1.7595 -1.2528  2.2512
 2726SOL     OW19636   0.169   4.536   0.626  0.1241  0.3523 -0.3268
 2726SOL    HW119637   0.257   4.500   0.624  0.3547  0.8891  0.0478
 2726SOL    HW219638   0.136   4.473   0.690  1.8910 -0.8890 -0.6473
 2727SOL     OW19639   3.035   4.149  17.615 -0.5972 -0.2954  0.2350
 2727SOL    HW119640   2.950   4.194  17.613 -1.1964 -1.3281  2.3487
 2727SOL    HW219641   3.002   4.066  17.650 -0.2451  0.1835  1.6874
 2728SOL     OW19642   4.686   2.942   1.210  0.4509 -0.3669 -0.1676
 2728SOL    HW119643   4.658   2.854   1.183  1.3073 -0.6192 -0.2149
 2728SOL    HW219644   0.058   2.932   1.215  0.4615 -1.4428 -2.2349
 2729SOL     OW19645   0.356   4.671  11.639 -0.1610 -0.7496  0.4755
 2729SOL    HW119646   0.286   4.628  11.687 -2.4028  2.0239 -0.2884
 2729SOL    HW219647   0.414   4.705  11.707 -1.9331  0.3785  1.4245
 2730SOL     OW19648   1.945   0.050   3.574 -0.1914  0.3461 -0.1899
 2730SOL    HW119649   1.973   4.684   3.553  0.8956  0.7748 -0.5590
 2730SOL    HW219650   1.953   0.060   3.669  1.5117  0.5468 -0.3478
 2731SOL     OW19651   1.731   2.818   6.993  0.2622  0.0371  0.3215
 2731SOL    HW119652   1.818   2.845   7.025  1.6517 -3.4763 -0.4895
 2731SOL    HW219653   1.682   2.900   6.996 -2.3891 -1.6147  1.8707
 2732SOL     OW19654   2.480   1.668   1.460  0.0710  0.3957 -0.0586
 2732SOL    HW119655   2.491   1.603   1.529 -1.2029 -1.1339 -1.2895
 2732SOL    HW219656   2.563   1.657   1.413  0.5941 -2.9590  1.7058
 2733SOL     OW19657   1.811   0.713  14.838 -0.0606 -0.0460  0.0718
 2733SOL    HW119658   1.726   0.733  14.878 -0.4948 -0.6782 -0.5193
 2733SOL    HW219659   1.823   0.619  14.825  1.0043  0.3868 -2.0246
 2734SOL     OW19660   0.033   4.284   6.168 -0.4667  0.4418 -0.0789
 2734SOL    HW119661   0.041   4.370   6.128 -0.8309  0.5230  0.0193
 2734SOL    HW219662   0.092   4.290   6.243 -2.2114 -0.8906  1.4033
 2735SOL     OW19663   0.207   0.165   3.150 -0.5149  0.6678  1.3523
 2735SOL    HW119664   0.242   0.227   3.087  0.4929  0.5042  1.7642
 2735SOL    HW219665   0.162   0.102   3.093  1.2101  0.3239  0.3999
 2736SOL     OW19666   3.273   4.363  13.946  0.1062 -0.0935 -0.0434
 2736SOL    HW119667   3.284   4.457  13.955  2.2551 -0.3980  0.5538
 2736SOL    HW219668   3.341   4.350  13.879 -1.7486 -1.9550 -1.5907
 2737SOL     OW19669   3.554   2.841  15.473 -0.1230 -0.1896  0.3639
 2737SOL    HW119670   3.492   2.913  15.458  0.4094  0.1176 -0.3916
 2737SOL    HW219671   3.578   2.853  15.565 -0.2087  0.6300  0.2854
 2738SOL     OW19672   3.423   1.118   0.963 -0.0751  0.3436  0.5266
 2738SOL    HW119673   3.506   1.166   0.958 -0.1161  0.3234 -0.3651
 2738SOL    HW219674   3.435   1.070   1.045  0.0263 -1.1267 -0.3528
 2739SOL     OW19675   2.056   1.494   9.793  0.0841 -0.1933 -0.2580
 2739SOL    HW119676   2.064   1.557   9.721  2.5490  1.5738  1.5865
 2739SOL    HW219677   2.078   1.411   9.752  1.2100  0.2323 -0.5087
 2740SOL     OW19678   3.925   0.209   9.152 -0.2919  0.0666 -0.2304
 2740SOL    HW119679   3.907   0.195   9.059 -0.0899  1.8001 -0.5277
 2740SOL    HW219680   3.854   0.265   9.184  0.2340 -0.0350  1.1114
 2741SOL     OW19681   3.867   2.737   7.106 -0.4099  0.0011  0.4014
 2741SOL    HW119682   3.954   2.702   7.086  0.6814  0.6070  4.0487
 2741SOL    HW219683   3.815   2.671   7.059 -1.8166 -0.7249  2.9397
 2742SOL     OW19684   3.152   1.317  17.285  0.0191  0.1444 -0.1949
 2742SOL    HW119685   3.196   1.381  17.340 -1.4821  0.8144  0.2281
 2742SOL    HW219686   3.126   1.368  17.209  0.1404 -2.1283 -1.7512
 2743SOL     OW19687   2.065   0.130   1.639 -0.3118 -0.0057 -0.7384
 2743SOL    HW119688   2.068   0.045   1.682 -1.6990  0.5500  0.4369
 2743SOL    HW219689   2.101   0.107   1.553 -1.0041 -2.0660 -0.4668
 2744SOL     OW19690   0.749   1.826   4.458 -0.9018  0.0998 -0.3352
 2744SOL    HW119691   0.801   1.756   4.419  0.3176  0.7776  0.0821
 2744SOL    HW219692   0.661   1.792   4.470 -0.1291 -1.8315 -0.2636
 2745SOL     OW19693   0.346   2.987  14.597  0.0815 -0.1487  0.1430
 2745SOL    HW119694   0.273   2.962  14.539 -0.2966  1.7622 -0.2021
 2745SOL    HW219695   0.383   2.900  14.614 -2.1103 -1.4912 -1.7981
 2746SOL     OW19696   4.259   0.591   3.675  0.1380  0.2486 -0.4161
 2746SOL    HW119697   4.317   0.639   3.734 -0.3382  0.4502 -0.1116
 2746SOL    HW219698   4.280   0.624   3.588 -0.2084 -0.2495 -0.6833
 2747SOL     OW19699   1.039   0.898   2.877 -0.3613  0.1621  0.5134
 2747SOL    HW119700   1.110   0.956   2.848  1.6433 -3.1683 -1.2989
 2747SOL    HW219701   1.073   0.855   2.955  1.2555 -0.5412 -0.5728
 2748SOL     OW19702   0.357   0.862   2.286  0.2641 -0.3318  0.0526
 2748SOL    HW119703   0.365   0.951   2.252 -2.2040  0.1671  0.7873
 2748SOL    HW219704   0.310   0.825   2.211  1.9266 -2.2601 -0.0240
 2749SOL     OW19705   4.134   0.486   9.747  0.3916 -0.0410 -0.4292
 2749SOL    HW119706   4.038   0.481   9.745  0.5518 -2.7568 -1.8046
 2749SOL    HW219707   4.157   0.488   9.654 -1.1362 -1.1125 -0.8381
 2750SOL     OW19708   0.477   3.552  13.622 -0.7996 -0.3020  0.0467
 2750SOL    HW119709   0.402   3.591  13.577 -1.0679 -1.2320 -0.3258
 2750SOL    HW219710   0.479   3.592  13.709  3.3803  0.8721 -0.5994
 2751SOL     OW19711   1.925   2.501   7.636  0.4731  0.6228 -0.0395
 2751SOL    HW119712   1.875   2.482   7.716  0.0421  2.6791  0.1897
 2751SOL    HW219713   2.008   2.498   7.683 -0.5610 -0.2996  1.7009
 2752SOL     OW19714   3.534   1.307  16.729  0.5904  0.5510 -0.0365
 2752SOL    HW119715   3.548   1.273  16.641 -3.7156  1.3747 -1.0396
 2752SOL    HW219716   3.609   1.365  16.732  1.7037 -0.8679 -0.2381
 2753SOL     OW19717   2.815   1.945   3.062  0.3947  0.5001 -0.8152
 2753SOL    HW119718   2.840   2.038   3.066 -2.3783  1.1842  0.2082
 2753SOL    HW219719   2.896   1.901   3.087 -0.5117 -1.4305 -1.3094
 2754SOL     OW19720   0.185   3.310   0.124  0.4066  0.7973 -0.7115
 2754SOL    HW119721   0.237   3.241   0.083 -0.5361 -0.0761 -0.4576
 2754SOL    HW219722   0.254   3.374   0.140  0.2806  1.2189 -1.8435
 2755SOL     OW19723   2.218   1.829   3.828  0.2147  0.0592  0.3984
 2755SOL    HW119724   2.257   1.895   3.771  0.3893 -0.8066 -0.5058
 2755SOL    HW219725   2.262   1.861   3.907  0.9353  0.4386 -0.1475
 2756SOL     OW19726   0.380   0.918   6.847 -0.9204  0.4800  0.4840
 2756SOL    HW119727   0.297   0.876   6.871 -1.2081  0.3905 -0.6354
 2756SOL    HW219728   0.416   0.950   6.930 -0.6363  1.0533  0.1452
 2757SOL     OW19729   1.419   2.730   7.165 -0.0940 -0.1690 -0.0989
 2757SOL    HW119730   1.472   2.651   7.177  2.9450  2.0758  1.3762
 2757SOL    HW219731   1.475   2.801   7.198  0.9463 -0.6365 -0.8458
 2758SOL     OW19732   1.271   4.154   0.302 -0.3488 -0.2282 -0.3439
 2758SOL    HW119733   1.329   4.082   0.327  2.3382  1.6853 -0.9693
 2758SOL    HW219734   1.185   4.116   0.319  0.1422 -0.6817  1.1122
 2759SOL     OW19735   4.240   4.706   6.856 -0.1466  0.2390  0.4555
 2759SOL    HW119736   4.212   0.006   6.944 -0.0986  1.5312  0.1284
 2759SOL    HW219737   4.229   0.069   6.816  2.8506  1.0955  1.4942
 2760SOL     OW19738   3.536   3.575  15.920 -0.2335 -0.2593 -0.2550
 2760SOL    HW119739   3.565   3.532  15.840 -2.5060 -0.0962 -1.1596
 2760SOL    HW219740   3.567   3.665  15.907 -0.2405 -0.1171  0.7262
 2761SOL     OW19741   1.820   1.869   7.262  0.2874 -0.0500 -1.1713
 2761SOL    HW119742   1.835   1.819   7.182  0.0451 -0.9440 -0.6598
 2761SOL    HW219743   1.785   1.802   7.320  1.6030  0.0598 -0.2433
 2762SOL     OW19744   3.279   1.769   6.785 -0.3944  0.0332 -0.3539
 2762SOL    HW119745   3.283   1.854   6.741 -2.7533 -0.6911 -1.9902
 2762SOL    HW219746   3.338   1.718   6.730 -0.7839  0.7009 -1.3789
 2763SOL     OW19747   1.030   3.212   7.963 -0.0536 -0.3780 -1.0516
 2763SOL    HW119748   0.935   3.213   7.976  0.4732  0.9104  2.6791
 2763SOL    HW219749   1.053   3.137   8.017 -2.4007  1.2730  2.2251
 2764SOL     OW19750   2.944   3.153   9.727  0.3188  0.2925  0.2882
 2764SOL    HW119751   3.008   3.217   9.696  0.3987  0.3600  0.5896
 2764SOL    HW219752   2.949   3.167   9.822  1.0070 -0.0482  0.3069
 2765SOL     OW19753   3.163   3.874   1.380 -0.1867  0.1060  0.3108
 2765SOL    HW119754   3.134   3.944   1.322  0.3755  0.0015 -0.0959
 2765SOL    HW219755   3.199   3.812   1.317  0.4581  0.0401  0.7464
 2766SOL     OW19756   0.873   3.397   8.611  0.4270 -0.6784 -0.4448
 2766SOL    HW119757   0.960   3.358   8.601  0.3850  0.0263 -3.6804
 2766SOL    HW219758   0.896   3.484   8.644 -2.0502 -0.1461 -0.1369
 2767SOL     OW19759   1.546   2.057   3.789 -0.7362 -0.5948  0.2159
 2767SOL    HW119760   1.490   2.128   3.757 -0.7587 -1.0933 -0.8451
 2767SOL    HW219761   1.627   2.075   3.742 -2.1504 -0.6933 -2.2328
 2768SOL     OW19762   1.939   4.491  14.970  0.2290  0.2631 -0.2234
 2768SOL    HW119763   2.015   4.448  15.009 -0.8569 -0.1521  1.4454
 2768SOL    HW219764   1.959   4.495  14.877  0.0111 -0.1793 -0.2858
 2769SOL     OW19765   1.468   3.489  12.984  0.3069 -0.3156  0.2339
 2769SOL    HW119766   1.399   3.554  12.992  0.2477 -0.3278 -0.1583
 2769SOL    HW219767   1.430   3.414  13.030 -2.5317  0.6400 -0.5585
 2770SOL     OW19768   2.222   4.078   6.668 -0.3272 -0.1609 -0.2738
 2770SOL    HW119769   2.224   4.119   6.581 -0.4894  1.4020  0.4688
 2770SOL    HW219770   2.204   4.155   6.721  2.2127  0.0104  0.3693
 2771SOL     OW19771   0.042   0.693  12.473  0.2242 -0.1862  0.4967
 2771SOL    HW119772   0.071   0.653  12.555  0.7545 -0.3201  0.2474
 2771SOL    HW219773   0.010   0.776  12.506 -0.0460 -0.2508  0.3959
 2772SOL     OW19774   2.968   3.437  10.863  0.6676  0.5242  0.1305
 2772SOL    HW119775   2.911   3.422  10.788 -0.3656 -2.2944  1.5098
 2772SOL    HW219776   3.029   3.364  10.871 -1.3059 -0.9831  1.1717
 2773SOL     OW19777   2.740   4.279   3.623 -0.1123 -0.0326  0.3166
 2773SOL    HW119778   2.707   4.352   3.676  4.0501  0.4715  2.2957
 2773SOL    HW219779   2.720   4.306   3.534  2.5021  1.4130  0.1481
 2774SOL     OW19780   2.341   3.070  15.805  0.2407 -0.4828  0.6425
 2774SOL    HW119781   2.359   3.163  15.790 -1.1312  0.0013  2.0293
 2774SOL    HW219782   2.379   3.043  15.721 -0.8309  0.7393 -0.2341
 2775SOL     OW19783   3.408   2.791   3.554 -0.3234 -0.1993  0.8096
 2775SOL    HW119784   3.378   2.874   3.592 -1.1471 -0.0966 -0.0908
 2775SOL    HW219785   3.328   2.739   3.558 -0.1738 -0.4713  0.2515
 2776SOL     OW19786   1.625   3.962   1.878 -0.7479 -0.7991  0.2187
 2776SOL    HW119787   1.618   3.924   1.965  1.3822 -0.8047  0.3957
 2776SOL    HW219788   1.600   3.895   1.815  0.1890  0.4910 -1.5336
 2777SOL     OW19789   3.629   2.758   4.284 -0.3723  0.3746  0.7901
 2777SOL    HW119790   3.561   2.760   4.216 -0.3958 -0.6025  0.7879
 2777SOL    HW219791   3.614   2.835   4.339 -0.2529 -0.3559  1.8440
 2778SOL     OW19792   2.546   2.927   2.095  0.4484  0.0609 -0.2061
 2778SOL    HW119793   2.574   2.836   2.089  0.2394  0.0491 -1.0708
 2778SOL    HW219794   2.572   2.955   2.007 -1.2184 -2.5087 -1.5324
 2779SOL     OW19795   0.999   4.713   9.827  0.4792  0.5442 -0.4915
 2779SOL    HW119796   1.079   0.030   9.860 -1.4990  2.1492  2.2758
 2779SOL    HW219797   0.941   4.717   9.903 -0.1093  1.8610 -1.0252
 2780SOL     OW19798   3.121   3.632   7.464  0.0549  0.1829 -0.5455
 2780SOL    HW119799   3.182   3.670   7.527  1.0062  0.6006 -1.6900
 2780SOL    HW219800   3.101   3.713   7.417 -0.0431  0.6518  0.3189
 2781SOL     OW19801   1.605   4.477   8.525  0.0460 -0.5837 -0.0009
 2781SOL    HW119802   1.596   4.572   8.527 -0.6399 -0.6546  0.2217
 2781SOL    HW219803   1.549   4.467   8.449 -0.0658 -0.9826  0.1322
 2782SOL     OW19804   0.214   4.280   8.350  0.5955  0.4567 -0.1109
 2782SOL    HW119805   0.256   4.195   8.340 -2.6073 -1.3572  2.1920
 2782SOL    HW219806   0.210   4.288   8.445 -1.4383  1.3297 -0.2730
 2783SOL     OW19807   0.826   1.691   7.296  0.1607 -0.5448  0.8447
 2783SOL    HW119808   0.808   1.785   7.299 -2.4648 -1.0428  0.5070
 2783SOL    HW219809   0.919   1.682   7.317  0.3615 -2.7823 -0.9344
 2784SOL     OW19810   1.235   2.547   7.704 -1.0983  0.5787  0.0151
 2784SOL    HW119811   1.243   2.532   7.798 -1.2786 -0.1788 -0.0890
 2784SOL    HW219812   1.152   2.503   7.685 -0.1449 -1.9101  1.7036
 2785SOL     OW19813   0.949   1.491   5.519 -0.1012 -0.4408 -0.5726
 2785SOL    HW119814   1.040   1.515   5.503 -0.4655  0.4782 -1.2678
 2785SOL    HW219815   0.899   1.570   5.496 -0.2486 -1.2114 -2.8229
 2786SOL     OW19816   0.062   2.577   3.747  0.3591  0.1071  0.0244
 2786SOL    HW119817   0.015   2.633   3.808 -1.4051 -1.1101 -0.2099
 2786SOL    HW219818   0.145   2.624   3.739  0.6617 -0.4143  0.0382
 2787SOL     OW19819   0.692   4.481   9.831  0.0640 -0.2998 -0.4556
 2787SOL    HW119820   0.761   4.461   9.767 -0.7698 -0.4099 -1.3319
 2787SOL    HW219821   0.661   4.570   9.812  0.4070  0.0740  0.7533
 2788SOL     OW19822   1.315   4.466   2.855  0.1071  0.2466  0.4893
 2788SOL    HW119823   1.378   4.444   2.924 -0.6011 -2.5205  0.2494
 2788SOL    HW219824   1.372   4.492   2.782  0.3336 -1.3300  0.1163
 2789SOL     OW19825   3.993   2.071  14.401  0.0270  0.2923  0.0443
 2789SOL    HW119826   4.076   2.117  14.398  0.2926 -0.1325  0.8207
 2789SOL    HW219827   4.016   1.985  14.436 -1.0699 -0.5650 -1.3470
 2790SOL     OW19828   0.537   3.874   7.625 -0.0576  0.1999 -0.8176
 2790SOL    HW119829   0.469   3.840   7.683  0.7233  1.9348  1.1320
 2790SOL    HW219830   0.609   3.877   7.689 -0.3705  1.2347 -0.5098
 2791SOL     OW19831   2.712   0.428   4.911  0.4221 -0.1708 -0.0647
 2791SOL    HW119832   2.693   0.344   4.869 -2.5678  0.4164  0.1394
 2791SOL    HW219833   2.757   0.485   4.848  0.4978  2.3650  2.2784
 2792SOL     OW19834   1.797   2.061  15.568  0.3826  0.2564  0.3208
 2792SOL    HW119835   1.740   2.071  15.645 -0.4690  1.8605 -0.5273
 2792SOL    HW219836   1.740   2.100  15.501  1.6885 -0.2398 -1.0627
 2793SOL     OW19837   1.384   2.990  13.719 -0.6316  0.7208 -0.2137
 2793SOL    HW119838   1.477   3.009  13.732 -0.4438 -0.9441  0.7969
 2793SOL    HW219839   1.336   3.058  13.765  0.0681  1.9167 -1.2447
 2794SOL     OW19840   2.727   2.985   0.593  0.1690  0.8073 -0.0595
 2794SOL    HW119841   2.796   2.997   0.529 -1.2068 -0.8109 -1.8557
 2794SOL    HW219842   2.725   3.065   0.646 -2.2485  0.4522  0.4119
 2795SOL     OW19843   2.042   0.579   6.289 -0.1078 -0.2712 -0.4326
 2795SOL    HW119844   2.123   0.578   6.239 -1.4529 -0.9646 -2.6319
 2795SOL    HW219845   2.075   0.564   6.377 -0.2890 -0.5164 -0.4046
 2796SOL     OW19846   4.158   3.704   3.155 -0.3069 -0.4787  0.2163
 2796SOL    HW119847   4.147   3.689   3.061  0.2517  0.9606 -0.0904
 2796SOL    HW219848   4.232   3.765   3.161  0.2276 -1.1935  0.7709
 2797SOL     OW19849   2.266   2.544  13.397 -0.2643 -0.3447  0.1077
 2797SOL    HW119850   2.244   2.557  13.489 -1.2922 -0.4542 -0.1199
 2797SOL    HW219851   2.336   2.479  13.397  0.7506  0.7691  1.2136
 2798SOL     OW19852   1.735   2.457   5.396 -0.4730 -0.4888  0.1099
 2798SOL    HW119853   1.829   2.437   5.394 -0.1145  1.2306 -0.1177
 2798SOL    HW219854   1.722   2.499   5.311 -0.8215 -1.2750 -0.2352
 2799SOL     OW19855   2.651   1.794   3.353 -0.7383 -0.0291 -0.3342
 2799SOL    HW119856   2.699   1.712   3.342  0.4843  0.7939 -1.2431
 2799SOL    HW219857   2.706   1.826   3.424 -0.5474  0.5836 -0.7469
 2800SOL     OW19858   2.594   3.641   5.637 -0.5955  0.0906 -0.3424
 2800SOL    HW119859   2.590   3.716   5.577  1.9534  1.2604  0.9271
 2800SOL    HW219860   2.670   3.658   5.694 -0.1050 -0.0232 -0.9620
 2801SOL     OW19861   3.748   1.532   7.603 -0.1450 -0.4527  0.3186
 2801SOL    HW119862   3.663   1.528   7.558 -0.6226  0.5803  1.1175
 2801SOL    HW219863   3.801   1.576   7.537  1.8246 -0.0739  2.1370
 2802SOL     OW19864   3.529   2.043   9.581  0.3965  0.3910  0.1694
 2802SOL    HW119865   3.599   1.979   9.591 -1.0991 -1.2626  0.2664
 2802SOL    HW219866   3.569   2.123   9.613 -0.8068  0.4971  1.4344
 2803SOL     OW19867   3.179   1.743   7.876  0.0818  0.5295 -0.0019
 2803SOL    HW119868   3.266   1.773   7.903  0.3312  0.3911 -0.6570
 2803SOL    HW219869   3.155   1.672   7.934 -2.7597  1.6595  0.1944
 2804SOL     OW19870   1.882   3.356   4.042 -0.1274  1.1734 -0.5491
 2804SOL    HW119871   1.837   3.342   4.126  0.8254 -0.1001 -0.2626
 2804SOL    HW219872   1.835   3.429   4.000 -2.0612 -1.4536 -2.8909
 2805SOL     OW19873   2.329   0.893  15.044 -0.9278 -0.2618  0.5831
 2805SOL    HW119874   2.370   0.858  14.965 -1.1166 -1.3918  0.9816
 2805SOL    HW219875   2.402   0.924  15.097 -0.6083  1.6378 -0.9621
 2806SOL     OW19876   1.868   1.894   4.516  0.3248  0.0492 -0.0964
 2806SOL    HW119877   1.873   1.916   4.423 -1.7757 -0.0824 -0.2388
 2806SOL    HW219878   1.801   1.956   4.545  1.9000  0.8227  1.9178
 2807SOL     OW19879   1.139   3.901   5.596 -0.1275  0.4767 -0.0426
 2807SOL    HW119880   1.227   3.921   5.565  0.3386 -1.7050 -0.0767
 2807SOL    HW219881   1.133   3.816   5.554  0.5245  0.2769  0.2673
 2808SOL     OW19882   3.372   3.686  10.225 -0.5637 -0.0129  0.7185
 2808SOL    HW119883   3.382   3.652  10.136  0.1470 -0.4946  0.9840
 2808SOL    HW219884   3.459   3.720  10.246 -0.3759  1.0678 -1.8244
 2809SOL     OW19885   3.729   0.276   7.142 -0.0199 -0.4898 -0.2980
 2809SOL    HW119886   3.745   0.183   7.128 -0.0382 -0.7281  1.2780
 2809SOL    HW219887   3.634   0.283   7.126  0.0212 -0.8281 -0.7020
 2810SOL     OW19888   3.357   0.289   7.333  0.2261  0.0354 -0.0443
 2810SOL    HW119889   3.287   0.230   7.303 -0.1345  0.1106  0.6423
 2810SOL    HW219890   3.425   0.225   7.356 -0.2728  0.6495  3.1525
 2811SOL     OW19891   3.265   4.293  12.651  0.5403 -0.4201  0.3047
 2811SOL    HW119892   3.327   4.326  12.716  2.2905  0.9711 -2.0844
 2811SOL    HW219893   3.325   4.273  12.580  1.3618 -0.2031  0.9305
 2812SOL     OW19894   3.235   0.772   2.886  0.0256  0.4495  0.0763
 2812SOL    HW119895   3.249   0.846   2.946  2.8803 -1.2494  1.5161
 2812SOL    HW219896   3.148   0.790   2.851 -0.4712 -1.3609  0.4288
 2813SOL     OW19897   3.394   3.751  10.703 -0.3277  1.0241 -0.6397
 2813SOL    HW119898   3.411   3.828  10.648  1.6452  0.3113 -1.0292
 2813SOL    HW219899   3.353   3.701  10.632 -1.2823 -0.9302  1.3129
 2814SOL     OW19900   0.127   0.840   4.001 -0.0306  0.6100 -0.2439
 2814SOL    HW119901   0.160   0.794   3.924  1.7668  1.9311 -0.2688
 2814SOL    HW219902   0.153   0.930   3.979  0.6308  0.4382 -0.1736
 2815SOL     OW19903   3.299   2.071   1.308  0.7784 -0.2218 -0.1952
 2815SOL    HW119904   3.220   2.047   1.358  0.0684  1.3030 -0.5748
 2815SOL    HW219905   3.364   2.009   1.342  0.5791 -0.2359  0.1660
 2816SOL     OW19906   1.114   4.631   8.435  0.3829  0.1130 -0.6798
 2816SOL    HW119907   1.089   4.720   8.409  0.7590 -0.1486 -1.9696
 2816SOL    HW219908   1.162   4.606   8.355 -0.6827 -1.1039 -0.9227
 2817SOL     OW19909   1.817   4.557   6.496  0.3063  0.6288  0.6245
 2817SOL    HW119910   1.777   4.541   6.410  1.5205 -0.8620  0.3315
 2817SOL    HW219911   1.858   4.639   6.471 -0.3042 -0.0554 -2.6281
 2818SOL     OW19912   3.932   0.368   7.009 -0.4331 -0.2732 -0.3861
 2818SOL    HW119913   3.860   0.339   7.064 -0.5242 -0.8582 -0.8061
 2818SOL    HW219914   3.961   0.444   7.059  0.2943 -0.8348  0.0537
 2819SOL     OW19915   3.734   3.617   6.881  0.5728  0.2250 -0.5464
 2819SOL    HW119916   3.803   3.569   6.926  0.6060  0.6139 -0.1870
 2819SOL    HW219917   3.762   3.618   6.789 -2.9407 -0.6303 -1.6206
 2820SOL     OW19918   0.284   0.177   6.444 -0.0313 -0.3478  0.1695
 2820SOL    HW119919   0.224   0.141   6.509  0.5272 -2.1869 -0.3417
 2820SOL    HW219920   0.334   0.098   6.424  2.6530  1.1913  0.8627
 2821SOL     OW19921   4.043   1.253   3.427 -0.7055  0.0145  0.5299
 2821SOL    HW119922   4.037   1.196   3.351  1.7948 -0.7677  0.9389
 2821SOL    HW219923   4.103   1.324   3.406  1.3061 -2.0672 -0.7242
 2822SOL     OW19924   0.995   3.327   3.891  0.3254 -0.2940  0.0739
 2822SOL    HW119925   1.038   3.336   3.806 -1.4512 -0.7438 -0.8797
 2822SOL    HW219926   0.908   3.359   3.868  0.8561  2.0321  1.3052
 2823SOL     OW19927   1.604   1.234   7.382 -0.2737  0.2754 -0.3127
 2823SOL    HW119928   1.557   1.282   7.450  2.4617  0.6774  1.2986
 2823SOL    HW219929   1.609   1.300   7.313  1.0221 -0.3668 -0.8464
 2824SOL     OW19930   3.528   3.596   5.574 -0.3740 -0.1157  0.8187
 2824SOL    HW119931   3.578   3.524   5.613  0.5728  0.5542  0.8461
 2824SOL    HW219932   3.594   3.627   5.512 -1.5368  0.5566 -0.1019
 2825SOL     OW19933   1.774   4.511  14.694 -0.0300 -0.4157  0.0153
 2825SOL    HW119934   1.691   4.529  14.649  0.4975  2.3988  0.2266
 2825SOL    HW219935   1.751   4.542  14.781  1.9753 -0.7782  0.6698
 2826SOL     OW19936   4.659   0.500   2.662 -0.2431  0.1235  0.3114
 2826SOL    HW119937   0.020   0.489   2.617  0.0982  1.2087  0.6877
 2826SOL    HW219938   4.607   0.547   2.597 -0.8039 -2.2780 -0.9780
 2827SOL     OW19939   4.648   2.060   7.100 -1.2430 -0.6006  0.0744
 2827SOL    HW119940   4.682   2.059   7.010  0.1700 -1.6504  0.6249
 2827SOL    HW219941   4.710   1.995   7.132 -0.8322 -0.3220 -0.1528
 2828SOL     OW19942   4.630   0.304   9.660  0.4040 -0.2771 -0.3681
 2828SOL    HW119943   4.543   0.277   9.630 -0.0463  0.3094  0.4078
 2828SOL    HW219944   4.690   0.233   9.636  0.0626 -0.6384 -0.1478
 2829SOL     OW19945   3.696   2.681  10.149  0.0525  0.7507  0.2464
 2829SOL    HW119946   3.755   2.646  10.216  1.6731  2.4922 -0.2711
 2829SOL    HW219947   3.612   2.667  10.193  0.4558 -1.5496  0.2652
 2830SOL     OW19948   0.652   2.190   6.425  0.3171  0.3591 -0.0421
 2830SOL    HW119949   0.686   2.180   6.336  3.3186  0.1230  1.1394
 2830SOL    HW219950   0.649   2.104   6.466  2.0503  0.4696  0.3177
 2831SOL     OW19951   1.987   3.967   2.244 -0.0430 -0.5607  0.2100
 2831SOL    HW119952   1.992   3.872   2.245  1.4733 -0.4491  2.6551
 2831SOL    HW219953   1.917   3.971   2.310 -1.2769 -0.5947 -1.1078
 2832SOL     OW19954   0.012   1.196   8.402  0.8530  0.2569  0.3066
 2832SOL    HW119955   4.709   1.237   8.320  0.3444 -0.2320  0.2242
 2832SOL    HW219956   4.659   1.230   8.449  0.3391 -0.5632  0.0569
 2833SOL     OW19957   1.836   4.590   9.253  0.6293 -0.3436 -0.5099
 2833SOL    HW119958   1.826   4.553   9.341  1.5189  2.1839  0.6717
 2833SOL    HW219959   1.758   4.546   9.220 -0.2670  0.0557  1.0745
 2834SOL     OW19960   2.422   4.637   2.924 -0.1000  0.2096 -0.0063
 2834SOL    HW119961   2.357   4.633   2.993 -1.7003 -0.8735 -1.5749
 2834SOL    HW219962   2.460   4.723   2.944 -1.7092  0.8011  0.4727
 2835SOL     OW19963   2.365   0.163   2.180  0.2295  0.4389 -0.1661
 2835SOL    HW119964   2.370   0.207   2.095  2.3400  1.4571  0.5032
 2835SOL    HW219965   2.271   0.150   2.193  0.1763 -0.4177 -1.4297
 2836SOL     OW19966   2.516   2.434   2.785  0.2586  0.1339 -0.0631
 2836SOL    HW119967   2.468   2.393   2.856  0.7459  1.2801  0.9240
 2836SOL    HW219968   2.552   2.371   2.723 -0.0830  0.1305 -0.2558
 2837SOL     OW19969   0.656   1.687   2.527 -0.3320 -0.5795 -0.1403
 2837SOL    HW119970   0.570   1.691   2.567 -0.5107 -0.7130 -0.5126
 2837SOL    HW219971   0.661   1.770   2.480 -0.0240 -1.8783 -2.3836
 2838SOL     OW19972   0.142   4.438   0.373  0.0505 -0.3604  0.4907
 2838SOL    HW119973   0.222   4.463   0.326  0.5231 -1.0896  0.9040
 2838SOL    HW219974   0.149   4.505   0.441  1.8648  0.7039 -0.7367
 2839SOL     OW19975   0.348   3.165   3.449 -0.0177  0.1970  0.4504
 2839SOL    HW119976   0.298   3.099   3.402  0.7746 -0.2239  0.1905
 2839SOL    HW219977   0.290   3.162   3.525 -1.8154  0.1661 -0.9098
 2840SOL     OW19978   2.641   0.926   0.947  0.4393 -0.3496  0.2518
 2840SOL    HW119979   2.641   0.966   1.034 -0.1305  1.1859 -0.4518
 2840SOL    HW219980   2.641   1.007   0.897  0.7275 -1.3055 -1.3241
 2841SOL     OW19981   3.116   0.654   3.527 -0.0240 -0.2233  0.7389
 2841SOL    HW119982   3.137   0.642   3.434 -0.7991 -2.3122  0.8243
 2841SOL    HW219983   3.170   0.590   3.573 -0.9352 -1.0842  0.6203
 2842SOL     OW19984   4.446   1.919   2.863  0.3388  0.6365 -1.2031
 2842SOL    HW119985   4.358   1.939   2.830  0.5786  1.6941 -1.2017
 2842SOL    HW219986   4.472   1.837   2.821 -1.6393 -0.3818 -0.4926
 2843SOL     OW19987   3.846   2.344   6.032  0.5965  0.2651 -0.0908
 2843SOL    HW119988   3.929   2.391   6.033  0.1928  0.9196  2.4088
 2843SOL    HW219989   3.789   2.402   5.982  1.1652  1.3565  0.5339
 2844SOL     OW19990   3.882   1.384   4.018  0.4030 -1.0400 -0.7731
 2844SOL    HW119991   3.853   1.450   3.955 -0.0397 -1.5098 -1.0696
 2844SOL    HW219992   3.969   1.362   3.983  0.6962 -1.5250  0.2492
 2845SOL     OW19993   1.130   3.063   0.152  0.0471  0.1882 -0.5458
 2845SOL    HW119994   1.111   2.991   0.211  0.5617 -0.3606 -1.0470
 2845SOL    HW219995   1.124   3.137   0.212 -0.4346  0.1853 -0.5886
 2846SOL     OW19996   2.592   0.031  11.135 -0.6716 -0.2201 -0.7431
 2846SOL    HW119997   2.589   0.082  11.216  0.9951 -0.9065 -0.2498
 2846SOL    HW219998   2.522   4.692  11.157 -0.8907  0.1195 -0.4854
 2847SOL     OW19999   1.787   1.959   0.837 -0.0834  0.2000  0.3004
 2847SOL    HW120000   1.706   1.953   0.887 -0.6165  0.5197 -0.5237
 2847SOL    HW220001   1.753   1.991   0.754  0.3910 -3.2029 -1.1718
 2848SOL     OW20002   3.618   2.161   7.965  0.0827 -0.0981 -0.6436
 2848SOL    HW120003   3.677   2.087   7.952  1.4692  0.7590  0.7859
 2848SOL    HW220004   3.600   2.158   8.059  0.5133  3.0599 -0.4635
 2849SOL     OW20005   0.981   1.177   7.666 -0.4363  0.6695 -0.6597
 2849SOL    HW120006   0.940   1.105   7.619  1.3341 -1.9743  1.7551
 2849SOL    HW220007   1.056   1.189   7.607 -0.9696 -0.8338 -1.6404
 2850SOL     OW20008   2.068   1.358   5.233  0.2032 -0.0012 -0.2909
 2850SOL    HW120009   1.997   1.367   5.298  0.8549  3.1811 -0.0093
 2850SOL    HW220010   2.081   1.444   5.193 -1.5333 -1.3912 -3.7817
 2851SOL     OW20011   3.539   0.949   5.519  0.2188 -0.1235  0.1619
 2851SOL    HW120012   3.581   1.035   5.515 -1.3489  0.6859  1.1229
 2851SOL    HW220013   3.476   0.968   5.449 -0.0447 -1.8918 -0.0962
 2852SOL     OW20014   0.364   0.442   3.682 -0.0912  0.1839 -0.6631
 2852SOL    HW120015   0.417   0.399   3.749 -1.2787  3.8011  2.6104
 2852SOL    HW220016   0.428   0.508   3.654 -0.2139 -0.0207 -1.4089
 2853SOL     OW20017   4.001   0.781  15.808  0.1789 -0.5343  0.4890
 2853SOL    HW120018   3.943   0.706  15.798 -0.1286 -0.0943 -1.0244
 2853SOL    HW220019   4.002   0.790  15.903 -1.5194 -0.6531  0.5109
 2854SOL     OW20020   0.281   2.330   7.599 -0.3584 -0.1204 -0.4138
 2854SOL    HW120021   0.240   2.331   7.513 -0.1852  1.8285 -0.4625
 2854SOL    HW220022   0.204   2.344   7.655 -0.3906 -1.0150 -0.2287
 2855SOL     OW20023   3.813   4.667   2.981  0.0110 -0.3226 -0.1660
 2855SOL    HW120024   3.861   0.021   2.952  0.2292 -0.5868 -0.5113
 2855SOL    HW220025   3.750   4.693   3.048 -0.8946 -3.1685  0.0860
 2856SOL     OW20026   2.233   0.024   4.723  0.1971 -0.6867 -0.3587
 2856SOL    HW120027   2.253   0.002   4.632  0.3943 -3.8702  0.4390
 2856SOL    HW220028   2.217   4.659   4.759 -1.4347 -1.0207 -1.8952
 2857SOL     OW20029   2.115   3.168  12.628  0.3126  0.6856 -0.3172
 2857SOL    HW120030   2.124   3.215  12.545  2.1420 -1.9450 -1.5989
 2857SOL    HW220031   2.182   3.208  12.683  0.2182 -2.0956  1.8250
 2858SOL     OW20032   4.705   2.594   4.051 -0.3951  0.0911 -0.3560
 2858SOL    HW120033   0.027   2.571   4.132  2.7695  0.3872 -2.0117
 2858SOL    HW220034   4.617   2.559   4.060 -0.4443 -0.0573 -1.3670
 2859SOL     OW20035   2.044   2.344  11.498  0.6348 -0.0326  0.5241
 2859SOL    HW120036   1.986   2.272  11.522  1.0510  0.1370  2.0760
 2859SOL    HW220037   2.067   2.371  11.587  1.3080 -0.1911  0.3961
 2860SOL     OW20038   0.018   4.254   9.906 -0.1931  0.5506  0.0181
 2860SOL    HW120039   0.056   4.292   9.826  0.5885 -0.6114 -0.1698
 2860SOL    HW220040   4.662   4.212   9.875  0.5789  0.0067 -1.1951
 2861SOL     OW20041   4.259   4.574   4.240  0.1640 -0.1104 -0.4297
 2861SOL    HW120042   4.193   4.597   4.306 -1.2474 -1.3661 -1.4132
 2861SOL    HW220043   4.216   4.506   4.188  2.3519  0.3819 -2.8895
 2862SOL     OW20044   4.336   1.285   8.222  0.6940 -0.3857  0.3247
 2862SOL    HW120045   4.324   1.356   8.159 -2.6544 -1.3670 -0.1400
 2862SOL    HW220046   4.253   1.238   8.212  2.0985 -2.6049 -0.8029
 2863SOL     OW20047   3.058   0.853  17.143  0.0879  0.1747  0.5540
 2863SOL    HW120048   3.078   0.795  17.070  1.8158 -0.0719  1.2224
 2863SOL    HW220049   3.005   0.924  17.106 -0.3759 -0.1499  0.6022
 2864SOL     OW20050   2.342   1.187   8.534 -0.3908 -0.8164  0.5503
 2864SOL    HW120051   2.416   1.216   8.481  0.2025 -2.5178  0.4516
 2864SOL    HW220052   2.277   1.185   8.464 -1.2932  0.5495  1.3453
 2865SOL     OW20053   0.254   0.424   8.781 -0.2429  0.2128 -0.3809
 2865SOL    HW120054   0.283   0.333   8.781  0.5965  0.4723  2.6310
 2865SOL    HW220055   0.159   0.412   8.786 -0.5862  2.2721 -2.0521
 2866SOL     OW20056   0.858   3.689   2.591  0.3087  0.1562 -0.1416
 2866SOL    HW120057   0.800   3.685   2.515  0.6755 -2.5624 -0.2893
 2866SOL    HW220058   0.816   3.621   2.645  0.5488 -0.6483 -0.9669
 2867SOL     OW20059   1.527   2.731  13.253  0.1445 -0.2871 -0.0505
 2867SOL    HW120060   1.565   2.772  13.331 -1.1107  0.3826  0.2245
 2867SOL    HW220061   1.596   2.672  13.224 -0.4961 -0.9540 -0.2119
 2868SOL     OW20062   2.121   4.613  16.949 -0.2860 -0.7551  0.2695
 2868SOL    HW120063   2.216   4.603  16.947 -0.2026  0.5917 -2.5017
 2868SOL    HW220064   2.099   4.643  16.860  0.9777  2.0045  0.8833
 2869SOL     OW20065   0.314   1.737   8.577 -0.3102  0.2551  0.5795
 2869SOL    HW120066   0.305   1.832   8.568  1.4977  0.3508 -0.1361
 2869SOL    HW220067   0.357   1.709   8.496  2.4275  0.9883  1.7919
 2870SOL     OW20068   2.309   0.948   4.637  0.0815  0.3915 -0.0866
 2870SOL    HW120069   2.226   0.920   4.599 -0.7845 -0.1357  2.1834
 2870SOL    HW220070   2.283   1.038   4.654  0.6812  0.4308  0.6575
 2871SOL     OW20071   4.722   2.998  11.729 -0.1923 -0.3941  0.5004
 2871SOL    HW120072   0.069   3.058  11.753  2.1274 -3.0961  0.5358
 2871SOL    HW220073   4.701   2.940  11.802 -2.9164 -0.7164 -0.5216
 2872SOL     OW20074   3.616   1.082   9.358 -0.6091  1.0353  0.5222
 2872SOL    HW120075   3.542   1.103   9.415 -0.6795  1.6326  0.2016
 2872SOL    HW220076   3.678   1.101   9.428  0.5476 -0.4341 -0.0982
 2873SOL     OW20077   2.017   3.894   4.912  0.4919  0.1341  0.0973
 2873SOL    HW120078   1.978   3.812   4.881  3.6556 -1.2529 -0.1892
 2873SOL    HW220079   2.038   3.930   4.825  2.7810 -1.4900 -0.0242
 2874SOL     OW20080   1.962   0.043   6.371  0.2028  0.0610 -0.3043
 2874SOL    HW120081   1.928   0.124   6.409 -0.8677 -1.8830  2.9405
 2874SOL    HW220082   1.967   0.065   6.278 -0.4925  0.6616 -0.2051
 2875SOL     OW20083   2.536   1.235   4.598  0.1849 -0.2919  0.8035
 2875SOL    HW120084   2.550   1.280   4.514  0.0323  0.6730  1.2970
 2875SOL    HW220085   2.598   1.164   4.585 -1.4554 -1.6868  0.5137
 2876SOL     OW20086   1.273   3.547   7.343 -0.1004  0.5666  0.5898
 2876SOL    HW120087   1.356   3.579   7.379  0.4778  0.2080 -0.4195
 2876SOL    HW220088   1.283   3.560   7.248 -2.7159 -0.0992  0.2396
 2877SOL     OW20089   0.556   3.014   2.226  0.3689 -0.7539  0.2447
 2877SOL    HW120090   0.513   2.929   2.214  1.8331 -1.7402  1.9616
 2877SOL    HW220091   0.566   3.055   2.140 -1.8059 -2.6283 -0.9050
 2878SOL     OW20092   3.773   2.684   6.180  0.1420 -0.1986 -0.4074
 2878SOL    HW120093   3.753   2.777   6.178  2.0186  0.2047 -0.2867
 2878SOL    HW220094   3.847   2.683   6.120 -1.9242  1.2640 -2.9794
 2879SOL     OW20095   1.463   3.446   4.959  0.2185 -0.7127 -0.3071
 2879SOL    HW120096   1.430   3.464   5.047 -1.2471 -0.7951 -0.8380
 2879SOL    HW220097   1.453   3.351   4.970 -0.5230 -0.6682 -0.6416
 2880SOL     OW20098   4.376   3.954   3.664 -0.1320 -0.5666 -0.0770
 2880SOL    HW120099   4.291   3.986   3.693 -0.2221 -2.1962  1.4317
 2880SOL    HW220100   4.433   4.028   3.685  0.3467 -1.3212  1.2766
 2881SOL     OW20101   0.855   2.062   9.647 -0.2371  0.1683 -0.0555
 2881SOL    HW120102   0.933   2.068   9.703 -0.1604 -0.7193 -0.0608
 2881SOL    HW220103   0.887   2.082   9.559 -0.1667 -0.7922 -0.2467
 2882SOL     OW20104   4.704   4.637  10.760 -0.4044 -0.3715  0.2627
 2882SOL    HW120105   0.045   4.567  10.745  1.2895  1.5135 -1.1755
 2882SOL    HW220106   0.023   4.692  10.826  1.3703 -0.4172 -0.8241
 2883SOL     OW20107   0.829   1.369   5.788 -0.7929  0.1910  0.1148
 2883SOL    HW120108   0.879   1.370   5.706 -1.7568 -0.9344 -0.4874
 2883SOL    HW220109   0.818   1.275   5.798  1.4059 -0.0343  0.4859
 2884SOL     OW20110   3.914   1.032   4.759  0.2100  0.0462 -0.2088
 2884SOL    HW120111   4.007   1.009   4.762  0.8582  2.5331 -1.6502
 2884SOL    HW220112   3.895   1.047   4.667  0.6415  1.0102 -0.1431
 2885SOL     OW20113   1.294   3.555   7.083  0.3185  0.2017 -0.3035
 2885SOL    HW120114   1.252   3.504   7.014  1.1491 -1.9447  0.7736
 2885SOL    HW220115   1.381   3.565   7.044 -0.1700 -0.5897 -1.5767
 2886SOL     OW20116   2.305   3.110   9.807  0.5530 -0.1956 -0.6634
 2886SOL    HW120117   2.308   3.027   9.758  0.3643 -1.0754  0.8384
 2886SOL    HW220118   2.218   3.105   9.845  0.3055  0.6119 -1.1332
 2887SOL     OW20119   3.324   2.446   8.856 -0.0574 -0.1228 -0.2195
 2887SOL    HW120120   3.304   2.354   8.837 -1.3604 -0.2720  1.8728
 2887SOL    HW220121   3.329   2.479   8.766  1.0965 -0.4826 -0.2924
 2888SOL     OW20122   4.319   0.462   8.062  0.1404 -0.0762  0.1010
 2888SOL    HW120123   4.369   0.381   8.068 -0.2383 -0.4052 -1.0332
 2888SOL    HW220124   4.237   0.422   8.033 -0.1148 -0.5290  1.4557
 2889SOL     OW20125   0.870   0.666   3.190  0.2589  0.1530 -0.6631
 2889SOL    HW120126   0.886   0.731   3.258 -1.0948 -3.2301  2.8656
 2889SOL    HW220127   0.854   0.586   3.239 -1.0576 -0.3234 -1.8675
 2890SOL     OW20128   0.057   4.207  10.359  0.9491  0.3208 -0.1589
 2890SOL    HW120129   0.078   4.199  10.266  1.8569 -1.2253  0.1774
 2890SOL    HW220130   0.131   4.265  10.377  0.6773  0.9653 -1.1314
 2891SOL     OW20131   1.593   0.766   3.656  0.4764 -0.0960  0.4721
 2891SOL    HW120132   1.551   0.824   3.593  0.5699 -0.9759 -0.4051
 2891SOL    HW220133   1.679   0.751   3.618  0.4368 -2.5152  1.3126
 2892SOL     OW20134   3.535   4.382   5.745 -0.1837  0.0647 -0.7918
 2892SOL    HW120135   3.460   4.420   5.790  0.0606 -0.4357  0.0420
 2892SOL    HW220136   3.545   4.308   5.804  0.4569  1.1752  0.4757
 2893SOL     OW20137   1.252   0.615   6.842 -0.5580 -0.4604  0.3012
 2893SOL    HW120138   1.300   0.657   6.770 -2.9079 -1.0551 -1.6003
 2893SOL    HW220139   1.319   0.607   6.910  0.9858  1.1662 -1.0073
 2894SOL     OW20140   1.071   0.143   1.598  0.1646  0.1007  0.4601
 2894SOL    HW120141   1.150   0.102   1.563 -0.4641 -0.1679 -0.6415
 2894SOL    HW220142   1.014   0.066   1.600  1.3155 -0.8021 -0.9872
 2895SOL     OW20143   3.366   3.568  14.963 -0.1876  0.1566  0.1140
 2895SOL    HW120144   3.459   3.586  14.947 -0.2568 -0.1956 -0.6906
 2895SOL    HW220145   3.355   3.473  14.958  1.7611 -0.1342  1.3533
 2896SOL     OW20146   0.548   2.995  16.055 -0.1728  0.0088  0.6899
 2896SOL    HW120147   0.464   2.988  16.099 -1.0250  0.0160 -0.9161
 2896SOL    HW220148   0.523   3.044  15.976  1.7881  1.3799  0.9166
 2897SOL     OW20149   4.328   2.165   4.096  0.1942  0.5862  0.4249
 2897SOL    HW120150   4.410   2.195   4.136  0.4784 -1.0384  1.0915
 2897SOL    HW220151   4.278   2.245   4.082 -0.5661  0.0553  0.1200
 2898SOL     OW20152   3.286   2.120   4.445 -0.2803  0.7101  0.2486
 2898SOL    HW120153   3.303   2.150   4.355 -2.8900 -0.1690 -0.5554
 2898SOL    HW220154   3.348   2.048   4.453 -2.1768 -1.1515 -1.7488
 2899SOL     OW20155   3.715   2.219  17.060  0.2979  0.0539  0.3506
 2899SOL    HW120156   3.736   2.232  16.968 -0.3967 -0.3221  0.1432
 2899SOL    HW220157   3.643   2.280  17.077 -0.9161 -1.3031  0.0658
 2900SOL     OW20158   0.318   4.501   8.644  0.2110  0.2445 -0.0105
 2900SOL    HW120159   0.386   4.532   8.704  0.2292  0.4872 -0.1524
 2900SOL    HW220160   0.295   4.584   8.602  0.7068 -0.0108 -0.7963
 2901SOL     OW20161   0.036   0.949  10.047  0.4870 -0.1516  0.0696
 2901SOL    HW120162   4.665   0.949  10.061  0.5926 -1.5773  0.7776
 2901SOL    HW220163   0.042   0.935   9.952  4.2772 -0.4821  0.3678
 2902SOL     OW20164   3.882   0.091  17.147 -0.1055  0.1523  0.1866
 2902SOL    HW120165   3.951   0.067  17.208 -0.1577  0.3663  0.3298
 2902SOL    HW220166   3.898   0.181  17.119  2.1052  0.0817  1.2173
 2903SOL     OW20167   0.688   1.049   7.812 -0.7526 -0.0717 -0.9844
 2903SOL    HW120168   0.647   1.134   7.794  0.3067  0.3527 -1.3893
 2903SOL    HW220169   0.673   1.038   7.905  0.3421  1.2252 -0.6498
 2904SOL     OW20170   4.665   4.538   3.740 -0.2595  0.0336 -0.2127
 2904SOL    HW120171   4.714   4.510   3.817 -1.0233 -2.5474 -0.6747
 2904SOL    HW220172   4.665   4.459   3.686 -1.8584  0.1681 -0.4210
 2905SOL     OW20173   4.442   3.133  12.321 -0.5749 -0.1052  0.3984
 2905SOL    HW120174   4.350   3.113  12.308 -0.1840 -2.5322  1.3997
 2905SOL    HW220175   4.441   3.159  12.413  0.0664  0.8460  0.1427
 2906SOL     OW20176   2.319   1.263  16.861 -0.4991 -0.6065  0.2193
 2906SOL    HW120177   2.289   1.292  16.948  1.0225  0.1844  0.4596
 2906SOL    HW220178   2.412   1.256  16.882 -0.4089 -0.5513 -0.1705
 2907SOL     OW20179   1.653   3.825   2.753 -0.7488  0.1919  0.1626
 2907SOL    HW120180   1.663   3.899   2.813 -2.1940 -0.6821  1.4524
 2907SOL    HW220181   1.614   3.872   2.679 -0.1260 -0.0943 -0.3488
 2908SOL     OW20182   2.996   0.370   1.924 -0.0545 -0.5396 -0.1089
 2908SOL    HW120183   2.976   0.457   1.958 -3.6525 -1.1937 -0.5283
 2908SOL    HW220184   2.949   0.364   1.841  1.7120  1.5064 -1.2543
 2909SOL     OW20185   4.438   1.922  13.020  0.5728  0.1471  0.0486
 2909SOL    HW120186   4.499   1.870  13.073 -0.4158 -0.7524  0.2974
 2909SOL    HW220187   4.510   1.973  12.982  1.5143  0.1367  1.8276
 2910SOL     OW20188   3.736   0.127   8.068  0.0752  0.5656 -0.0118
 2910SOL    HW120189   3.797   0.109   7.997  1.0159 -0.7852  1.1293
 2910SOL    HW220190   3.694   0.205   8.032  0.3995  0.0047 -1.6072
 2911SOL     OW20191   3.988   3.773   6.454 -0.5379 -0.1115 -0.5622
 2911SOL    HW120192   3.950   3.693   6.490 -1.2534 -1.0592 -3.4362
 2911SOL    HW220193   4.034   3.733   6.380  0.7975 -1.4431  0.9891
 2912SOL     OW20194   4.099   1.847  14.536 -0.5944  0.0959 -0.2040
 2912SOL    HW120195   4.072   1.903  14.609  0.6088  0.1754  0.1861
 2912SOL    HW220196   4.067   1.763  14.569  0.5360 -0.2934 -0.0972
 2913SOL     OW20197   3.051   2.614   5.139  0.0010 -0.7128 -1.0626
 2913SOL    HW120198   3.111   2.590   5.210  0.3896  1.1066 -0.7823
 2913SOL    HW220199   3.114   2.612   5.067  1.0845 -0.7335 -0.1155
 2914SOL     OW20200   1.889   2.605   4.752 -0.4643 -0.0918 -0.5912
 2914SOL    HW120201   1.956   2.637   4.812 -1.7459 -0.6243  1.1546
 2914SOL    HW220202   1.832   2.682   4.745 -0.2219  0.0494 -1.0026
 2915SOL     OW20203   1.095   4.460  17.613 -0.7247 -0.4765  0.0824
 2915SOL    HW120204   1.156   4.448  17.685  1.3830 -2.7005 -2.0647
 2915SOL    HW220205   1.053   4.543  17.635  1.2700  0.1579  1.4270
 2916SOL     OW20206   3.247   3.923   7.377  0.0618 -0.0551  0.4171
 2916SOL    HW120207   3.247   4.003   7.324 -2.8727  0.2779  0.9384
 2916SOL    HW220208   3.320   3.948   7.434  0.5293  2.8669 -1.4296
 2917SOL     OW20209   4.289   0.567   8.964  0.0027 -0.3864 -0.4589
 2917SOL    HW120210   4.315   0.525   8.882 -0.5291  3.1075 -2.4319
 2917SOL    HW220211   4.221   0.505   8.988 -2.2075  2.3454  0.3189
 2918SOL     OW20212   0.932   2.704   7.480  0.0513 -0.0453  0.0028
 2918SOL    HW120213   1.009   2.760   7.471 -1.1340  1.4532 -0.8795
 2918SOL    HW220214   0.893   2.748   7.556  1.5966 -1.2214  1.4712
 2919SOL     OW20215   4.201   1.989   1.093  0.5355  0.5965  0.2131
 2919SOL    HW120216   4.244   2.074   1.104  2.4006 -0.3071 -0.1293
 2919SOL    HW220217   4.236   1.962   1.008 -0.7097 -0.9109  0.1712
 2920SOL     OW20218   4.572   3.915   1.893  0.0554 -0.3518 -0.0461
 2920SOL    HW120219   4.568   3.995   1.841  0.9037  0.3661  0.9972
 2920SOL    HW220220   4.492   3.872   1.862  0.0930  0.0368 -0.6890
 2921SOL     OW20221   2.921   1.411   8.040  0.3034 -0.2598  0.3019
 2921SOL    HW120222   3.002   1.407   8.092  1.9193  0.0185 -2.1870
 2921SOL    HW220223   2.912   1.316   8.034  2.8510 -0.5772  1.4722
 2922SOL     OW20224   0.982   4.325  14.075  0.1510 -0.5586  0.2575
 2922SOL    HW120225   1.000   4.301  13.984 -1.9795  0.6865 -0.4883
 2922SOL    HW220226   1.064   4.369  14.096  1.4791 -2.1407 -1.5631
 2923SOL     OW20227   1.806   2.745   6.658  0.0625  0.1385  0.0641
 2923SOL    HW120228   1.739   2.778   6.599 -0.0781 -0.5560 -0.1619
 2923SOL    HW220229   1.764   2.754   6.743 -0.7673  1.6309 -0.5057
 2924SOL     OW20230   1.432   1.739   8.226 -0.5538 -0.8441 -0.3017
 2924SOL    HW120231   1.453   1.696   8.309  0.0808 -0.0949 -0.0819
 2924SOL    HW220232   1.473   1.824   8.242  0.1418 -0.2898 -5.1561
 2925SOL     OW20233   0.129   0.162   9.536 -0.1590  0.3960 -0.3570
 2925SOL    HW120234   0.190   0.137   9.605 -1.8935 -0.3356  0.9236
 2925SOL    HW220235   0.166   0.248   9.516 -0.3107  0.4922 -0.2255
 2926SOL     OW20236   2.558   2.427   5.129 -0.0122 -0.5403 -0.0758
 2926SOL    HW120237   2.632   2.464   5.176  2.3383 -3.7801 -1.1739
 2926SOL    HW220238   2.523   2.361   5.189 -0.1373 -0.9305 -0.5756
 2927SOL     OW20239   2.935   1.311   6.546  0.2671  0.6083 -0.0759
 2927SOL    HW120240   3.003   1.276   6.487  2.0236 -0.7594  2.7807
 2927SOL    HW220241   2.917   1.236   6.602  0.3285  0.8096  0.2079
 2928SOL     OW20242   3.563   4.083   4.765 -0.1847 -0.0822  0.1915
 2928SOL    HW120243   3.550   4.147   4.695 -3.0981 -0.0936  0.7241
 2928SOL    HW220244   3.632   4.131   4.811  1.6142 -1.1002 -1.4426
 2929SOL     OW20245   2.520   0.368   3.734  0.2155 -0.3186  0.9650
 2929SOL    HW120246   2.614   0.376   3.717  0.4527 -0.5369  2.1912
 2929SOL    HW220247   2.491   0.436   3.674  1.3844 -1.2917 -0.6945
 2930SOL     OW20248   0.846   1.526   2.679  0.1355  0.5646 -0.2751
 2930SOL    HW120249   0.786   1.569   2.618 -1.6722 -0.5206  0.7146
 2930SOL    HW220250   0.918   1.533   2.617  0.9767  1.3589  0.8006
 2931SOL     OW20251   0.306   3.225   8.542 -0.2851 -0.0215 -0.0594
 2931SOL    HW120252   0.337   3.200   8.630  1.2966  3.2574  0.3079
 2931SOL    HW220253   0.370   3.290   8.513  0.6738 -0.5427  0.8418
 2932SOL     OW20254   0.893   4.600   0.331 -0.9756 -0.2600  0.4261
 2932SOL    HW120255   0.814   4.549   0.319 -1.0433  0.0169 -0.2942
 2932SOL    HW220256   0.958   4.536   0.359  0.5934  0.3058 -1.9026
 2933SOL     OW20257   4.015   0.438   4.323 -0.2244 -0.5037 -0.2662
 2933SOL    HW120258   4.088   0.440   4.260  1.4844 -0.7724  1.7163
 2933SOL    HW220259   3.973   0.521   4.299 -1.1410 -0.5140  1.3599
 2934SOL     OW20260   4.717   4.668   9.419  0.4944  0.2316 -0.2816
 2934SOL    HW120261   4.659   0.017   9.397  0.7469  0.4038 -0.3825
 2934SOL    HW220262   0.070   4.722   9.440  0.1363  0.3032  0.8630
 2935SOL     OW20263   1.223   2.066   8.168  0.4866 -0.0623 -0.1731
 2935SOL    HW120264   1.176   1.985   8.189  1.1810 -0.6284 -0.7635
 2935SOL    HW220265   1.189   2.129   8.231  0.8274 -2.6061  2.5491
 2936SOL     OW20266   4.418   1.183   7.770 -0.3688 -0.8225 -0.0066
 2936SOL    HW120267   4.388   1.113   7.712 -1.0766  1.3607 -2.2555
 2936SOL    HW220268   4.339   1.237   7.783 -0.4366 -0.4407 -2.0773
 2937SOL     OW20269   2.320   1.401   8.724 -0.5579  0.1445 -0.8515
 2937SOL    HW120270   2.415   1.393   8.736 -0.5092  1.5742 -0.2574
 2937SOL    HW220271   2.309   1.330   8.660  0.6464 -2.2821  1.5856
 2938SOL     OW20272   0.392   0.214   3.367  0.2710 -0.3740  0.0713
 2938SOL    HW120273   0.326   0.193   3.301 -0.6947  0.4591  0.7679
 2938SOL    HW220274   0.358   0.299   3.396  0.5277 -0.1307 -0.3333
 2939SOL     OW20275   1.433   1.655  12.735  0.1944  0.2760  0.3458
 2939SOL    HW120276   1.498   1.650  12.665 -0.5552 -0.5414 -0.2932
 2939SOL    HW220277   1.463   1.731  12.786  1.6586  0.8574 -1.3748
 2940SOL     OW20278   4.194   2.749   0.208  0.1470 -0.1160 -0.2832
 2940SOL    HW120279   4.149   2.785   0.284 -0.3261  0.8462 -1.0183
 2940SOL    HW220280   4.247   2.825   0.183 -0.1098  0.6068  1.3796
 2941SOL     OW20281   0.290   4.180   9.689 -0.1406 -0.2451 -0.0630
 2941SOL    HW120282   0.278   4.168   9.595  1.6939  1.1275 -0.4782
 2941SOL    HW220283   0.340   4.261   9.695  0.2379 -0.5318  0.6585
 2942SOL     OW20284   2.830   2.813  10.995  0.4307 -0.2768 -0.0556
 2942SOL    HW120285   2.921   2.809  10.967  0.2640 -3.0288 -0.2129
 2942SOL    HW220286   2.831   2.890  11.052 -0.2528  0.0703 -0.5136
 2943SOL     OW20287   3.324   3.355   3.064 -0.0519  0.5400  0.2883
 2943SOL    HW120288   3.271   3.436   3.065  0.2389  0.7227  0.8503
 2943SOL    HW220289   3.287   3.307   3.138 -0.8689 -0.4534 -0.7682
 2944SOL     OW20290   2.568   0.905   5.354  0.0199  0.1325  0.2372
 2944SOL    HW120291   2.527   0.975   5.304 -2.4037 -1.7801 -0.4573
 2944SOL    HW220292   2.603   0.960   5.425  2.0190 -1.5854  0.6032
 2945SOL     OW20293   1.100   4.545  15.739 -0.1902  1.0640  0.5544
 2945SOL    HW120294   1.029   4.549  15.676  0.5780 -1.2578 -0.4518
 2945SOL    HW220295   1.094   4.633  15.777  1.0301  1.6731 -0.6391
 2946SOL     OW20296   3.141   2.857  14.341 -0.1919  0.0267 -0.2309
 2946SOL    HW120297   3.084   2.819  14.408 -0.7479  0.6265 -0.3749
 2946SOL    HW220298   3.228   2.843  14.379 -0.2656 -1.5246 -0.6229
 2947SOL     OW20299   1.702   3.307   8.426 -0.1272 -0.1412  0.3470
 2947SOL    HW120300   1.639   3.240   8.399  1.7031 -0.8898 -2.1088
 2947SOL    HW220301   1.644   3.373   8.464 -0.1311 -0.4446  0.8690
 2948SOL     OW20302   0.805   4.455   9.512  0.2443 -0.3652  0.3125
 2948SOL    HW120303   0.740   4.386   9.524 -0.4435  0.7272  2.7487
 2948SOL    HW220304   0.743   4.511   9.465  0.5882 -0.9924 -0.8824
 2949SOL     OW20305   1.110   1.756   8.599 -0.0641  0.3196 -0.4072
 2949SOL    HW120306   1.024   1.722   8.573 -0.4799  0.4855  0.7705
 2949SOL    HW220307   1.103   1.836   8.548 -0.5662  0.3286 -0.3210
 2950SOL     OW20308   3.691   3.504   2.805  0.3217  0.0739  0.5821
 2950SOL    HW120309   3.655   3.432   2.857 -1.1112 -0.1095 -0.6692
 2950SOL    HW220310   3.633   3.576   2.828  0.4379  0.6406 -0.8711
 2951SOL     OW20311   2.764   1.398   4.108 -0.7862  0.4308 -0.4926
 2951SOL    HW120312   2.681   1.353   4.099 -1.5985  1.6195  1.0954
 2951SOL    HW220313   2.817   1.330   4.066  1.8963  1.3172  1.4481
 2952SOL     OW20314   3.252   2.171  14.342 -1.0459 -0.5689 -0.3888
 2952SOL    HW120315   3.341   2.138  14.351 -0.6204  1.6230  3.4616
 2952SOL    HW220316   3.277   2.263  14.329 -0.6084 -0.4627  1.2457
 2953SOL     OW20317   1.968   1.387   3.807  0.4139  0.2618  0.4995
 2953SOL    HW120318   2.015   1.468   3.792 -0.9817  0.9493 -0.1826
 2953SOL    HW220319   1.896   1.391   3.744  1.5653 -1.7838 -0.9370
 2954SOL     OW20320   0.573   3.845   8.611  0.2244 -0.0196  0.1324
 2954SOL    HW120321   0.491   3.890   8.593 -0.5432 -1.1361  0.8577
 2954SOL    HW220322   0.604   3.837   8.521 -0.8391 -0.4780 -0.1813
 2955SOL     OW20323   3.052   4.682  14.539  0.1138 -0.0003 -1.2107
 2955SOL    HW120324   3.024   4.596  14.568  0.2169 -0.0175 -1.1609
 2955SOL    HW220325   3.006   0.015  14.602  1.9815 -0.2706  0.4282
 2956SOL     OW20326   3.209   2.358  15.679  0.0231 -0.1419 -0.4311
 2956SOL    HW120327   3.285   2.346  15.622  0.9147 -1.6638  1.0985
 2956SOL    HW220328   3.148   2.335  15.609 -0.8503 -0.9304  0.5932
 2957SOL     OW20329   2.516   1.589   3.646 -0.6246  0.3324 -0.3076
 2957SOL    HW120330   2.424   1.579   3.670 -1.3115  3.5166 -1.5908
 2957SOL    HW220331   2.539   1.510   3.596  1.8588  1.4178 -0.8807
 2958SOL     OW20332   1.685   4.418   8.869 -0.1129 -0.1178  0.0873
 2958SOL    HW120333   1.706   4.361   8.795 -1.0493  0.8222 -0.9146
 2958SOL    HW220334   1.615   4.461   8.819 -1.0072 -1.7372 -0.0472
 2959SOL     OW20335   0.023   0.431   6.638  0.2706  0.4978  0.5785
 2959SOL    HW120336   0.074   0.361   6.679 -1.2565  0.0115  1.6449
 2959SOL    HW220337   4.662   0.398   6.668 -1.2561  3.9699  0.1853
 2960SOL     OW20338   4.294   3.951  10.029  0.0310  0.2275  0.1365
 2960SOL    HW120339   4.278   3.906   9.947 -1.1627 -2.6585  1.9655
 2960SOL    HW220340   4.386   3.977  10.017 -0.0275  0.2862 -0.1874
 2961SOL     OW20341   3.296   0.706   6.343  0.3032  0.0577 -0.4735
 2961SOL    HW120342   3.205   0.723   6.366  0.3092 -0.9528  0.2790
 2961SOL    HW220343   3.326   0.648   6.413 -2.3897 -0.6529  0.1059
 2962SOL     OW20344   1.201   3.388   5.172  0.1729  0.6013  0.3761
 2962SOL    HW120345   1.136   3.381   5.241  0.6343 -0.4107  0.7074
 2962SOL    HW220346   1.256   3.461   5.202 -1.3150  2.0603 -0.4421
 2963SOL     OW20347   1.971   3.694   0.984 -0.4684 -0.0731  0.1897
 2963SOL    HW120348   2.038   3.626   0.982 -0.2002  0.2091 -0.4328
 2963SOL    HW220349   1.905   3.675   0.917  0.6496  0.8549 -1.1698
 2964SOL     OW20350   3.411   0.300  13.878  0.3992 -0.1828 -0.1701
 2964SOL    HW120351   3.361   0.244  13.938  1.0138 -2.7807 -2.0913
 2964SOL    HW220352   3.370   0.386  13.887 -1.8023 -1.0878 -1.5236
 2965SOL     OW20353   0.955   0.128  16.710  0.0611 -0.1128 -0.0269
 2965SOL    HW120354   0.950   0.065  16.638 -2.6643  2.1335 -1.7763
 2965SOL    HW220355   0.973   0.210  16.664  1.2950 -1.3571 -1.7574
 2966SOL     OW20356   1.365   3.698   8.521 -0.6700  0.7771 -0.3746
 2966SOL    HW120357   1.356   3.775   8.464 -1.1233  1.7488  1.0069
 2966SOL    HW220358   1.354   3.731   8.611  1.8682  0.7145 -0.0405
 2967SOL     OW20359   4.588   1.632  10.462  0.5953  0.2232 -0.1326
 2967SOL    HW120360   4.637   1.668  10.388  1.5256  0.7045  0.7166
 2967SOL    HW220361   4.659   1.607  10.521  2.7376  0.7978 -2.4733
 2968SOL     OW20362   0.346   1.924   4.852  0.1534  0.1612 -0.4690
 2968SOL    HW120363   0.374   1.905   4.941 -0.0855 -0.8094 -0.6040
 2968SOL    HW220364   0.383   1.838   4.829 -1.0823 -0.3228 -0.6385
 2969SOL     OW20365   0.463   0.518   0.017 -0.7614 -0.0944  0.3491
 2969SOL    HW120366   0.379   0.474   0.003  0.4007 -1.4974 -2.2237
 2969SOL    HW220367   0.517   0.495  17.635 -0.6919 -2.3505  1.0776
 2970SOL     OW20368   1.760   2.528   0.952  0.1838 -0.0340  0.4031
 2970SOL    HW120369   1.668   2.554   0.959  0.0482 -0.9375  2.0104
 2970SOL    HW220370   1.766   2.446   0.904  0.6106  0.9547 -1.2346
 2971SOL     OW20371   1.141   3.642   5.468 -0.4407 -0.5962  0.1951
 2971SOL    HW120372   1.101   3.559   5.441 -0.5976  0.2556 -2.1871
 2971SOL    HW220373   1.235   3.622   5.468 -0.1697  0.7187 -0.5096
 2972SOL     OW20374   1.600   2.253   7.090  0.5676 -0.1940 -0.4973
 2972SOL    HW120375   1.633   2.190   7.154  1.2446 -2.4499 -3.0256
 2972SOL    HW220376   1.674   2.297   7.050  0.5780 -0.3851 -0.6920
 2973SOL     OW20377   0.016   3.603   3.448 -0.4533  0.6064  0.0273
 2973SOL    HW120378   4.686   3.657   3.390 -2.7221 -0.5702  1.0034
 2973SOL    HW220379   0.088   3.582   3.387 -0.4438 -0.0013  0.2418
 2974SOL     OW20380   1.644   0.908   7.764  0.2837  0.0194  0.2822
 2974SOL    HW120381   1.550   0.915   7.779  0.4526  1.5543  0.6165
 2974SOL    HW220382   1.681   0.968   7.828  1.8748 -0.9895  0.3145
 2975SOL     OW20383   1.890   3.826   5.803 -0.4289  0.7412  0.0383
 2975SOL    HW120384   1.822   3.844   5.738 -0.1048 -1.5414 -0.9476
 2975SOL    HW220385   1.911   3.916   5.827  1.6216  0.8068 -2.0436
 2976SOL     OW20386   3.020   1.912   2.602 -0.2743 -0.4158  0.0382
 2976SOL    HW120387   3.070   1.891   2.523 -1.3823  1.5193 -1.1781
 2976SOL    HW220388   3.041   2.005   2.613 -1.9452  0.0698 -1.0159
 2977SOL     OW20389   2.774   1.941   8.894 -0.0998 -0.1101  0.1882
 2977SOL    HW120390   2.816   1.914   8.813 -0.7797  1.6730 -0.7468
 2977SOL    HW220391   2.706   1.873   8.889  0.7758 -1.2231  3.2244
 2978SOL     OW20392   2.941   3.176  10.006 -0.3136 -0.3636  0.5844
 2978SOL    HW120393   2.976   3.166  10.095  0.3979  1.1471  0.4691
 2978SOL    HW220394   2.864   3.120  10.010  0.7536 -1.9182 -0.8377
 2979SOL     OW20395   0.846   2.124  16.979 -0.8381  0.5429  0.2984
 2979SOL    HW120396   0.817   2.068  17.050  1.3855 -1.8590 -0.6814
 2979SOL    HW220397   0.822   2.058  16.914  1.3074 -2.4581  2.5613
 2980SOL     OW20398   4.198   3.757   7.743 -0.0474 -0.1046 -0.3160
 2980SOL    HW120399   4.270   3.724   7.690  1.5647  0.2123  1.7110
 2980SOL    HW220400   4.216   3.850   7.731 -1.5606  0.3356  0.8145
 2981SOL     OW20401   2.535   4.347   4.078  0.2532 -0.6830  0.2184
 2981SOL    HW120402   2.514   4.436   4.105  1.5656 -0.6484  1.1393
 2981SOL    HW220403   2.447   4.309   4.081 -0.0328 -0.0132  0.2330
 2982SOL     OW20404   4.607   2.365  15.241 -0.3412  0.3817 -0.1665
 2982SOL    HW120405   4.516   2.347  15.262  0.2063 -2.6764 -0.3013
 2982SOL    HW220406   4.630   2.284  15.196 -0.8470  0.0426  0.1826
 2983SOL     OW20407   2.703   4.196   4.232 -0.1392  0.2262 -0.5080
 2983SOL    HW120408   2.704   4.106   4.201 -0.4531  0.7629 -2.0673
 2983SOL    HW220409   2.669   4.247   4.159  2.6445  0.7966 -1.4001
 2984SOL     OW20410   3.152   3.156   5.807  0.0323 -0.1027  0.3410
 2984SOL    HW120411   3.059   3.181   5.807  0.3841  1.1933 -1.0625
 2984SOL    HW220412   3.165   3.107   5.888  1.2000 -0.1311  0.1314
 2985SOL     OW20413   3.591   0.950  15.188  0.1296 -0.9211  0.0005
 2985SOL    HW120414   3.597   1.026  15.130  0.1049  0.5261  1.8942
 2985SOL    HW220415   3.548   0.890  15.127  0.4434 -0.1875 -0.9326
 2986SOL     OW20416   2.642   0.173  15.298  0.9160 -0.2232 -0.4484
 2986SOL    HW120417   2.576   0.202  15.235  2.2532  0.5456 -1.4611
 2986SOL    HW220418   2.644   0.079  15.279 -0.8166 -0.2501 -0.5395
 2987SOL     OW20419   3.146   0.454   8.564  0.5806  0.6796 -0.3596
 2987SOL    HW120420   3.155   0.395   8.639  0.8739 -0.2914 -1.1593
 2987SOL    HW220421   3.168   0.387   8.498  0.8542  1.1005 -0.6958
 2988SOL     OW20422   2.829   2.036  12.033 -0.6533 -0.2709 -0.1605
 2988SOL    HW120423   2.903   1.988  11.995 -0.3246 -0.4469  0.7062
 2988SOL    HW220424   2.806   1.964  12.092 -0.7390  1.5256  1.9839
 2989SOL     OW20425   2.904   0.219  13.164  0.3892 -0.1333 -0.5970
 2989SOL    HW120426   2.814   0.216  13.131  0.8835  0.8220 -2.0029
 2989SOL    HW220427   2.939   0.274  13.094  0.4076 -0.6353 -0.9851
 2990SOL     OW20428   3.829   0.826   6.353 -0.5448 -0.3119 -0.0446
 2990SOL    HW120429   3.918   0.791   6.346 -0.7086 -0.2681 -2.5675
 2990SOL    HW220430   3.793   0.795   6.269 -1.2975 -1.4487  0.6978
 2991SOL     OW20431   1.948   4.515   4.418  0.6988 -0.1693 -0.4291
 2991SOL    HW120432   1.885   4.583   4.393  1.0098  0.8505  1.5966
 2991SOL    HW220433   1.924   4.430   4.381  0.7476 -0.6877  0.7378
 2992SOL     OW20434   4.355   2.150   2.663 -0.4050 -0.0396 -0.0546
 2992SOL    HW120435   4.443   2.126   2.693 -0.2239  0.0295 -0.5233
 2992SOL    HW220436   4.295   2.105   2.722 -0.1437  0.4884  0.6192
 2993SOL     OW20437   4.586   3.683   4.971  0.5195  0.0066 -0.1854
 2993SOL    HW120438   4.599   3.695   4.877 -1.9279  0.9945 -0.4094
 2993SOL    HW220439   4.565   3.770   5.006 -2.3058 -1.2672  1.2384
 2994SOL     OW20440   1.363   2.252   5.956  0.2620 -0.0812  0.7736
 2994SOL    HW120441   1.348   2.272   6.048 -3.2115 -0.4623  0.2826
 2994SOL    HW220442   1.456   2.228   5.960 -0.2001 -1.8242  1.3143
 2995SOL     OW20443   2.615   4.257  16.284 -0.2076 -0.5002 -0.2886
 2995SOL    HW120444   2.529   4.288  16.257 -0.8262 -0.2166  2.0225
 2995SOL    HW220445   2.581   4.189  16.342  0.3596  0.1155  0.7631
 2996SOL     OW20446   3.954   0.267   7.620 -0.2644 -0.0820 -0.0740
 2996SOL    HW120447   4.037   0.219   7.632 -0.4094 -0.2690  0.1931
 2996SOL    HW220448   3.891   0.196   7.632  0.7745 -0.7927  1.2343
 2997SOL     OW20449   4.419   4.110  11.533 -0.3280  0.3187 -0.0561
 2997SOL    HW120450   4.368   4.063  11.599  0.9799  0.1304  0.8190
 2997SOL    HW220451   4.457   4.039  11.482 -0.1861 -0.2350  0.8409
 2998SOL     OW20452   0.828   1.282   5.148  0.6638  0.2866  0.4886
 2998SOL    HW120453   0.868   1.260   5.231  1.9585 -1.2189 -0.5383
 2998SOL    HW220454   0.887   1.237   5.087  0.7452  0.2074  0.6284
 2999SOL     OW20455   4.181   1.349   2.823  0.1665 -0.0289  0.0979
 2999SOL    HW120456   4.233   1.273   2.797  0.1536 -0.4877  1.4128
 2999SOL    HW220457   4.213   1.403   2.751  3.1224 -1.2682  0.4910
 3000SOL     OW20458   1.169   1.274   0.597  0.7123 -0.0088 -0.0991
 3000SOL    HW120459   1.235   1.207   0.581  0.2083 -0.4017 -0.5078
 3000SOL    HW220460   1.208   1.339   0.540  0.2618 -0.3345 -0.7734
 3001SOL     OW20461   0.628   4.292   6.880 -0.2593  0.1407 -0.4401
 3001SOL    HW120462   0.692   4.241   6.930 -0.3213  1.0478  0.5726
 3001SOL    HW220463   0.605   4.223   6.818  0.3800  1.7650 -2.4717
 3002SOL     OW20464   4.446   3.043   3.755 -0.0926 -0.0724 -0.1331
 3002SOL    HW120465   4.429   3.114   3.693 -1.1662 -0.8975 -0.7737
 3002SOL    HW220466   4.362   3.045   3.801 -0.2063 -1.6908 -0.2798
 3003SOL     OW20467   2.495   3.202   4.495 -0.1251  0.4078 -1.1952
 3003SOL    HW120468   2.523   3.289   4.465  0.1404  1.9123  3.2648
 3003SOL    HW220469   2.542   3.141   4.439 -0.9410 -1.4358  0.1482
 3004SOL     OW20470   3.103   2.873   9.176 -0.7775 -0.5059  0.1072
 3004SOL    HW120471   3.076   2.829   9.257  1.8933 -1.5864  0.4107
 3004SOL    HW220472   3.029   2.838   9.127  0.4409 -3.4462  0.3563
 3005SOL     OW20473   1.819   2.785   3.555 -0.1445  0.4148 -0.1922
 3005SOL    HW120474   1.785   2.853   3.613  0.4415  0.5839 -0.0455
 3005SOL    HW220475   1.899   2.753   3.597 -0.7259  0.2198  0.7572
 3006SOL     OW20476   3.971   2.642   6.002  0.0881 -0.3246 -0.6628
 3006SOL    HW120477   3.989   2.721   5.952  1.3910  0.1300  0.5236
 3006SOL    HW220478   4.042   2.636   6.065  0.0170 -0.3434 -0.5836
 3007SOL     OW20479   2.002   0.083   5.748  0.2629  0.5587 -0.2261
 3007SOL    HW120480   2.014   0.087   5.653  1.4913  0.6682 -0.0778
 3007SOL    HW220481   2.055   0.159   5.773  2.2179 -0.9622  0.3075
 3008SOL     OW20482   3.691   0.264  12.743 -0.1398 -0.1913  0.0200
 3008SOL    HW120483   3.691   0.348  12.697 -1.8628  0.7389  1.7272
 3008SOL    HW220484   3.636   0.208  12.688  0.1068  0.3288 -0.7484
 3009SOL     OW20485   2.992   1.696   1.342 -0.0377 -0.4408  0.8645
 3009SOL    HW120486   3.051   1.708   1.268  1.1292  3.6673  2.4547
 3009SOL    HW220487   3.005   1.601   1.344 -1.5579 -0.6764  0.1246
 3010SOL     OW20488   3.548   0.548   2.676  0.2073 -0.1153 -0.0982
 3010SOL    HW120489   3.542   0.602   2.755 -1.5649  0.8121 -0.8691
 3010SOL    HW220490   3.488   0.600   2.623  0.7432 -0.1603 -0.7538
 3011SOL     OW20491   3.026   2.886   2.535  0.0382 -0.1745 -0.3880
 3011SOL    HW120492   3.115   2.873   2.501  0.8790  1.5444  1.1788
 3011SOL    HW220493   3.042   2.857   2.625 -3.9225 -1.2209  0.0092
 3012SOL     OW20494   3.312   0.204  16.132 -0.1386  0.9283  0.0976
 3012SOL    HW120495   3.373   0.152  16.078 -0.0194 -0.4512  1.5699
 3012SOL    HW220496   3.239   0.147  16.155  0.3248 -0.4624 -1.8183
 3013SOL     OW20497   3.947   4.245   3.614  0.3104 -0.5802 -0.1869
 3013SOL    HW120498   3.983   4.334   3.617 -1.2647  0.0518  0.0242
 3013SOL    HW220499   3.884   4.252   3.686  0.2915  1.9792 -0.4428
 3014SOL     OW20500   3.021   3.014   6.242 -0.4214  0.0200  0.4912
 3014SOL    HW120501   3.011   2.928   6.282 -2.0163  1.0006  2.2438
 3014SOL    HW220502   2.987   3.063   6.317  1.4234  0.0556  1.2806
 3015SOL     OW20503   0.705   1.052   4.635  0.4145  0.6273 -0.4957
 3015SOL    HW120504   0.640   0.987   4.606  0.2340  0.4155  0.3962
 3015SOL    HW220505   0.794   1.021   4.620 -0.3298 -2.4034  1.3908
 3016SOL     OW20506   3.067   2.892   6.723 -0.6340  0.1441  0.0696
 3016SOL    HW120507   3.072   2.986   6.743  0.3387  0.4999 -1.8182
 3016SOL    HW220508   3.043   2.861   6.810  3.5606 -2.1594  0.4168
 3017SOL     OW20509   2.337   2.821   8.785 -0.4354  0.0239 -0.2970
 3017SOL    HW120510   2.330   2.897   8.843  1.0467  0.5478 -0.7739
 3017SOL    HW220511   2.284   2.756   8.830  1.6095 -0.6324  1.1892
 3018SOL     OW20512   1.730   1.547   2.841  0.1408 -0.0486  0.2680
 3018SOL    HW120513   1.825   1.537   2.831  0.3625  1.9440  0.4400
 3018SOL    HW220514   1.707   1.610   2.774  1.7706  2.1115  1.7281
 3019SOL     OW20515   0.543   1.472  15.173 -0.0481 -0.4433 -0.1225
 3019SOL    HW120516   0.619   1.515  15.134 -1.6627  3.6060  1.1865
 3019SOL    HW220517   0.478   1.479  15.103 -1.4071  3.5302  1.5620
 3020SOL     OW20518   4.686   0.911   6.742  0.6260 -0.7400 -0.3879
 3020SOL    HW120519   4.650   0.822   6.742 -0.4372 -0.3081  0.2360
 3020SOL    HW220520   0.050   0.893   6.705  1.3700 -1.0762  1.5079
 3021SOL     OW20521   1.768   4.352   6.055  0.4155 -0.1772 -0.0658
 3021SOL    HW120522   1.741   4.272   6.101 -0.1203 -0.4844 -0.9065
 3021SOL    HW220523   1.758   4.425   6.115 -0.0845 -0.9348  0.7747
 3022SOL     OW20524   2.061   2.987   6.556 -0.3494 -0.6934  0.0647
 3022SOL    HW120525   1.967   2.994   6.542 -0.4005  3.9743  3.0743
 3022SOL    HW220526   2.071   3.063   6.613  0.1065 -1.7326  1.3677
 3023SOL     OW20527   3.219   0.651  16.037  0.4551  0.2752 -0.4713
 3023SOL    HW120528   3.260   0.725  16.083 -1.6988  0.6396  0.9177
 3023SOL    HW220529   3.291   0.597  16.005 -0.0671 -1.1674  0.7478
 3024SOL     OW20530   0.404   1.826   4.184 -0.2142  0.2873 -0.0525
 3024SOL    HW120531   0.394   1.906   4.236  0.4988  0.8088 -0.7175
 3024SOL    HW220532   0.412   1.858   4.094  0.8164  3.0520  1.0014
 3025SOL     OW20533   0.015   0.691  16.152 -0.0563  0.0427 -0.4156
 3025SOL    HW120534   0.049   0.710  16.065  0.1705 -1.0069 -0.5533
 3025SOL    HW220535   4.644   0.681  16.132  0.0638 -1.4456 -0.2197
 3026SOL     OW20536   0.926   2.294   2.065 -0.1926  0.2448  0.2662
 3026SOL    HW120537   0.912   2.345   1.985  0.1252  0.0746  0.0961
 3026SOL    HW220538   0.969   2.211   2.040 -0.0601  1.1715 -2.6312
 3027SOL     OW20539   4.099   4.174  13.306 -0.1200  0.0581  0.0746
 3027SOL    HW120540   4.124   4.100  13.362 -3.1345 -0.4209  0.8127
 3027SOL    HW220541   4.015   4.194  13.348  1.2207 -0.9393  3.1539
 3028SOL     OW20542   2.056   3.520   6.458  0.1131 -0.9190 -0.2320
 3028SOL    HW120543   2.038   3.449   6.397 -1.3281 -0.5832 -0.1860
 3028SOL    HW220544   2.102   3.582   6.401 -0.0368 -0.6496 -0.0594
 3029SOL     OW20545   0.818   0.856   8.371  0.0493 -0.4216  0.2321
 3029SOL    HW120546   0.902   0.844   8.415  0.5497 -1.8502 -1.1171
 3029SOL    HW220547   0.830   0.804   8.291  0.1157 -0.8221  0.5032
 3030SOL     OW20548   2.884   1.018   8.982 -0.2791 -0.0987 -0.5541
 3030SOL    HW120549   2.896   0.948   9.046  0.3402 -0.6239 -1.2512
 3030SOL    HW220550   2.801   1.062   9.002  0.2059  0.2951  0.5904
 3031SOL     OW20551   1.128   0.235   6.274  0.2677  1.0421 -0.1200
 3031SOL    HW120552   1.163   0.248   6.186 -1.2449 -0.5848 -0.9682
 3031SOL    HW220553   1.048   0.187   6.256  0.7688  0.0827  0.2500
 3032SOL     OW20554   0.844   0.160   7.412  0.1370 -0.6071 -0.0521
 3032SOL    HW120555   0.889   0.210   7.480 -1.4373  0.0088  0.5386
 3032SOL    HW220556   0.882   0.179   7.327 -1.0227  0.1941 -0.3787
 3033SOL     OW20557   0.959   0.283   0.256 -0.2793  0.2876 -0.5860
 3033SOL    HW120558   0.921   0.229   0.326 -0.2712  1.7894  0.5668
 3033SOL    HW220559   0.979   0.364   0.302 -0.4051 -0.0695  0.1062
 3034SOL     OW20560   2.365   1.647   4.915  0.1331 -0.4402 -0.3936
 3034SOL    HW120561   2.404   1.611   4.836 -0.2207  2.2287 -1.7919
 3034SOL    HW220562   2.449   1.671   4.955  1.4468 -0.7299 -2.9634
 3035SOL     OW20563   3.109   2.356   3.162 -0.0142  0.0301 -0.0620
 3035SOL    HW120564   3.156   2.388   3.085  1.5510  0.0766  0.9116
 3035SOL    HW220565   3.045   2.427   3.168  0.8230  0.7931 -0.0338
 3036SOL     OW20566   0.195   0.613  13.563  0.1041 -0.5486 -0.2290
 3036SOL    HW120567   0.283   0.647  13.578  0.3644 -2.0204  1.5148
 3036SOL    HW220568   0.159   0.670  13.495  0.6305  0.7698  0.5985
 3037SOL     OW20569   3.039   0.344   9.305 -0.7814 -0.2878  0.4006
 3037SOL    HW120570   3.063   0.369   9.215 -0.4465 -2.2349 -0.0498
 3037SOL    HW220571   3.064   0.424   9.351 -1.4045  1.1104 -1.6971
 3038SOL     OW20572   4.494   2.334   7.978 -0.5012  0.1010  0.3103
 3038SOL    HW120573   4.554   2.293   7.917  1.3447  0.9440  1.5659
 3038SOL    HW220574   4.467   2.420   7.946  1.3639  0.5600 -0.0053
 3039SOL     OW20575   0.270   2.133  16.937  0.1286  0.1010 -0.2708
 3039SOL    HW120576   0.324   2.062  16.903  0.0834 -0.8560  1.6189
 3039SOL    HW220577   0.307   2.145  17.025  1.7463 -0.2494 -0.9031
 3040SOL     OW20578   0.732   2.202   3.635  0.4533 -0.0085 -0.2569
 3040SOL    HW120579   0.808   2.222   3.582  0.6949 -1.1923 -0.3608
 3040SOL    HW220580   0.706   2.121   3.590  1.2962  0.1641 -1.0468
 3041SOL     OW20581   4.372   1.496   8.542  0.1501 -0.0747 -0.0038
 3041SOL    HW120582   4.315   1.503   8.618  0.4837 -0.3895  0.2750
 3041SOL    HW220583   4.362   1.579   8.496  0.1635 -0.4818 -0.7489
 3042SOL     OW20584   0.861   1.255   4.549  0.2567  0.2092 -0.0797
 3042SOL    HW120585   0.782   1.209   4.577  0.6778  0.1941  1.0831
 3042SOL    HW220586   0.930   1.233   4.611 -0.1061  0.3692  0.3829
 3043SOL     OW20587   1.051   4.464   0.488 -0.8923 -0.1410  0.0602
 3043SOL    HW120588   1.143   4.438   0.483 -1.4302 -1.9095 -0.4880
 3043SOL    HW220589   1.043   4.529   0.558 -0.6784 -0.4727  0.3872
 3044SOL     OW20590   0.559   0.346   7.784  0.0693 -0.5717 -0.3927
 3044SOL    HW120591   0.471   0.307   7.776 -0.7577  1.2322 -0.0974
 3044SOL    HW220592   0.615   0.272   7.808 -0.3934 -0.6350  0.5170
 3045SOL     OW20593   2.614   0.432   7.359  0.1580 -0.0506  0.4320
 3045SOL    HW120594   2.652   0.390   7.282  1.2310  0.2498  0.7859
 3045SOL    HW220595   2.537   0.378   7.374 -0.2245  0.2498 -0.4841
 3046SOL     OW20596   3.595   4.199  16.739  0.3884 -0.4376  0.3907
 3046SOL    HW120597   3.587   4.154  16.823 -0.0330 -0.2309  0.4588
 3046SOL    HW220598   3.541   4.142  16.685 -0.8303 -0.0872  1.2398
 3047SOL     OW20599   1.206   1.431   8.459 -0.6233 -0.2082 -0.2550
 3047SOL    HW120600   1.134   1.490   8.435  1.3055  1.7936 -1.1324
 3047SOL    HW220601   1.252   1.399   8.381  0.5156 -0.0472  0.3499
 3048SOL     OW20602   0.249   2.664   5.575 -0.6159  0.2424  0.6068
 3048SOL    HW120603   0.208   2.630   5.655 -1.5999 -0.4746 -0.1993
 3048SOL    HW220604   0.237   2.592   5.512  0.1867  1.7650 -1.2680
 3049SOL     OW20605   0.066   3.664  10.066 -0.1439 -0.0867  0.1186
 3049SOL    HW120606   0.154   3.664  10.029 -0.4336 -0.3444 -0.5600
 3049SOL    HW220607   0.072   3.750  10.109  0.8678  1.1459 -2.4857
 3050SOL     OW20608   3.414   3.911   1.459 -0.0353 -0.2276  0.3084
 3050SOL    HW120609   3.320   3.905   1.444  0.0413  0.5277 -0.4721
 3050SOL    HW220610   3.435   3.819   1.475  0.9912 -0.0378  0.0594
 3051SOL     OW20611   1.228   2.012  12.713 -0.1793  0.2184 -0.1440
 3051SOL    HW120612   1.159   1.999  12.779 -0.7126 -0.1077 -0.7710
 3051SOL    HW220613   1.169   2.020  12.638  1.4284 -0.3542 -1.4641
 3052SOL     OW20614   2.449   1.555   8.318  0.3000 -0.1169  0.0011
 3052SOL    HW120615   2.471   1.601   8.399  1.4219  0.3941 -0.6066
 3052SOL    HW220616   2.364   1.516   8.340  0.9284 -1.5210 -0.0553
 3053SOL     OW20617   4.121   2.564   7.960 -0.2306 -0.0523 -0.2351
 3053SOL    HW120618   4.085   2.629   8.021 -0.1481 -0.7089  0.5066
 3053SOL    HW220619   4.117   2.609   7.876 -0.3870  0.2709 -0.0547
 3054SOL     OW20620   3.638   0.491  16.664  0.4712  0.1173 -0.3860
 3054SOL    HW120621   3.666   0.513  16.753 -1.3278  1.4660 -0.1423
 3054SOL    HW220622   3.563   0.546  16.642  0.3065 -0.5960 -1.5917
 3055SOL     OW20623   3.147   0.041   8.923  0.1616  0.0979  0.3476
 3055SOL    HW120624   3.190   0.035   9.008  1.1665  2.7983  0.0284
 3055SOL    HW220625   3.156   0.135   8.908 -0.3742  0.2039  0.6776
 3056SOL     OW20626   2.503   2.000   5.630  0.4539 -0.2452 -0.1857
 3056SOL    HW120627   2.429   2.060   5.627  0.9308  0.4555  1.9528
 3056SOL    HW220628   2.567   2.060   5.669  0.0969 -0.0136  0.0473
 3057SOL     OW20629   4.648   3.065  16.252 -0.0250  0.5212 -0.1976
 3057SOL    HW120630   4.599   3.122  16.194 -1.0914  1.5589  1.7328
 3057SOL    HW220631   4.676   3.002  16.185 -0.1548  1.0846 -0.7799
 3058SOL     OW20632   2.351   4.556   8.161 -0.6678  0.6479 -0.5131
 3058SOL    HW120633   2.273   4.554   8.105 -1.2328  1.4272  0.2531
 3058SOL    HW220634   2.390   4.470   8.147  0.1151  0.6589  1.7102
 3059SOL     OW20635   1.281   2.447   2.534 -0.4181  0.1663  0.4437
 3059SOL    HW120636   1.245   2.511   2.595  0.4928  0.8376  0.2742
 3059SOL    HW220637   1.324   2.504   2.470 -1.0952  1.3530  1.0394
 3060SOL     OW20638   2.516   2.289  15.396 -0.1473  0.6360  0.0181
 3060SOL    HW120639   2.441   2.260  15.448  0.2993  0.2347  0.4337
 3060SOL    HW220640   2.561   2.329  15.471 -1.2942  1.6831  0.1646
 3061SOL     OW20641   3.130   3.735  13.434  0.0334 -0.7096 -0.8216
 3061SOL    HW120642   3.121   3.778  13.519  2.0828 -3.0359  0.5820
 3061SOL    HW220643   3.052   3.766  13.388  0.4803  0.9734 -0.4406
 3062SOL     OW20644   3.959   3.340   8.451  0.1474  0.7447  0.0350
 3062SOL    HW120645   3.997   3.262   8.494 -1.5156  0.6545  1.3636
 3062SOL    HW220646   4.032   3.402   8.457  0.7808  0.2543 -3.0276
 3063SOL     OW20647   2.500   0.484  15.790 -0.7068  0.1882  0.0620
 3063SOL    HW120648   2.579   0.462  15.838 -0.8831 -0.5672  0.0073
 3063SOL    HW220649   2.467   0.402  15.753  0.6653  0.1464 -1.0931
 3064SOL     OW20650   3.923   0.869   7.030 -0.3187 -0.2872 -0.1988
 3064SOL    HW120651   3.842   0.825   7.054  0.5166 -1.6484  0.1444
 3064SOL    HW220652   3.947   0.916   7.110 -1.6537  0.0848 -0.0206
 3065SOL     OW20653   4.594   4.274   9.503 -0.0174 -0.1537 -0.8237
 3065SOL    HW120654   4.601   4.224   9.585 -0.8437 -1.2470 -1.4087
 3065SOL    HW220655   4.499   4.283   9.494 -0.1194 -0.8092 -0.4663
 3066SOL     OW20656   3.845   1.670   7.384  0.2941  0.1352  0.5264
 3066SOL    HW120657   3.856   1.623   7.301 -1.9820  1.6736 -0.6658
 3066SOL    HW220658   3.767   1.719   7.359  1.3838  2.0670  0.8912
 3067SOL     OW20659   0.403   1.664   8.311  0.4342 -0.3143 -0.1945
 3067SOL    HW120660   0.443   1.748   8.287 -0.6147  0.4304  0.6143
 3067SOL    HW220661   0.312   1.691   8.296  0.6200  0.0740 -0.6035
 3068SOL     OW20662   2.321   3.414   1.440  0.0473 -0.0503 -0.2355
 3068SOL    HW120663   2.308   3.372   1.355  2.5232 -0.1204 -0.5664
 3068SOL    HW220664   2.231   3.446   1.445  0.1668 -0.2760  3.2907
 3069SOL     OW20665   3.321   2.754  10.859  0.2869  0.0652 -0.1106
 3069SOL    HW120666   3.317   2.758  10.763 -1.6093  1.1879  0.0012
 3069SOL    HW220667   3.415   2.766  10.871  0.5929 -1.2337 -1.2616
 3070SOL     OW20668   1.136   4.346   8.597  0.0739 -0.1909 -0.0333
 3070SOL    HW120669   1.226   4.336   8.564 -1.0785 -1.3865 -2.8078
 3070SOL    HW220670   1.134   4.283   8.669 -3.7603 -1.3727 -1.2311
 3071SOL     OW20671   1.355   4.456  12.804 -0.5562  0.2387  0.0100
 3071SOL    HW120672   1.262   4.443  12.782 -0.2062 -0.2544 -1.1610
 3071SOL    HW220673   1.393   4.369  12.788 -1.5363 -0.1187 -0.3902
 3072SOL     OW20674   3.814   2.969  10.263  0.1872 -0.3415  0.5276
 3072SOL    HW120675   3.842   2.892  10.313 -2.1397 -0.3046  1.8692
 3072SOL    HW220676   3.748   2.926  10.208  0.6017 -0.3054 -0.0057
 3073SOL     OW20677   1.549   1.570   3.587  0.1547  0.1735 -0.7549
 3073SOL    HW120678   1.608   1.499   3.562 -0.6654  0.1613 -2.6383
 3073SOL    HW220679   1.496   1.529   3.656  1.2701  0.6002  0.3500
 3074SOL     OW20680   1.886   2.437   8.794 -0.2065 -0.4841  0.2122
 3074SOL    HW120681   1.815   2.499   8.805  0.2459 -0.1406  1.1822
 3074SOL    HW220682   1.848   2.369   8.850  1.2916 -0.7796  0.8769
 3075SOL     OW20683   0.439   3.283   7.205 -0.1572 -0.3074  0.5335
 3075SOL    HW120684   0.509   3.340   7.236 -0.7066  0.5586  0.1889
 3075SOL    HW220685   0.367   3.346   7.202  0.0562 -0.1112 -0.8361
 3076SOL     OW20686   2.812   2.117  10.634 -0.2994 -0.2029 -0.0012
 3076SOL    HW120687   2.889   2.167  10.606 -0.1561 -1.8278 -2.5184
 3076SOL    HW220688   2.858   2.056  10.693  1.8447  1.0975 -0.3299
 3077SOL     OW20689   0.521   2.164  12.207 -0.1804  0.0215 -0.3287
 3077SOL    HW120690   0.555   2.116  12.131 -1.6717  1.2453 -1.7588
 3077SOL    HW220691   0.464   2.098  12.246  1.5852 -0.0927  2.0468
 3078SOL     OW20692   0.819   1.849   7.622 -0.0942  0.0824  0.3377
 3078SOL    HW120693   0.729   1.824   7.643 -0.6640  3.7251  2.2461
 3078SOL    HW220694   0.851   1.785   7.685 -0.2839  1.2394  1.5921
 3079SOL     OW20695   4.133   0.215  13.361 -0.6850  0.3407 -0.0876
 3079SOL    HW120696   4.072   0.209  13.288  2.3370 -1.4644 -2.4061
 3079SOL    HW220697   4.181   0.296  13.349 -2.4755  0.9503 -3.0181
 3080SOL     OW20698   0.923   1.421   2.912  0.9147 -0.0580 -0.0748
 3080SOL    HW120699   0.845   1.374   2.942  0.3551 -0.1701 -1.6819
 3080SOL    HW220700   0.881   1.469   2.840  1.9678 -0.7987 -1.1932
 3081SOL     OW20701   3.693   4.043  15.611 -0.1633 -0.4541 -0.0053
 3081SOL    HW120702   3.754   4.052  15.683 -1.5141  1.1426  0.9269
 3081SOL    HW220703   3.609   4.060  15.653 -0.5159  1.0974 -1.3461
 3082SOL     OW20704   2.700   3.873   7.033 -0.0529 -0.1895  0.7247
 3082SOL    HW120705   2.657   3.843   7.113  1.7347 -1.3125  1.2627
 3082SOL    HW220706   2.716   3.799   6.974 -1.1163  2.2691 -2.6116
 3083SOL     OW20707   3.180   3.001   4.752 -0.1727 -0.3558  0.4270
 3083SOL    HW120708   3.125   2.977   4.677 -0.7437  0.3336  0.6280
 3083SOL    HW220709   3.241   2.927   4.759  0.0499 -0.2925 -0.7131
 3084SOL     OW20710   2.678   1.845  10.720 -1.1699  0.4221  0.1628
 3084SOL    HW120711   2.740   1.842  10.647 -1.6177  0.5126 -0.2164
 3084SOL    HW220712   2.718   1.897  10.790 -1.5993  0.1150  0.6375
 3085SOL     OW20713   0.285   4.482   9.811 -0.6950  0.4031 -0.6504
 3085SOL    HW120714   0.306   4.516   9.724  0.9973  0.9585 -0.0015
 3085SOL    HW220715   0.267   4.554   9.870  1.1888  0.3742 -0.0451
 3086SOL     OW20716   3.164   3.222   7.721  0.2955  0.0003  0.3037
 3086SOL    HW120717   3.239   3.275   7.748  0.2575 -0.3290  1.0501
 3086SOL    HW220718   3.095   3.266   7.771 -1.0702 -0.7614 -0.8952
 3087SOL     OW20719   4.001   4.248  10.958 -0.2690  0.3622 -0.3621
 3087SOL    HW120720   4.073   4.301  10.923  1.2342 -2.2895 -1.2380
 3087SOL    HW220721   4.020   4.235  11.051  2.4605  1.1780 -0.8044
 3088SOL     OW20722   3.813   0.241  15.111  0.5312  0.3583 -0.5365
 3088SOL    HW120723   3.808   0.329  15.149  1.0672 -0.0811  0.5584
 3088SOL    HW220724   3.725   0.206  15.098  1.1974 -1.4135 -0.1969
 3089SOL     OW20725   4.639   0.132   7.355 -0.3215  0.1637  0.3688
 3089SOL    HW120726   4.709   0.140   7.290 -0.4271  0.3477  0.2793
 3089SOL    HW220727   4.657   0.042   7.383  0.5608 -0.3009 -1.6790
 3090SOL     OW20728   1.899   0.948   8.794  0.1744 -0.2326 -0.0262
 3090SOL    HW120729   1.944   0.872   8.830  0.1149 -0.0315  0.4629
 3090SOL    HW220730   1.817   0.930   8.840 -0.0970  1.8966  0.3284
 3091SOL     OW20731   1.742   3.054   0.566  0.3459 -0.0950  0.6627
 3091SOL    HW120732   1.810   3.064   0.500 -1.6459 -2.7109 -1.8031
 3091SOL    HW220733   1.796   3.034   0.642  0.4092  0.6045  0.8016
 3092SOL     OW20734   2.727   3.328   3.030  0.2828  0.2527 -0.2390
 3092SOL    HW120735   2.653   3.389   3.037 -0.1954 -0.5760  1.9468
 3092SOL    HW220736   2.719   3.322   2.935 -0.4535 -0.1157 -0.1568
 3093SOL     OW20737   0.518   0.460   8.296  0.5805 -0.0107  0.0545
 3093SOL    HW120738   0.574   0.484   8.370 -0.0194  2.3432 -0.2332
 3093SOL    HW220739   0.582   0.444   8.227  1.0881 -1.8877  0.9671
 3094SOL     OW20740   0.320   2.452  16.121 -0.4321  0.2606  0.0919
 3094SOL    HW120741   0.335   2.505  16.199  0.6798 -1.5202  1.0690
 3094SOL    HW220742   0.383   2.380  16.129 -0.3781  0.4927  1.7914
 3095SOL     OW20743   3.920   3.550   2.949  0.3354 -0.8580 -0.0893
 3095SOL    HW120744   3.885   3.468   2.915 -2.0255 -0.4877  1.4705
 3095SOL    HW220745   3.871   3.561   3.030 -0.1732 -3.0722 -0.1002
 3096SOL     OW20746   1.242   3.159   6.498  0.3194 -0.7206  0.1106
 3096SOL    HW120747   1.294   3.200   6.429 -0.9164  0.5781 -0.0311
 3096SOL    HW220748   1.258   3.210   6.578 -0.0881 -0.8244  0.2549
 3097SOL     OW20749   4.019   2.141   0.854  0.0479  0.3301 -0.3083
 3097SOL    HW120750   4.113   2.125   0.846  0.5696  1.7927  3.0595
 3097SOL    HW220751   3.982   2.081   0.789  4.9506 -1.4382 -1.3957
 3098SOL     OW20752   2.818   1.632  15.147  0.3004 -0.1373  0.2601
 3098SOL    HW120753   2.807   1.671  15.060  0.1078  1.7256  1.1270
 3098SOL    HW220754   2.754   1.560  15.144 -1.9738  1.8332  1.7225
 3099SOL     OW20755   2.571   2.918   3.059 -0.3180  0.1360  0.2575
 3099SOL    HW120756   2.625   2.870   3.122  0.2537 -0.6083 -0.7957
 3099SOL    HW220757   2.503   2.853   3.045  1.0711 -1.4081  0.6889
 3100SOL     OW20758   4.185   4.642  15.383 -0.2625 -0.0569 -0.1697
 3100SOL    HW120759   4.133   4.658  15.462 -0.4370  0.9897 -0.4965
 3100SOL    HW220760   4.130   4.674  15.311  2.3105  0.9599 -1.7017
 3101SOL     OW20761   2.438   1.682   4.193  0.2821 -0.1912 -0.2881
 3101SOL    HW120762   2.402   1.605   4.149 -1.1359 -0.0196  0.5590
 3101SOL    HW220763   2.512   1.702   4.135  0.2652  0.3858 -0.1109
 3102SOL     OW20764   4.541   2.968  17.454  0.7456  0.0037 -0.1450
 3102SOL    HW120765   4.463   3.022  17.467 -0.0953 -0.7001 -2.2107
 3102SOL    HW220766   4.567   2.979  17.362 -0.1309  0.0802 -0.3875
 3103SOL     OW20767   3.148   2.162   8.960  0.0560 -0.0862 -0.3053
 3103SOL    HW120768   3.237   2.142   8.991 -0.5698 -0.1432  1.4312
 3103SOL    HW220769   3.140   2.097   8.890 -3.4213  0.5079 -0.4368
 3104SOL     OW20770   0.693   0.304  15.578 -0.0685  0.2395  0.3299
 3104SOL    HW120771   0.660   0.263  15.659  1.1832 -1.8820 -0.2228
 3104SOL    HW220772   0.682   0.396  15.602 -0.0200  0.3326 -0.0132
 3105SOL     OW20773   4.640   0.842   1.236  0.5182 -0.4953  0.1568
 3105SOL    HW120774   4.710   0.875   1.180  1.4915 -0.8632  1.1596
 3105SOL    HW220775   4.685   0.831   1.320 -1.5046 -0.3261  1.2722
 3106SOL     OW20776   3.615   1.826  16.687 -0.0365  0.1129 -0.0729
 3106SOL    HW120777   3.595   1.771  16.612  0.9510 -2.5401  1.6239
 3106SOL    HW220778   3.652   1.908  16.654 -3.3883 -0.0467 -4.1951
 3107SOL     OW20779   2.512   4.250   6.941 -0.3144 -0.0284 -0.4724
 3107SOL    HW120780   2.498   4.281   6.851 -1.1156 -2.4663 -1.1886
 3107SOL    HW220781   2.524   4.158   6.919  2.5938 -0.1513  1.5599
 3108SOL     OW20782   1.112   3.938  15.831  0.2696  0.4116  0.3303
 3108SOL    HW120783   1.117   3.854  15.785 -3.1581  1.3517 -1.7290
 3108SOL    HW220784   1.021   3.961  15.812  0.5377  1.0964 -0.1514
 3109SOL     OW20785   4.018   2.146  10.223 -0.2774 -0.0544 -0.8706
 3109SOL    HW120786   3.994   2.060  10.256 -0.9346  0.6755  0.5296
 3109SOL    HW220787   4.094   2.123  10.169 -1.1859  0.6464 -2.4554
 3110SOL     OW20788   0.970   2.613  15.387 -0.1781 -0.0623  0.1649
 3110SOL    HW120789   0.946   2.660  15.307 -0.6905  0.4621  0.6220
 3110SOL    HW220790   0.901   2.546  15.393  0.5477 -0.9098 -1.0509
 3111SOL     OW20791   3.693   2.906   2.959  0.1929  0.0379 -0.3955
 3111SOL    HW120792   3.728   2.936   2.875 -0.7384 -4.4798 -2.3946
 3111SOL    HW220793   3.609   2.863   2.940 -0.3927  1.6704 -1.4270
 3112SOL     OW20794   4.549   1.757   8.497 -0.8591 -0.3516 -0.0302
 3112SOL    HW120795   4.612   1.780   8.429 -0.9981  1.0453  0.3188
 3112SOL    HW220796   4.563   1.662   8.499 -0.8393 -0.3420  0.3973
 3113SOL     OW20797   3.436   4.172  11.504 -0.2352  0.3909 -0.4616
 3113SOL    HW120798   3.463   4.213  11.586  0.4983  1.7165 -1.3638
 3113SOL    HW220799   3.472   4.230  11.438  0.1244  2.9088  1.9351
 3114SOL     OW20800   0.557   2.884   0.638  0.1188 -0.2675 -0.5028
 3114SOL    HW120801   0.570   2.951   0.572  0.9670  2.0984  2.0511
 3114SOL    HW220802   0.630   2.827   0.612  0.6710  0.4589 -0.5351
 3115SOL     OW20803   3.362   0.476   6.164 -0.5689 -0.5843 -0.6495
 3115SOL    HW120804   3.353   0.561   6.206 -0.3351 -0.5547 -0.6572
 3115SOL    HW220805   3.383   0.414   6.234  0.0733  3.4933  2.7356
 3116SOL     OW20806   4.098   2.039   3.297 -0.0085  0.9345 -0.2997
 3116SOL    HW120807   4.076   2.130   3.279 -0.0737  0.7550 -1.1243
 3116SOL    HW220808   4.190   2.040   3.322 -0.3496 -0.4713  1.0451
 3117SOL     OW20809   0.749   2.328   2.962  0.2111  0.0031 -0.3644
 3117SOL    HW120810   0.688   2.304   2.892  2.9551 -1.9062 -2.0434
 3117SOL    HW220811   0.699   2.279   3.027 -0.5992 -0.9942 -1.7475
 3118SOL     OW20812   3.502   2.606   6.149 -0.6044  0.0891 -0.1728
 3118SOL    HW120813   3.592   2.640   6.148  0.5500 -2.9924 -1.6982
 3118SOL    HW220814   3.464   2.611   6.062  0.7142  2.0277 -0.6277
 3119SOL     OW20815   1.549   3.862   7.595  0.1096  0.0398  0.2694
 3119SOL    HW120816   1.609   3.848   7.668  0.7158  3.7258  0.4554
 3119SOL    HW220817   1.595   3.923   7.537 -1.1312  0.3234 -0.4090
 3120SOL     OW20818   2.633   3.100   6.602  0.0573 -0.0468  0.6307
 3120SOL    HW120819   2.668   3.060   6.682 -0.5299 -0.0098  0.8992
 3120SOL    HW220820   2.604   3.181   6.643  2.4400 -0.2500  2.7314
 3121SOL     OW20821   0.705   3.484   9.185 -0.1241  0.3121  0.4036
 3121SOL    HW120822   0.763   3.416   9.220 -1.0464  0.2122  1.7222
 3121SOL    HW220823   0.673   3.520   9.267  0.0423 -1.6093  1.3143
 3122SOL     OW20824   4.371   3.269   3.633  0.0173 -0.1588  0.4516
 3122SOL    HW120825   4.286   3.264   3.590 -0.0666 -0.4944  0.6580
 3122SOL    HW220826   4.413   3.315   3.560  0.6755 -0.6672  0.5113
 3123SOL     OW20827   4.494   0.395   6.991  0.2211  0.0096 -0.0305
 3123SOL    HW120828   4.493   0.306   7.025 -2.3045 -0.4726 -1.3159
 3123SOL    HW220829   4.405   0.407   6.958  0.2453 -0.2884 -0.1996
 3124SOL     OW20830   1.554   1.824   3.936  0.1458 -0.0777 -0.3890
 3124SOL    HW120831   1.487   1.781   3.883  0.5263  1.1547 -1.8652
 3124SOL    HW220832   1.585   1.887   3.871  0.6882 -0.6756 -0.7240
 3125SOL     OW20833   3.746   2.079  16.605 -0.2042 -0.0280  0.3222
 3125SOL    HW120834   3.829   2.126  16.601  0.5481 -1.6696 -2.8208
 3125SOL    HW220835   3.706   2.113  16.686 -0.9406  0.8996 -0.4223
 3126SOL     OW20836   3.137   0.448   5.651  0.0354 -0.3185 -0.3478
 3126SOL    HW120837   3.211   0.406   5.607  1.5857  2.6734 -0.5927
 3126SOL    HW220838   3.123   0.518   5.586 -2.2139  0.4689  0.9590
 3127SOL     OW20839   1.859   3.695  12.121  0.2406 -0.0204  0.4987
 3127SOL    HW120840   1.879   3.603  12.135 -1.4830 -0.3084  1.0830
 3127SOL    HW220841   1.929   3.716  12.058 -0.4940 -0.3322 -0.4263
 3128SOL     OW20842   4.628   1.003   2.730  0.3044  0.0242 -0.7455
 3128SOL    HW120843   4.635   1.092   2.694 -1.9672 -0.0390 -1.3386
 3128SOL    HW220844   4.539   0.982   2.704 -0.4714  1.0800  0.9831
 3129SOL     OW20845   2.781   4.523   0.928  0.0028  0.1010  0.2448
 3129SOL    HW120846   2.841   4.529   0.854 -1.9115  0.2542 -1.2787
 3129SOL    HW220847   2.697   4.501   0.887 -0.5604 -0.7019  1.8225
 3130SOL     OW20848   1.723   1.569   3.971  0.3385 -1.0057  0.0585
 3130SOL    HW120849   1.752   1.651   3.932  0.3293 -0.5539  1.0234
 3130SOL    HW220850   1.641   1.592   4.014  0.3128 -0.7876 -0.1040
 3131SOL     OW20851   1.547   3.016  15.724  0.7120 -0.8298 -0.1723
 3131SOL    HW120852   1.581   2.983  15.641 -1.0541  1.1455 -1.6919
 3131SOL    HW220853   1.503   2.938  15.757 -1.5233  0.1884 -0.7921
 3132SOL     OW20854   3.293   3.658  16.478  0.3896 -0.0544  0.1190
 3132SOL    HW120855   3.269   3.743  16.514 -1.0654 -0.6168  0.4751
 3132SOL    HW220856   3.220   3.607  16.512  1.0353 -0.8592  0.2908
 3133SOL     OW20857   3.390   3.893   3.728  0.2965  0.0062  0.5283
 3133SOL    HW120858   3.463   3.894   3.666  0.8597 -0.0786  1.1811
 3133SOL    HW220859   3.309   3.888   3.678  1.1900 -1.8006 -0.7469
 3134SOL     OW20860   1.745   0.483   5.532  0.5407  0.0221  0.2832
 3134SOL    HW120861   1.804   0.476   5.607  1.9016  1.7649 -0.6282
 3134SOL    HW220862   1.806   0.511   5.465  0.4636  0.0260  0.2145
 3135SOL     OW20863   3.544   2.230   5.717  0.2727 -0.1733 -0.7292
 3135SOL    HW120864   3.632   2.196   5.733  0.4927  0.8928  0.3295
 3135SOL    HW220865   3.498   2.166   5.771  0.6587 -0.4355 -0.7114
 3136SOL     OW20866   2.863   3.849   2.860 -0.0409 -0.0711 -0.2107
 3136SOL    HW120867   2.930   3.785   2.837  1.6934  1.1389  1.4979
 3136SOL    HW220868   2.862   3.903   2.781 -1.2704 -0.7545 -0.6650
 3137SOL     OW20869   3.519   1.146   3.949 -0.2985  0.3105 -0.5658
 3137SOL    HW120870   3.477   1.149   4.034  1.8300 -0.8019  0.5225
 3137SOL    HW220871   3.567   1.229   3.938 -1.1729  1.2772  3.1900
 3138SOL     OW20872   1.761   1.851  14.767 -0.7433 -0.0443  0.2807
 3138SOL    HW120873   1.853   1.847  14.792 -1.2509 -2.0066  1.7395
 3138SOL    HW220874   1.755   1.941  14.732 -1.1998 -0.7821 -1.5684
 3139SOL     OW20875   1.935   0.390   8.764  0.1350 -0.2678  0.1568
 3139SOL    HW120876   1.856   0.406   8.815  1.2646  0.4193  1.6552
 3139SOL    HW220877   1.986   0.350   8.834  0.0078 -0.9794 -0.1532
 3140SOL     OW20878   3.597   2.120   5.451 -0.1820  0.0835  0.1619
 3140SOL    HW120879   3.545   2.046   5.418  0.0068 -0.0248  0.1096
 3140SOL    HW220880   3.549   2.152   5.527 -0.4538 -0.4676  0.2233
 3141SOL     OW20881   1.123   1.960   9.335  0.2358 -0.3657  0.4588
 3141SOL    HW120882   1.099   2.049   9.361 -2.9113 -0.6811 -1.3006
 3141SOL    HW220883   1.043   1.907   9.343 -0.8624  0.8262 -2.5000
 3142SOL     OW20884   1.911   1.053  13.206  0.4045 -0.0435  0.2624
 3142SOL    HW120885   1.869   1.015  13.129 -0.3262  0.0172  0.6358
 3142SOL    HW220886   1.895   1.145  13.185 -0.9195  0.0080  1.4963
 3143SOL     OW20887   4.121   4.569   2.744  0.4143  0.4772  0.0145
 3143SOL    HW120888   4.121   4.660   2.715  1.2669  0.3075 -0.5467
 3143SOL    HW220889   4.154   4.573   2.834  0.0108  0.9708  0.1378
 3144SOL     OW20890   1.126   1.695   9.850 -0.1939 -0.0131  0.6508
 3144SOL    HW120891   1.036   1.696   9.815  0.5740 -1.6325 -1.3662
 3144SOL    HW220892   1.144   1.602   9.839  2.3841  0.6134 -0.3596
 3145SOL     OW20893   1.526   1.090   6.719  0.2187 -0.2410  0.1749
 3145SOL    HW120894   1.600   1.144   6.694 -0.2310  1.5750  2.8104
 3145SOL    HW220895   1.568   1.026   6.776  5.0973  0.1270 -3.0403
 3146SOL     OW20896   3.316   0.411   3.417 -0.3719 -0.3293  0.1357
 3146SOL    HW120897   3.398   0.459   3.430 -0.9969  0.4138  1.2546
 3146SOL    HW220898   3.297   0.393   3.509  1.7490 -0.1512  0.6184
 3147SOL     OW20899   2.224   1.557   5.134  0.3094  0.1216  0.4388
 3147SOL    HW120900   2.269   1.607   5.066  1.3649 -0.7517  0.4894
 3147SOL    HW220901   2.229   1.629   5.197 -1.7589 -0.1125  0.8547
 3148SOL     OW20902   0.340   2.499   2.984 -0.3254 -0.1162 -0.6928
 3148SOL    HW120903   0.387   2.556   3.045 -0.5234 -0.2803 -0.3931
 3148SOL    HW220904   0.297   2.440   3.045  0.5232  0.3903  0.4057
 3149SOL     OW20905   0.313   1.733   2.340 -0.3611  0.4715  0.2117
 3149SOL    HW120906   0.268   1.663   2.291  0.3563 -0.6343  1.1280
 3149SOL    HW220907   0.402   1.715   2.309 -0.2967  0.2038  0.5520
 3150SOL     OW20908   2.550   3.296   1.682 -0.1125  0.1580 -0.4360
 3150SOL    HW120909   2.591   3.226   1.632  2.8531  1.8787 -0.4530
 3150SOL    HW220910   2.520   3.356   1.614 -0.9823  0.8121  0.5178
 3151SOL     OW20911   2.235   3.903  12.154 -0.3718  0.4918  0.3832
 3151SOL    HW120912   2.206   3.979  12.103 -0.8727  2.7381  3.9705
 3151SOL    HW220913   2.330   3.910  12.142 -0.1678 -1.2126  0.9817
 3152SOL     OW20914   3.627   3.832   6.210  0.6130 -0.0273 -0.4491
 3152SOL    HW120915   3.613   3.779   6.288 -0.2679 -0.5175 -0.9358
 3152SOL    HW220916   3.714   3.869   6.224  0.2729  0.0862  1.3546
 3153SOL     OW20917   4.084   2.216  15.152  0.1364 -0.6274 -0.0744
 3153SOL    HW120918   4.121   2.207  15.240 -0.9640 -1.4556  0.3041
 3153SOL    HW220919   4.113   2.138  15.104  0.2564  0.2165 -1.3684
 3154SOL     OW20920   4.242   2.164  10.067 -0.1189 -0.4233  0.0313
 3154SOL    HW120921   4.335   2.171  10.088 -0.3122  0.2263  0.6458
 3154SOL    HW220922   4.250   2.179   9.973  0.6520 -1.1746 -0.0306
 3155SOL     OW20923   0.785   2.777   4.686  0.3007  0.2810  0.4039
 3155SOL    HW120924   0.881   2.779   4.686  0.3015  0.5114 -1.0244
 3155SOL    HW220925   0.773   2.846   4.752  1.4048 -0.6749  1.6056
 3156SOL     OW20926   2.416   2.620   5.744  0.2307 -0.0260  0.1492
 3156SOL    HW120927   2.394   2.646   5.655 -1.7542  0.7961  0.8959
 3156SOL    HW220928   2.478   2.692   5.754  2.6953 -1.9549 -1.1147
 3157SOL     OW20929   4.276   0.447   6.240  0.5948  0.5364  0.1428
 3157SOL    HW120930   4.320   0.381   6.294 -0.6699  1.5385  2.3971
 3157SOL    HW220931   4.335   0.521   6.253 -0.7901  1.8740 -1.1761
 3158SOL     OW20932   1.623   2.260  13.042  0.1893 -0.0492 -0.5119
 3158SOL    HW120933   1.612   2.355  13.036  1.3343  0.1141  0.0052
 3158SOL    HW220934   1.548   2.227  12.992  1.3016 -1.1133 -1.4609
 3159SOL     OW20935   0.962   1.853   6.186  0.3904 -0.2360  0.0011
 3159SOL    HW120936   0.994   1.820   6.270  2.0257 -0.4438 -0.7074
 3159SOL    HW220937   1.037   1.846   6.126  1.1414  0.7253  0.8445
 3160SOL     OW20938   4.274   3.854   9.777  0.5787  0.0382 -0.1432
 3160SOL    HW120939   4.323   3.810   9.708 -3.4375 -1.0595 -2.3254
 3160SOL    HW220940   4.190   3.809   9.763  1.5795 -1.1434 -2.2996
 3161SOL     OW20941   3.227   3.758   7.123  0.4140  0.1849 -0.0498
 3161SOL    HW120942   3.280   3.728   7.049 -1.4281  2.2023 -2.1758
 3161SOL    HW220943   3.302   3.783   7.176 -2.0954  1.7439  2.7057
 3162SOL     OW20944   0.009   4.521   7.862 -0.1903 -0.5555 -0.4464
 3162SOL    HW120945   4.694   4.449   7.912  0.4505 -0.2511  0.4653
 3162SOL    HW220946   0.034   4.582   7.931  0.3496 -0.6365 -0.5705
 3163SOL     OW20947   1.276   2.410   8.415 -0.3543  0.1661  0.1989
 3163SOL    HW120948   1.281   2.403   8.510  0.0476 -1.5154  0.0478
 3163SOL    HW220949   1.366   2.419   8.385  0.2003  0.7401  2.0185
 3164SOL     OW20950   3.603   0.382   4.091 -0.3695  0.8518  0.2881
 3164SOL    HW120951   3.580   0.452   4.152 -0.0107  0.9656  0.2890
 3164SOL    HW220952   3.577   0.303   4.137 -0.5616 -0.2135 -1.6481
 3165SOL     OW20953   1.119   4.544   1.076 -0.1123  1.0661 -0.0125
 3165SOL    HW120954   1.206   4.583   1.062  0.2997  0.4897  0.9625
 3165SOL    HW220955   1.059   4.608   1.038 -1.1787  1.5861  2.6135
 3166SOL     OW20956   0.317   4.564   7.262  0.2468  0.5695 -0.1554
 3166SOL    HW120957   0.310   4.477   7.224  0.3184  0.0520  1.0289
 3166SOL    HW220958   0.372   4.603   7.194  0.6830  0.7661  0.3094
 3167SOL     OW20959   0.402   4.129   4.913 -0.2751 -0.7296 -0.6543
 3167SOL    HW120960   0.382   4.103   4.823 -0.4248  0.4389 -0.9598
 3167SOL    HW220961   0.399   4.224   4.900 -0.9788 -0.8079 -1.0366
 3168SOL     OW20962   1.274   0.698   5.859 -0.3003  0.1584 -0.1832
 3168SOL    HW120963   1.200   0.640   5.843  0.3609 -1.1011  1.3539
 3168SOL    HW220964   1.326   0.653   5.925  0.3808  0.2826 -0.6303
 3169SOL     OW20965   0.352   3.501   3.637  0.6473  0.0581 -0.2055
 3169SOL    HW120966   0.414   3.568   3.667 -0.8890  0.6637  1.5814
 3169SOL    HW220967   0.344   3.525   3.545 -1.7332 -0.6231 -0.1744
 3170SOL     OW20968   2.542   0.752   7.773 -0.4260  0.5710 -0.2413
 3170SOL    HW120969   2.612   0.765   7.837 -1.4309 -1.3478  1.2568
 3170SOL    HW220970   2.585   0.702   7.705 -0.8791 -0.4018  0.1858
 3171SOL     OW20971   0.143   1.289   5.897 -0.0418 -0.0282  0.2333
 3171SOL    HW120972   0.200   1.318   5.826  0.5698  0.9241  1.1175
 3171SOL    HW220973   0.186   1.309   5.980 -0.7083  0.3416  0.4875
 3172SOL     OW20974   0.079   2.902   4.142  0.6205  0.2105  0.2364
 3172SOL    HW120975   0.061   2.812   4.115  2.7202 -0.1381 -0.0253
 3172SOL    HW220976   0.061   2.896   4.235 -0.8325  0.1017 -0.0518
 3173SOL     OW20977   0.748   3.873   4.111 -0.8594 -0.3614  0.2416
 3173SOL    HW120978   0.791   3.793   4.080 -0.2633  0.3366 -0.7392
 3173SOL    HW220979   0.704   3.891   4.028 -1.3104  1.0600  0.7893
 3174SOL     OW20980   1.859   0.924  16.395 -0.1444  0.0223 -0.0857
 3174SOL    HW120981   1.934   0.914  16.335 -0.3797  0.1261 -0.3964
 3174SOL    HW220982   1.787   0.903  16.336  1.4149 -0.6214 -1.7590
 3175SOL     OW20983   4.165   4.582   5.926  0.2749  0.1062  0.2682
 3175SOL    HW120984   4.137   4.510   5.982  3.4752  0.0320  1.7747
 3175SOL    HW220985   4.082   4.606   5.884  0.1446 -1.3488 -0.3008
 3176SOL     OW20986   3.708   3.194   5.469 -0.5172  0.1758 -1.0783
 3176SOL    HW120987   3.626   3.217   5.515  1.5273  2.1463  1.6205
 3176SOL    HW220988   3.681   3.107   5.441  0.3645  0.0936 -1.6536
 3177SOL     OW20989   1.451   1.379   2.577 -0.2931  0.2369  0.5515
 3177SOL    HW120990   1.439   1.390   2.671  0.8786 -0.3686  0.7645
 3177SOL    HW220991   1.386   1.309   2.565  0.0229  0.1040 -0.3680
 3178SOL     OW20992   0.681   2.832   8.593 -0.4756 -0.3640 -0.8285
 3178SOL    HW120993   0.714   2.906   8.644  0.1036 -0.3897 -1.1603
 3178SOL    HW220994   0.620   2.807   8.662  1.1787 -0.8901  0.4466
 3179SOL     OW20995   2.096   4.274   3.797 -0.3839  0.3807 -0.4001
 3179SOL    HW120996   2.178   4.250   3.842 -1.4246  0.0999  1.3650
 3179SOL    HW220997   2.050   4.190   3.790  0.2573 -0.0755  0.6545
 3180SOL     OW20998   2.840   2.058   8.430 -0.4357 -0.0625  0.8458
 3180SOL    HW120999   2.851   2.140   8.381  2.2984  0.3389  2.1601
 3180SOL    HW221000   2.762   2.083   8.479  0.2009  0.4162  1.6016
 3181SOL     OW21001   4.343   1.007   7.581  0.0406 -0.2939 -0.5760
 3181SOL    HW121002   4.331   1.085   7.526  2.3769  0.0940 -0.5455
 3181SOL    HW221003   4.252   0.987   7.603 -0.0176  2.8878  2.0849
 3182SOL     OW21004   4.578   2.344   2.174 -0.3940  0.7649 -0.3513
 3182SOL    HW121005   4.635   2.279   2.134  2.1928  1.4542  2.2228
 3182SOL    HW221006   4.610   2.353   2.264 -1.5353 -0.3825  0.1756
 3183SOL     OW21007   1.520   0.650   5.473 -0.3066 -0.0823  0.2709
 3183SOL    HW121008   1.532   0.691   5.559  0.9930  1.1800 -0.5161
 3183SOL    HW221009   1.585   0.580   5.478  0.2691  0.6647  3.1905
 3184SOL     OW21010   0.400   0.071  15.521  0.0714  0.0946 -0.2515
 3184SOL    HW121011   0.324   0.089  15.467  0.7378 -1.9146 -1.8279
 3184SOL    HW221012   0.391   0.133  15.593  0.7913  1.0541 -0.9957
 3185SOL     OW21013   3.632   1.288   0.929  0.2125  0.6425 -0.5008
 3185SOL    HW121014   3.674   1.343   0.862  2.3877 -0.6084 -0.1399
 3185SOL    HW221015   3.708   1.233   0.947 -0.7565 -0.5383 -0.0135
 3186SOL     OW21016   3.808   0.773  15.208  0.1847  0.1255 -0.6267
 3186SOL    HW121017   3.723   0.815  15.195 -0.9891 -1.4727  1.8361
 3186SOL    HW221018   3.869   0.845  15.223 -0.6117  0.7876 -0.5759
 3187SOL     OW21019   1.849   2.011   4.947  0.3248  0.3320 -0.7415
 3187SOL    HW121020   1.813   1.937   4.898  0.8416 -0.2816 -0.2036
 3187SOL    HW221021   1.856   2.081   4.883  1.3524  0.7430 -0.1894
 3188SOL     OW21022   2.970   2.341  11.915  0.1868 -0.2858  0.3048
 3188SOL    HW121023   2.934   2.361  11.829  1.3778  0.5160 -0.0216
 3188SOL    HW221024   3.011   2.422  11.946 -0.1626 -0.2385  0.6334
 3189SOL     OW21025   4.564   0.638   0.324 -0.3720  1.0592  0.0711
 3189SOL    HW121026   4.549   0.566   0.263  1.0730  1.1961 -0.4493
 3189SOL    HW221027   4.649   0.612   0.359  0.6807  3.2028 -0.8697
 3190SOL     OW21028   1.405   2.923  16.873  0.6919  0.0922 -0.3392
 3190SOL    HW121029   1.379   2.840  16.834 -2.7832  0.5821  1.0100
 3190SOL    HW221030   1.326   2.977  16.871  1.9760  2.0710  2.1192
 3191SOL     OW21031   3.209   2.448   2.925  0.5655 -0.0938  0.5173
 3191SOL    HW121032   3.188   2.500   2.848  2.0575  1.5896  1.2473
 3191SOL    HW221033   3.297   2.486   2.930  1.3084 -1.6106 -1.1040
 3192SOL     OW21034   0.835   3.622   8.811  0.2817  0.0031  0.1175
 3192SOL    HW121035   0.754   3.620   8.760  0.1669 -0.3705  0.3134
 3192SOL    HW221036   0.803   3.668   8.888 -1.8417 -0.5064 -0.4741
 3193SOL     OW21037   2.748   3.562   7.871 -0.1933  0.3349 -0.0854
 3193SOL    HW121038   2.731   3.575   7.777  1.2882 -2.8946 -0.7898
 3193SOL    HW221039   2.821   3.622   7.885 -1.0058  1.2437  0.2788
 3194SOL     OW21040   2.163   2.425   4.023  0.2120 -0.4658 -0.4926
 3194SOL    HW121041   2.097   2.383   4.078 -0.1369  1.4527  0.5258
 3194SOL    HW221042   2.167   2.367   3.946  0.6564 -2.4591  1.0093
 3195SOL     OW21043   1.223   2.061   5.767  0.9024  0.3573  0.6908
 3195SOL    HW121044   1.231   2.154   5.788  2.0066  0.0262  1.7489
 3195SOL    HW221045   1.151   2.038   5.827  0.2672 -1.3626 -0.7246
 3196SOL     OW21046   0.647   3.865   0.864  0.0552 -0.2808  0.1897
 3196SOL    HW121047   0.690   3.904   0.940  1.0989  0.0314 -0.5624
 3196SOL    HW221048   0.591   3.804   0.912 -1.6349 -0.1012 -1.5097
 3197SOL     OW21049   3.906   4.662   5.856  0.4970  0.0140 -0.6949
 3197SOL    HW121050   3.904   4.677   5.950  1.4850  1.5496 -0.9348
 3197SOL    HW221051   3.849   0.005   5.818 -2.5426 -0.3443  3.1953
 3198SOL     OW21052   2.336   4.534   2.454 -0.3276 -0.4045  0.5881
 3198SOL    HW121053   2.308   4.461   2.399  1.0373 -1.1927  0.9501
 3198SOL    HW221054   2.395   4.579   2.394  1.7043 -0.3672  2.6242
 3199SOL     OW21055   0.875   2.065   3.909 -0.1899 -0.3156  0.1406
 3199SOL    HW121056   0.842   1.997   3.850 -1.0140 -0.3962  0.6925
 3199SOL    HW221057   0.789   2.102   3.927  0.0207 -0.4812  1.4209
 3200SOL     OW21058   0.041   2.355   2.728  0.4418  0.4592  0.3219
 3200SOL    HW121059   0.038   2.284   2.792 -0.8892 -0.8056 -1.1470
 3200SOL    HW221060   0.131   2.352   2.693  0.1463 -0.4858 -0.3767
 3201SOL     OW21061   2.950   1.871   5.936  0.3221  0.3819 -0.4967
 3201SOL    HW121062   2.992   1.791   5.967  0.0978 -0.4542 -2.3784
 3201SOL    HW221063   2.955   1.849   5.843 -3.8919 -0.2814 -0.5531
 3202SOL     OW21064   1.612   2.773   6.440 -0.0333  0.4964  0.0556
 3202SOL    HW121065   1.637   2.697   6.388  0.0474 -0.2474  1.1865
 3202SOL    HW221066   1.580   2.835   6.374 -0.6395 -0.8981 -0.9558
 3203SOL     OW21067   3.601   0.888   1.545 -0.2523 -0.0205 -0.0181
 3203SOL    HW121068   3.660   0.877   1.620 -0.6210 -3.4401 -0.2354
 3203SOL    HW221069   3.628   0.974   1.514 -0.1822 -0.1280 -0.2544
 3204SOL     OW21070   2.750   2.055   0.962  0.1371  0.0131  0.2154
 3204SOL    HW121071   2.712   2.125   0.908  1.0326  0.6667  0.4392
 3204SOL    HW221072   2.731   1.978   0.908  2.2026 -0.7107  0.5444
 3205SOL     OW21073   2.235   1.141  14.909  0.6273  0.1512 -0.0184
 3205SOL    HW121074   2.261   1.103  14.826 -0.7653 -0.1893 -0.2984
 3205SOL    HW221075   2.288   1.220  14.900  1.5182 -0.4147  0.2803
 3206SOL     OW21076   0.238   3.706  15.941  0.6795 -0.1550  0.7567
 3206SOL    HW121077   0.178   3.644  15.900 -0.6222  1.6485 -0.0517
 3206SOL    HW221078   0.286   3.746  15.869  0.8118 -2.0253 -0.1915
 3207SOL     OW21079   3.944   0.100   2.441  0.1094  0.5640 -0.1345
 3207SOL    HW121080   3.932   0.008   2.415 -0.5839  0.4772  0.5120
 3207SOL    HW221081   4.011   0.135   2.382  0.2322  1.4771  0.5578
 3208SOL     OW21082   1.544   3.987   3.500 -0.9642 -0.9205  0.3991
 3208SOL    HW121083   1.522   3.902   3.463  0.6443 -1.8768  1.6902
 3208SOL    HW221084   1.629   3.994   3.458 -2.0805 -0.0105 -1.7304
 3209SOL     OW21085   1.079   0.291   3.706 -0.5719 -0.0608  0.1452
 3209SOL    HW121086   1.039   0.338   3.779 -1.3165 -0.4275 -0.0327
 3209SOL    HW221087   1.164   0.335   3.697  0.1120 -0.7510  2.9522
 3210SOL     OW21088   2.968   3.499   4.215 -0.0490 -0.0039  0.1573
 3210SOL    HW121089   2.975   3.416   4.263  0.0678 -0.3538 -0.4677
 3210SOL    HW221090   3.027   3.486   4.141  0.4656  0.9718  0.3978
 3211SOL     OW21091   2.691   4.278   8.242  0.4219  0.5045  0.5571
 3211SOL    HW121092   2.642   4.315   8.315  0.5415  1.2903  0.2435
 3211SOL    HW221093   2.718   4.362   8.205  0.9763  0.6513  1.2923
 3212SOL     OW21094   2.677   0.958   7.187 -0.1471 -0.7970 -0.1622
 3212SOL    HW121095   2.640   0.871   7.172  1.1764 -1.3138 -0.4072
 3212SOL    HW221096   2.616   1.025   7.154  2.3481  2.3448  1.5432
 3213SOL     OW21097   2.508   4.626   7.482  0.0386  0.6710 -0.2952
 3213SOL    HW121098   2.533   4.537   7.507  1.6053  1.3087  0.4043
 3213SOL    HW221099   2.423   4.644   7.522  0.1824 -0.1945  0.3797
 3214SOL     OW21100   0.945   4.140   2.244  0.4802 -0.7067  0.5858
 3214SOL    HW121101   0.901   4.098   2.317 -1.3699  1.1632  0.5198
 3214SOL    HW221102   1.031   4.098   2.236  1.5877  1.6375  0.1292
 3215SOL     OW21103   2.073   1.045   6.248 -0.4220  0.0877  0.1265
 3215SOL    HW121104   2.020   1.119   6.217 -0.3785  0.4661  0.9522
 3215SOL    HW221105   2.062   1.054   6.343 -1.8604 -1.0262  0.0677
 3216SOL     OW21106   2.370   1.878   8.986  0.1482  0.0789 -0.1693
 3216SOL    HW121107   2.359   1.889   9.080 -1.2930 -2.6799 -0.0285
 3216SOL    HW221108   2.282   1.870   8.950  0.4690 -0.9209 -0.7377
 3217SOL     OW21109   2.299   4.029  17.649 -0.6044 -0.3248  0.4160
 3217SOL    HW121110   2.231   4.027   0.023 -0.5389 -0.1785  0.4870
 3217SOL    HW221111   2.306   3.937  17.626  0.4301  0.2853 -1.7486
 3218SOL     OW21112   2.452   4.359   2.872 -0.2465 -0.0453  0.5974
 3218SOL    HW121113   2.443   4.450   2.901  2.0104  1.3590 -3.0101
 3218SOL    HW221114   2.362   4.336   2.851  1.0095 -4.9106  0.5839
 3219SOL     OW21115   4.083   1.212   9.856 -0.0065 -0.8893  0.2859
 3219SOL    HW121116   4.116   1.217   9.946 -1.7255 -1.7526  0.9630
 3219SOL    HW221117   4.156   1.251   9.808 -0.2185 -2.4918 -1.3465
 3220SOL     OW21118   0.075   2.883   4.406  0.2667 -0.0462  0.4735
 3220SOL    HW121119   0.123   2.876   4.489  0.7360 -0.6426  0.1478
 3220SOL    HW221120   4.708   2.879   4.438  0.6710 -0.3175  1.5671
 3221SOL     OW21121   0.777   4.473   0.601  0.0615  0.2904  0.1279
 3221SOL    HW121122   0.776   4.480   0.505 -0.2682 -0.9536  0.0425
 3221SOL    HW221123   0.873   4.474   0.607 -0.0203 -0.3233  1.5329
 3222SOL     OW21124   3.468   3.146  14.851 -0.6627  0.1841 -0.0155
 3222SOL    HW121125   3.397   3.190  14.897 -1.3186 -2.7670  1.8309
 3222SOL    HW221126   3.469   3.066  14.904  2.5812  0.9042  1.0191
 3223SOL     OW21127   1.102   1.586   6.690 -0.4676 -0.5155  0.0519
 3223SOL    HW121128   1.170   1.652   6.678 -1.0619  0.0625 -0.1636
 3223SOL    HW221129   1.121   1.526   6.617 -0.8300  2.6218 -2.6326
 3224SOL     OW21130   4.591   3.771   8.726 -0.1304  0.4022  0.3529
 3224SOL    HW121131   4.567   3.854   8.765  2.0232  1.8024 -1.3089
 3224SOL    HW221132   4.638   3.719   8.791  0.6172 -0.5982 -0.9569
 3225SOL     OW21133   1.520   3.027  10.845  0.1965  0.5677  0.2000
 3225SOL    HW121134   1.478   3.090  10.903 -0.9760 -0.3473  0.3398
 3225SOL    HW221135   1.468   2.950  10.865  1.5333 -0.5074 -0.4941
 3226SOL     OW21136   4.023   0.166   3.931  0.2135  0.6769 -0.0760
 3226SOL    HW121137   4.065   0.236   3.881 -0.5231  1.4993  0.4550
 3226SOL    HW221138   3.957   0.218   3.977  0.7396  1.4701 -0.2109
 3227SOL     OW21139   2.390   3.276   3.939 -0.1767  0.3724  0.3099
 3227SOL    HW121140   2.388   3.182   3.957 -1.1821  0.4141  0.4458
 3227SOL    HW221141   2.327   3.308   4.003 -1.5295 -1.5259 -0.0689
 3228SOL     OW21142   0.928   2.577  16.251  0.1854  1.0128 -0.2853
 3228SOL    HW121143   0.931   2.600  16.344  2.3632 -0.6388  0.0458
 3228SOL    HW221144   1.018   2.557  16.224  0.1610 -0.1060  0.4228
 3229SOL     OW21145   3.135   4.404   7.184  0.0040  0.6862 -0.6625
 3229SOL    HW121146   3.151   4.325   7.133  0.2875  0.1631  0.2471
 3229SOL    HW221147   3.222   4.442   7.199  0.0977  0.1339  0.1950
 3230SOL     OW21148   2.918   2.173   1.757  0.5145  0.0219 -0.1509
 3230SOL    HW121149   2.893   2.088   1.793  2.5697  0.5946  2.6611
 3230SOL    HW221150   2.846   2.195   1.699  2.5036  2.7740 -1.5679
 3231SOL     OW21151   2.497   2.110  11.308  0.3534  0.0320  0.0054
 3231SOL    HW121152   2.461   2.189  11.348 -1.3798  0.2432 -2.0132
 3231SOL    HW221153   2.582   2.139  11.275 -0.1471  0.1679 -1.1336
 3232SOL     OW21154   0.894   1.488   6.016  0.1416  0.2817  0.7473
 3232SOL    HW121155   0.894   1.440   5.934 -0.8098  1.7661 -0.1193
 3232SOL    HW221156   0.957   1.557   5.997  0.5537 -0.7185 -1.4956
 3233SOL     OW21157   1.096   0.969   4.448  0.2099 -0.5659  0.2150
 3233SOL    HW121158   1.136   1.041   4.400  1.5716 -2.2242 -1.1515
 3233SOL    HW221159   1.051   0.924   4.376  0.6364  0.0832 -0.4576
 3234SOL     OW21160   2.023   4.449   1.171  1.2724 -0.4232  0.2110
 3234SOL    HW121161   1.939   4.486   1.200  0.3674 -1.5230 -1.0043
 3234SOL    HW221162   2.007   4.358   1.194 -3.1118 -0.4511 -2.9016
 3235SOL     OW21163   4.255   2.411  13.156  0.9268 -0.1394 -0.0595
 3235SOL    HW121164   4.304   2.491  13.138 -3.2693  2.8026  1.4648
 3235SOL    HW221165   4.303   2.350  13.101  0.9581  1.7442 -2.1076
 3236SOL     OW21166   1.345   1.357   8.231  0.0720  0.2675  0.3088
 3236SOL    HW121167   1.424   1.411   8.231 -0.5023  1.1154 -0.3913
 3236SOL    HW221168   1.368   1.265   8.241  0.2293  0.4917  2.0831
 3237SOL     OW21169   2.816   1.273  16.491 -0.3169  0.1718 -0.3142
 3237SOL    HW121170   2.853   1.256  16.577  1.3160  1.5304 -0.7598
 3237SOL    HW221171   2.899   1.280  16.443  0.9190 -0.2066  1.7928
 3238SOL     OW21172   4.082   3.351   7.060  0.0209  0.0279 -0.3301
 3238SOL    HW121173   4.060   3.286   6.994  3.4375 -0.8732 -0.5756
 3238SOL    HW221174   4.071   3.437   7.019 -2.4049  0.4178  1.1910
 3239SOL     OW21175   0.894   4.495   7.333 -0.3289  0.2054 -0.1387
 3239SOL    HW121176   0.950   4.573   7.339 -0.9519  0.5804  0.8697
 3239SOL    HW221177   0.910   4.475   7.241  1.3360 -0.7612  0.3707
 3240SOL     OW21178   2.271   3.791   6.731 -0.5009 -0.2768  0.6344
 3240SOL    HW121179   2.219   3.787   6.812 -0.6696 -4.4623  0.3158
 3240SOL    HW221180   2.276   3.885   6.714  1.8074 -0.4133  0.6505
 3241SOL     OW21181   2.521   4.086   2.256 -0.5057  0.0065 -0.4353
 3241SOL    HW121182   2.436   4.064   2.295 -0.7493 -0.2928 -1.1271
 3241SOL    HW221183   2.499   4.138   2.178 -0.9689  2.6380  1.4818
 3242SOL     OW21184   4.233   0.645   7.445  0.0297 -0.0280 -0.3983
 3242SOL    HW121185   4.306   0.691   7.403 -0.4304  0.9463 -0.1232
 3242SOL    HW221186   4.158   0.688   7.405 -2.1671 -1.2687  2.4086
 3243SOL     OW21187   2.118   1.879  14.164  0.0596 -0.1597  0.1667
 3243SOL    HW121188   2.186   1.942  14.189  0.2253 -0.7736  1.2712
 3243SOL    HW221189   2.080   1.859  14.249 -0.0880 -1.9444 -0.3110
 3244SOL     OW21190   0.093   3.395   5.114  0.4470 -0.2003 -0.7705
 3244SOL    HW121191   0.084   3.457   5.186 -2.4168 -0.5268 -0.8713
 3244SOL    HW221192   0.005   3.366   5.094  0.0271  0.7627 -0.3239
 3245SOL     OW21193   0.026   0.611   7.798  0.9094  0.4445  0.4768
 3245SOL    HW121194   4.657   0.617   7.774  0.9935 -0.6638 -0.1041
 3245SOL    HW221195   0.023   0.646   7.887 -1.3737  0.8158  0.2488
 3246SOL     OW21196   4.474   4.038   2.849 -0.5627  0.1641  0.0443
 3246SOL    HW121197   4.449   3.957   2.804 -1.5707 -0.4854  1.7673
 3246SOL    HW221198   4.546   4.059   2.790 -1.0803  1.7725 -0.0168
 3247SOL     OW21199   3.049   1.245  16.337  0.6450 -0.2825  0.3684
 3247SOL    HW121200   2.986   1.195  16.284 -0.6630  0.5257  1.1595
 3247SOL    HW221201   3.131   1.215  16.297  1.0185 -2.7068  2.9423
 3248SOL     OW21202   1.309   1.541   0.846  0.3935  0.2316  0.1108
 3248SOL    HW121203   1.392   1.566   0.887  0.1577  2.1317 -0.5448
 3248SOL    HW221204   1.276   1.477   0.909 -1.2075  0.4525 -0.4918
 3249SOL     OW21205   1.990   0.260   2.738  0.1845  0.4060 -0.1293
 3249SOL    HW121206   2.028   0.253   2.825 -3.3152  1.5613  1.4953
 3249SOL    HW221207   1.895   0.258   2.751  0.0794  0.4711 -0.8855
 3250SOL     OW21208   1.823   3.969   2.458  0.0980 -0.3130 -0.6256
 3250SOL    HW121209   1.730   3.944   2.460 -0.1907  0.8206  0.5712
 3250SOL    HW221210   1.864   3.928   2.534 -0.7246  0.0440  0.0134
 3251SOL     OW21211   4.316   2.102   9.809 -0.1323 -0.2790 -0.2070
 3251SOL    HW121212   4.237   2.084   9.758 -0.5144 -0.2401  0.3742
 3251SOL    HW221213   4.358   2.017   9.797  0.6690 -0.1609  1.8641
 3252SOL     OW21214   1.792   2.895   8.150  0.0260  0.0070 -0.4364
 3252SOL    HW121215   1.825   2.870   8.236  0.6241  1.1012 -0.3519
 3252SOL    HW221216   1.703   2.926   8.167  0.0180  0.0889 -0.6295
 3253SOL     OW21217   4.550   3.650  15.621 -0.1268 -0.6026  0.0389
 3253SOL    HW121218   4.619   3.693  15.672  0.8234 -0.3123 -1.5015
 3253SOL    HW221219   4.528   3.717  15.556  0.7958 -0.2876  0.0521
 3254SOL     OW21220   2.282   2.154   9.665 -0.1689 -0.1671  0.0060
 3254SOL    HW121221   2.240   2.154   9.579  3.9381  0.9502 -1.9829
 3254SOL    HW221222   2.276   2.059   9.670  1.8442 -0.4302 -2.7653
 3255SOL     OW21223   0.256   3.157   0.400  0.3000  0.1496 -0.9114
 3255SOL    HW121224   0.293   3.074   0.370  2.5208  0.2734  1.5234
 3255SOL    HW221225   0.184   3.167   0.337 -0.5171  0.0733  0.0044
 3256SOL     OW21226   3.702   0.189   8.614  0.4768 -0.2044  0.1671
 3256SOL    HW121227   3.698   0.135   8.535  0.3735  0.5243 -0.3179
 3256SOL    HW221228   3.697   0.119   8.679  1.8540  1.9877  2.6217
 3257SOL     OW21229   3.593   2.405   8.675 -0.0527 -0.3522  0.4678
 3257SOL    HW121230   3.515   2.453   8.703 -1.5386 -0.8543 -2.8816
 3257SOL    HW221231   3.621   2.439   8.590 -1.0975 -1.5354 -0.3342
 3258SOL     OW21232   1.489   1.825   7.470 -0.8948  0.2946 -0.5398
 3258SOL    HW121233   1.446   1.750   7.512  2.0379 -0.3452  1.3346
 3258SOL    HW221234   1.474   1.893   7.536 -0.0943 -0.1312  0.0870
 3259SOL     OW21235   3.288   1.661  14.319 -0.4732  0.0408  0.1446
 3259SOL    HW121236   3.359   1.611  14.359  0.1471  0.2693 -0.6719
 3259SOL    HW221237   3.218   1.673  14.383  1.6954  3.5804  1.8617
 3260SOL     OW21238   3.363   1.911   0.438 -0.0327  0.6484  0.1422
 3260SOL    HW121239   3.407   1.848   0.380 -0.8098 -0.0368  0.2954
 3260SOL    HW221240   3.320   1.852   0.501 -1.0027 -0.0648 -1.1952
 3261SOL     OW21241   4.688   4.069   8.318 -0.3961  0.2773 -0.0280
 3261SOL    HW121242   4.634   4.007   8.367  0.5628 -1.7255 -1.5229
 3261SOL    HW221243   4.695   4.137   8.385 -1.9380  0.6950 -0.3059
 3262SOL     OW21244   1.097   1.363   2.701 -0.2576  0.1374  0.1165
 3262SOL    HW121245   1.043   1.314   2.639 -2.0208  0.4689  1.4061
 3262SOL    HW221246   1.039   1.382   2.775 -0.0196  1.8749 -0.1394
 3263SOL     OW21247   1.451   3.944   0.998  0.3327 -0.1703  0.0463
 3263SOL    HW121248   1.531   3.897   0.974  0.2460 -0.0201 -0.5456
 3263SOL    HW221249   1.460   3.940   1.093  2.0869 -0.3505 -0.1170
 3264SOL     OW21250   4.625   3.057   1.475 -0.0332 -0.3569  0.4779
 3264SOL    HW121251   4.671   3.003   1.411  0.6971 -0.6777  1.2690
 3264SOL    HW221252   4.542   3.011   1.481  0.0557 -0.5085  0.5665
 3265SOL     OW21253   1.801   0.829   5.834  1.0868 -0.8751  0.2945
 3265SOL    HW121254   1.861   0.758   5.812 -0.0289 -1.9742  0.7648
 3265SOL    HW221255   1.735   0.777   5.881 -0.4609  1.2138  0.4258
 3266SOL     OW21256   2.858   3.854   0.634  0.2476  0.1472 -0.6823
 3266SOL    HW121257   2.949   3.822   0.632 -0.2294 -1.2407  1.1803
 3266SOL    HW221258   2.860   3.922   0.701 -1.7488  0.5019 -0.9901
 3267SOL     OW21259   3.717   4.258   7.416 -0.4937 -0.2027  0.2579
 3267SOL    HW121260   3.662   4.326   7.454 -1.3346 -0.2884 -0.8394
 3267SOL    HW221261   3.707   4.190   7.484  0.8027  0.2013  0.8595
 3268SOL     OW21262   1.750   1.488   8.181  0.0144  0.2753 -0.2977
 3268SOL    HW121263   1.685   1.487   8.111 -0.2318 -0.5312 -0.0591
 3268SOL    HW221264   1.742   1.396   8.208  0.5666  0.3165  0.0155
 3269SOL     OW21265   2.093   2.198   2.746  0.0845  0.5977 -0.1589
 3269SOL    HW121266   2.045   2.198   2.664  0.8857 -0.6494 -0.6194
 3269SOL    HW221267   2.095   2.103   2.755  1.4382  0.4180 -2.3825
 3270SOL     OW21268   1.153   0.012  16.111 -0.3935  0.6181  0.2035
 3270SOL    HW121269   1.172   4.646  16.081  0.9427  0.7221  0.7592
 3270SOL    HW221270   1.103   0.039  16.034  0.6048  0.8259 -0.3673
 3271SOL     OW21271   4.199   3.008   5.320  0.3414  0.2254  0.2100
 3271SOL    HW121272   4.133   3.044   5.379 -0.4139 -1.0263  0.1124
 3271SOL    HW221273   4.279   3.013   5.373  1.1598  0.6780 -1.0457
 3272SOL     OW21274   1.015   0.304   6.651 -0.3390  0.1290 -0.1434
 3272SOL    HW121275   1.007   0.233   6.587 -0.4227  2.2789 -2.5552
 3272SOL    HW221276   1.021   0.379   6.591  2.3925 -1.5760 -2.0695
 3273SOL     OW21277   2.173   2.146   9.432 -0.4846  0.3742  0.0092
 3273SOL    HW121278   2.165   2.198   9.352 -1.3034  1.1485  0.6003
 3273SOL    HW221279   2.092   2.095   9.433 -0.6391  0.6432  0.8650
 3274SOL     OW21280   3.821   1.640   9.466  0.2097  0.2453 -0.1701
 3274SOL    HW121281   3.893   1.652   9.405 -1.6808  1.2281 -2.1881
 3274SOL    HW221282   3.785   1.555   9.439 -2.0311  1.3478 -0.6787
 3275SOL     OW21283   3.324   3.011   8.822  0.1662  0.4789 -0.5165
 3275SOL    HW121284   3.287   2.923   8.828  2.2322 -0.2503  1.6117
 3275SOL    HW221285   3.265   3.040   8.752 -1.8521  1.8504  1.7527
 3276SOL     OW21286   3.126   2.254  12.173  0.7135 -0.6422  0.1456
 3276SOL    HW121287   3.202   2.283  12.122 -0.5787  0.4930 -1.1156
 3276SOL    HW221288   3.148   2.283  12.262 -1.8569 -1.3676  1.0196
 3277SOL     OW21289   3.813   3.575   9.087  0.4453  0.5372  0.2875
 3277SOL    HW121290   3.828   3.508   9.155 -0.0484  0.5212  0.3804
 3277SOL    HW221291   3.895   3.569   9.038 -0.3682 -0.9387 -0.9145
 3278SOL     OW21292   0.418   4.130  15.738  0.1714 -0.1959  0.0935
 3278SOL    HW121293   0.352   4.184  15.695  2.0139  1.7991 -0.2215
 3278SOL    HW221294   0.503   4.169  15.717 -0.7206  0.8925 -1.4792
 3279SOL     OW21295   4.017   4.117  16.184 -0.3375 -0.1103 -0.1515
 3279SOL    HW121296   3.979   4.139  16.099 -2.0357 -1.9680  0.1203
 3279SOL    HW221297   3.976   4.032  16.200  0.5337 -0.5446 -0.2393
 3280SOL     OW21298   2.374   0.273   6.398  0.0169  0.2813  0.0777
 3280SOL    HW121299   2.387   0.366   6.380 -1.1360  0.5264  0.5011
 3280SOL    HW221300   2.363   0.264   6.492  1.8601  1.3393  0.3890
 3281SOL     OW21301   3.033   1.946   5.117  0.0373 -0.9230  0.1622
 3281SOL    HW121302   3.031   1.868   5.172 -0.0592  0.5337  2.2315
 3281SOL    HW221303   3.093   1.926   5.045  1.6131  0.9840  0.9304
 3282SOL     OW21304   0.108   4.534   5.794  0.5038  0.2481  0.2971
 3282SOL    HW121305   0.096   4.629   5.800  0.3181  0.2607 -0.3364
 3282SOL    HW221306   0.178   4.521   5.858  1.8306  1.8408 -0.8350
 3283SOL     OW21307   3.387   0.239   8.678  0.1263 -0.1434  0.6672
 3283SOL    HW121308   3.312   0.272   8.728  1.8529  0.8280  2.6229
 3283SOL    HW221309   3.417   0.168   8.734  1.6797  1.9809  2.5133
 3284SOL     OW21310   4.326   1.882   0.021 -0.4848 -0.0053 -0.5131
 3284SOL    HW121311   4.245   1.918  17.679  0.9023  0.4669 -3.1354
 3284SOL    HW221312   4.376   1.874  17.634  2.3510  0.0551  1.2266
 3285SOL     OW21313   2.927   2.953   8.708 -0.3440  0.2934  0.2341
 3285SOL    HW121314   2.977   3.025   8.670 -0.1825 -1.1242 -2.2859
 3285SOL    HW221315   2.971   2.869   8.695  0.6260  0.9584 -0.7447
 3286SOL     OW21316   2.922   3.038   0.415  0.0082 -0.4010  0.1672
 3286SOL    HW121317   2.928   3.122   0.370 -0.0111  0.5578  1.9859
 3286SOL    HW221318   2.928   2.987   0.334  1.5797  0.4755 -0.2711
 3287SOL     OW21319   1.263   2.942   7.267  0.0506  0.0455 -0.2349
 3287SOL    HW121320   1.236   2.902   7.184  0.7477 -0.6997 -0.0970
 3287SOL    HW221321   1.279   2.863   7.318  0.1112 -0.7536 -1.4993
 3288SOL     OW21322   4.109   1.579   3.802  0.4920 -0.1520  0.0296
 3288SOL    HW121323   4.151   1.493   3.799  1.1894  0.1541  1.2839
 3288SOL    HW221324   4.180   1.630   3.841 -0.5038 -0.1333  1.8215
 3289SOL     OW21325   2.953   0.674   4.845 -0.0600  0.0529  0.0424
 3289SOL    HW121326   3.031   0.618   4.842  0.3956  0.6505  0.9737
 3289SOL    HW221327   2.932   0.690   4.753 -0.1400 -1.0549 -0.1306
 3290SOL     OW21328   2.016   3.997   6.921  0.6278  0.2199  0.1942
 3290SOL    HW121329   1.965   3.916   6.923 -1.7410  1.7211 -0.0049
 3290SOL    HW221330   1.959   4.069   6.896  0.4624 -0.6480 -1.9142
 3291SOL     OW21331   1.555   1.305   6.391  0.1430 -0.3289  0.3366
 3291SOL    HW121332   1.569   1.309   6.297  0.2658 -1.1175  0.3269
 3291SOL    HW221333   1.582   1.214   6.397  1.7201  0.1698  1.0037
 3292SOL     OW21334   2.739   2.597   3.549  0.0158 -0.2108  0.6522
 3292SOL    HW121335   2.778   2.649   3.478 -2.6899  0.2150 -0.5194
 3292SOL    HW221336   2.814   2.543   3.574 -0.2320 -0.5036  0.7579
 3293SOL     OW21337   2.884   2.011  11.306  0.0736  0.2165 -0.3418
 3293SOL    HW121338   2.831   2.087  11.330  3.1929  2.4916 -0.6251
 3293SOL    HW221339   2.891   2.020  11.211  0.5096  1.6677 -0.1746
 3294SOL     OW21340   1.400   4.211   8.580  0.9304 -0.0001  0.1216
 3294SOL    HW121341   1.402   4.292   8.630 -0.4434  0.6879 -0.9165
 3294SOL    HW221342   1.334   4.162   8.630 -1.6169  3.8497  0.5169
 3295SOL     OW21343   3.234   0.256   9.982 -0.1929 -0.4171  0.5218
 3295SOL    HW121344   3.236   0.162   9.968  4.0557 -0.8660  4.4823
 3295SOL    HW221345   3.160   0.286   9.929  0.0457  0.8447  0.9013
 3296SOL     OW21346   3.653   1.155  15.031  0.1121  0.2824  0.1491
 3296SOL    HW121347   3.621   1.236  15.071 -1.1292 -0.3465  0.4493
 3296SOL    HW221348   3.655   1.177  14.938  2.1134  1.5630  0.4954
 3297SOL     OW21349   1.109   3.847   5.259 -0.1202 -0.2593  0.0877
 3297SOL    HW121350   1.038   3.909   5.276 -1.1409 -0.7430 -2.3998
 3297SOL    HW221351   1.076   3.765   5.296  0.1369 -0.1202  0.6330
 3298SOL     OW21352   2.552   4.506  10.191  0.0432 -0.5159  0.4769
 3298SOL    HW121353   2.645   4.483  10.196  1.6595  5.7304 -0.9299
 3298SOL    HW221354   2.523   4.447  10.121 -0.9137 -0.8363  1.1369
 3299SOL     OW21355   4.324   4.648   3.988  0.3279 -0.5830  0.4428
 3299SOL    HW121356   4.241   4.618   3.951  1.2933 -1.1967 -1.2034
 3299SOL    HW221357   4.299   4.644   4.081  0.5064  0.7392  0.5388
 3300SOL     OW21358   3.112   4.132   5.066  0.0918 -0.4021 -0.2337
 3300SOL    HW121359   3.057   4.059   5.094  0.6558  0.2569  2.5587
 3300SOL    HW221360   3.099   4.194   5.138  1.5955  1.6778 -1.7545
 3301SOL     OW21361   4.243   0.915   0.478  0.2874  0.4040  0.1956
 3301SOL    HW121362   4.191   0.943   0.554 -0.0215 -0.3499  0.2531
 3301SOL    HW221363   4.215   0.824   0.471  1.3318  0.1921 -1.1426
 3302SOL     OW21364   1.022   2.178   5.955  0.1816 -0.4909 -0.3823
 3302SOL    HW121365   0.990   2.264   5.983 -0.5847 -1.4627  1.7233
 3302SOL    HW221366   0.945   2.136   5.915 -1.5068  1.9246  0.3436
 3303SOL     OW21367   2.198   3.293   1.217 -0.1252  0.1127  0.7763
 3303SOL    HW121368   2.260   3.243   1.163 -2.9684 -2.0859 -0.4772
 3303SOL    HW221369   2.140   3.222   1.243 -0.1975  0.6093  1.9486
 3304SOL     OW21370   1.465   4.657   6.083 -0.2094  0.1553  0.1360
 3304SOL    HW121371   1.459   4.637   6.177 -1.8131  1.0226  0.2203
 3304SOL    HW221372   1.547   4.705   6.077 -1.7157  2.8490  1.1126
 3305SOL     OW21373   0.605   3.218   8.905  0.1238  0.3528 -0.4100
 3305SOL    HW121374   0.655   3.159   8.849  2.6174 -0.3878  2.5612
 3305SOL    HW221375   0.668   3.288   8.921  0.7480 -0.1948 -0.4556
 3306SOL     OW21376   2.584   1.753   8.894  0.3874  0.0147  0.1893
 3306SOL    HW121377   2.503   1.798   8.920  0.4204  0.2314 -0.0813
 3306SOL    HW221378   2.563   1.664   8.920 -0.0436 -0.3520 -1.3620
 3307SOL     OW21379   1.316   0.083   1.494 -0.5197 -0.1686  0.0358
 3307SOL    HW121380   1.364   0.104   1.414 -0.4536 -0.8440 -0.1017
 3307SOL    HW221381   1.332   4.712   1.489 -0.6629 -0.0953 -2.0237
 3308SOL     OW21382   3.638   1.853   9.310  0.2151  0.3087  0.0362
 3308SOL    HW121383   3.685   1.823   9.387 -0.3390  2.0364  1.0452
 3308SOL    HW221384   3.566   1.790   9.314  2.1395 -1.6870  2.7627
 3309SOL     OW21385   3.849   1.121  10.143 -1.1203 -0.4675  0.0672
 3309SOL    HW121386   3.811   1.202  10.179 -1.2036 -1.4691  2.1838
 3309SOL    HW221387   3.788   1.057  10.181 -1.6200  0.1695  0.3464
 3310SOL     OW21388   4.481   0.802   7.010 -0.0484  0.1016  0.1526
 3310SOL    HW121389   4.519   0.786   6.924 -0.9571  0.5701 -0.3253
 3310SOL    HW221390   4.565   0.807   7.057 -0.6947 -3.2639  1.6932
 3311SOL     OW21391   2.538   2.229   7.257  0.5112  0.1050  0.1888
 3311SOL    HW121392   2.461   2.171   7.255  0.5088  0.1493 -1.0762
 3311SOL    HW221393   2.490   2.310   7.243  1.8226  0.8330 -0.0948
 3312SOL     OW21394   3.954   0.689   5.281  0.7005  0.3180  0.0143
 3312SOL    HW121395   4.003   0.688   5.364  0.4173  0.3267  0.1815
 3312SOL    HW221396   4.026   0.676   5.220  0.9491 -1.1860  0.6110
 3313SOL     OW21397   3.691   1.936  10.101  0.4436  0.2407  0.4969
 3313SOL    HW121398   3.683   2.012  10.044 -0.1786  0.3069  0.6736
 3313SOL    HW221399   3.689   1.973  10.189 -2.6599  2.9168 -0.6962
 3314SOL     OW21400   3.144   2.326   5.039  0.3075  0.5637  0.1640
 3314SOL    HW121401   3.157   2.414   5.004  1.2410  0.0989 -0.6351
 3314SOL    HW221402   3.210   2.280   4.987  1.5239  2.6366 -0.1072
 3315SOL     OW21403   3.392   1.190   5.944 -0.5128  0.8784 -0.1301
 3315SOL    HW121404   3.374   1.147   6.027  2.3237 -1.7394 -0.8951
 3315SOL    HW221405   3.381   1.122   5.877 -0.2418 -0.8389  1.5767
 3316SOL     OW21406   2.923   1.923   4.462  0.0338 -0.1214 -0.4523
 3316SOL    HW121407   2.835   1.918   4.500  0.7224 -2.0990  0.9135
 3316SOL    HW221408   2.943   2.016   4.475 -2.2058 -0.0332  2.4865
 3317SOL     OW21409   3.067   3.400   4.555  0.2696 -0.2392  0.2380
 3317SOL    HW121410   3.138   3.427   4.496 -1.2088 -0.6491 -1.7158
 3317SOL    HW221411   3.024   3.339   4.496  0.7565 -0.8012  0.4659
 3318SOL     OW21412   1.481   3.009   0.585  0.0789  0.0811 -0.6940
 3318SOL    HW121413   1.576   3.020   0.581  0.1570 -0.0440  0.6313
 3318SOL    HW221414   1.467   3.102   0.606  0.5732  0.1317 -0.5853
 3319SOL     OW21415   0.932   0.419   8.389  0.2559 -0.5114  0.3325
 3319SOL    HW121416   0.982   0.418   8.471  0.9901  0.1087 -0.1049
 3319SOL    HW221417   0.842   0.426   8.421 -0.0647  0.5685 -0.7992
 3320SOL     OW21418   3.732   3.066  14.671  0.0088  0.0132  0.0588
 3320SOL    HW121419   3.760   3.113  14.749 -2.0295  2.6311 -0.7683
 3320SOL    HW221420   3.689   3.127  14.610 -0.2440  0.4928  0.7152
 3321SOL     OW21421   2.627   1.184   2.215 -0.6150 -0.1638 -0.1101
 3321SOL    HW121422   2.685   1.171   2.290 -0.5129  0.5314 -0.0747
 3321SOL    HW221423   2.583   1.266   2.234 -1.0456 -0.6330  0.9421
 3322SOL     OW21424   2.937   1.675  10.784  0.0924  0.2532 -0.1674
 3322SOL    HW121425   2.954   1.769  10.782 -0.3037  0.2842 -2.5830
 3322SOL    HW221426   2.907   1.665  10.874  0.7384  3.3684  0.4007
 3323SOL     OW21427   1.467   1.574   8.975 -0.2780 -0.5960  0.1471
 3323SOL    HW121428   1.407   1.548   9.045  2.3932 -1.7151  1.9886
 3323SOL    HW221429   1.409   1.554   8.901 -1.3049  1.0173  0.5105
 3324SOL     OW21430   1.087   2.370  16.572  0.0122 -0.1139 -0.0494
 3324SOL    HW121431   1.037   2.335  16.498  0.7136 -2.4590  0.5867
 3324SOL    HW221432   1.025   2.393  16.642  0.1340  0.3928 -0.1066
 3325SOL     OW21433   0.149   2.763   1.420  0.0669 -0.3767 -0.4365
 3325SOL    HW121434   0.108   2.742   1.504 -1.0897  2.0962 -0.3809
 3325SOL    HW221435   0.229   2.802   1.453  1.1210 -0.8509 -2.4460
 3326SOL     OW21436   3.658   2.628   1.590 -0.2969  0.5451 -0.0162
 3326SOL    HW121437   3.714   2.578   1.650 -0.8259  0.0423  0.0634
 3326SOL    HW221438   3.608   2.676   1.656  0.4083  0.8401  0.2992
 3327SOL     OW21439   3.579   3.406   7.952  0.5836 -0.2320  0.3882
 3327SOL    HW121440   3.568   3.338   8.018 -0.3155  0.6616  1.1652
 3327SOL    HW221441   3.667   3.393   7.917 -0.1884  0.6484 -1.8395
 3328SOL     OW21442   0.149   3.365   5.962 -0.0891 -0.2843 -0.6005
 3328SOL    HW121443   0.072   3.384   5.908 -0.8587  1.4313  1.0667
 3328SOL    HW221444   0.100   3.306   6.020  0.5299 -0.5474 -0.3466
 3329SOL     OW21445   0.461   1.836   5.063 -0.2697  0.5557 -0.3622
 3329SOL    HW121446   0.482   1.756   5.112 -2.5279  0.2940  0.2010
 3329SOL    HW221447   0.548   1.876   5.057 -0.3783  1.0404  1.1494
 3330SOL     OW21448   0.029   2.574   5.752  0.8731 -0.1660  0.1196
 3330SOL    HW121449   4.701   2.654   5.735 -1.4743 -1.5857  0.5468
 3330SOL    HW221450   4.685   2.509   5.733  2.6656 -1.9735  0.0268
 3331SOL     OW21451   4.552   4.319   2.996 -0.2891  0.0006 -0.3418
 3331SOL    HW121452   4.475   4.346   2.947 -0.2614 -2.1541 -1.5754
 3331SOL    HW221453   4.535   4.225   2.997  1.5386 -0.3385 -0.3179
 3332SOL     OW21454   2.336   0.881   9.697 -0.1426  0.1931  0.4522
 3332SOL    HW121455   2.358   0.833   9.777 -0.9025 -0.1345  0.4689
 3332SOL    HW221456   2.309   0.809   9.640 -1.2826  1.0751 -0.1046
 3333SOL     OW21457   3.584   2.952   8.322 -0.1280  0.0582  0.5200
 3333SOL    HW121458   3.647   2.925   8.255 -0.6247  0.9829 -0.3166
 3333SOL    HW221459   3.524   2.878   8.314 -1.5385  1.0902  1.5816
 3334SOL     OW21460   0.033   2.849   5.234  0.2681 -0.4164  0.2258
 3334SOL    HW121461   0.060   2.778   5.292  1.3359 -0.3624 -0.2024
 3334SOL    HW221462   4.711   2.914   5.289  3.3463  0.5862  1.5953
 3335SOL     OW21463   2.217   0.467   3.709 -0.0676  0.3044 -0.1333
 3335SOL    HW121464   2.284   0.504   3.651  0.2380 -0.1250 -0.0541
 3335SOL    HW221465   2.141   0.504   3.665  0.3322  1.1129 -0.1498
 3336SOL     OW21466   0.997   2.322   4.901  0.0149  0.2466 -0.1887
 3336SOL    HW121467   0.971   2.414   4.896 -0.0771  0.2624  0.6073
 3336SOL    HW221468   0.969   2.291   4.815 -0.9215 -0.1127  0.2434
 3337SOL     OW21469   2.185   2.469   9.628 -0.4212  0.7339 -0.7322
 3337SOL    HW121470   2.269   2.424   9.636 -0.7301 -0.0322 -1.8128
 3337SOL    HW221471   2.167   2.504   9.715 -1.6538  0.6011 -0.9293
 3338SOL     OW21472   3.531   3.199   5.713 -0.3751  0.0100 -0.2503
 3338SOL    HW121473   3.464   3.137   5.684 -0.8587  0.6376 -0.4794
 3338SOL    HW221474   3.479   3.279   5.718 -0.7277 -0.2880  0.6895
 3339SOL     OW21475   4.597   0.854   4.744 -0.0063 -0.6694 -0.0302
 3339SOL    HW121476   4.537   0.780   4.732  0.9568 -1.3753 -0.5236
 3339SOL    HW221477   4.555   0.886   4.824  3.0878  1.1779  0.8619
 3340SOL     OW21478   4.635   2.937  12.280 -0.1016 -0.4592  0.0689
 3340SOL    HW121479   4.567   3.003  12.291  0.5069 -0.3624  3.0923
 3340SOL    HW221480   4.662   2.966  12.192  1.4679 -0.6428  0.4844
 3341SOL     OW21481   1.935   2.523   9.536 -0.7087  0.1769 -0.2454
 3341SOL    HW121482   2.021   2.493   9.565 -0.6807  1.5613  1.0941
 3341SOL    HW221483   1.898   2.445   9.493 -2.2646  0.1796  1.0961
 3342SOL     OW21484   0.482   0.982   0.908  0.6116 -0.0611 -0.1020
 3342SOL    HW121485   0.521   1.068   0.892 -1.7691  0.7222 -1.7627
 3342SOL    HW221486   0.387   0.990   0.897  0.5628 -1.0586 -0.3652
 3343SOL     OW21487   0.047   3.298  17.501  0.9392  0.0239  0.0178
 3343SOL    HW121488   0.028   3.276  17.592 -0.3624  2.6886  0.3664
 3343SOL    HW221489   0.090   3.383  17.508 -1.1706  1.1521 -0.6686
 3344SOL     OW21490   1.872   1.627   7.575  0.0760 -0.2077  0.1876
 3344SOL    HW121491   1.961   1.660   7.589 -0.5275  0.1978  2.9294
 3344SOL    HW221492   1.820   1.706   7.592  0.2539 -0.2130  0.7540
 3345SOL     OW21493   0.816   0.947  13.654 -0.4662  0.0710 -0.2838
 3345SOL    HW121494   0.852   0.948  13.743 -0.7751 -0.9148 -0.1458
 3345SOL    HW221495   0.890   0.994  13.616 -1.5702  2.8383  0.9592
 3346SOL     OW21496   1.121   1.075   8.218 -0.4297  0.6374 -0.0128
 3346SOL    HW121497   1.098   1.162   8.250  0.5828  1.2354 -0.9289
 3346SOL    HW221498   1.214   1.094   8.206  0.2617 -3.7034 -1.6401
 3347SOL     OW21499   0.241   0.686   1.222 -0.0127  0.7098  0.1953
 3347SOL    HW121500   0.218   0.738   1.145 -0.3011 -0.2364 -0.3685
 3347SOL    HW221501   0.240   0.755   1.288  0.4183  0.8080  0.0969
 3348SOL     OW21502   1.368   4.134   4.432 -0.1821 -0.5671  0.0593
 3348SOL    HW121503   1.351   4.041   4.448  0.6100 -0.9175 -1.1517
 3348SOL    HW221504   1.314   4.162   4.358  2.7042  1.7816 -1.1887
 3349SOL     OW21505   3.612   3.655   6.419 -0.5748 -0.0342 -0.2254
 3349SOL    HW121506   3.540   3.619   6.470 -0.7401 -1.2226 -1.2973
 3349SOL    HW221507   3.653   3.580   6.375 -2.4232 -1.1485 -0.0257
 3350SOL     OW21508   2.776   3.927   4.202  0.3308 -0.0645 -0.2266
 3350SOL    HW121509   2.857   3.906   4.154 -0.5343  0.2083 -1.7941
 3350SOL    HW221510   2.774   3.850   4.258 -0.8632 -0.8200 -1.2947
 3351SOL     OW21511   1.568   3.625   2.076 -0.1134  0.7162  0.2731
 3351SOL    HW121512   1.652   3.668   2.059  0.9206 -0.9631  1.0696
 3351SOL    HW221513   1.593   3.540   2.112 -0.8863 -0.0293 -0.9312
 3352SOL     OW21514   1.974   0.183   1.104  0.1122 -0.1308 -0.2818
 3352SOL    HW121515   1.899   0.127   1.083 -0.6751  0.5637  0.6875
 3352SOL    HW221516   1.940   0.236   1.176 -0.5890 -0.3975 -0.4243
 3353SOL     OW21517   2.562   1.430   2.510  0.5173 -0.5182 -0.0013
 3353SOL    HW121518   2.617   1.396   2.440  0.7553 -0.3036  0.0856
 3353SOL    HW221519   2.512   1.500   2.468 -0.6899 -0.6137  1.2724
 3354SOL     OW21520   1.817   3.961   3.452  0.0391 -0.4949  0.3385
 3354SOL    HW121521   1.890   4.024   3.456  1.4870 -2.0578 -1.5049
 3354SOL    HW221522   1.849   3.884   3.405 -0.6839 -0.5044 -0.1245
 3355SOL     OW21523   0.577   4.513   8.410 -0.0009 -0.0013 -0.0994
 3355SOL    HW121524   0.617   4.576   8.470  0.1793  0.5323 -0.7741
 3355SOL    HW221525   0.657   4.505   8.357  1.6913  0.5513  2.3621
 3356SOL     OW21526   3.184   4.462  13.659  0.0654 -0.2119 -0.1888
 3356SOL    HW121527   3.216   4.525  13.724 -0.3410 -1.4551  1.2159
 3356SOL    HW221528   3.169   4.532  13.596 -0.0300 -0.1405 -0.0865
 3357SOL     OW21529   0.356   4.386   4.883  0.2445  0.1941 -0.1626
 3357SOL    HW121530   0.337   4.456   4.945  1.5138 -1.2389  1.8533
 3357SOL    HW221531   0.348   4.425   4.796 -1.1552  1.8423  0.7072
 3358SOL     OW21532   1.447   1.660  14.602 -0.6032  0.4455 -0.4009
 3358SOL    HW121533   1.481   1.674  14.690 -0.0001  1.8222 -0.8509
 3358SOL    HW221534   1.530   1.675  14.558 -0.3540 -0.0257 -0.0834
 3359SOL     OW21535   4.296   0.946   3.206 -0.3389  0.0566  0.4937
 3359SOL    HW121536   4.216   0.893   3.212 -0.1830 -0.1337  0.9633
 3359SOL    HW221537   4.255   1.032   3.210 -1.7688 -0.6333  0.8211
 3360SOL     OW21538   0.148   1.366   5.465 -1.0573  0.0347  0.3278
 3360SOL    HW121539   0.164   1.453   5.430 -0.2153  0.6595  2.2835
 3360SOL    HW221540   0.166   1.388   5.556 -0.7790  1.1431 -0.0036
 3361SOL     OW21541   0.160   0.423   5.052  0.0361  0.1331  0.3289
 3361SOL    HW121542   0.082   0.377   5.021  1.8142 -1.3544 -1.9126
 3361SOL    HW221543   0.225   0.390   4.991 -0.3969  0.6490 -0.4153
 3362SOL     OW21544   1.826   3.716  15.898 -0.6029 -0.0119 -0.6848
 3362SOL    HW121545   1.824   3.637  15.844 -0.7426 -0.7817  0.4326
 3362SOL    HW221546   1.906   3.755  15.863 -1.2581  1.0585 -0.9931
 3363SOL     OW21547   1.269   1.540  11.589 -0.1204  0.1719 -0.0868
 3363SOL    HW121548   1.348   1.523  11.641  0.9789  1.6911 -1.2436
 3363SOL    HW221549   1.287   1.597  11.515  0.4055 -0.6218 -0.5722
 3364SOL     OW21550   3.384   2.803   5.613  0.1884 -0.5043 -0.5203
 3364SOL    HW121551   3.431   2.749   5.548 -0.0194 -0.0602 -1.0414
 3364SOL    HW221552   3.367   2.888   5.572 -1.4705 -0.3758  0.4369
 3365SOL     OW21553   0.970   1.766  14.836  0.1662 -0.4139 -0.0382
 3365SOL    HW121554   0.970   1.735  14.745 -1.5382 -0.7886  0.0868
 3365SOL    HW221555   1.062   1.759  14.859  0.4746 -2.3695 -1.8773
 3366SOL     OW21556   3.589   1.984   0.853  0.5172  0.0364 -0.0506
 3366SOL    HW121557   3.614   2.068   0.891  2.4955 -0.7031  0.2393
 3366SOL    HW221558   3.566   1.940   0.935 -1.0467  1.4043  0.2501
 3367SOL     OW21559   2.570   1.492   5.608  0.1816 -0.0382 -0.4793
 3367SOL    HW121560   2.544   1.508   5.517 -1.0880 -2.4006 -0.5248
 3367SOL    HW221561   2.572   1.587   5.622  1.7737 -0.2858  1.0197
 3368SOL     OW21562   4.374   3.874   6.978 -0.3591 -0.3090 -0.1950
 3368SOL    HW121563   4.403   3.951   6.930  1.1776  0.2925  1.6950
 3368SOL    HW221564   4.354   3.918   7.061 -1.7760 -3.2787  1.0347
 3369SOL     OW21565   0.776   3.370   4.582  0.3082  0.3206 -0.3174
 3369SOL    HW121566   0.759   3.288   4.536 -0.5352  0.2874  0.0576
 3369SOL    HW221567   0.823   3.338   4.658  0.3057  1.0993  0.0172
 3370SOL     OW21568   3.187   0.231   7.616  0.1396 -0.3540  0.4559
 3370SOL    HW121569   3.137   0.202   7.540 -0.5442 -2.2046  1.6199
 3370SOL    HW221570   3.236   0.152   7.638  2.0291  0.5697 -0.3569
 3371SOL     OW21571   4.154   3.648   9.289  0.1846 -0.0763 -0.5477
 3371SOL    HW121572   4.078   3.685   9.334  0.9814  0.1520  0.6225
 3371SOL    HW221573   4.139   3.557   9.315 -1.5307  0.7587  1.3378
 3372SOL     OW21574   2.398   4.008   7.888 -0.0653  0.0545  0.2635
 3372SOL    HW121575   2.466   4.073   7.904  0.9850 -1.4108  1.7342
 3372SOL    HW221576   2.324   4.061   7.919 -0.8910 -0.4044 -0.9303
 3373SOL     OW21577   3.599   3.901   4.563 -0.3629  0.0427 -0.2792
 3373SOL    HW121578   3.611   3.955   4.641  1.1349  1.2780 -1.3786
 3373SOL    HW221579   3.557   3.959   4.499 -0.6531  0.4599  0.2917
 3374SOL     OW21580   2.869   4.326   3.938  0.0570  0.2722 -0.0609
 3374SOL    HW121581   2.952   4.371   3.952  0.6817 -0.5905 -0.9598
 3374SOL    HW221582   2.831   4.397   3.885  0.2840 -0.3872 -1.1054
 3375SOL     OW21583   0.030   3.873   0.730  0.0100  0.2205  0.6080
 3375SOL    HW121584   0.017   3.861   0.636 -1.2275  0.7025  0.7195
 3375SOL    HW221585   0.109   3.925   0.717 -0.9050  1.1038 -1.4714
 3376SOL     OW21586   4.575   2.287  17.094 -0.2466 -0.1210 -0.2645
 3376SOL    HW121587   4.528   2.361  17.132  0.0737 -0.8302  1.5085
 3376SOL    HW221588   4.647   2.334  17.052 -1.4104  2.5685  0.7527
 3377SOL     OW21589   2.957   2.718   3.120  0.1446 -0.6060 -0.2454
 3377SOL    HW121590   3.052   2.721   3.119  0.0334  2.8361 -0.4504
 3377SOL    HW221591   2.934   2.810   3.108  4.4812  0.6896  1.4759
 3378SOL     OW21592   0.374   4.544  15.723  0.2480 -0.0637  0.5420
 3378SOL    HW121593   0.405   4.618  15.670  2.4493  0.8605  3.1077
 3378SOL    HW221594   0.279   4.543  15.711  0.4756 -1.1567 -1.3150
 3379SOL     OW21595   0.243   1.243   5.024  0.2225 -0.0307 -0.6014
 3379SOL    HW121596   0.151   1.219   5.036  0.2159 -0.7409 -1.9870
 3379SOL    HW221597   0.286   1.166   5.060 -1.7607 -1.2487 -0.7980
 3380SOL     OW21598   4.302   2.575   4.253 -0.1774  0.5366 -0.3262
 3380SOL    HW121599   4.307   2.664   4.217  0.8251  1.0069  0.9471
 3380SOL    HW221600   4.292   2.603   4.344 -0.2025 -0.3023 -0.0711
 3381SOL     OW21601   2.405   4.235  12.543 -0.6391 -0.2606 -0.1600
 3381SOL    HW121602   2.360   4.154  12.566 -1.0938  0.3052  0.9741
 3381SOL    HW221603   2.382   4.284  12.622 -1.5976  0.9513 -1.1953
 3382SOL     OW21604   3.001   2.037   1.056 -0.0429  0.2222 -0.2692
 3382SOL    HW121605   2.962   2.042   1.143  0.8237  0.4083  0.1029
 3382SOL    HW221606   2.917   2.044   1.010  0.7649  1.6818 -1.5348
 3383SOL     OW21607   1.068   4.189   1.849 -0.0305  0.3530 -0.3426
 3383SOL    HW121608   1.108   4.113   1.890  0.2975  0.2450 -0.8554
 3383SOL    HW221609   1.076   4.164   1.757 -1.4270 -0.2616 -0.2954
 3384SOL     OW21610   1.085   4.580   5.350 -0.2933 -0.1154  0.0897
 3384SOL    HW121611   1.125   4.662   5.380  0.8278 -0.3968 -0.6305
 3384SOL    HW221612   1.021   4.610   5.286  1.4876 -0.3382 -1.8055
 3385SOL     OW21613   3.185   1.066  11.263  0.2639  0.2067  0.2911
 3385SOL    HW121614   3.091   1.051  11.251  0.2868 -1.0149  1.6246
 3385SOL    HW221615   3.224   1.041  11.180  1.2056  1.5704  0.3331
 3386SOL     OW21616   3.449   1.044   7.900 -0.4728  0.5216 -0.8393
 3386SOL    HW121617   3.368   1.004   7.935 -0.1646  0.8575  0.2693
 3386SOL    HW221618   3.503   0.965   7.903  0.6737  1.3385  0.0729
 3387SOL     OW21619   4.326   2.127   5.830  0.2118 -0.0972 -0.6085
 3387SOL    HW121620   4.372   2.076   5.764 -1.5778 -2.1277 -0.2826
 3387SOL    HW221621   4.237   2.107   5.800 -0.9851  1.5010  1.8320
 3388SOL     OW21622   3.255   1.959   8.804 -0.1500  0.6558 -0.0821
 3388SOL    HW121623   3.312   2.008   8.745 -1.1239 -0.2080 -1.7408
 3388SOL    HW221624   3.268   1.867   8.779 -1.3030  1.2807 -3.0693
 3389SOL     OW21625   4.196   0.725   4.773 -0.2900 -0.0317 -0.1781
 3389SOL    HW121626   4.286   0.690   4.768  1.0503  3.2703  1.2279
 3389SOL    HW221627   4.217   0.818   4.766  0.9572 -0.2997  0.0186
 3390SOL     OW21628   0.674   1.827   5.947 -0.2446  0.2218  0.0331
 3390SOL    HW121629   0.723   1.811   6.028 -0.9179 -3.0275 -0.1978
 3390SOL    HW221630   0.585   1.812   5.981  0.7508 -2.4463  1.5389
 3391SOL     OW21631   4.605   1.549   8.231 -0.0891 -0.4542 -0.6793
 3391SOL    HW121632   4.604   1.453   8.230  1.2053 -0.4898  1.2057
 3391SOL    HW221633   4.521   1.570   8.190 -0.2352 -1.0405 -0.6866
 3392SOL     OW21634   4.318   2.930   3.353  0.0907  0.1002 -0.1022
 3392SOL    HW121635   4.377   2.909   3.425 -1.8115 -0.0896  1.4170
 3392SOL    HW221636   4.302   3.024   3.363  2.3381  0.0465  3.9462
 3393SOL     OW21637   1.917   1.783   3.211  0.4053  0.0676 -0.3800
 3393SOL    HW121638   1.975   1.719   3.171 -0.5119 -1.5518  0.8522
 3393SOL    HW221639   1.865   1.730   3.272 -1.4039  2.5459  0.2660
 3394SOL     OW21640   2.576   2.124   5.018  0.0203 -0.0923  0.4037
 3394SOL    HW121641   2.583   2.037   5.056 -0.2111 -0.3972 -0.2559
 3394SOL    HW221642   2.556   2.160   5.105 -0.4116 -2.4983  1.2865
 3395SOL     OW21643   2.563   4.430   0.811  0.0769 -0.1067 -0.1209
 3395SOL    HW121644   2.615   4.446   0.733 -0.0986  0.1483 -0.1858
 3395SOL    HW221645   2.541   4.337   0.801  0.6181 -0.4775  2.0725
 3396SOL     OW21646   0.446   2.130  17.157 -0.1754 -0.2884  0.1052
 3396SOL    HW121647   0.406   2.084  17.231  2.3179 -0.4030  1.3650
 3396SOL    HW221648   0.435   2.217  17.196 -1.1642 -0.0564 -0.6857
 3397SOL     OW21649   2.777   1.374   0.793  0.1015 -0.1673  0.6468
 3397SOL    HW121650   2.796   1.372   0.887  0.6318  1.2412  0.5725
 3397SOL    HW221651   2.850   1.327   0.754 -1.0579 -0.8826 -0.6312
 3398SOL     OW21652   1.561   4.342  16.693 -0.0251  0.4708  0.1340
 3398SOL    HW121653   1.495   4.280  16.723 -0.4046  0.9375  0.2512
 3398SOL    HW221654   1.620   4.286  16.642  0.6438  0.5777  0.7869
 3399SOL     OW21655   3.710   1.639   6.076 -0.4058  0.3392 -0.6130
 3399SOL    HW121656   3.798   1.671   6.057 -0.6049  1.4227  0.3501
 3399SOL    HW221657   3.674   1.722   6.105  0.7867 -0.3577  2.8053
 3400SOL     OW21658   2.236   1.585   6.422 -0.4353 -0.0321  0.1971
 3400SOL    HW121659   2.198   1.501   6.443  0.1053 -0.1182  0.8369
 3400SOL    HW221660   2.171   1.651   6.447 -2.0454 -2.2798  1.9392
 3401SOL     OW21661   1.021   3.283  15.982 -0.1102  0.3695  0.4641
 3401SOL    HW121662   1.089   3.218  16.000  1.3698  1.8906  0.3742
 3401SOL    HW221663   1.030   3.330  16.065  0.4800  1.3195 -0.1345
 3402SOL     OW21664   3.857   0.951  14.880 -0.6506 -0.2170 -0.2203
 3402SOL    HW121665   3.821   1.033  14.846 -0.6770  0.4285  1.3515
 3402SOL    HW221666   3.852   0.969  14.974 -1.3231  0.6934 -0.4279
 3403SOL     OW21667   2.642   1.269  11.054  0.5812  0.2757  0.4271
 3403SOL    HW121668   2.576   1.222  11.105  1.2830 -0.1463  0.9601
 3403SOL    HW221669   2.658   1.220  10.974 -0.5877 -0.6011  0.7370
 3404SOL     OW21670   1.266   2.457   7.956  0.5849 -0.3048 -0.0601
 3404SOL    HW121671   1.229   2.540   7.986  2.0965  1.9447 -4.4891
 3404SOL    HW221672   1.339   2.446   8.016  1.4620  0.7071 -0.9612
 3405SOL     OW21673   3.888   3.377   5.332  0.6540 -0.0854  0.3090
 3405SOL    HW121674   3.822   3.310   5.352  0.3683  0.2573  0.5030
 3405SOL    HW221675   3.847   3.452   5.374  0.6357  0.7509 -1.2322
 3406SOL     OW21676   0.119   4.347  13.870  0.1306  0.0887 -0.1021
 3406SOL    HW121677   0.139   4.408  13.799 -2.6401 -1.0206 -1.8690
 3406SOL    HW221678   0.197   4.293  13.863  2.1125  3.0463 -1.0883
 3407SOL     OW21679   0.791   2.953   3.118 -0.0440  0.3488 -0.0966
 3407SOL    HW121680   0.854   2.989   3.181  0.2909 -0.3070 -0.0568
 3407SOL    HW221681   0.723   2.926   3.179  2.7862 -1.9139  2.0339
 3408SOL     OW21682   4.427   3.055   1.224 -0.0384 -0.0290 -0.2299
 3408SOL    HW121683   4.514   3.063   1.186  0.0985  0.6263  0.2361
 3408SOL    HW221684   4.447   2.997   1.297 -2.3868  0.2522  0.6608
 3409SOL     OW21685   1.670   1.812  13.175  0.3264 -0.7583 -0.3105
 3409SOL    HW121686   1.669   1.870  13.252  0.6812 -1.8310  0.5010
 3409SOL    HW221687   1.660   1.729  13.221  0.3406 -1.5049 -1.6487
 3410SOL     OW21688   4.293   3.173   3.049 -0.5847 -0.2075 -0.5931
 3410SOL    HW121689   4.375   3.220   3.038  0.1322 -0.8762  1.8185
 3410SOL    HW221690   4.242   3.204   2.974 -0.1734  1.3305 -0.2308
 3411SOL     OW21691   0.529   2.384   3.341  0.1437  0.4147 -0.7768
 3411SOL    HW121692   0.477   2.463   3.325  1.1056  0.9137 -1.4748
 3411SOL    HW221693   0.537   2.396   3.435 -0.1231 -0.6746 -0.6119
 3412SOL     OW21694   4.331   1.334  15.890 -0.0986  0.3885  0.4965
 3412SOL    HW121695   4.313   1.365  15.802 -1.7373 -0.1471  0.6522
 3412SOL    HW221696   4.307   1.413  15.938  1.2135  1.1917 -0.1776
 3413SOL     OW21697   0.030   0.439   4.235 -0.3974  0.0211  0.0671
 3413SOL    HW121698   0.104   0.397   4.190  1.0978 -0.3694  2.9313
 3413SOL    HW221699   0.013   0.367   4.295 -0.6073 -0.3335 -0.4153
 3414SOL     OW21700   2.052   4.354   6.137 -0.0873  0.2802 -0.4511
 3414SOL    HW121701   1.967   4.327   6.102  0.8703 -2.1352 -0.8839
 3414SOL    HW221702   2.074   4.434   6.089 -2.3040  0.2611 -1.4851
 3415SOL     OW21703   1.644   0.954   4.142 -0.4865 -0.4045  0.2048
 3415SOL    HW121704   1.692   0.969   4.224 -0.8435  2.7749 -0.1785
 3415SOL    HW221705   1.717   0.930   4.085  0.7891 -1.3442  2.2198
 3416SOL     OW21706   1.481   0.947   3.180 -0.2737  0.1855  0.4991
 3416SOL    HW121707   1.480   0.982   3.091 -2.8584 -0.0748  0.4320
 3416SOL    HW221708   1.513   1.028   3.221  2.0260  0.7308 -2.4149
 3417SOL     OW21709   1.167   0.654  13.209  0.0353  0.2849 -0.0196
 3417SOL    HW121710   1.248   0.694  13.242  0.0499 -0.4724  0.8629
 3417SOL    HW221711   1.212   0.580  13.167 -1.3110  0.3932 -1.6461
 3418SOL     OW21712   3.856   3.603  17.376 -0.4825  0.4599 -0.3528
 3418SOL    HW121713   3.846   3.681  17.430 -0.4229  1.0583 -1.2110
 3418SOL    HW221714   3.951   3.591  17.387 -0.8845 -2.5804 -0.2588
 3419SOL     OW21715   4.706   0.752   8.503  0.1449  0.3665  0.2099
 3419SOL    HW121716   0.025   0.834   8.529  2.1026 -0.5955  0.0701
 3419SOL    HW221717   4.703   0.760   8.408 -1.8682 -0.0780  0.2394
 3420SOL     OW21718   1.083   0.527   3.067  0.9108 -0.2477  0.4037
 3420SOL    HW121719   1.054   0.480   2.989 -0.3767  1.1479  0.0481
 3420SOL    HW221720   1.008   0.585   3.080  2.1086  1.0112  1.8087
 3421SOL     OW21721   2.241   1.122   4.347 -0.1257  0.7588 -0.7136
 3421SOL    HW121722   2.221   1.203   4.392  1.8116  1.6175 -1.3788
 3421SOL    HW221723   2.162   1.109   4.294  0.0668  0.5943 -0.9629
 3422SOL     OW21724   4.345   1.800   3.467  0.2514  0.1591 -0.6101
 3422SOL    HW121725   4.261   1.817   3.511 -0.1876  1.5959 -1.9982
 3422SOL    HW221726   4.366   1.886   3.430 -0.7576  0.7367  0.1708
 3423SOL     OW21727   4.092   1.349  17.514 -0.0240 -0.2385 -0.1174
 3423SOL    HW121728   4.070   1.330  17.423  2.7569 -2.3051 -0.3476
 3423SOL    HW221729   4.186   1.356  17.497 -0.1123  1.8253  0.2877
 3424SOL     OW21730   1.419   3.161   5.992 -0.1009  0.3315  0.0642
 3424SOL    HW121731   1.494   3.103   5.986 -0.9878 -0.7634 -0.3092
 3424SOL    HW221732   1.467   3.244   5.989 -1.6052  1.1822 -0.1730
 3425SOL     OW21733   3.884   1.876   4.099 -0.0039 -0.2348 -0.3081
 3425SOL    HW121734   3.933   1.856   4.178 -1.0554 -0.0945  0.3791
 3425SOL    HW221735   3.821   1.938   4.138 -2.1385 -3.3717  1.1909
 3426SOL     OW21736   0.808   1.133   7.345 -0.1613 -0.5158  0.2522
 3426SOL    HW121737   0.851   1.063   7.394  1.4779 -0.8457 -1.6621
 3426SOL    HW221738   0.792   1.090   7.261  1.1051  0.9924 -0.7607
 3427SOL     OW21739   1.759   4.016   1.179 -0.2570  0.1695 -0.1244
 3427SOL    HW121740   1.807   3.935   1.200  1.1986  1.0719  0.0098
 3427SOL    HW221741   1.834   4.072   1.199 -0.5235 -0.0805  1.5933
 3428SOL     OW21742   2.489   1.989  17.619 -0.4711  0.7024  0.3974
 3428SOL    HW121743   2.584   1.999  17.627 -0.6545  0.9067  2.2151
 3428SOL    HW221744   2.471   2.004  17.526 -3.5467 -0.7362  0.7827
 3429SOL     OW21745   1.960   1.537   2.392 -0.1768  0.0008  0.0734
 3429SOL    HW121746   1.871   1.547   2.359 -0.1741 -1.5429 -0.4254
 3429SOL    HW221747   1.992   1.608   2.337 -2.5224  0.6330 -0.4994
 3430SOL     OW21748   4.596   0.646   6.770 -0.2766  1.0846 -0.4580
 3430SOL    HW121749   4.517   0.609   6.730 -1.1566 -0.3869  2.6594
 3430SOL    HW221750   4.656   0.574   6.753 -0.1906  1.8005 -3.1214
 3431SOL     OW21751   0.525   0.349  13.486 -0.4413 -0.4076  0.3849
 3431SOL    HW121752   0.562   0.394  13.562 -2.2558  1.0891  0.3788
 3431SOL    HW221753   0.603   0.331  13.433 -1.1679  1.1227 -1.1906
 3432SOL     OW21754   2.189   0.832  10.737 -0.6069 -0.0571  0.8556
 3432SOL    HW121755   2.205   0.908  10.680 -2.9885  1.1959  1.8680
 3432SOL    HW221756   2.179   0.762  10.673  0.2059  1.5427 -1.0600
 3433SOL     OW21757   3.732   0.316   4.970  0.1391 -0.1787 -0.0269
 3433SOL    HW121758   3.752   0.403   5.005  0.5380  0.0467 -0.7962
 3433SOL    HW221759   3.793   0.274   5.031 -2.1357 -1.9094  1.0321
 3434SOL     OW21760   1.440   0.187   4.346 -0.3726  0.4824  0.0542
 3434SOL    HW121761   1.367   0.206   4.405  0.2991  0.6944  0.8108
 3434SOL    HW221762   1.505   0.188   4.416  0.1172  0.3561 -0.3926
 3435SOL     OW21763   3.278   3.636   2.502 -0.9302 -0.7143 -0.7552
 3435SOL    HW121764   3.207   3.581   2.470 -0.6003 -1.1175 -0.7953
 3435SOL    HW221765   3.238   3.722   2.493 -0.8076 -0.4265  1.3892
 3436SOL     OW21766   0.045   2.981   8.554 -0.3456 -0.4461 -0.3840
 3436SOL    HW121767   0.044   3.045   8.483 -0.6209 -2.4189 -2.1694
 3436SOL    HW221768   0.030   3.045   8.624 -0.2354 -2.3819  1.4302
 3437SOL     OW21769   1.408   0.837   1.214  0.7951  0.2835  0.1410
 3437SOL    HW121770   1.367   0.853   1.299  0.1805  0.2177 -0.1439
 3437SOL    HW221771   1.445   0.749   1.217  1.0893  0.4706  2.0665
 3438SOL     OW21772   3.083   0.715  16.915  0.8422  0.0805 -0.0466
 3438SOL    HW121773   3.043   0.708  16.829  0.3701 -1.8514  0.3417
 3438SOL    HW221774   3.048   0.638  16.960  0.8976 -0.8810 -1.6424
 3439SOL     OW21775   4.243   1.972   0.285  0.5099 -0.0703  0.1047
 3439SOL    HW121776   4.247   1.883   0.321 -4.4710 -0.2841  0.0324
 3439SOL    HW221777   4.266   1.944   0.196 -0.8270  3.1921 -1.2390
 3440SOL     OW21778   2.175   1.313   1.805 -0.2431 -0.1386 -0.1576
 3440SOL    HW121779   2.243   1.310   1.872  0.7162 -0.7897 -1.1678
 3440SOL    HW221780   2.112   1.354   1.865  0.7120  4.2550 -2.1530
 3441SOL     OW21781   2.564   1.378  15.434 -0.6454 -0.3229  0.2912
 3441SOL    HW121782   2.583   1.419  15.519  0.3664  1.1064 -0.6082
 3441SOL    HW221783   2.474   1.345  15.437 -0.3974 -1.0754 -0.5906
 3442SOL     OW21784   3.864   0.364   4.041  0.0294 -0.3784  0.0986
 3442SOL    HW121785   3.769   0.358   4.052  0.1338  2.2948  2.3645
 3442SOL    HW221786   3.878   0.452   4.075  0.8924 -0.4073 -0.1997
 3443SOL     OW21787   2.880   4.250   1.209  0.2265 -0.8881  0.0904
 3443SOL    HW121788   2.807   4.220   1.263 -0.0369 -0.7923 -0.2077
 3443SOL    HW221789   2.858   4.200   1.130  1.0667  2.9321 -2.5800
 3444SOL     OW21790   0.237   3.206   5.291 -0.5028 -0.3512 -0.5541
 3444SOL    HW121791   0.240   3.265   5.366 -2.5943  1.3454 -1.7832
 3444SOL    HW221792   0.172   3.249   5.235 -0.9026  0.6672  0.7081
 3445SOL     OW21793   0.833   4.080   3.730 -0.3748 -0.1258 -0.5396
 3445SOL    HW121794   0.916   4.082   3.778 -0.7545 -0.8337  0.1455
 3445SOL    HW221795   0.864   4.092   3.640 -2.1483  1.2480 -0.9713
 3446SOL     OW21796   3.361   3.910   3.417  0.2338  0.3475 -0.0324
 3446SOL    HW121797   3.436   3.850   3.417 -2.1753 -2.6797 -0.4256
 3446SOL    HW221798   3.374   3.958   3.335 -0.4063  1.9217  0.7906
 3447SOL     OW21799   0.276   0.645  14.559  0.5243 -0.1959  0.0982
 3447SOL    HW121800   0.260   0.631  14.465 -0.3278 -0.1404  0.2319
 3447SOL    HW221801   0.314   0.560  14.579  0.4632 -0.7077 -1.9037
 3448SOL     OW21802   0.618   2.686  15.333  0.4340  0.4567  0.2248
 3448SOL    HW121803   0.643   2.734  15.254  0.2386 -0.6892 -0.5308
 3448SOL    HW221804   0.528   2.718  15.345 -0.1143 -1.0236 -0.0391
 3449SOL     OW21805   2.792   4.036   7.397 -0.3144 -0.7128 -0.1825
 3449SOL    HW121806   2.803   3.941   7.397 -0.9948 -0.7960 -0.1486
 3449SOL    HW221807   2.809   4.057   7.489 -1.3413  0.3924 -0.2448
 3450SOL     OW21808   3.840   3.355   7.813 -0.0515  0.8866  1.1760
 3450SOL    HW121809   3.815   3.440   7.778  2.0233  0.8429 -0.4768
 3450SOL    HW221810   3.933   3.358   7.790 -0.3669 -0.1365 -0.2787
 3451SOL     OW21811   1.391   2.769   8.948 -0.3814  0.5121  0.3199
 3451SOL    HW121812   1.303   2.786   8.914  0.6065  2.3964 -1.2777
 3451SOL    HW221813   1.432   2.848   8.913  1.6408  0.1953  2.0181
 3452SOL     OW21814   1.155   4.686   3.833 -0.2878  0.3947 -0.2438
 3452SOL    HW121815   1.078   0.016   3.850 -0.2852  0.6827 -1.1248
 3452SOL    HW221816   1.138   4.647   3.747  0.7968  2.0054 -1.2137
 3453SOL     OW21817   1.193   0.454   5.007 -0.4876  0.4051  0.1668
 3453SOL    HW121818   1.143   0.373   5.004  0.1141  0.0205  0.5546
 3453SOL    HW221819   1.284   0.423   5.003 -0.8136 -0.7058  1.5720
 3454SOL     OW21820   2.467   1.335   8.129  0.8236  0.0957  0.3799
 3454SOL    HW121821   2.489   1.401   8.195  1.0736 -0.3877  0.7771
 3454SOL    HW221822   2.431   1.381   8.053  2.2859 -1.7494 -1.4022
 3455SOL     OW21823   3.868   3.514   8.265 -0.2910 -0.2344 -0.4650
 3455SOL    HW121824   3.914   3.435   8.296 -0.0563  0.4558  0.9470
 3455SOL    HW221825   3.802   3.532   8.333 -0.4265 -1.8670 -0.1575
 3456SOL     OW21826   1.499   2.164   4.224  0.0733  0.1851 -0.3152
 3456SOL    HW121827   1.524   2.120   4.305 -0.2533  1.4694  0.4789
 3456SOL    HW221828   1.423   2.108   4.205  0.1498 -0.2063  0.5370
 3457SOL     OW21829   1.951   3.065   0.411  0.2780  0.0547  0.0551
 3457SOL    HW121830   1.953   3.069   0.315 -0.1459  3.0694  0.1979
 3457SOL    HW221831   2.023   3.008   0.440  1.6534  2.4278  1.3070
 3458SOL     OW21832   1.129   4.581   6.755 -0.0102  0.6415  0.1565
 3458SOL    HW121833   1.048   4.628   6.776 -0.2861  1.5065 -2.9371
 3458SOL    HW221834   1.129   4.509   6.817  0.8415  1.2831  0.9106
 3459SOL     OW21835   1.906   3.810   1.214  0.3642 -0.7065 -0.6833
 3459SOL    HW121836   1.915   3.767   1.128 -0.9457 -1.5928 -0.3828
 3459SOL    HW221837   2.000   3.807   1.232  0.5173  0.0955 -1.3658
 3460SOL     OW21838   3.236   0.454   0.110 -0.3334  0.3087 -0.3530
 3460SOL    HW121839   3.188   0.432   0.030 -0.7421 -0.0065 -0.0232
 3460SOL    HW221840   3.216   0.547   0.120  1.4189  0.4186  2.1977
 3461SOL     OW21841   0.654   2.582  16.275  0.1600  0.4167 -0.2056
 3461SOL    HW121842   0.749   2.595  16.282  0.3903 -0.3246 -1.8801
 3461SOL    HW221843   0.650   2.507  16.215 -0.0257  1.1903 -1.1641
 3462SOL     OW21844   2.619   0.689   6.338  0.2232 -0.0657 -0.2822
 3462SOL    HW121845   2.708   0.695   6.374 -0.1599 -1.6677  0.9043
 3462SOL    HW221846   2.614   0.775   6.295  0.5054  0.0668 -0.0500
 3463SOL     OW21847   2.267   3.030   4.041  0.3008 -0.0440  0.4992
 3463SOL    HW121848   2.243   2.939   4.060 -0.4818 -0.2847 -1.7095
 3463SOL    HW221849   2.243   3.070   4.125  0.0168 -1.2059  0.9739
 3464SOL     OW21850   0.177   1.632   5.395 -0.1457  0.3292  0.1419
 3464SOL    HW121851   0.169   1.710   5.449  0.3605  0.2417  0.3373
 3464SOL    HW221852   0.230   1.668   5.324  0.0964  1.0896  0.7145
 3465SOL     OW21853   4.610   0.725   5.502 -0.3531  0.2514 -0.5451
 3465SOL    HW121854   4.590   0.635   5.529 -0.7630  0.0320 -1.5958
 3465SOL    HW221855   4.700   0.731   5.532  0.2631  1.4676 -2.6539
 3466SOL     OW21856   3.187   0.784   1.425  0.0709  0.6452  0.8344
 3466SOL    HW121857   3.200   0.810   1.334  0.9208  0.0898  0.7901
 3466SOL    HW221858   3.156   0.866   1.462 -1.0636  0.2948  0.6573
 3467SOL     OW21859   3.769   0.667   2.468  0.2939  0.0923 -0.4583
 3467SOL    HW121860   3.750   0.750   2.424  1.2236  1.7372  2.2079
 3467SOL    HW221861   3.683   0.650   2.507  2.0385 -0.6973  3.0316
 3468SOL     OW21862   0.386   2.006   3.474 -0.2221 -0.5859 -0.4028
 3468SOL    HW121863   0.464   1.979   3.425  0.1063  0.7303 -0.6052
 3468SOL    HW221864   0.366   1.931   3.529 -1.1172  0.4956  0.7279
 3469SOL     OW21865   2.022   3.513   1.247 -0.1586 -0.2108  0.1242
 3469SOL    HW121866   2.078   3.585   1.216 -0.6861  0.1610  0.0202
 3469SOL    HW221867   2.082   3.441   1.231  0.6148  0.3411  0.5584
 3470SOL     OW21868   4.509   0.733   9.461 -0.3340  0.4356  0.6322
 3470SOL    HW121869   4.575   0.675   9.501  0.3090  1.0652  0.4860
 3470SOL    HW221870   4.541   0.734   9.370  0.3340 -2.1868  0.8140
 3471SOL     OW21871   3.374   2.082  13.610 -0.2013  0.2840 -0.0567
 3471SOL    HW121872   3.399   2.033  13.532  1.7833  1.0475  0.1014
 3471SOL    HW221873   3.458   2.088  13.656  0.3291 -0.6955 -0.8990
 3472SOL     OW21874   2.387   4.675  12.846 -0.1233  0.2130 -0.7778
 3472SOL    HW121875   2.422   0.033  12.808 -0.1828  1.1662  1.1676
 3472SOL    HW221876   2.450   4.647  12.912  0.3239 -0.5536 -1.5310
 3473SOL     OW21877   0.764   4.120   9.802  0.5368 -0.2907  0.2523
 3473SOL    HW121878   0.833   4.179   9.774  1.5781 -2.2128 -1.2553
 3473SOL    HW221879   0.695   4.177   9.835  0.7566 -0.1113  0.4017
 3474SOL     OW21880   2.889   4.609   9.912 -0.3790 -0.3992 -0.3509
 3474SOL    HW121881   2.801   4.629   9.879 -1.4069 -1.7638  1.5534
 3474SOL    HW221882   2.912   4.675   9.978 -1.3315  0.4969 -0.9097
 3475SOL     OW21883   3.294   0.827  11.903 -0.3542  0.4911  0.4156
 3475SOL    HW121884   3.261   0.756  11.958 -0.1609 -0.1165 -0.2410
 3475SOL    HW221885   3.387   0.821  11.925 -0.6879 -0.8861  1.4722
 3476SOL     OW21886   3.942   3.061   6.029  0.0908 -0.1065  0.1188
 3476SOL    HW121887   3.917   3.153   6.044  2.0509  0.6495 -1.3313
 3476SOL    HW221888   3.856   3.019   6.037  0.6059 -1.6106 -2.2938
 3477SOL     OW21889   0.008   1.912   2.847  0.0939  0.2324  0.5283
 3477SOL    HW121890   4.693   1.917   2.935 -1.3080 -0.3200 -0.0553
 3477SOL    HW221891   0.071   1.843   2.868 -1.3011 -0.5228  2.2260
 3478SOL     OW21892   1.015   0.656   5.084 -0.5090 -0.0735 -0.0387
 3478SOL    HW121893   1.074   0.590   5.049  1.4791 -0.4138  3.9648
 3478SOL    HW221894   1.072   0.730   5.062  0.2043 -0.2395  1.2373
 3479SOL     OW21895   2.543   2.384   5.865 -0.1478  0.1000  0.0237
 3479SOL    HW121896   2.519   2.469   5.829  1.6180  1.2548  1.5665
 3479SOL    HW221897   2.512   2.398   5.954 -0.8931 -0.8676 -0.0778
 3480SOL     OW21898   2.330   2.952   9.021  0.3497 -0.2521  0.6736
 3480SOL    HW121899   2.290   3.004   9.091  0.2496  0.7120 -0.0991
 3480SOL    HW221900   2.378   2.894   9.079  1.0281  0.5642  0.9232
 3481SOL     OW21901   0.598   0.502  14.879  0.3111  0.6476  0.2217
 3481SOL    HW121902   0.630   0.460  14.960 -0.1790  0.9182  0.5515
 3481SOL    HW221903   0.650   0.454  14.814 -0.4247 -1.8540  1.4460
 3482SOL     OW21904   3.007   1.145   8.420 -0.0289  0.3298  0.2680
 3482SOL    HW121905   3.072   1.124   8.353 -0.0852 -0.8404  0.5908
 3482SOL    HW221906   3.059   1.151   8.500 -2.8511 -1.9419  2.2435
 3483SOL     OW21907   0.903   2.361  16.774 -0.3797 -0.6669 -0.2613
 3483SOL    HW121908   0.892   2.296  16.843  0.9994  1.2205  1.7225
 3483SOL    HW221909   0.888   2.440  16.826  0.0501  0.5057 -1.9081
 3484SOL     OW21910   0.735   1.884   5.127 -0.2071  0.3012  0.4408
 3484SOL    HW121911   0.789   1.832   5.067  0.6922  0.9308  0.7063
 3484SOL    HW221912   0.761   1.970   5.094 -1.0471 -0.2090 -1.5226
 3485SOL     OW21913   1.527   3.678   0.577  0.1347 -0.6443  0.1083
 3485SOL    HW121914   1.520   3.744   0.509 -0.4361  0.0004  0.7994
 3485SOL    HW221915   1.617   3.647   0.564 -0.4116 -0.8735 -3.0366
 3486SOL     OW21916   1.463   2.089  12.900  0.6093  0.7305 -0.2479
 3486SOL    HW121917   1.392   2.075  12.837 -2.0543  0.4795  2.7959
 3486SOL    HW221918   1.481   2.002  12.937  2.3677  1.5478  0.8051
 3487SOL     OW21919   2.531   0.306  17.647 -0.2717  0.0885 -0.5032
 3487SOL    HW121920   2.605   0.340   0.003 -0.2647  0.6834 -0.9249
 3487SOL    HW221921   2.500   0.236   0.011 -1.1519 -0.6649 -1.8995
 3488SOL     OW21922   1.619   0.602  11.683  0.1090 -0.1366  0.4817
 3488SOL    HW121923   1.602   0.685  11.639 -2.2334 -0.0274  1.6187
 3488SOL    HW221924   1.681   0.559  11.624  0.3653 -0.6391  1.1100
 3489SOL     OW21925   0.882   2.020   5.334  0.1676  0.1027  0.4042
 3489SOL    HW121926   0.905   2.089   5.271  0.7920 -0.5914 -0.1205
 3489SOL    HW221927   0.813   1.974   5.286  2.3859 -0.7328 -1.9855
 3490SOL     OW21928   4.464   3.457   7.753 -0.2493 -0.0302 -1.1201
 3490SOL    HW121929   4.485   3.401   7.678  0.1703 -1.8037  0.3069
 3490SOL    HW221930   4.403   3.506   7.698 -0.0812  0.2399 -1.0694
 3491SOL     OW21931   2.264   4.352  15.857  0.5568  0.2849  0.4636
 3491SOL    HW121932   2.192   4.302  15.896  1.6429 -1.4600  0.2243
 3491SOL    HW221933   2.321   4.364  15.932 -0.2373  1.7216  0.8270
 3492SOL     OW21934   1.493   3.288   0.229  0.0582  0.1589 -0.1656
 3492SOL    HW121935   1.508   3.293   0.323 -0.6932 -0.5820 -0.0114
 3492SOL    HW221936   1.574   3.256   0.189 -0.6009  1.9933 -2.9980
 3493SOL     OW21937   3.078   2.705  11.760  0.4371  0.7147 -0.4440
 3493SOL    HW121938   3.156   2.656  11.734 -1.2921 -1.9214 -0.5691
 3493SOL    HW221939   3.012   2.639  11.739 -0.4206  0.5239  2.9126
 3494SOL     OW21940   0.440   2.853   2.896 -0.2913  0.1750 -0.1082
 3494SOL    HW121941   0.528   2.889   2.906  0.4988 -1.6489 -0.4052
 3494SOL    HW221942   0.449   2.773   2.949 -0.7647 -0.4573 -0.9763
 3495SOL     OW21943   3.921   2.060   4.883  0.1150 -0.4253 -0.8079
 3495SOL    HW121944   3.899   2.054   4.976 -0.2060  0.1524 -0.8485
 3495SOL    HW221945   3.850   2.012   4.841  1.3079 -2.8031 -0.1544
 3496SOL     OW21946   3.038   3.717  10.696  0.4206  0.3540 -0.2511
 3496SOL    HW121947   2.973   3.649  10.676  1.4572 -0.7023 -0.0868
 3496SOL    HW221948   3.073   3.728  10.608 -0.4177  0.9606 -0.5003
 3497SOL     OW21949   4.481   1.837   6.749 -0.4532  0.3148 -0.0615
 3497SOL    HW121950   4.547   1.788   6.700 -0.1136  0.4297  0.2824
 3497SOL    HW221951   4.510   1.833   6.840  0.0416 -3.8652 -0.3936
 3498SOL     OW21952   0.978   3.102   0.812  0.5320  0.9674 -0.3766
 3498SOL    HW121953   0.973   3.177   0.871 -0.5477  1.1088 -0.6523
 3498SOL    HW221954   0.890   3.067   0.829  0.6307  1.4817  1.1521
 3499SOL     OW21955   0.341   3.194   8.937 -0.4028  0.4172  0.4817
 3499SOL    HW121956   0.327   3.109   8.977 -0.0096 -0.0342 -0.3407
 3499SOL    HW221957   0.435   3.199   8.917 -0.3407  0.4752  0.7863
 3500SOL     OW21958   0.150   2.020  10.854  0.5392  0.1751 -0.0530
 3500SOL    HW121959   0.090   2.095  10.855 -1.6546 -1.5666 -1.6838
 3500SOL    HW221960   0.224   2.048  10.801 -0.0821  2.5046  0.3198
 3501SOL     OW21961   0.271   2.364  11.491  0.1020 -0.0866 -0.2299
 3501SOL    HW121962   0.229   2.308  11.557  0.6566  1.3464  1.3271
 3501SOL    HW221963   0.316   2.295  11.442  1.2715  1.1603 -0.8732
 3502SOL     OW21964   2.316   3.863   9.513 -0.5326 -0.3245 -0.0902
 3502SOL    HW121965   2.341   3.870   9.605 -2.1348 -1.8665  0.4666
 3502SOL    HW221966   2.383   3.803   9.481  1.5672  1.5302  0.8577
 3503SOL     OW21967   1.192   0.050   5.505 -0.0532  0.6444  0.0160
 3503SOL    HW121968   1.265   0.111   5.506 -0.0426  0.5994  1.8562
 3503SOL    HW221969   1.126   0.113   5.536 -0.0984  0.0301  1.1474
 3504SOL     OW21970   1.222   4.427   6.083  0.0151  0.3468  0.1094
 3504SOL    HW121971   1.132   4.433   6.051 -0.1118  0.0636  0.4039
 3504SOL    HW221972   1.268   4.493   6.032 -1.2125 -0.0930 -1.5828
 3505SOL     OW21973   1.823   1.251   6.419 -0.8941  0.4869  0.5879
 3505SOL    HW121974   1.769   1.176   6.442 -0.2354 -0.3472 -0.6319
 3505SOL    HW221975   1.767   1.325   6.397 -2.4773 -0.6608  0.7439
 3506SOL     OW21976   2.718   2.093  15.316 -0.7001 -0.0575  0.6704
 3506SOL    HW121977   2.683   2.039  15.245 -1.0123  0.9669  0.0450
 3506SOL    HW221978   2.668   2.077  15.396 -3.3164  2.4183 -0.4456
 3507SOL     OW21979   0.130   4.125  10.114  0.2539 -0.1358  0.2389
 3507SOL    HW121980   0.195   4.083  10.059  1.0974 -0.5064  1.5161
 3507SOL    HW221981   0.121   4.201  10.057 -1.5715 -0.1574  0.4853
 3508SOL     OW21982   1.488   4.464   2.205  0.0078  0.2034 -0.0247
 3508SOL    HW121983   1.449   4.391   2.253 -1.5658  0.1115 -1.4275
 3508SOL    HW221984   1.466   4.452   2.113 -0.9441 -2.4705  0.5654
 3509SOL     OW21985   1.335   2.507   1.611 -0.0475 -0.1912 -0.3693
 3509SOL    HW121986   1.419   2.530   1.650  0.5234 -0.8240 -1.2270
 3509SOL    HW221987   1.269   2.508   1.681 -1.4577  2.2868 -1.7325
 3510SOL     OW21988   0.754   2.564   3.078  0.0633 -0.2641  0.3917
 3510SOL    HW121989   0.759   2.489   3.018  0.9095  1.0006 -1.1173
 3510SOL    HW221990   0.834   2.605   3.047 -0.3309  0.8056  0.7979
 3511SOL     OW21991   1.124   3.201  17.463  0.1454 -0.1730 -0.4379
 3511SOL    HW121992   1.107   3.109  17.486  0.5574 -0.0941  0.1658
 3511SOL    HW221993   1.196   3.225  17.521 -0.9007  3.0653 -0.4933
 3512SOL     OW21994   3.938   4.389   9.154  0.0759 -0.3534  0.0735
 3512SOL    HW121995   4.032   4.397   9.169 -0.0090  0.3985  0.2065
 3512SOL    HW221996   3.919   4.342   9.235  2.8558  0.0199  0.9507
 3513SOL     OW21997   3.449   2.989   0.509  0.4036 -0.0551  0.4823
 3513SOL    HW121998   3.453   2.918   0.574 -1.8517 -0.4124  0.2498
 3513SOL    HW221999   3.454   2.931   0.433 -0.7844  0.8273 -0.2640
 3514SOL     OW22000   2.625   3.912   5.924  0.5995  0.2628 -0.0847
 3514SOL    HW122001   2.678   3.983   5.888  0.7445 -0.0588 -0.5082
 3514SOL    HW222002   2.535   3.932   5.901  0.5750  1.0459  0.6990
 3515SOL     OW22003   3.819   1.512   9.070 -0.1172 -0.0854 -0.2336
 3515SOL    HW122004   3.729   1.505   9.036 -0.4181 -0.6232  0.6664
 3515SOL    HW222005   3.808   1.456   9.147 -0.1509  0.7875  0.3984
 3516SOL     OW22006   0.687   0.447   8.508  0.1804 -0.0895  0.0066
 3516SOL    HW122007   0.661   0.539   8.514  1.0909  0.2981 -1.8236
 3516SOL    HW222008   0.665   0.408   8.593 -1.7272  1.1842  0.0788
 3517SOL     OW22009   4.450   3.312   6.646  0.4948 -0.1495 -0.2708
 3517SOL    HW122010   4.412   3.369   6.713 -1.5715 -3.3427  1.3251
 3517SOL    HW222011   4.474   3.234   6.697 -1.1245 -1.0592 -0.8948
 3518SOL     OW22012   4.221   2.166  12.149 -0.5348  0.1705  0.3363
 3518SOL    HW122013   4.293   2.210  12.196  1.5523 -0.7348 -2.0161
 3518SOL    HW222014   4.190   2.224  12.080 -0.8380  2.6835  2.5491
 3519SOL     OW22015   1.427   3.618  14.928 -0.2671 -0.3404 -0.2121
 3519SOL    HW122016   1.492   3.559  14.965  0.6176 -1.1432 -3.0599
 3519SOL    HW222017   1.469   3.656  14.850  0.8427 -0.5625  0.2869
 3520SOL     OW22018   1.311   3.875   4.471  0.0318 -0.1095  0.0441
 3520SOL    HW122019   1.395   3.862   4.513  1.4406  2.5742 -1.9535
 3520SOL    HW222020   1.284   3.783   4.471  0.2157 -0.1616 -0.3080
 3521SOL     OW22021   2.071   0.382  11.564  0.0796 -0.0546 -0.1363
 3521SOL    HW122022   2.152   0.344  11.597  0.8206 -0.0039 -1.9213
 3521SOL    HW222023   2.000   0.338  11.611 -1.9528  1.6798 -1.5828
 3522SOL     OW22024   0.192   3.115   4.027  0.6633  0.1026 -0.6326
 3522SOL    HW122025   0.121   3.139   3.967  0.5291 -1.2597 -1.0121
 3522SOL    HW222026   0.158   3.032   4.060  1.6324 -0.0612 -0.0522
 3523SOL     OW22027   4.098   2.754   9.389 -0.0196  0.5595 -0.3358
 3523SOL    HW122028   4.067   2.749   9.299 -2.6550  2.7092  0.4553
 3523SOL    HW222029   4.164   2.686   9.400  0.1192  0.5011 -1.5387
 3524SOL     OW22030   4.280   0.423  15.823  0.1827 -0.2712  0.1632
 3524SOL    HW122031   4.275   0.332  15.853  2.3148 -0.0388  1.2364
 3524SOL    HW222032   4.374   0.429  15.840  0.5130 -2.7367 -0.7701
 3525SOL     OW22033   1.577   4.605   0.816 -0.5577  0.1075  0.0525
 3525SOL    HW122034   1.522   4.537   0.778 -0.7293  0.6657 -0.6878
 3525SOL    HW222035   1.649   4.551   0.848  0.8147  0.9927 -1.5895
 3526SOL     OW22036   1.471   1.301  13.186 -0.2395 -0.2978  0.3178
 3526SOL    HW122037   1.406   1.365  13.216  2.7139  3.2865 -0.8428
 3526SOL    HW222038   1.551   1.328  13.232  0.6777  0.8789 -1.9772
 3527SOL     OW22039   1.414   1.082   8.189 -0.9892 -0.1256 -0.1192
 3527SOL    HW122040   1.426   1.016   8.257 -1.2098  1.6917  1.6814
 3527SOL    HW222041   1.456   1.035   8.116  1.7119  1.5787  0.3619
 3528SOL     OW22042   2.217   3.808  12.794  0.3252  0.1196  0.0161
 3528SOL    HW122043   2.156   3.816  12.721  1.7400  0.4907 -1.1225
 3528SOL    HW222044   2.239   3.716  12.779 -1.4517 -0.4377  0.8351
 3529SOL     OW22045   0.129   0.930   4.394 -0.5882 -0.4293  0.2950
 3529SOL    HW122046   0.170   0.846   4.417  0.8984  0.0010 -0.8039
 3529SOL    HW222047   0.057   0.884   4.351  0.6617 -2.1413  0.0305
 3530SOL     OW22048   3.055   4.102   9.114 -0.5853 -0.0758  0.1861
 3530SOL    HW122049   3.089   4.108   9.025  3.8625  0.5459  1.9313
 3530SOL    HW222050   3.089   4.019   9.147  1.2916  1.1493  1.3673
 3531SOL     OW22051   3.237   2.290   8.600  0.0711 -0.1042  0.9079
 3531SOL    HW122052   3.288   2.223   8.554 -0.3336  0.5758 -0.5244
 3531SOL    HW222053   3.168   2.232   8.631 -1.9968  1.5596 -0.5691
 3532SOL     OW22054   4.218   1.247   4.521  0.4499  0.2421 -0.0401
 3532SOL    HW122055   4.230   1.152   4.520  1.8138  0.4051  0.7354
 3532SOL    HW222056   4.297   1.273   4.570 -0.8341  0.0895  2.1366
 3533SOL     OW22057   4.711   3.699   4.341 -0.4789  0.5691  0.0569
 3533SOL    HW122058   4.699   3.707   4.436 -1.7962  2.2632 -0.2618
 3533SOL    HW222059   0.072   3.656   4.355 -0.6211  0.7705  1.5339
 3534SOL     OW22060   1.911   1.267   6.140  0.6509 -0.8285  0.3143
 3534SOL    HW122061   1.901   1.304   6.228 -1.8280 -1.8359  0.4657
 3534SOL    HW222062   1.819   1.258   6.117  0.5208 -0.1948  0.5765
 3535SOL     OW22063   4.415   0.224   2.469  0.6039  0.7081 -0.1012
 3535SOL    HW122064   4.388   0.291   2.533  2.8760  1.7179 -0.1835
 3535SOL    HW222065   4.473   0.277   2.414  0.3155  1.5962  0.4490
 3536SOL     OW22066   3.920   3.967   8.270  0.2877 -0.1228 -0.3443
 3536SOL    HW122067   3.977   3.927   8.204 -0.4388  1.2030 -1.7808
 3536SOL    HW222068   3.838   3.957   8.221  0.5296 -0.7272 -0.6188
 3537SOL     OW22069   4.538   1.516  13.252  0.2324  0.2473  0.1372
 3537SOL    HW122070   4.447   1.487  13.249 -0.0531  1.1491  0.3442
 3537SOL    HW222071   4.555   1.515  13.346 -2.8501  1.7401  0.6974
 3538SOL     OW22072   0.098   2.860   8.923 -0.8523 -0.2617  0.0881
 3538SOL    HW122073   0.048   2.841   9.003 -1.0678  0.3359  0.0946
 3538SOL    HW222074   0.169   2.915   8.954 -1.2117  0.8632 -1.1052
 3539SOL     OW22075   1.173   0.748   8.055  0.4839 -0.0534  0.2761
 3539SOL    HW122076   1.217   0.808   7.995  1.8588 -2.0426 -0.6603
 3539SOL    HW222077   1.087   0.749   8.013  0.2320  0.0045  0.7859
 3540SOL     OW22078   2.260   3.695   4.193 -0.4818  0.2975 -0.1390
 3540SOL    HW122079   2.302   3.779   4.175 -1.8967  1.5337  2.3740
 3540SOL    HW222080   2.300   3.668   4.275 -2.2215 -0.2775  0.5191
 3541SOL     OW22081   3.572   0.900  16.318 -0.4043  0.1259 -0.1997
 3541SOL    HW122082   3.480   0.898  16.346 -0.2932 -2.4334 -0.0766
 3541SOL    HW222083   3.602   0.897  16.409 -1.2411 -0.5361  0.0500
 3542SOL     OW22084   0.130   4.399   9.005  0.2136 -0.1012 -0.0401
 3542SOL    HW122085   0.198   4.423   9.068 -0.2845  2.2243 -0.3641
 3542SOL    HW222086   0.060   4.353   9.050  1.1476 -1.8621 -0.3839
 3543SOL     OW22087   1.292   3.370   8.187  0.0272 -0.3090  0.3514
 3543SOL    HW122088   1.347   3.306   8.141  1.3419  1.8418 -1.0746
 3543SOL    HW222089   1.335   3.384   8.272  1.2206  0.5429 -0.3885
 3544SOL     OW22090   2.511   2.111   7.840  0.6757  0.2578 -0.4696
 3544SOL    HW122091   2.573   2.182   7.826  0.1539  0.6922 -0.5966
 3544SOL    HW222092   2.533   2.047   7.772 -1.1802 -0.2282 -0.6184
 3545SOL     OW22093   1.369   2.097   9.460  0.3985  0.0452  0.1974
 3545SOL    HW122094   1.283   2.061   9.437 -0.4624  0.6431  2.4890
 3545SOL    HW222095   1.424   2.019   9.455 -0.5698 -0.5810 -0.7075
 3546SOL     OW22096   0.101   4.214   3.028 -0.1124  0.2970 -0.3050
 3546SOL    HW122097   0.021   4.265   3.013  0.0760  0.9993  1.1376
 3546SOL    HW222098   0.069   4.151   3.093  2.7593 -0.5852  0.2388
 3547SOL     OW22099   2.199   3.413  11.355  0.5528 -0.5591  0.0474
 3547SOL    HW122100   2.136   3.478  11.324  0.4924 -1.8395 -2.5125
 3547SOL    HW222101   2.175   3.348  11.289 -3.4678 -0.5975  1.5504
 3548SOL     OW22102   2.578   1.094   5.545 -0.1503  0.1620  0.6265
 3548SOL    HW122103   2.525   1.164   5.583 -1.1140 -0.8195  1.0809
 3548SOL    HW222104   2.555   1.016   5.596  2.3438 -0.6587  0.4940
 3549SOL     OW22105   2.732   1.120   6.290  0.2520 -0.2763  0.2270
 3549SOL    HW122106   2.696   1.190   6.344  1.2392 -0.2883  0.9091
 3549SOL    HW222107   2.821   1.147   6.265 -0.0700  1.6840  1.2081
 3550SOL     OW22108   3.396   4.460   9.274 -0.1527  0.0390 -0.8885
 3550SOL    HW122109   3.377   4.368   9.291 -0.7113  0.4871  0.9175
 3550SOL    HW222110   3.462   4.443   9.206  0.0331  0.1085 -0.7264
 3551SOL     OW22111   3.958   2.936   3.307 -0.1394 -0.3126  0.4345
 3551SOL    HW122112   3.978   3.029   3.301 -1.3271 -0.2177 -2.0580
 3551SOL    HW222113   3.954   2.917   3.213 -0.4106  2.1064 -0.0493
 3552SOL     OW22114   3.122   3.890   3.635  0.3397  0.2835  1.1587
 3552SOL    HW122115   3.030   3.901   3.612 -0.0586 -3.8085  0.6549
 3552SOL    HW222116   3.150   3.824   3.572 -1.2681 -0.3821  1.1511
 3553SOL     OW22117   3.228   0.820   4.763 -0.8280  0.1098 -0.0809
 3553SOL    HW122118   3.208   0.750   4.701  0.8161  0.4691 -1.0081
 3553SOL    HW222119   3.153   0.878   4.745 -1.0958  0.1649  1.2668
 3554SOL     OW22120   4.023   3.777  13.361 -0.2257  0.2438  0.1573
 3554SOL    HW122121   3.974   3.820  13.291 -0.4837  1.1321  0.8799
 3554SOL    HW222122   4.013   3.687  13.332  0.4254  0.7001 -1.4666
 3555SOL     OW22123   0.114   3.426   7.626  0.1566 -0.1793  0.9859
 3555SOL    HW122124   0.055   3.351   7.622  0.3118 -0.2616  0.3624
 3555SOL    HW222125   0.199   3.387   7.651 -0.2319 -0.7758  1.4025
 3556SOL     OW22126   2.585   1.978   7.623  0.0549  0.4504 -0.4087
 3556SOL    HW122127   2.520   2.011   7.560 -2.1020  0.8367  2.0451
 3556SOL    HW222128   2.659   1.976   7.562 -0.6027  2.1778 -1.2758
 3557SOL     OW22129   4.149   1.483  10.091  0.0183  0.4428 -0.4952
 3557SOL    HW122130   4.201   1.552  10.131  0.6020 -1.0711  1.3272
 3557SOL    HW222131   4.137   1.431  10.171 -0.5597  0.2517 -0.7038
 3558SOL     OW22132   2.907   2.991  13.928  0.2003  0.1138  0.2392
 3558SOL    HW122133   2.888   3.081  13.952  0.1843 -0.0074  0.6835
 3558SOL    HW222134   2.984   2.975  13.983  0.7894  2.8081  0.1567
 3559SOL     OW22135   3.444   2.279   3.992  0.5928 -0.0322 -0.2140
 3559SOL    HW122136   3.503   2.220   3.945 -2.1055 -1.5822 -1.6247
 3559SOL    HW222137   3.373   2.221   4.019  0.2076 -0.0290 -1.2621
 3560SOL     OW22138   2.927   2.816   5.242  0.2938 -0.3936  0.1018
 3560SOL    HW122139   2.971   2.888   5.196 -1.5042  0.3093 -0.5201
 3560SOL    HW222140   2.968   2.743   5.196 -1.0324 -0.3436 -1.1182
 3561SOL     OW22141   4.223   3.930   9.421  0.2762  0.1364  0.9312
 3561SOL    HW122142   4.148   3.947   9.364  2.0645  2.9209 -0.5977
 3561SOL    HW222143   4.220   3.835   9.420  1.7203  0.1293 -2.0454
 3562SOL     OW22144   4.093   3.924  14.948  1.2408  0.0102 -0.3449
 3562SOL    HW122145   4.005   3.892  14.934  0.8799  0.5690  0.6186
 3562SOL    HW222146   4.116   3.976  14.871 -1.2390  1.2580 -0.2363
 3563SOL     OW22147   2.828   0.851   2.930 -0.4162 -0.7442  0.4476
 3563SOL    HW122148   2.901   0.848   2.993 -0.8894 -1.5936  0.9588
 3563SOL    HW222149   2.803   0.759   2.921 -0.8007 -0.6610  0.6779
 3564SOL     OW22150   4.620   2.817   5.745  0.2754  0.4719  0.2952
 3564SOL    HW122151   4.655   2.876   5.813 -1.7233  1.0580  0.8007
 3564SOL    HW222152   4.642   2.867   5.667 -0.7448  0.0091 -0.2804
 3565SOL     OW22153   4.174   3.381   6.578  0.6438  0.2749 -0.0581
 3565SOL    HW122154   4.233   3.445   6.539 -0.1838  1.3415  0.4209
 3565SOL    HW222155   4.241   3.317   6.603  0.4433  0.3082  0.5786
 3566SOL     OW22156   2.742   1.323   7.491 -0.0870  0.6450  0.1371
 3566SOL    HW122157   2.689   1.323   7.411 -0.7294  1.6802  0.5573
 3566SOL    HW222158   2.823   1.285   7.456 -1.0138  0.3577 -1.7167
 3567SOL     OW22159   0.172   3.270   5.534  0.4250  0.6059 -0.0264
 3567SOL    HW122160   0.201   3.328   5.604  1.4926  1.5737 -1.2862
 3567SOL    HW222161   0.076   3.275   5.542  0.4252  0.9468 -0.2181
 3568SOL     OW22162   1.776   0.657   6.543  0.1392  0.3820 -0.0824
 3568SOL    HW122163   1.827   0.611   6.609 -0.7273 -0.5926 -0.0999
 3568SOL    HW222164   1.694   0.612   6.560  1.6616 -2.1302  0.5705
 3569SOL     OW22165   1.044   3.520   2.462  0.2752 -0.2380  0.3724
 3569SOL    HW122166   0.983   3.579   2.505  1.2650  0.6171  0.5902
 3569SOL    HW222167   0.996   3.437   2.455  0.7964 -0.5981  1.0434
 3570SOL     OW22168   1.379   0.870  16.912 -0.2931  0.1408 -0.8983
 3570SOL    HW122169   1.363   0.811  16.986  0.5072  0.1815 -0.6856
 3570SOL    HW222170   1.304   0.929  16.917 -0.2952 -0.1390  2.3169
 3571SOL     OW22171   3.094   3.434   8.415  0.1980 -0.3355  0.5881
 3571SOL    HW122172   3.060   3.458   8.501 -1.3230 -0.7972  0.1161
 3571SOL    HW222173   3.153   3.508   8.401 -0.3071  0.0072  0.2756
 3572SOL     OW22174   4.195   0.593  16.024 -0.1450 -0.8108 -0.2067
 3572SOL    HW122175   4.225   0.525  15.963 -1.2963 -1.0619 -0.4895
 3572SOL    HW222176   4.235   0.667  15.978 -1.8931 -0.5803 -1.3390
 3573SOL     OW22177   1.672   2.317   1.171  0.2690  0.6076  0.2472
 3573SOL    HW122178   1.709   2.331   1.084  1.4457  0.3553  0.7079
 3573SOL    HW222179   1.753   2.296   1.217 -0.3586 -2.4203 -0.0772
 3574SOL     OW22180   4.252   0.138   4.153  0.4109  0.3246  0.3775
 3574SOL    HW122181   4.294   0.073   4.096 -2.6048  0.3648 -1.9435
 3574SOL    HW222182   4.180   0.175   4.101  1.2027 -0.8095 -1.5082
 3575SOL     OW22183   4.181   1.895   0.652  0.0348 -0.0154 -0.0106
 3575SOL    HW122184   4.238   1.939   0.715 -0.1490  2.2360 -1.4076
 3575SOL    HW222185   4.211   1.809   0.681 -0.8806  0.1253  1.3548
 3576SOL     OW22186   2.941   2.670   8.221 -0.2481 -0.0776  0.1302
 3576SOL    HW122187   2.860   2.664   8.272 -1.8480  0.4684 -2.3413
 3576SOL    HW222188   2.916   2.712   8.139  0.0979 -1.9690 -0.9574
 3577SOL     OW22189   3.144   2.601  12.341 -0.3103 -0.0735 -0.1676
 3577SOL    HW122190   3.234   2.573  12.358 -0.7647  0.0778  2.4997
 3577SOL    HW222191   3.119   2.566  12.255  1.7793 -0.7175 -0.5073
 3578SOL     OW22192   0.493   3.361   6.018  0.2360 -0.0303 -0.2518
 3578SOL    HW122193   0.461   3.284   5.970 -1.3994 -1.1775  2.6684
 3578SOL    HW222194   0.444   3.432   5.977  0.9072  0.0061 -0.9793
 3579SOL     OW22195   2.479   4.068  10.535  0.0755 -0.1423  0.5020
 3579SOL    HW122196   2.422   4.059  10.612  1.2316  1.6938  1.5732
 3579SOL    HW222197   2.548   4.106  10.589 -1.5497  1.1219  1.7114
 3580SOL     OW22198   1.877   0.432  15.422  0.6907 -0.2358 -0.3791
 3580SOL    HW122199   1.894   0.408  15.331 -1.9432 -2.2668 -0.3278
 3580SOL    HW222200   1.959   0.402  15.462 -1.6793 -3.9039  1.6703
 3581SOL     OW22201   4.499   2.783  16.000  0.1143 -0.2418  0.1685
 3581SOL    HW122202   4.576   2.831  16.030  0.5266 -1.0153  0.3378
 3581SOL    HW222203   4.531   2.695  15.981  1.3545  0.1333  0.5569
 3582SOL     OW22204   1.934   3.268   7.147 -0.2616 -0.0299  0.4371
 3582SOL    HW122205   1.940   3.239   7.056 -0.4137  0.8951  0.1355
 3582SOL    HW222206   1.967   3.357   7.137 -0.8516  0.2769  1.2385
 3583SOL     OW22207   2.549   2.385   6.790 -0.0781 -0.1098  0.7286
 3583SOL    HW122208   2.530   2.418   6.878  0.7338  0.7036  0.5933
 3583SOL    HW222209   2.640   2.364   6.810 -0.1609 -0.9490  0.2155
 3584SOL     OW22210   1.545   0.702  16.778 -0.1488  0.7657 -0.0682
 3584SOL    HW122211   1.632   0.696  16.816  0.1840  2.0806 -0.6197
 3584SOL    HW222212   1.503   0.767  16.834 -0.3015 -0.1809  0.9253
 3585SOL     OW22213   3.440   1.164   9.534  0.8020  0.3847  0.1559
 3585SOL    HW122214   3.395   1.247   9.549  0.4782 -0.1040  1.8466
 3585SOL    HW222215   3.425   1.128   9.621 -1.1026  1.5109  0.2808
 3586SOL     OW22216   1.478   2.431   6.508  0.3859 -1.0933 -0.3752
 3586SOL    HW122217   1.572   2.448   6.504  0.1521  0.9392  2.8741
 3586SOL    HW222218   1.451   2.415   6.418  0.4302 -0.0940 -0.5576
 3587SOL     OW22219   3.001   3.507  16.732  0.1946  0.5358 -0.4291
 3587SOL    HW122220   3.019   3.449  16.658  0.2578  0.0324 -0.0271
 3587SOL    HW222221   3.050   3.585  16.707  0.5319  0.2267 -0.7327
 3588SOL     OW22222   2.213   3.231   5.257 -0.5089  0.0564 -0.6039
 3588SOL    HW122223   2.243   3.167   5.192  0.4402 -1.7514  1.6134
 3588SOL    HW222224   2.118   3.223   5.252 -0.4558 -0.9895  0.0198
 3589SOL     OW22225   3.108   3.790  13.983 -0.1096  0.3909  0.6361
 3589SOL    HW122226   3.036   3.853  13.989  0.2979  1.0598 -1.8041
 3589SOL    HW222227   3.135   3.764  14.071  0.6312 -0.6387  0.1024
 3590SOL     OW22228   1.431   3.287   0.683  0.4046  0.0073 -0.2269
 3590SOL    HW122229   1.367   3.253   0.746 -1.4095 -0.0853 -2.1046
 3590SOL    HW222230   1.464   3.360   0.734 -1.4730  0.9536 -0.3880
 3591SOL     OW22231   3.634   3.213   1.358 -0.1371 -0.1851 -0.1909
 3591SOL    HW122232   3.726   3.238   1.349 -0.4345  0.9867  0.0702
 3591SOL    HW222233   3.605   3.220   1.267 -0.7777  1.1256  0.1218
 3592SOL     OW22234   2.511   2.019   8.258  0.4016 -0.3757  0.2016
 3592SOL    HW122235   2.548   1.939   8.222 -0.6404  0.9911 -3.8882
 3592SOL    HW222236   2.485   1.987   8.344  2.5581 -2.2034  0.1630
 3593SOL     OW22237   4.522   0.800  11.172  0.1668  0.2544 -0.3434
 3593SOL    HW122238   4.504   0.888  11.139  1.9004 -0.1873 -2.4678
 3593SOL    HW222239   4.531   0.812  11.266  1.1779  0.9535 -0.5321
 3594SOL     OW22240   3.655   3.845  16.536  0.0049  0.1767  0.0183
 3594SOL    HW122241   3.658   3.783  16.608 -0.6482 -3.2848 -2.9251
 3594SOL    HW222242   3.654   3.785  16.461  0.1933 -0.7548  0.7720
 3595SOL     OW22243   2.760   2.997   4.873 -0.1800  0.1505 -0.1279
 3595SOL    HW122244   2.839   3.049   4.885  2.1297 -2.6284 -3.1268
 3595SOL    HW222245   2.697   3.047   4.923 -0.6074 -0.7458  0.2346
 3596SOL     OW22246   0.887   3.616   6.399  0.2108 -0.0507 -0.0640
 3596SOL    HW122247   0.971   3.569   6.395 -0.1008 -0.5694 -0.4174
 3596SOL    HW222248   0.849   3.567   6.472  0.3824 -0.0879  0.0020
 3597SOL     OW22249   1.114   4.312   5.574  0.8052 -0.4329  0.5251
 3597SOL    HW122250   1.206   4.286   5.573  1.4291  1.7195  1.7701
 3597SOL    HW222251   1.121   4.382   5.638  1.8826 -0.0623  0.0043
 3598SOL     OW22252   1.824   0.238   8.080  0.3588 -0.3592 -0.0034
 3598SOL    HW122253   1.755   0.303   8.093  1.1324  0.0529  1.9381
 3598SOL    HW222254   1.802   0.191   8.000 -0.5118 -0.2396  0.1638
 3599SOL     OW22255   1.242   0.702   7.741  0.2959 -0.5469  0.1930
 3599SOL    HW122256   1.237   0.730   7.649 -0.7515 -0.2539  0.3437
 3599SOL    HW222257   1.158   0.656   7.745  0.4903 -0.8457  0.7359
 3600SOL     OW22258   0.634   4.191   4.095 -0.0226  0.0196  0.3057
 3600SOL    HW122259   0.586   4.134   4.036 -0.3207 -1.3234  1.8501
 3600SOL    HW222260   0.566   4.249   4.129 -1.3428 -2.0166  1.0874
 3601SOL     OW22261   0.223   2.274  10.513 -0.2936 -0.3122  0.4953
 3601SOL    HW122262   0.162   2.310  10.449 -0.4052 -2.8254 -0.7983
 3601SOL    HW222263   0.185   2.320  10.588  0.3028 -0.7618  1.0762
 3602SOL     OW22264   0.862   1.294   4.269 -0.8133  0.1974  0.2950
 3602SOL    HW122265   0.856   1.280   4.363  0.2782  1.0705  0.4947
 3602SOL    HW222266   0.869   1.389   4.261 -2.4686  0.2747 -0.3345
 3603SOL     OW22267   2.128   1.638   9.578 -0.1607  0.9926  0.0084
 3603SOL    HW122268   2.104   1.679   9.495 -0.9203 -0.4623 -0.4863
 3603SOL    HW222269   2.203   1.697   9.592 -2.0952  3.1786  1.1423
 3604SOL     OW22270   1.669   0.111   9.224  0.3269  0.3130  0.0416
 3604SOL    HW122271   1.658   0.086   9.133  3.0361  0.6504 -0.3528
 3604SOL    HW222272   1.720   0.037   9.256 -0.5013 -0.1326  0.3521
 3605SOL     OW22273   1.401   4.405  15.114 -0.1750  0.0732  0.0542
 3605SOL    HW122274   1.405   4.323  15.065 -0.9336  0.6380 -0.9559
 3605SOL    HW222275   1.487   4.446  15.106 -1.4441  2.4290 -1.3240
 3606SOL     OW22276   3.001   0.816   8.101 -0.6384  0.5328  0.3939
 3606SOL    HW122277   3.082   0.779   8.067 -0.5988  1.1947 -0.2398
 3606SOL    HW222278   3.005   0.788   8.192 -1.6652  0.9485  0.5784
 3607SOL     OW22279   0.331   0.013   4.652  0.6230 -0.5359 -0.1250
 3607SOL    HW122280   0.347   0.088   4.709 -1.6422  0.2901 -0.5923
 3607SOL    HW222281   0.422   4.723   4.624  0.8189  0.4826  0.0386
 3608SOL     OW22282   3.619   0.684   4.073  0.2248 -0.1938  0.2463
 3608SOL    HW122283   3.707   0.647   4.077  0.7213  0.6314 -2.6674
 3608SOL    HW222284   3.629   0.730   3.989  2.7847  0.2865  0.8220
 3609SOL     OW22285   2.249   1.187  10.189 -0.1758  0.5940  0.2385
 3609SOL    HW122286   2.196   1.155  10.262 -0.0449  1.2629  0.6248
 3609SOL    HW222287   2.243   1.106  10.138  0.8051  0.0817  0.9252
 3610SOL     OW22288   3.281   1.124   7.134 -0.2041 -0.1631  0.1155
 3610SOL    HW122289   3.206   1.108   7.077 -0.6309 -2.3598  1.2588
 3610SOL    HW222290   3.281   1.218   7.151 -1.6074  0.0340 -1.0339
 3611SOL     OW22291   4.376   2.779   5.856 -0.1262 -0.0512 -0.4393
 3611SOL    HW122292   4.455   2.795   5.803 -2.0375  2.2035 -2.6317
 3611SOL    HW222293   4.311   2.835   5.813  0.6161  1.1538  0.0066
 3612SOL     OW22294   4.447   1.715   3.189  0.6779  0.0315  0.1447
 3612SOL    HW122295   4.395   1.757   3.257 -0.6693 -0.3316 -0.6534
 3612SOL    HW222296   4.514   1.782   3.175 -0.5775  1.2432 -0.0268
 3613SOL     OW22297   3.091   2.143   0.631 -0.0995 -0.2935 -0.5708
 3613SOL    HW122298   3.026   2.093   0.581  0.1947 -2.2276  0.9926
 3613SOL    HW222299   3.041   2.223   0.647  0.7686  0.3066 -0.9017
 3614SOL     OW22300   2.774   1.340  14.778  0.1939  0.1893  0.3341
 3614SOL    HW122301   2.785   1.248  14.755 -0.4335  0.2503 -0.1968
 3614SOL    HW222302   2.775   1.339  14.873 -0.9946  2.6694  0.3775
 3615SOL     OW22303   0.138   3.220  11.862  0.0793  0.2696  0.3517
 3615SOL    HW122304   0.078   3.293  11.847 -2.7975 -1.8353  1.8393
 3615SOL    HW222305   0.150   3.237  11.955  0.6836  1.8799 -0.0246
 3616SOL     OW22306   1.045   1.283   7.099 -0.4726 -0.1549  0.2209
 3616SOL    HW122307   1.021   1.219   7.033 -2.8387 -0.7036  1.5898
 3616SOL    HW222308   1.110   1.338   7.056  0.2263 -0.5734  0.7408
 3617SOL     OW22309   3.599   0.759   7.657  0.9435  0.3706 -0.4833
 3617SOL    HW122310   3.551   0.820   7.601  0.4427 -0.2979 -0.7799
 3617SOL    HW222311   3.691   0.784   7.656  1.3575 -1.1456 -0.9072
 3618SOL     OW22312   0.033   3.440   2.588 -0.7151 -0.0941  0.3264
 3618SOL    HW122313   0.124   3.456   2.563 -0.5444  1.2130  1.8209
 3618SOL    HW222314   0.047   3.392   2.670 -0.3102  1.0006  0.8919
 3619SOL     OW22315   1.100   0.316   4.150  0.1703  0.2205 -0.2884
 3619SOL    HW122316   1.187   0.316   4.109 -0.4028 -3.2786 -1.5567
 3619SOL    HW222317   1.091   0.223   4.173 -0.5611  0.3726  0.0201
 3620SOL     OW22318   2.959   3.896   1.545  0.2470  0.0404 -0.4564
 3620SOL    HW122319   3.041   3.885   1.497 -0.1937  0.5152 -1.3159
 3620SOL    HW222320   2.948   3.991   1.547 -0.5635 -0.0677  0.0594
 3621SOL     OW22321   0.195   0.846  13.413 -0.0735  0.0679 -0.5704
 3621SOL    HW122322   0.216   0.939  13.421 -2.0578  0.3979  0.6825
 3621SOL    HW222323   0.271   0.805  13.454 -0.4746  0.5793  0.6680
 3622SOL     OW22324   2.610   0.477   5.160  0.1954  0.0812 -0.8131
 3622SOL    HW122325   2.651   0.471   5.073 -1.9044 -0.7438 -1.7664
 3622SOL    HW222326   2.520   0.503   5.142 -0.8491 -1.7204  1.8605
 3623SOL     OW22327   2.039   3.079   1.294 -0.4846 -0.2370  0.2027
 3623SOL    HW122328   2.050   2.994   1.252  0.4578  0.1128 -0.2412
 3623SOL    HW222329   1.965   3.067   1.354 -0.6365 -0.9448 -0.1325
 3624SOL     OW22330   3.880   1.574  15.638 -0.0083 -0.6453  0.2949
 3624SOL    HW122331   3.807   1.594  15.579  1.3352 -0.4745 -1.3074
 3624SOL    HW222332   3.946   1.558  15.571 -0.1789  0.8308 -0.2117
 3625SOL     OW22333   1.477   4.354   0.759  0.2676 -0.0770  0.3281
 3625SOL    HW122334   1.441   4.293   0.823  1.0762 -1.1762 -0.2705
 3625SOL    HW222335   1.435   4.330   0.677 -0.8664  2.0699  0.2660
 3626SOL     OW22336   3.032   3.076   3.398  0.5714  0.5171  0.2532
 3626SOL    HW122337   2.985   3.042   3.322 -1.4058  1.1538  1.1842
 3626SOL    HW222338   2.989   3.034   3.472  1.4750  0.4870  0.7562
 3627SOL     OW22339   2.470   2.407   5.488  0.6318 -0.5399 -0.2398
 3627SOL    HW122340   2.400   2.467   5.464  1.9231  0.5471 -1.2642
 3627SOL    HW222341   2.424   2.367   5.562 -1.7578 -1.4698 -2.2151
 3628SOL     OW22342   0.970   0.244  12.938 -0.6396  0.2521  0.1748
 3628SOL    HW122343   0.879   0.265  12.918 -0.2610 -0.1768 -1.9831
 3628SOL    HW222344   0.999   0.213  12.852 -2.6295  0.6892 -0.6615
 3629SOL     OW22345   4.394   4.445   3.773 -0.2888  0.1741  0.2797
 3629SOL    HW122346   4.434   4.531   3.757 -0.9103  0.3184 -0.4858
 3629SOL    HW222347   4.407   4.436   3.867  1.2176  1.2754  0.1765
 3630SOL     OW22348   0.055   1.274   4.678  0.4669 -0.1937 -0.1780
 3630SOL    HW122349   0.078   1.195   4.729 -0.9984 -0.7613 -0.3936
 3630SOL    HW222350   0.121   1.337   4.707  0.4559 -1.0745  1.8088
 3631SOL     OW22351   2.570   1.288   3.541  0.1282  0.2538 -0.3610
 3631SOL    HW122352   2.583   1.266   3.449  0.7254 -1.8487  0.2323
 3631SOL    HW222353   2.655   1.255   3.571 -0.3417 -0.6870 -0.0664
 3632SOL     OW22354   4.502   2.254   8.945  0.5882 -0.3450 -0.2697
 3632SOL    HW122355   4.419   2.222   8.908  0.8179 -1.3702  0.1022
 3632SOL    HW222356   4.492   2.207   9.028 -0.4834  1.1436  0.4579
 3633SOL     OW22357   1.376   3.591   2.978  0.8863  0.1504 -0.2544
 3633SOL    HW122358   1.401   3.517   2.923 -0.1138 -0.6883  0.4238
 3633SOL    HW222359   1.467   3.611   2.999  1.0311  0.2029 -0.9431
 3634SOL     OW22360   2.102   3.147   7.324 -0.3224  0.0720 -0.1773
 3634SOL    HW122361   2.059   3.168   7.407 -0.9373  1.1420 -0.7690
 3634SOL    HW222362   2.036   3.183   7.265 -0.6963 -2.3044 -1.2073
 3635SOL     OW22363   1.925   4.548   5.146  0.6623  0.1610 -0.2449
 3635SOL    HW122364   1.878   4.592   5.075 -0.7309 -2.0829 -0.7247
 3635SOL    HW222365   1.941   4.467   5.098 -2.7528 -0.4165 -0.4488
 3636SOL     OW22366   3.135   1.016   1.204 -0.2667 -0.5169 -0.2326
 3636SOL    HW122367   3.046   1.005   1.172  0.4104 -2.2409 -1.5425
 3636SOL    HW222368   3.113   1.047   1.292  0.2472 -1.0324  0.0737
 3637SOL     OW22369   1.297   2.681   3.252  0.5112 -0.3383 -1.1120
 3637SOL    HW122370   1.354   2.757   3.238 -0.6339  0.8582  0.6607
 3637SOL    HW222371   1.315   2.640   3.167 -0.3641 -1.4828 -0.7453
 3638SOL     OW22372   0.898   0.680   3.762 -0.1953  0.3343 -0.0885
 3638SOL    HW122373   0.907   0.701   3.855  0.8511 -1.2888  0.1766
 3638SOL    HW222374   0.962   0.739   3.721  0.9554 -0.6801  0.2597
 3639SOL     OW22375   0.743   4.634  17.639 -0.2304  0.4003 -0.2476
 3639SOL    HW122376   0.756   4.689   0.022  0.4682 -1.5857  1.0424
 3639SOL    HW222377   0.761   4.547  17.674  0.0478  1.6553  2.6715
 3640SOL     OW22378   4.186   0.175  16.015 -0.0531 -0.1350 -0.3793
 3640SOL    HW122379   4.097   0.154  15.986  0.5862  0.2165 -2.5458
 3640SOL    HW222380   4.169   0.216  16.100  2.1860 -1.9908  0.9797
 3641SOL     OW22381   3.134   3.643   4.889 -0.0306 -0.0276  0.5282
 3641SOL    HW122382   3.199   3.704   4.924 -1.6690  1.8022  0.3493
 3641SOL    HW222383   3.111   3.685   4.807 -1.8498 -0.8129  0.6241
 3642SOL     OW22384   0.684   3.305   8.036 -0.1138  0.2537  0.0351
 3642SOL    HW122385   0.689   3.389   7.989  0.8430 -1.1265 -2.3325
 3642SOL    HW222386   0.747   3.314   8.107 -0.7476  1.2676  0.4744
 3643SOL     OW22387   2.549   2.512   1.760  0.4959 -0.5898  0.4576
 3643SOL    HW122388   2.507   2.533   1.844  0.0319  0.0750  0.0541
 3643SOL    HW222389   2.540   2.416   1.764  0.2367 -0.6996 -3.4587
 3644SOL     OW22390   3.038   2.509   6.813  0.0025 -1.0053  0.4821
 3644SOL    HW122391   3.122   2.464   6.809  0.3304 -0.4667  1.4046
 3644SOL    HW222392   3.064   2.594   6.850 -0.7906  0.2181 -1.7268
 3645SOL     OW22393   1.385   3.588   5.228 -0.0454  0.1270  0.7179
 3645SOL    HW122394   1.433   3.568   5.308 -0.8909 -1.3615  0.8459
 3645SOL    HW222395   1.379   3.682   5.243 -0.8944  0.6367 -2.9070
 3646SOL     OW22396   1.994   0.140   8.919  0.0643  0.2567 -0.4375
 3646SOL    HW122397   1.920   0.122   8.862  0.0623  0.1244 -0.3922
 3646SOL    HW222398   2.062   0.090   8.875  0.0505  0.4181 -0.6405
 3647SOL     OW22399   1.471   2.480  16.336 -0.1891 -0.0523  0.7305
 3647SOL    HW122400   1.426   2.442  16.261  0.8690  0.2982 -0.0809
 3647SOL    HW222401   1.536   2.412  16.355  0.2669  0.4631  1.0039
 3648SOL     OW22402   1.416   1.626   5.163 -0.1175 -0.3337  0.1724
 3648SOL    HW122403   1.439   1.680   5.238  1.7024  0.0712 -0.6719
 3648SOL    HW222404   1.461   1.673   5.093  0.4322 -1.9251 -0.5591
 3649SOL     OW22405   2.925   3.798   7.765 -0.0694 -0.1549 -0.3360
 3649SOL    HW122406   2.834   3.825   7.770 -0.1350  0.3299 -4.3151
 3649SOL    HW222407   2.963   3.853   7.697  0.8919 -0.2425  0.1295
 3650SOL     OW22408   3.948   2.671   8.140 -0.5495 -0.2246 -0.2777
 3650SOL    HW122409   3.959   2.689   8.233 -0.4226  0.5880 -0.4513
 3650SOL    HW222410   3.861   2.708   8.129 -1.2234 -1.6034  0.5204
 3651SOL     OW22411   2.407   0.119   0.078  0.4106  0.0242 -0.3001
 3651SOL    HW122412   2.315   0.142   0.087  0.6236  1.4545 -1.7436
 3651SOL    HW222413   2.415   0.080   0.165 -0.3841  1.4363  0.4068
 3652SOL     OW22414   0.340   1.331  11.672  0.3104  0.1418 -0.4785
 3652SOL    HW122415   0.427   1.371  11.674  0.0014  0.8261 -0.7896
 3652SOL    HW222416   0.359   1.241  11.644  0.7379  0.0920 -0.0276
 3653SOL     OW22417   4.480   0.683  10.918 -0.1843 -0.1562  0.1671
 3653SOL    HW122418   4.573   0.663  10.931 -0.0340  1.2031  1.0604
 3653SOL    HW222419   4.454   0.677  11.010 -1.5104  0.3052 -0.1869
 3654SOL     OW22420   1.114   3.460   7.843  0.4178 -0.1464  0.2640
 3654SOL    HW122421   1.070   3.400   7.904  1.0620 -0.2145  0.6594
 3654SOL    HW222422   1.123   3.402   7.768  1.0865  0.2801  0.0188
 3655SOL     OW22423   0.322   0.349   9.513  0.1831 -0.4085  0.0216
 3655SOL    HW122424   0.394   0.320   9.568  2.4426 -0.3877 -2.8952
 3655SOL    HW222425   0.336   0.444   9.514 -0.1037 -0.3638 -0.0544
 3656SOL     OW22426   0.324   0.223   9.283 -0.4147 -0.4817 -0.3059
 3656SOL    HW122427   0.358   0.304   9.244  0.3002 -0.2017  0.8928
 3656SOL    HW222428   0.323   0.251   9.375  0.6431  0.3502 -0.5465
 3657SOL     OW22429   1.107   1.381  11.295 -0.8227  0.4335  0.1321
 3657SOL    HW122430   1.151   1.464  11.275 -0.8157  0.5883  0.7915
 3657SOL    HW222431   1.181   1.324  11.314 -1.4429  0.2175  1.9335
 3658SOL     OW22432   2.598   3.561   8.405 -0.0091  0.6153  0.2712
 3658SOL    HW122433   2.519   3.509   8.394 -1.0199  2.3728 -0.8600
 3658SOL    HW222434   2.663   3.513   8.354 -1.3897 -1.1664  0.2063
 3659SOL     OW22435   4.420   3.101  17.132 -0.9707  0.0552  0.1553
 3659SOL    HW122436   4.342   3.132  17.179 -0.1570 -0.2757  1.7089
 3659SOL    HW222437   4.487   3.152  17.177 -1.3530 -0.0605  0.8577
 3660SOL     OW22438   3.027   0.899   5.609  0.4219 -0.0480  0.8701
 3660SOL    HW122439   3.048   0.808   5.592 -0.0699  0.2810 -1.4383
 3660SOL    HW222440   3.031   0.935   5.521  1.6407 -0.2933  0.8337
 3661SOL     OW22441   1.768   2.747   9.200 -0.0916  0.0282 -0.1617
 3661SOL    HW122442   1.841   2.715   9.147 -0.9660  1.8029 -2.4370
 3661SOL    HW222443   1.744   2.679   9.264 -0.5213  0.1568 -0.1885
 3662SOL     OW22444   2.378   3.788   8.310  0.4831  0.6700  0.0553
 3662SOL    HW122445   2.450   3.727   8.329 -0.0777 -0.6018 -1.8783
 3662SOL    HW222446   2.297   3.740   8.326 -0.6854  2.8378  0.6001
 3663SOL     OW22447   1.869   1.742   8.217 -0.4893 -0.4402  0.1413
 3663SOL    HW122448   1.879   1.767   8.125 -0.5538 -0.2294  0.1915
 3663SOL    HW222449   1.831   1.654   8.215 -1.2031 -0.1602  1.6007
 3664SOL     OW22450   0.771   1.668  13.434 -0.1798 -0.3249  0.1163
 3664SOL    HW122451   0.779   1.758  13.465 -1.5751 -0.1187 -0.1575
 3664SOL    HW222452   0.758   1.628  13.521  0.1750  0.5038  0.5510
 3665SOL     OW22453   3.829   4.620   7.535 -0.4030  0.5246  0.0634
 3665SOL    HW122454   3.768   4.546   7.528 -1.8866  1.7145  0.5028
 3665SOL    HW222455   3.778   4.701   7.539 -1.1658  0.0975 -1.1658
 3666SOL     OW22456   3.309   1.102  17.342 -0.5334  0.2243  0.2330
 3666SOL    HW122457   3.386   1.126  17.290 -1.2834  0.9912 -0.5164
 3666SOL    HW222458   3.248   1.174  17.324 -0.7838 -0.1859 -0.5349
 3667SOL     OW22459   3.861   2.557   6.423  0.2409  0.3607  0.1496
 3667SOL    HW122460   3.827   2.468   6.414 -0.2903  0.4485  1.3885
 3667SOL    HW222461   3.845   2.592   6.335 -1.1224  0.1579  0.3270
 3668SOL     OW22462   3.898   2.434   0.236  0.6907 -0.9055  0.2479
 3668SOL    HW122463   3.991   2.427   0.212  0.3377 -1.2646 -1.0204
 3668SOL    HW222464   3.901   2.397   0.324  0.3653 -1.9952 -0.2101
 3669SOL     OW22465   0.206   1.848   6.521  0.6042  0.0951  0.4794
 3669SOL    HW122466   0.140   1.914   6.501  1.8293  0.6590 -1.7298
 3669SOL    HW222467   0.239   1.884   6.603 -1.0141  1.2482  0.6287
 3670SOL     OW22468   3.569   0.353   5.312 -0.5254  0.2544 -0.1814
 3670SOL    HW122469   3.632   0.410   5.267  0.5613 -1.6970 -1.1251
 3670SOL    HW222470   3.614   0.269   5.305 -1.2226 -0.1409  0.1119
 3671SOL     OW22471   2.557   1.270   9.420 -0.2164 -0.1084  0.0519
 3671SOL    HW122472   2.517   1.185   9.440 -3.0912  0.7098 -2.1536
 3671SOL    HW222473   2.494   1.340   9.435 -0.3191 -0.1893  0.0046
 3672SOL     OW22474   4.684   0.876   7.215 -0.0057 -0.7051  0.5253
 3672SOL    HW122475   0.000   0.951   7.170  0.5032 -2.1765 -1.4631
 3672SOL    HW222476   0.007   0.892   7.298  1.2202 -2.2542  0.1355
 3673SOL     OW22477   2.126   0.996   2.435 -0.2102 -0.0717 -0.7775
 3673SOL    HW122478   2.083   0.999   2.521 -0.3289  0.8008 -0.8622
 3673SOL    HW222479   2.048   0.986   2.380  0.5006  0.0981 -1.8169
 3674SOL     OW22480   1.043   1.083  12.765  0.1079 -0.2638  0.2505
 3674SOL    HW122481   1.099   1.157  12.743  0.3578 -0.0953  1.4305
 3674SOL    HW222482   1.098   1.005  12.769 -0.8498 -0.9644 -0.5938
 3675SOL     OW22483   2.696   2.324   4.916  0.3575  0.4537 -0.0268
 3675SOL    HW122484   2.670   2.232   4.923  2.5603 -0.3030 -1.9102
 3675SOL    HW222485   2.653   2.353   4.997  1.9375  2.5438  0.0694
 3676SOL     OW22486   4.697   2.341   5.489 -0.3257 -0.3307 -0.6390
 3676SOL    HW122487   4.676   2.281   5.417 -1.6060  0.1028 -0.6272
 3676SOL    HW222488   4.623   2.331   5.549  0.6060  1.2723  0.7820
 3677SOL     OW22489   2.954   3.632   6.875 -0.0016  0.0127  0.2142
 3677SOL    HW122490   2.963   3.600   6.965 -1.8445 -1.4868 -0.1186
 3677SOL    HW222491   3.039   3.673   6.863  0.6299 -1.6422 -1.0875
 3678SOL     OW22492   0.268   4.363   7.571 -0.4436  0.2383  0.0967
 3678SOL    HW122493   0.309   4.440   7.530  0.1576  0.4379  1.0705
 3678SOL    HW222494   0.177   4.388   7.558 -0.0102  1.2339 -1.0979
 3679SOL     OW22495   3.162   1.404   0.877 -0.8381  0.3807 -0.1424
 3679SOL    HW122496   3.234   1.439   0.824  0.2299  0.1233  1.1384
 3679SOL    HW222497   3.205   1.384   0.961  0.0706 -0.7347 -0.8634
 3680SOL     OW22498   2.525   2.171  10.592  0.2681  0.5928  0.1889
 3680SOL    HW122499   2.618   2.186  10.610  0.6040 -1.7218  0.3217
 3680SOL    HW222500   2.514   2.077  10.601  2.5200 -0.0308 -3.3737
 3681SOL     OW22501   3.385   2.718   5.886 -0.5244 -0.9613 -0.0539
 3681SOL    HW122502   3.363   2.725   5.793  0.8305  0.4055 -0.2671
 3681SOL    HW222503   3.309   2.763   5.924  0.6779  1.2665 -0.2717
 3682SOL     OW22504   3.694   2.522  12.289  0.2752 -0.4939 -0.3747
 3682SOL    HW122505   3.750   2.554  12.218  2.6365 -1.2929  1.1164
 3682SOL    HW222506   3.754   2.462  12.334  0.8851  0.8562  0.6389
 3683SOL     OW22507   0.333   2.044   4.330 -0.2329 -0.0170  1.3146
 3683SOL    HW122508   0.357   2.133   4.354 -0.9680  0.8849 -1.2842
 3683SOL    HW222509   0.239   2.049   4.309  0.1619 -1.6405 -0.8300
 3684SOL     OW22510   1.836   3.238   6.659  0.0407 -0.4512 -0.2043
 3684SOL    HW122511   1.789   3.171   6.610 -0.5632  0.8610 -1.4201
 3684SOL    HW222512   1.817   3.323   6.618  0.2309  0.0296  0.7021
 3685SOL     OW22513   1.060   1.913   7.448  0.3667  0.2229  0.1062
 3685SOL    HW122514   1.029   1.825   7.426 -3.2845  1.5857 -0.0837
 3685SOL    HW222515   1.003   1.935   7.522 -0.4879  0.9824 -0.7895
 3686SOL     OW22516   2.721   0.265   8.152  0.5339 -0.1804 -0.3140
 3686SOL    HW122517   2.798   0.286   8.205  0.4126  0.0377 -0.2251
 3686SOL    HW222518   2.760   0.251   8.067  0.1570  1.0587 -0.6895
 3687SOL     OW22519   3.971   0.910   3.063  0.5815  0.3300 -0.4666
 3687SOL    HW122520   4.032   0.870   3.001 -1.3016 -0.0855 -2.0630
 3687SOL    HW222521   3.886   0.903   3.018  1.0839 -0.9547 -1.2148
 3688SOL     OW22522   3.990   2.850  10.511  0.1814  0.3267 -0.8677
 3688SOL    HW122523   4.083   2.862  10.529  0.2938 -2.4585  0.4279
 3688SOL    HW222524   3.965   2.841  10.603  0.9116 -0.8448 -0.7878
 3689SOL     OW22525   3.493   0.034   7.419 -0.2114 -1.0255 -0.3552
 3689SOL    HW122526   3.518   4.720   7.334 -0.3835  1.9060 -1.6742
 3689SOL    HW222527   3.401   0.014   7.433  0.2354 -1.9723  1.2527
 3690SOL     OW22528   2.754   0.306  11.576  0.3663 -0.4638 -0.3012
 3690SOL    HW122529   2.707   0.384  11.549  0.4230 -0.9122 -1.6833
 3690SOL    HW222530   2.845   0.336  11.573 -1.3725  4.5468 -1.5394
 3691SOL     OW22531   4.417   2.138   4.513  0.1613  0.1487 -0.0137
 3691SOL    HW122532   4.476   2.143   4.588  0.4074 -0.9982 -0.1209
 3691SOL    HW222533   4.331   2.161   4.546 -0.6660 -0.7183 -1.5253
 3692SOL     OW22534   4.203   3.336   0.587 -0.3106  0.1046 -0.3838
 3692SOL    HW122535   4.177   3.415   0.538  0.1912 -0.1703 -1.0908
 3692SOL    HW222536   4.154   3.354   0.668 -0.3178 -1.7261  0.0124
 3693SOL     OW22537   2.177   0.733   2.666  0.4003  0.1140 -0.6363
 3693SOL    HW122538   2.233   0.748   2.743 -0.7340 -2.1406  0.6240
 3693SOL    HW222539   2.246   0.716   2.601  1.5232 -2.3579  1.1899
 3694SOL     OW22540   3.971   0.789   6.084 -0.0659 -0.4831 -0.8132
 3694SOL    HW122541   4.062   0.773   6.059  1.2377  1.3516  2.8008
 3694SOL    HW222542   3.926   0.707   6.061  1.5802 -2.3843  2.7308
 3695SOL     OW22543   0.304   3.228   3.079 -0.6014  0.1151 -0.7112
 3695SOL    HW122544   0.296   3.169   3.154  1.9303 -0.9510 -1.2848
 3695SOL    HW222545   0.295   3.174   3.001  1.1186  0.1011 -0.9005
 3696SOL     OW22546   1.063   0.195   5.036 -0.2097  0.0149 -0.0918
 3696SOL    HW122547   1.038   0.155   5.119  1.5237  0.9749  0.8853
 3696SOL    HW222548   1.024   0.123   4.986 -1.4396  0.9703 -0.4893
 3697SOL     OW22549   4.708   3.988   7.452 -0.3039  0.4410  0.0977
 3697SOL    HW122550   0.068   3.940   7.462 -0.7565 -0.1631  0.9591
 3697SOL    HW222551   4.643   3.918   7.451 -0.1348  0.3005 -1.1814
 3698SOL     OW22552   4.065   3.457   9.679 -0.0573 -0.4650 -0.1561
 3698SOL    HW122553   4.108   3.491   9.757 -1.8622  1.1916  0.1043
 3698SOL    HW222554   4.046   3.365   9.699 -0.3551 -0.4953 -0.5903
 3699SOL     OW22555   2.952   0.995   3.420  0.2545  0.4809  0.1341
 3699SOL    HW122556   2.948   0.900   3.417 -0.7508  0.6124 -3.0373
 3699SOL    HW222557   2.877   1.009   3.478 -0.4431  0.4975 -0.7730
 3700SOL     OW22558   2.471   1.132   7.302 -0.3551 -0.1463  0.0611
 3700SOL    HW122559   2.404   1.066   7.321 -1.5756  0.8640 -0.7565
 3700SOL    HW222560   2.538   1.090   7.356  0.9888  0.3539 -1.2366
 3701SOL     OW22561   0.365   3.179   2.335 -0.5590 -0.2225  0.7043
 3701SOL    HW122562   0.431   3.248   2.343  0.9389 -1.5356 -0.1866
 3701SOL    HW222563   0.417   3.098   2.329  0.1449  0.4749 -2.4189
 3702SOL     OW22564   2.910   4.271   4.663 -0.2705  0.5815 -0.0454
 3702SOL    HW122565   3.003   4.250   4.657 -0.4728  0.0408 -1.3798
 3702SOL    HW222566   2.897   4.310   4.577  1.8106  2.1368  0.3630
 3703SOL     OW22567   1.993   0.562   8.263  0.2089  0.1337 -0.5116
 3703SOL    HW122568   2.012   0.570   8.169  1.7051  0.7154 -0.1655
 3703SOL    HW222569   2.073   0.521   8.294 -0.4810  0.0883  1.2051
 3704SOL     OW22570   0.965   2.003   7.977  0.1664  0.1765 -0.0886
 3704SOL    HW122571   0.915   1.925   8.000 -0.4776  0.7933  0.5673
 3704SOL    HW222572   1.014   2.009   8.059  1.1747 -0.1020 -0.6634
 3705SOL     OW22573   1.433   4.220   2.312  0.2781 -0.2992 -0.6446
 3705SOL    HW122574   1.424   4.195   2.403 -3.0207 -2.2837 -1.5039
 3705SOL    HW222575   1.525   4.201   2.293  0.9275  2.4505 -0.2506
 3706SOL     OW22576   3.145   1.827   7.265  0.6083  0.2507 -0.0968
 3706SOL    HW122577   3.124   1.918   7.285  0.4985  0.0188  0.8495
 3706SOL    HW222578   3.112   1.779   7.342  0.1881  0.2045 -0.3074
 3707SOL     OW22579   1.336   2.831   6.096  0.5345  0.3095 -0.0479
 3707SOL    HW122580   1.330   2.842   6.001  1.6925 -1.9356 -0.3907
 3707SOL    HW222581   1.392   2.902   6.127  1.3690 -0.5577  0.4641
 3708SOL     OW22582   3.685   0.009   1.799 -0.2989  0.0387  0.5500
 3708SOL    HW122583   3.681   0.101   1.773 -1.0807  0.0979  0.8771
 3708SOL    HW222584   3.633   0.010   1.879  0.0459 -0.8875  0.7900
 3709SOL     OW22585   1.614   4.447  14.053 -0.0622  0.1200  0.2839
 3709SOL    HW122586   1.641   4.526  14.100  1.0565 -0.2060  0.1758
 3709SOL    HW222587   1.574   4.396  14.124  0.1544  2.3952  2.0242
 3710SOL     OW22588   2.151   3.719   5.849  0.0248  0.0644  0.0363
 3710SOL    HW122589   2.068   3.743   5.807  2.5874  2.6937 -3.5928
 3710SOL    HW222590   2.200   3.697   5.770  1.3752  0.3570  0.7909
 3711SOL     OW22591   3.400   4.640   8.710  0.2359 -0.1047 -0.0947
 3711SOL    HW122592   3.432   4.711   8.765 -3.3708 -0.2145  2.0825
 3711SOL    HW222593   3.481   4.589   8.712  1.4050  1.6859 -0.8592
 3712SOL     OW22594   3.723   1.314   2.670  0.0998 -0.2100  0.1864
 3712SOL    HW122595   3.648   1.374   2.673 -1.1563 -1.7070 -0.8376
 3712SOL    HW222596   3.714   1.276   2.758 -1.8955  1.4939  0.7158
 3713SOL     OW22597   3.107   3.421   2.417 -0.0313  0.1276 -0.6572
 3713SOL    HW122598   3.132   3.336   2.380  0.6966 -0.2673  0.7072
 3713SOL    HW222599   3.076   3.388   2.502  2.9144 -0.9981 -0.0070
 3714SOL     OW22600   0.516   4.612   5.689 -0.3260 -0.8437 -0.3877
 3714SOL    HW122601   0.571   4.622   5.611  3.1504  0.4780  2.2880
 3714SOL    HW222602   0.463   4.539   5.658 -0.5251 -0.7868 -0.1851
 3715SOL     OW22603   1.195   4.042   4.683  0.5025  0.1477  0.0749
 3715SOL    HW122604   1.136   3.983   4.729  0.2177 -1.0625 -1.8311
 3715SOL    HW222605   1.233   3.980   4.620 -0.1026  3.4224 -3.5077
 3716SOL     OW22606   3.531   2.826   7.114  0.5190 -0.1790  0.2830
 3716SOL    HW122607   3.489   2.866   7.191 -2.4436 -0.4303 -1.1789
 3716SOL    HW222608   3.462   2.778   7.068 -0.2287  0.5448  0.6479
 3717SOL     OW22609   1.478   1.656  11.736  0.1101  0.2604  0.0735
 3717SOL    HW122610   1.553   1.702  11.699  1.1680 -0.8071  0.9020
 3717SOL    HW222611   1.446   1.736  11.778  0.1190  1.3719 -2.0240
 3718SOL     OW22612   2.856   1.773   0.093  0.7942  0.3364  0.5814
 3718SOL    HW122613   2.902   1.758   0.010  0.7437 -0.9844  0.7938
 3718SOL    HW222614   2.765   1.754   0.072  0.4240  1.7984  0.8410
 3719SOL     OW22615   1.807   3.557   5.831 -0.2750  0.2336  0.2780
 3719SOL    HW122616   1.878   3.541   5.892  0.8698 -0.6480 -1.2830
 3719SOL    HW222617   1.812   3.652   5.821  1.2414  0.1943  0.6361
 3720SOL     OW22618   3.395   3.817   7.935 -0.2204  0.1467  0.4801
 3720SOL    HW122619   3.313   3.860   7.914  0.0586  0.8338  0.7905
 3720SOL    HW222620   3.376   3.798   8.027  1.2997  0.0919  0.7820
 3721SOL     OW22621   1.097   1.038  10.839 -0.9462  0.0297  0.1479
 3721SOL    HW122622   1.067   0.974  10.775  2.1135  0.3279 -1.6029
 3721SOL    HW222623   1.019   1.093  10.835 -0.4039  0.7607 -0.4404
 3722SOL     OW22624   2.180   4.040   3.320  0.4541 -0.6527 -0.0086
 3722SOL    HW122625   2.187   4.088   3.238 -0.1253  0.3664  0.5387
 3722SOL    HW222626   2.154   3.956   3.282 -0.4375 -1.0371  1.4656
 3723SOL     OW22627   0.835   3.801   9.382 -0.7372 -0.0667 -0.2515
 3723SOL    HW122628   0.813   3.743   9.455 -0.3475  0.4333  0.2639
 3723SOL    HW222629   0.750   3.843   9.369  0.3213  1.7357 -1.3221
 3724SOL     OW22630   2.244   0.053   4.164  0.1345  0.3112 -0.2048
 3724SOL    HW122631   2.152   0.028   4.153 -0.2968  1.3916  0.8324
 3724SOL    HW222632   2.242   0.135   4.114 -0.0545  1.6883  2.0558
 3725SOL     OW22633   2.576   3.947   2.702 -0.2842  1.0150  0.2813
 3725SOL    HW122634   2.603   4.032   2.738 -0.1216 -0.2106  3.1208
 3725SOL    HW222635   2.615   3.949   2.615 -0.0966 -1.0955  0.3065
 3726SOL     OW22636   1.694   1.739   2.593 -0.0549  0.1867  0.4303
 3726SOL    HW122637   1.702   1.714   2.501  1.8977  0.6679  0.4766
 3726SOL    HW222638   1.611   1.786   2.603  0.9623  2.3390 -1.3693
 3727SOL     OW22639   1.077   2.009  12.510  0.3704  0.0793 -0.5366
 3727SOL    HW122640   1.070   1.915  12.495 -1.2854  0.1521 -0.2908
 3727SOL    HW222641   1.012   2.051  12.452 -0.7328  1.8884  2.0171
 3728SOL     OW22642   4.162   2.716   9.888 -0.1919 -0.8486 -0.6103
 3728SOL    HW122643   4.131   2.683   9.804 -1.9736  1.1380 -0.7404
 3728SOL    HW222644   4.101   2.662   9.939 -1.0910  0.0267 -0.7475
 3729SOL     OW22645   0.718   2.144   4.497  0.1963  0.5545 -0.1208
 3729SOL    HW122646   0.742   2.053   4.517 -1.6296 -0.4292 -2.3025
 3729SOL    HW222647   0.626   2.130   4.522 -0.1404  0.2004 -1.5316
 3730SOL     OW22648   1.747   1.346   3.542  0.8563 -0.3656 -0.2717
 3730SOL    HW122649   1.735   1.282   3.613 -3.6536  1.6666  0.7829
 3730SOL    HW222650   1.677   1.327   3.480  0.0390 -0.2594  0.6130
 3731SOL     OW22651   0.168   2.531  14.094 -0.0949 -0.0239  0.2816
 3731SOL    HW122652   0.172   2.565  14.184 -2.0182  0.3198  0.2489
 3731SOL    HW222653   0.255   2.540  14.056  0.2331  0.7498  1.2161
 3732SOL     OW22654   3.237   3.129  11.060  0.5216 -0.6541 -0.2626
 3732SOL    HW122655   3.236   3.173  11.145  2.1337  0.5012 -0.8443
 3732SOL    HW222656   3.227   3.202  10.999 -1.0771  0.9372  1.8965
 3733SOL     OW22657   1.522   1.711   5.414  0.0369  0.4089 -0.5086
 3733SOL    HW122658   1.543   1.748   5.499  0.2811 -0.2037 -0.3024
 3733SOL    HW222659   1.612   1.680   5.400  0.1059 -0.3595  1.6397
 3734SOL     OW22660   4.149   2.378   5.225 -0.0512  0.3764 -0.4066
 3734SOL    HW122661   4.082   2.440   5.256 -0.2100 -0.0597  0.1207
 3734SOL    HW222662   4.099   2.298   5.241  1.0376 -0.2608 -0.1871
 3735SOL     OW22663   0.245   3.897   9.280 -0.4459 -0.1649  0.1997
 3735SOL    HW122664   0.316   3.957   9.256  0.7453 -2.3686 -1.8105
 3735SOL    HW222665   0.195   3.957   9.335 -2.4183 -1.2656 -0.3986
 3736SOL     OW22666   1.251   1.188  17.577 -0.3415  0.0085  0.2558
 3736SOL    HW122667   1.274   1.206  17.486  0.4957  1.0894  0.6848
 3736SOL    HW222668   1.229   1.279  17.595  1.7780  0.5301  0.2051
 3737SOL     OW22669   0.388   1.553   3.836 -0.5583  0.3335  0.2833
 3737SOL    HW122670   0.358   1.641   3.857  2.7145  1.7841 -1.1463
 3737SOL    HW222671   0.468   1.556   3.784 -0.9451 -1.6218 -0.4112
 3738SOL     OW22672   1.871   1.366   5.439 -0.0767 -0.0041  0.2679
 3738SOL    HW122673   1.931   1.310   5.490 -0.9181 -1.2757 -0.1371
 3738SOL    HW222674   1.789   1.318   5.443 -0.7221  0.8658 -2.5015
 3739SOL     OW22675   0.798   4.627  15.130  0.4943 -0.0683 -0.5597
 3739SOL    HW122676   0.789   4.623  15.035 -0.1584  1.4692 -0.5659
 3739SOL    HW222677   0.821   4.720  15.134  1.9036 -0.4393  0.0512
 3740SOL     OW22678   0.206   1.906   8.199  0.0629 -0.5137 -0.3650
 3740SOL    HW122679   0.180   1.829   8.249  0.3371 -1.0809 -1.0878
 3740SOL    HW222680   0.167   1.978   8.249 -1.4512 -0.4953 -1.5804
 3741SOL     OW22681   1.184   2.518   5.366 -0.3175  0.1941  0.1844
 3741SOL    HW122682   1.167   2.579   5.438  1.4786 -0.6745  1.3366
 3741SOL    HW222683   1.252   2.462   5.404 -0.0854 -0.4585 -1.1854
 3742SOL     OW22684   3.294   2.609   1.834 -0.2026 -0.2956  0.9537
 3742SOL    HW122685   3.265   2.558   1.759 -0.2470  0.0433  0.7409
 3742SOL    HW222686   3.376   2.652   1.808 -0.7628  1.1916  1.6007
 3743SOL     OW22687   4.470   1.911   4.361  0.3134  0.2807 -0.1735
 3743SOL    HW122688   4.386   1.885   4.398  1.8175 -2.4089  1.3166
 3743SOL    HW222689   4.479   1.999   4.399 -0.4162  1.2076 -2.1449
 3744SOL     OW22690   1.887   2.506   5.126  0.4210  0.6751 -0.0330
 3744SOL    HW122691   1.846   2.423   5.101 -0.4924  1.4662 -1.2024
 3744SOL    HW222692   1.977   2.475   5.130  0.3980  0.1918 -3.1458
 3745SOL     OW22693   0.275   0.187   2.402 -0.4961  0.2741  0.5948
 3745SOL    HW122694   0.361   0.203   2.364 -1.1026  0.1592 -0.7932
 3745SOL    HW222695   0.249   0.119   2.340  2.2727  2.9198 -3.4276
 3746SOL     OW22696   2.361   0.283  15.693  0.6932  0.3503  1.2670
 3746SOL    HW122697   2.304   0.210  15.716  0.6870  0.2211  0.8456
 3746SOL    HW222698   2.397   0.236  15.617  0.6724  0.6345  1.0800
 3747SOL     OW22699   4.169   0.315   4.520 -0.3613  0.4235 -0.3000
 3747SOL    HW122700   4.091   0.298   4.573 -0.8957  1.5130 -0.7380
 3747SOL    HW222701   4.123   0.358   4.448 -0.8226  0.8596  0.2608
 3748SOL     OW22702   0.976   4.495  16.290  0.2551  1.0120  0.0438
 3748SOL    HW122703   0.974   4.590  16.300 -0.6751  0.8403  1.4833
 3748SOL    HW222704   1.023   4.457  16.364 -3.2819 -0.8475  1.3224
 3749SOL     OW22705   3.724   2.119  11.302 -0.2534  0.1497  0.0994
 3749SOL    HW122706   3.811   2.157  11.303  0.6249 -1.9067  1.8859
 3749SOL    HW222707   3.740   2.058  11.375  2.2557 -2.6297 -2.8101
 3750SOL     OW22708   2.606   3.098   5.298 -0.5128 -0.8894  0.2898
 3750SOL    HW122709   2.573   3.013   5.269 -1.1967 -1.0444  1.5274
 3750SOL    HW222710   2.685   3.110   5.245 -0.8084 -2.2625 -0.4666
 3751SOL     OW22711   3.149   3.530  13.260  0.3771  0.5881  0.0810
 3751SOL    HW122712   3.161   3.474  13.337  1.0131  0.0484 -0.4086
 3751SOL    HW222713   3.137   3.613  13.307 -0.0319  1.8001 -2.1515
 3752SOL     OW22714   1.310   4.419   9.090  0.7067 -0.0313 -0.5303
 3752SOL    HW122715   1.354   4.386   9.169  0.7308  0.7078 -0.2325
 3752SOL    HW222716   1.264   4.341   9.060  0.5413 -0.0375 -0.2587
 3753SOL     OW22717   3.629   1.306   4.152 -0.5886  0.2516 -0.2196
 3753SOL    HW122718   3.663   1.217   4.163 -2.6153 -0.2605  1.9596
 3753SOL    HW222719   3.700   1.340   4.098 -0.3561  1.6752  0.9859
 3754SOL     OW22720   0.620   1.632   5.753  0.6211  0.3148 -0.1436
 3754SOL    HW122721   0.637   1.712   5.803  2.0405 -0.2299  0.2392
 3754SOL    HW222722   0.676   1.564   5.790  0.4202  0.0671 -0.2896
 3755SOL     OW22723   3.195   1.733   9.225 -0.5584 -0.3938 -0.3108
 3755SOL    HW122724   3.262   1.798   9.204  0.2952 -0.6768  1.5510
 3755SOL    HW222725   3.135   1.744   9.151  1.1534 -0.1462 -1.6662
 3756SOL     OW22726   0.991   2.075   1.946 -0.3324  0.0424 -0.5433
 3756SOL    HW122727   1.049   2.001   1.964  0.4640  0.7000 -0.4368
 3756SOL    HW222728   0.913   2.023   1.960 -0.1882  0.2784  1.0471
 3757SOL     OW22729   2.657   0.543  11.501  0.5945  0.3490  0.8107
 3757SOL    HW122730   2.568   0.566  11.528  0.6903  2.0674 -0.3582
 3757SOL    HW222731   2.682   0.627  11.463  0.5283 -1.6886 -3.7454
 3758SOL     OW22732   4.456   0.643   4.672 -0.1582  0.4326  0.1707
 3758SOL    HW122733   4.428   0.559   4.709  1.4589 -1.9274 -3.9179
 3758SOL    HW222734   4.473   0.616   4.581 -0.0332  2.0538 -0.2790
 3759SOL     OW22735   0.675   4.431   3.850  0.1343  0.2005  0.4607
 3759SOL    HW122736   0.674   4.356   3.909  1.8629 -0.1969 -0.0085
 3759SOL    HW222737   0.766   4.446   3.877  0.2769 -0.5112  0.3697
 3760SOL     OW22738   0.869   3.880   4.668 -0.7566 -0.1994 -0.6232
 3760SOL    HW122739   0.778   3.906   4.659 -0.3273  1.5332  0.0027
 3760SOL    HW222740   0.865   3.784   4.667  1.4118 -0.3120  0.8492
 3761SOL     OW22741   1.583   4.572  11.538 -0.3593 -0.8324 -0.1709
 3761SOL    HW122742   1.596   4.652  11.590 -1.8242  0.5224 -1.9189
 3761SOL    HW222743   1.521   4.603  11.473  1.0473 -1.5407 -1.8339
 3762SOL     OW22744   3.106   4.379   2.628  0.5312 -0.0619  0.2288
 3762SOL    HW122745   3.073   4.361   2.716  2.1198 -2.1583  0.4114
 3762SOL    HW222746   3.035   4.430   2.589 -0.0142 -0.8110  0.2198
 3763SOL     OW22747   2.036   4.242   0.201  0.0791 -0.0839  0.1484
 3763SOL    HW122748   1.958   4.195   0.230  0.6261 -0.9140  0.2701
 3763SOL    HW222749   2.013   4.281   0.116  0.7405  0.1375  0.0700
 3764SOL     OW22750   0.698   0.791  13.435  0.3335 -0.0563  0.0664
 3764SOL    HW122751   0.746   0.817  13.356 -1.1377 -1.2648 -1.2280
 3764SOL    HW222752   0.755   0.833  13.498  0.9632  0.6239 -0.9518
 3765SOL     OW22753   0.075   3.686   8.012 -0.1129 -0.2943 -0.2103
 3765SOL    HW122754   0.052   3.665   8.103  3.2504 -0.2481  0.6608
 3765SOL    HW222755   0.026   3.615   7.971  0.3058 -0.3991 -0.5253
 3766SOL     OW22756   3.475   1.756   4.206 -0.0970 -0.6651  0.1312
 3766SOL    HW122757   3.491   1.799   4.122  1.3150  1.4828  1.4959
 3766SOL    HW222758   3.417   1.686   4.177 -1.0630  0.5891 -0.9690
 3767SOL     OW22759   0.850   3.170   1.195 -0.1999  0.0378 -0.0745
 3767SOL    HW122760   0.774   3.180   1.138  0.0257  0.0649 -0.3762
 3767SOL    HW222761   0.916   3.146   1.129  0.3045  1.9579 -0.2909
 3768SOL     OW22762   2.463   4.156   5.838 -0.0063 -0.3170  0.0414
 3768SOL    HW122763   2.537   4.217   5.843  1.6927 -2.4016  0.4047
 3768SOL    HW222764   2.386   4.213   5.837  1.5694  1.8249  0.6060
 3769SOL     OW22765   0.496   2.859  13.900  0.5660 -0.2863 -0.0867
 3769SOL    HW122766   0.420   2.911  13.926 -1.2355 -2.5700 -0.7419
 3769SOL    HW222767   0.529   2.905  13.823 -2.1611  0.6609 -0.7171
 3770SOL     OW22768   3.079   1.005  12.683 -0.1621  0.1650  0.4219
 3770SOL    HW122769   3.003   1.017  12.627  1.8935  0.5789 -2.2893
 3770SOL    HW222770   3.096   0.912  12.668  0.8336  0.5399 -0.7947
 3771SOL     OW22771   3.915   2.109   6.366  0.3421 -0.7167 -0.1331
 3771SOL    HW122772   3.992   2.108   6.424  1.1630  1.6042 -1.1695
 3771SOL    HW222773   3.917   2.016   6.347  1.3099 -0.9213  0.9967
 3772SOL     OW22774   4.692   4.436   4.908 -0.1931 -0.4053 -0.0005
 3772SOL    HW122775   4.720   4.474   4.992 -0.2876  1.5982 -0.8610
 3772SOL    HW222776   0.001   4.491   4.837 -0.0087 -0.1574  0.2726
 3773SOL     OW22777   4.062   4.517   1.187  0.1339 -0.2677 -0.2856
 3773SOL    HW122778   4.024   4.497   1.272  2.5346 -0.7225  0.6588
 3773SOL    HW222779   4.026   4.600   1.158  1.4588  0.1190 -0.8243
 3774SOL     OW22780   1.998   1.295  13.346 -0.2853 -0.1077  0.4209
 3774SOL    HW122781   1.923   1.237  13.353  0.3966 -0.8097  1.9293
 3774SOL    HW222782   2.065   1.236  13.383  0.7034  0.0892 -1.0274
 3775SOL     OW22783   3.541   1.427  16.352  0.1640  0.4526 -0.1086
 3775SOL    HW122784   3.525   1.339  16.386  0.1304  0.2416 -0.6772
 3775SOL    HW222785   3.608   1.412  16.285  0.6130 -1.2113  0.7130
 3776SOL     OW22786   0.627   0.710   8.521  0.2752 -0.2832 -0.0765
 3776SOL    HW122787   0.575   0.777   8.565  0.6565  0.0040 -0.0650
 3776SOL    HW222788   0.689   0.768   8.478  0.4050 -0.5004 -0.1863
 3777SOL     OW22789   3.081   3.795   3.166  0.2426 -0.4298  0.2012
 3777SOL    HW122790   3.162   3.822   3.123  0.1991 -0.2989  0.2008
 3777SOL    HW222791   3.030   3.875   3.179  1.7197  0.1477  2.2887
 3778SOL     OW22792   2.755   4.120   3.827 -0.7436  0.2636  0.4849
 3778SOL    HW122793   2.742   4.146   3.736  2.7326  0.0887 -0.0938
 3778SOL    HW222794   2.800   4.200   3.853 -0.9528  1.0713 -1.5963
 3779SOL     OW22795   1.349   1.787  10.891  0.0417 -0.1804 -0.4611
 3779SOL    HW122796   1.445   1.789  10.891 -0.0073  2.2693  0.0135
 3779SOL    HW222797   1.329   1.795  10.985  1.7876  1.0691 -0.1938
 3780SOL     OW22798   3.431   3.635   0.809  0.2670  0.6098 -0.3439
 3780SOL    HW122799   3.350   3.608   0.766  0.8809  1.3372 -1.9321
 3780SOL    HW222800   3.498   3.572   0.784  0.4919  0.7327 -0.0585
 3781SOL     OW22801   0.008   0.368   7.982 -0.0121  0.4914  0.6612
 3781SOL    HW122802   0.030   0.453   7.943  1.5271 -0.6640 -0.9696
 3781SOL    HW222803   0.034   0.398   8.069  0.9375  2.7206 -0.3861
 3782SOL     OW22804   1.536   0.210  13.411 -0.3295 -0.1169 -0.5165
 3782SOL    HW122805   1.535   0.205  13.316  3.2228  0.0181 -0.5494
 3782SOL    HW222806   1.504   0.123  13.436 -0.4391  0.0914  0.0642
 3783SOL     OW22807   3.643   2.630   2.351  0.5998 -0.2507 -0.1119
 3783SOL    HW122808   3.571   2.646   2.412  0.4850  1.9743 -0.8214
 3783SOL    HW222809   3.655   2.535   2.357 -1.3342 -0.3993  1.2254
 3784SOL     OW22810   2.549   4.414   4.771  0.0369 -0.0692  0.1554
 3784SOL    HW122811   2.497   4.430   4.692 -0.7239  0.5313  0.7745
 3784SOL    HW222812   2.575   4.323   4.759  0.5467  0.0761  0.1722
 3785SOL     OW22813   3.166   2.911   8.428  0.0990 -0.2422  0.2362
 3785SOL    HW122814   3.213   2.992   8.409  1.3707 -1.1383 -0.4633
 3785SOL    HW222815   3.150   2.916   8.522  0.8409  2.2276  0.2499
 3786SOL     OW22816   3.490   1.286  13.199 -0.1653  0.3954 -0.3463
 3786SOL    HW122817   3.475   1.218  13.133 -0.3829 -1.2227  1.3679
 3786SOL    HW222818   3.405   1.292  13.244  0.7392  2.4689  1.1040
 3787SOL     OW22819   1.346   1.180   0.440  0.0376 -0.0520  0.0595
 3787SOL    HW122820   1.329   1.146   0.352  0.9965  2.0491 -0.9520
 3787SOL    HW222821   1.435   1.145   0.451 -0.7033 -1.6160  1.1377
 3788SOL     OW22822   1.130   2.555   7.219  0.0633  0.4948  0.5271
 3788SOL    HW122823   1.153   2.462   7.227 -2.5354 -0.2877 -1.2814
 3788SOL    HW222824   1.213   2.601   7.233 -0.7242  2.6597 -1.8736
 3789SOL     OW22825   3.544   3.987   2.862  0.3528  0.4340 -0.0564
 3789SOL    HW122826   3.489   4.042   2.806 -1.0343  1.1533  2.0184
 3789SOL    HW222827   3.519   4.010   2.951 -0.3131  1.7373 -0.5813
 3790SOL     OW22828   0.647   0.352   4.122 -0.5326 -0.1451  0.2328
 3790SOL    HW122829   0.639   0.320   4.033  0.7905 -2.1913  0.8411
 3790SOL    HW222830   0.612   0.441   4.114 -0.7121 -0.0750  1.7668
 3791SOL     OW22831   4.593   4.523   6.723  0.2530  0.0243  0.1787
 3791SOL    HW122832   4.637   4.554   6.803 -1.2511  2.3789  0.0554
 3791SOL    HW222833   4.674   4.497   6.679  0.6036  2.2820 -0.4578
 3792SOL     OW22834   4.023   3.605   6.978 -0.3026  0.1241  0.2868
 3792SOL    HW122835   4.025   3.684   7.032  0.3798 -0.6866  1.4580
 3792SOL    HW222836   4.099   3.617   6.921  0.9406  0.0182  1.9209
 3793SOL     OW22837   1.490   2.992   3.286  0.2994  0.1576 -0.0948
 3793SOL    HW122838   1.415   3.039   3.322  0.7212  0.5044  0.3277
 3793SOL    HW222839   1.464   2.986   3.194 -1.0954 -1.3990  0.4059
 3794SOL     OW22840   3.099   3.189   6.496 -0.0802  0.3456  0.1352
 3794SOL    HW122841   3.020   3.142   6.521  1.1741 -0.0744  3.2249
 3794SOL    HW222842   3.080   3.265   6.550 -1.0728  0.1177  0.1060
 3795SOL     OW22843   2.191   2.636   8.947  0.4092 -0.3480  0.2409
 3795SOL    HW122844   2.128   2.675   9.007 -0.0783  0.7271 -0.9699
 3795SOL    HW222845   2.213   2.553   8.989  1.0308 -0.8064 -0.9752
 3796SOL     OW22846   0.953   3.988   8.129 -0.6799 -1.2372  0.0976
 3796SOL    HW122847   0.942   3.906   8.082 -0.7423 -0.9184 -0.4474
 3796SOL    HW222848   1.045   4.010   8.115 -0.4246 -1.9776  0.5839
 3797SOL     OW22849   0.821   3.364  16.989 -0.3275 -0.0821  0.2205
 3797SOL    HW122850   0.776   3.282  16.970 -2.3689  1.1649 -0.2795
 3797SOL    HW222851   0.913   3.337  16.998  0.4615  2.7828  0.8740
 3798SOL     OW22852   0.605   0.916   5.337 -0.1312  0.1786  0.3016
 3798SOL    HW122853   0.699   0.927   5.325  0.3726 -1.4295  2.7667
 3798SOL    HW222854   0.600   0.851   5.407 -1.3583 -1.6937 -1.5224
 3799SOL     OW22855   4.456   1.192  16.489  0.2823  0.2666 -0.2390
 3799SOL    HW122856   4.498   1.261  16.540  0.7810 -1.4106  1.6280
 3799SOL    HW222857   4.410   1.249  16.428  1.8031  2.2486  0.4904
 3800SOL     OW22858   4.041   3.538   8.957  0.2117 -0.1197  0.3410
 3800SOL    HW122859   4.093   3.466   8.922 -2.5067 -1.5011 -0.8343
 3800SOL    HW222860   4.101   3.605   8.991 -0.8009  0.2481  1.4173
 3801SOL     OW22861   0.301   0.246   7.759  0.3089  0.4138 -0.4207
 3801SOL    HW122862   0.219   0.294   7.748  0.9151  1.2743 -1.1662
 3801SOL    HW222863   0.278   0.155   7.737  0.7095  0.3515 -0.5900
 3802SOL     OW22864   1.324   4.119  15.677 -0.7759  0.0525 -0.1483
 3802SOL    HW122865   1.257   4.052  15.692  0.1098 -0.6089  0.7873
 3802SOL    HW222866   1.318   4.164  15.761  0.9342  0.3302 -0.1784
 3803SOL     OW22867   0.651   3.942   3.182 -0.2651 -0.4010 -0.4708
 3803SOL    HW122868   0.737   3.900   3.189 -0.5101 -0.5574  1.7027
 3803SOL    HW222869   0.611   3.876   3.125  2.5415 -2.2085 -0.3728
 3804SOL     OW22870   1.110   2.989   2.543 -0.2057  0.4382  0.0373
 3804SOL    HW122871   1.062   2.920   2.498  0.9623  1.0330 -2.0834
 3804SOL    HW222872   1.048   3.059   2.524 -0.1168  0.6526  0.5258
 3805SOL     OW22873   1.213   4.390   0.176  0.0259  0.0601 -0.4234
 3805SOL    HW122874   1.291   4.445   0.182 -1.8099  2.2487  3.3283
 3805SOL    HW222875   1.236   4.316   0.232 -0.3730 -0.4577 -0.9437
 3806SOL     OW22876   4.344   2.649  12.896 -0.2596 -0.0987 -0.1259
 3806SOL    HW122877   4.365   2.742  12.887 -0.4313 -0.2908 -2.7235
 3806SOL    HW222878   4.383   2.640  12.983 -0.8178  1.2541  0.2692
 3807SOL     OW22879   3.145   0.653   4.384  0.1102 -0.4527  0.7161
 3807SOL    HW122880   3.198   0.574   4.372  1.2750  0.4839 -0.2622
 3807SOL    HW222881   3.106   0.675   4.299 -1.7424 -1.1765  1.3606
 3808SOL     OW22882   2.249   1.672   6.163 -0.2581  0.1627  0.8578
 3808SOL    HW122883   2.315   1.605   6.144  1.5945  2.6892 -1.7033
 3808SOL    HW222884   2.219   1.637   6.246 -0.6357  1.9182  1.4494
 3809SOL     OW22885   3.774   4.113   4.151 -0.3824 -0.0474  0.5887
 3809SOL    HW122886   3.800   4.024   4.172 -0.9385 -0.2721  0.3006
 3809SOL    HW222887   3.859   4.141   4.116 -1.7259  2.4248 -0.7280
 3810SOL     OW22888   2.210   1.735  11.220  0.3501 -0.1429  0.0534
 3810SOL    HW122889   2.204   1.692  11.135  0.0873 -1.1283  0.5776
 3810SOL    HW222890   2.190   1.667  11.284 -0.5957  2.5117  2.5960
 3811SOL     OW22891   1.896   2.718   0.095  0.7258  0.1183 -0.4389
 3811SOL    HW122892   1.958   2.766   0.151  1.1030 -0.4571 -0.3673
 3811SOL    HW222893   1.943   2.635   0.095  1.5049  0.5407  2.0805
 3812SOL     OW22894   3.956   3.676  11.047 -0.0257 -0.1212 -0.6344
 3812SOL    HW122895   4.022   3.733  11.007 -1.3054  1.4313 -0.5377
 3812SOL    HW222896   3.875   3.712  11.011  1.3582  3.1368 -0.4846
 3813SOL     OW22897   1.876   0.798   5.065 -0.4050  0.5144 -0.5672
 3813SOL    HW122898   1.914   0.810   5.152  1.6202  1.2463 -1.5337
 3813SOL    HW222899   1.944   0.840   5.012  1.2608 -2.5774 -0.8915
 3814SOL     OW22900   4.043   2.718  15.930  0.5825  0.1106  0.7720
 3814SOL    HW122901   3.967   2.715  15.872  2.0325  1.9433 -1.2208
 3814SOL    HW222902   4.029   2.648  15.993  0.9619 -0.7434 -0.0802
 3815SOL     OW22903   2.075   1.742   2.239 -0.3786 -0.1406  0.9190
 3815SOL    HW122904   2.001   1.803   2.237  0.5196  0.9832  1.7582
 3815SOL    HW222905   2.137   1.800   2.283 -0.5402 -1.8912  3.5069
 3816SOL     OW22906   1.313   3.727   6.294  0.1182 -0.5690 -0.3319
 3816SOL    HW122907   1.242   3.665   6.313 -0.8235  0.5724 -0.1569
 3816SOL    HW222908   1.289   3.764   6.209 -0.6298 -3.0818 -1.2214
 3817SOL     OW22909   2.598   4.125   9.825  0.2352 -0.5946  0.9066
 3817SOL    HW122910   2.575   4.150   9.736 -1.2787 -0.8502  1.2270
 3817SOL    HW222911   2.622   4.033   9.810  2.1217 -0.1188  1.0980
 3818SOL     OW22912   4.521   2.339   3.472  0.1463 -0.1187 -0.4814
 3818SOL    HW122913   4.445   2.374   3.520  1.2225  0.7375  0.5820
 3818SOL    HW222914   4.586   2.405   3.495 -0.3220  0.0045  0.5350
 3819SOL     OW22915   4.120   2.360   5.875  0.0699 -0.1758 -0.4098
 3819SOL    HW122916   4.171   2.435   5.906  4.6760 -1.9922 -3.7389
 3819SOL    HW222917   4.181   2.288   5.888 -0.8544 -0.8001  0.4680
 3820SOL     OW22918   0.843   2.609   7.939 -0.3918 -0.1800 -0.3096
 3820SOL    HW122919   0.852   2.560   7.858 -1.5687 -0.3670 -0.3280
 3820SOL    HW222920   0.787   2.680   7.908 -1.0886 -0.5107  0.1824
 3821SOL     OW22921   4.449   3.319   0.480 -0.0511  0.3847 -0.4013
 3821SOL    HW122922   4.463   3.226   0.496 -1.0302  0.3763  0.3708
 3821SOL    HW222923   4.356   3.318   0.504  0.8825 -0.7037  3.0330
 3822SOL     OW22924   3.204   2.485   2.621  0.2005 -0.3907 -0.0193
 3822SOL    HW122925   3.109   2.472   2.621 -0.0661  1.5875  0.9680
 3822SOL    HW222926   3.216   2.504   2.528 -0.6667 -1.0451 -0.2634
 3823SOL     OW22927   1.580   2.043  12.002 -0.0992 -0.5558 -0.3669
 3823SOL    HW122928   1.612   1.960  12.038  0.0407 -0.8392 -1.1517
 3823SOL    HW222929   1.648   2.061  11.937  0.3641  1.2775  0.6261
 3824SOL     OW22930   3.489   3.035   6.272 -0.0603  0.1952 -0.1379
 3824SOL    HW122931   3.438   2.955   6.282  2.1153 -1.2751 -0.8001
 3824SOL    HW222932   3.416   3.093   6.293  0.3044  0.5079  0.2746
 3825SOL     OW22933   2.927   4.611   4.620 -0.3997  0.2210  0.0674
 3825SOL    HW122934   2.986   4.651   4.683  0.2609  1.2555 -1.2185
 3825SOL    HW222935   2.847   4.591   4.668 -1.1661  0.2850 -1.1924
 3826SOL     OW22936   2.886   3.428   3.225  0.2246 -1.1864  0.1890
 3826SOL    HW122937   2.819   3.379   3.178  0.2254 -0.3530 -0.6748
 3826SOL    HW222938   2.950   3.450   3.157  1.4920 -2.8170  0.8542
 3827SOL     OW22939   2.723   1.124  15.098  0.2135 -0.5048 -0.2417
 3827SOL    HW122940   2.658   1.135  15.029 -1.2048 -2.0920  0.8445
 3827SOL    HW222941   2.792   1.185  15.072 -1.6039  2.0342  0.8662
 3828SOL     OW22942   3.977   2.678   8.871  0.4176 -0.0213 -0.4197
 3828SOL    HW122943   3.882   2.692   8.868  0.5227  0.4721 -1.7919
 3828SOL    HW222944   3.993   2.658   8.779  2.4813  1.5133 -0.4025
 3829SOL     OW22945   4.659   1.636  14.611  0.5315 -0.1221  1.0487
 3829SOL    HW122946   4.658   1.732  14.619 -0.2728 -0.1615  1.4006
 3829SOL    HW222947   4.697   1.628  14.523  0.2128 -0.3299  0.9318
 3830SOL     OW22948   0.132   2.834   4.701  0.3207 -0.3744  0.3614
 3830SOL    HW122949   0.200   2.816   4.766 -0.2015 -0.8325  0.7779
 3830SOL    HW222950   0.076   2.888   4.757  1.5354  0.1283  1.0778
 3831SOL     OW22951   2.661   0.581   1.939  0.3167  0.2261  0.0237
 3831SOL    HW122952   2.600   0.639   1.983 -1.0074 -0.2656 -1.1657
 3831SOL    HW222953   2.627   0.572   1.850 -3.5811  2.0150  1.3316
 3832SOL     OW22954   4.504   2.197  10.127 -0.6466 -0.3837  0.6060
 3832SOL    HW122955   4.531   2.280  10.167  0.2734 -0.8104  0.8724
 3832SOL    HW222956   4.526   2.215  10.036  0.2956  0.5171  1.0171
 3833SOL     OW22957   4.717   2.892   3.795 -0.3659 -0.3283 -0.2854
 3833SOL    HW122958   4.656   2.965   3.799 -0.7281 -0.6183 -0.5498
 3833SOL    HW222959   0.070   2.950   3.805 -0.5311 -0.3607  1.0651
 3834SOL     OW22960   2.327   1.806   9.630  0.1212 -0.1047 -0.6823
 3834SOL    HW122961   2.362   1.870   9.568  1.5884 -1.8107 -1.6137
 3834SOL    HW222962   2.329   1.846   9.716  1.3243 -1.7013  0.0343
 3835SOL     OW22963   0.097   0.434   9.313  0.2904 -0.1598 -0.1533
 3835SOL    HW122964   0.132   0.350   9.284  0.2946 -0.4452  0.6878
 3835SOL    HW222965   0.132   0.482   9.238 -3.1904  0.9932 -1.0528
 3836SOL     OW22966   0.908   2.525   0.419 -0.2661  0.0479  0.3179
 3836SOL    HW122967   0.998   2.508   0.444 -0.6195 -0.0887  1.5389
 3836SOL    HW222968   0.885   2.432   0.413 -0.0668  0.2358 -2.8738
 3837SOL     OW22969   1.928   4.207   6.419  0.0572 -0.0013  0.4850
 3837SOL    HW122970   1.985   4.272   6.376 -0.0195 -0.8481 -0.8831
 3837SOL    HW222971   1.912   4.239   6.508  1.2326  0.8199  0.4145
 3838SOL     OW22972   3.161   4.247  10.451 -0.1214 -0.0577  0.0870
 3838SOL    HW122973   3.118   4.216  10.371 -1.9845  2.3341  0.1661
 3838SOL    HW222974   3.211   4.319  10.413  0.1327 -1.3631 -2.0935
 3839SOL     OW22975   1.176   4.586   4.216  0.2162  0.0972  0.2877
 3839SOL    HW122976   1.198   4.575   4.123 -0.6877  0.2953  0.0500
 3839SOL    HW222977   1.093   4.634   4.207  0.4717  0.0357 -2.4553
 3840SOL     OW22978   3.175   1.066   9.290  0.4845 -0.3605  0.4118
 3840SOL    HW122979   3.164   1.136   9.225  2.1767  0.3175  0.8396
 3840SOL    HW222980   3.267   1.040   9.281 -0.1502 -2.7890  1.0313
 3841SOL     OW22981   2.856   4.717   3.645 -0.3491 -0.0677  0.9699
 3841SOL    HW122982   2.899   4.644   3.601 -0.2992  0.3773  0.2779
 3841SOL    HW222983   2.922   0.044   3.694 -0.3782  0.1181  0.8185
 3842SOL     OW22984   4.410   0.838  15.193  0.5194  0.3002  0.1663
 3842SOL    HW122985   4.351   0.773  15.231 -0.9794  1.1679 -0.6485
 3842SOL    HW222986   4.445   0.785  15.122 -0.5984 -1.6381  1.0800
 3843SOL     OW22987   1.041   4.262  14.351  0.4141 -0.0718  0.4102
 3843SOL    HW122988   1.045   4.167  14.350  2.4817  0.0428 -1.3964
 3843SOL    HW222989   0.955   4.289  14.319 -0.1276 -1.0179  1.0657
 3844SOL     OW22990   0.919   2.567   4.836 -0.2774 -0.3819 -0.1999
 3844SOL    HW122991   0.952   2.657   4.847 -1.4347  0.1975 -1.5239
 3844SOL    HW222992   0.922   2.564   4.740 -1.7316 -0.3034 -0.2396
 3845SOL     OW22993   4.430   3.432   3.434  0.3959  0.4840  0.0482
 3845SOL    HW122994   4.399   3.443   3.344 -0.3513 -2.3792 -0.0472
 3845SOL    HW222995   4.414   3.523   3.460 -0.3181  0.7217 -1.2474
 3846SOL     OW22996   2.496   4.079   7.528 -0.1608  0.1914 -0.4275
 3846SOL    HW122997   2.406   4.073   7.559  0.0083 -2.0757 -0.3622
 3846SOL    HW222998   2.536   3.999   7.564  0.6556  0.1853 -1.3334
 3847SOL     OW22999   3.807   4.446   2.795  0.4165 -0.5882  0.3537
 3847SOL    HW123000   3.839   4.532   2.822 -0.6772 -0.1320  0.2115
 3847SOL    HW223001   3.733   4.426   2.852  1.0251  0.5214  1.5327
 3848SOL     OW23002   1.764   2.976  10.728 -0.2972 -0.1392 -0.5412
 3848SOL    HW123003   1.745   2.887  10.700  0.9049 -0.8602  0.9786
 3848SOL    HW223004   1.680   2.997  10.769  1.6522  2.4352  2.0844
 3849SOL     OW23005   4.082   2.222   2.407 -0.3085 -0.4729  0.3217
 3849SOL    HW123006   4.021   2.207   2.480 -0.0192  1.0461  0.8776
 3849SOL    HW223007   4.120   2.135   2.414  1.3514  0.2282 -0.1831
 3850SOL     OW23008   3.872   2.189   7.049  0.1598  0.0095 -0.2483
 3850SOL    HW123009   3.925   2.266   7.070 -1.0945  0.4020  1.4534
 3850SOL    HW223010   3.820   2.175   7.128  1.4163 -1.7382  0.2881
 3851SOL     OW23011   2.771   0.911   1.819  0.1819  0.0679  0.1663
 3851SOL    HW123012   2.688   0.900   1.773 -0.4831  3.5725  0.5572
 3851SOL    HW223013   2.834   0.861   1.767 -0.3609  1.9247 -2.2736
 3852SOL     OW23014   1.290   4.674   5.904  0.2525 -0.9103 -0.2652
 3852SOL    HW123015   1.369   4.671   5.957  0.8965 -1.1798 -1.2399
 3852SOL    HW223016   1.238   0.021   5.943  0.1989 -0.7385 -0.6408
 3853SOL     OW23017   2.301   1.630   0.809 -0.0500  0.1165 -0.3690
 3853SOL    HW123018   2.217   1.587   0.797  0.9233 -1.2990 -2.0958
 3853SOL    HW223019   2.297   1.706   0.750  0.0615  0.0334 -0.4826
 3854SOL     OW23020   1.835   0.022   8.696 -0.1214 -0.3061 -0.2251
 3854SOL    HW123021   1.746   0.057   8.692  1.3255  3.2949 -0.7677
 3854SOL    HW223022   1.859   0.002   8.606  0.0601 -0.3508 -0.1659
 3855SOL     OW23023   0.171   3.522   1.487  0.0198  0.0297  0.1529
 3855SOL    HW123024   0.101   3.587   1.493  0.7738  1.1011 -2.5972
 3855SOL    HW223025   0.122   3.445   1.457  1.0317 -1.0929  1.3805
 3856SOL     OW23026   3.841   3.361   8.784  0.0460 -0.5348 -0.1664
 3856SOL    HW123027   3.921   3.376   8.834 -0.2529  1.4281 -0.2946
 3856SOL    HW223028   3.795   3.443   8.799  2.0650  0.4018  0.8052
 3857SOL     OW23029   1.356   3.398   7.650  0.2576 -0.2117 -0.1067
 3857SOL    HW123030   1.436   3.450   7.661 -0.1146  0.6395 -1.3527
 3857SOL    HW223031   1.328   3.374   7.739 -1.9743 -2.0995 -1.3246
 3858SOL     OW23032   3.749   3.341   4.452  0.1066 -0.1189 -0.5319
 3858SOL    HW123033   3.661   3.376   4.462  0.5660  1.8610 -3.4127
 3858SOL    HW223034   3.776   3.395   4.377 -0.1685  0.9167  0.1171
 3859SOL     OW23035   2.641   4.373  10.495 -0.0448 -0.1739  0.1411
 3859SOL    HW123036   2.724   4.375  10.542 -1.0004 -1.1978  1.8708
 3859SOL    HW223037   2.680   4.377  10.408 -0.1063  0.0905  0.1253
 3860SOL     OW23038   0.776   0.736   2.900  0.2134  0.2491  0.4023
 3860SOL    HW123039   0.864   0.770   2.891  0.5778 -0.3236  1.7677
 3860SOL    HW223040   0.786   0.703   2.989  0.3828 -0.0440  0.2752
 3861SOL     OW23041   2.838   3.114   4.605 -0.8114  0.3266  0.1748
 3861SOL    HW123042   2.777   3.102   4.532  0.6581 -3.1137 -0.4447
 3861SOL    HW223043   2.800   3.068   4.680 -3.1146 -0.2777 -1.3457
 3862SOL     OW23044   1.392   1.794   3.529 -0.6604  0.1724 -0.2335
 3862SOL    HW123045   1.401   1.777   3.435  2.8719  0.4649  0.0332
 3862SOL    HW223046   1.452   1.722   3.550  0.3241  1.5648  1.6321
 3863SOL     OW23047   1.922   2.284   4.526 -0.0495  0.1302  0.1915
 3863SOL    HW123048   1.902   2.327   4.443  1.1122 -0.1616 -0.2536
 3863SOL    HW223049   1.989   2.345   4.558  0.5694 -0.6320  0.3594
 3864SOL     OW23050   0.716   1.086   6.859  0.5249  0.1292  0.4712
 3864SOL    HW123051   0.731   1.036   6.779  2.6331  2.5163 -0.6529
 3864SOL    HW223052   0.790   1.146   6.856  0.0936  0.7454  2.0697
 3865SOL     OW23053   1.010   2.883   0.625 -0.3317  0.0046 -0.3137
 3865SOL    HW123054   0.976   2.956   0.676 -3.4211 -0.0747 -2.2216
 3865SOL    HW223055   1.081   2.926   0.578  0.1138  0.3152  0.6475
 3866SOL     OW23056   3.818   1.911   4.617 -0.2655 -0.6908  0.4551
 3866SOL    HW123057   3.799   1.823   4.648 -0.3382 -0.7079  0.3612
 3866SOL    HW223058   3.912   1.911   4.600 -0.2987  0.9011  0.2326
 3867SOL     OW23059   4.073   0.929   9.834 -0.7285  0.4439 -0.3242
 3867SOL    HW123060   4.101   0.968   9.917 -1.9659  2.0287 -0.6505
 3867SOL    HW223061   4.082   1.005   9.776 -0.3195  0.8515  0.2646
 3868SOL     OW23062   1.038   3.614   5.109 -0.0238 -0.0707  0.6292
 3868SOL    HW123063   1.099   3.688   5.113  1.4339 -1.2475 -0.1920
 3868SOL    HW223064   1.088   3.541   5.143 -1.9366 -1.1303  1.1729
 3869SOL     OW23065   1.954   1.112   9.118  0.0019  0.5200  0.1823
 3869SOL    HW123066   1.939   1.190   9.064 -0.2400 -0.0749 -0.6103
 3869SOL    HW223067   2.031   1.074   9.076  0.7677  0.8253  1.3144
 3870SOL     OW23068   1.276   3.064   9.041 -0.3310  0.1311  0.3896
 3870SOL    HW123069   1.363   3.063   9.000 -0.9094  1.5245 -0.8715
 3870SOL    HW223070   1.231   3.128   8.986  0.8040 -0.9936 -1.8516
 3871SOL     OW23071   3.201   1.120  12.325  0.0735 -0.4205  0.2010
 3871SOL    HW123072   3.178   1.118  12.232 -0.3926  0.1406  0.2996
 3871SOL    HW223073   3.248   1.204  12.322  0.4838 -0.6277  1.0653
 3872SOL     OW23074   0.927   3.764   0.352  0.0764  0.3975 -0.5737
 3872SOL    HW123075   0.889   3.821   0.285 -1.2410 -0.8054 -0.8574
 3872SOL    HW223076   0.886   3.787   0.436 -0.8875 -0.6872 -0.7469
 3873SOL     OW23077   1.599   3.473   3.414  0.4494 -0.0965  0.1208
 3873SOL    HW123078   1.674   3.423   3.448 -0.3087 -2.9298 -2.2860
 3873SOL    HW223079   1.593   3.430   3.328 -0.9428  2.2803 -0.9588
 3874SOL     OW23080   0.542   1.249   8.051  0.1767 -0.2436  0.0026
 3874SOL    HW123081   0.448   1.238   8.061 -0.1033  1.2549 -1.0745
 3874SOL    HW223082   0.579   1.223   8.136 -0.6585 -1.8374 -0.1147
 3875SOL     OW23083   1.845   1.646   8.820 -0.4347 -0.0450  0.4746
 3875SOL    HW123084   1.795   1.684   8.747 -1.3280 -0.4062  0.9039
 3875SOL    HW223085   1.928   1.652   8.772 -0.6645 -3.3755 -0.3049
 3876SOL     OW23086   0.514   2.683   6.714  0.4672 -0.5477  0.1577
 3876SOL    HW123087   0.523   2.756   6.775  2.6468 -0.6615 -0.0239
 3876SOL    HW223088   0.594   2.630   6.725  1.1434  0.7785  1.6347
 3877SOL     OW23089   3.904   3.007   0.769  0.4056  0.1170  0.1398
 3877SOL    HW123090   3.832   3.043   0.718 -0.4855  0.1449  1.4302
 3877SOL    HW223091   3.880   3.037   0.856 -2.8554 -1.7017 -0.1415
 3878SOL     OW23092   2.179   4.647   3.064 -0.0704 -0.0314 -0.8878
 3878SOL    HW123093   2.207   4.586   3.132  0.3252 -0.1764 -1.1882
 3878SOL    HW223094   2.093   4.609   3.045 -0.4851 -0.3331  1.6458
 3879SOL     OW23095   2.414   2.421  12.640  0.0199  0.2018  0.0813
 3879SOL    HW123096   2.478   2.411  12.711  1.4208 -0.5491 -1.2896
 3879SOL    HW223097   2.350   2.350  12.653  2.9004 -2.8884 -2.5356
 3880SOL     OW23098   2.869   2.399   3.876  0.6244 -0.1839  0.1034
 3880SOL    HW123099   2.959   2.392   3.907 -0.1220  1.8434  2.7921
 3880SOL    HW223100   2.854   2.317   3.829 -0.1122  1.1686 -2.0512
 3881SOL     OW23101   3.809   2.087  14.204 -0.0778 -0.0581  0.2372
 3881SOL    HW123102   3.772   1.999  14.213 -0.4281  0.1628  0.8921
 3881SOL    HW223103   3.879   2.083  14.269 -1.5148 -1.3986  1.6982
 3882SOL     OW23104   0.439   2.813   8.093  1.0297 -0.8384  0.5483
 3882SOL    HW123105   0.451   2.742   8.030  0.1499  0.3979 -0.9921
 3882SOL    HW223106   0.531   2.840   8.098 -0.1661  3.3932 -0.1983
 3883SOL     OW23107   2.579   4.438   8.457 -0.4054  0.3056 -0.0735
 3883SOL    HW123108   2.512   4.498   8.491 -0.2631  1.3951 -1.7566
 3883SOL    HW223109   2.555   4.369   8.519 -1.1158  1.1771  0.6280
 3884SOL     OW23110   2.518   0.635   3.880  0.5668  0.2606  0.1999
 3884SOL    HW123111   2.464   0.561   3.911  0.5010  0.4450  0.5306
 3884SOL    HW223112   2.610   0.607   3.888  1.2362  1.9865 -1.7361
 3885SOL     OW23113   3.375   4.350   1.232 -0.1076  0.5296  0.0467
 3885SOL    HW123114   3.397   4.436   1.266  4.3281 -0.9746  0.9725
 3885SOL    HW223115   3.289   4.335   1.271  0.3151  0.7935  1.0833
 3886SOL     OW23116   4.611   3.846   5.343 -0.3072 -0.3847  0.3617
 3886SOL    HW123117   4.576   3.870   5.257 -1.3898  2.7751  1.6637
 3886SOL    HW223118   4.533   3.845   5.398  0.0818  1.3269  0.9449
 3887SOL     OW23119   1.266   2.124   8.662 -0.0544 -0.0304  0.1038
 3887SOL    HW123120   1.231   2.138   8.574  1.4899  0.5103 -0.4086
 3887SOL    HW223121   1.186   2.103   8.711 -0.2774 -0.9123 -0.6306
 3888SOL     OW23122   0.651   4.463  10.299 -0.1298 -0.2710 -0.7154
 3888SOL    HW123123   0.581   4.516  10.338  1.1877  0.5357  0.5687
 3888SOL    HW223124   0.709   4.525  10.255 -0.4265  0.8600  0.4916
 3889SOL     OW23125   3.669   4.395   3.157  0.4439  0.7342  0.1725
 3889SOL    HW123126   3.724   4.473   3.148  0.0292  0.7831 -1.9603
 3889SOL    HW223127   3.639   4.389   3.066 -0.6288  1.9364  0.4374
 3890SOL     OW23128   2.893   4.257   9.804  0.7447  0.6764 -0.5565
 3890SOL    HW123129   2.886   4.162   9.812  0.5975  0.5280 -2.5946
 3890SOL    HW223130   2.940   4.263   9.721  0.5564  0.8258 -0.6506
 3891SOL     OW23131   3.853   1.817   5.675  0.0453  0.2870 -0.7923
 3891SOL    HW123132   3.801   1.876   5.729  1.6965  1.8052 -0.8769
 3891SOL    HW223133   3.800   1.737   5.676 -0.5562  0.6670 -2.2980
 3892SOL     OW23134   1.702   0.297   4.683  0.4098  0.4441  0.2895
 3892SOL    HW123135   1.650   0.361   4.730 -1.7551 -0.8069 -0.4138
 3892SOL    HW223136   1.788   0.297   4.726  0.0944 -0.1030  0.9128
 3893SOL     OW23137   2.412   0.041   0.346  0.0572 -0.5090  0.4064
 3893SOL    HW123138   2.478   0.107   0.366  2.0122 -1.7850 -1.9408
 3893SOL    HW223139   2.411   4.709   0.424  0.7951 -1.1546 -0.0390
 3894SOL     OW23140   3.376   1.283   0.716  0.0413  0.3148  0.1510
 3894SOL    HW123141   3.367   1.250   0.806  2.2520 -1.2128 -0.1800
 3894SOL    HW223142   3.460   1.246   0.690 -1.1683 -2.3505  0.0760
 3895SOL     OW23143   4.379   2.432   2.645  0.2654 -0.5937  0.1036
 3895SOL    HW123144   4.352   2.341   2.629 -1.9002  0.2964 -1.3523
 3895SOL    HW223145   4.416   2.432   2.733  2.3843  0.6184 -0.7982
 3896SOL     OW23146   3.645   3.677   8.561  0.1690  0.1695 -0.3239
 3896SOL    HW123147   3.733   3.697   8.528  0.2330 -2.4644 -1.7171
 3896SOL    HW223148   3.658   3.632   8.644  1.8347 -0.3365 -0.8600
 3897SOL     OW23149   1.446   1.267   4.291 -0.6228 -0.0952  0.0688
 3897SOL    HW123150   1.476   1.358   4.288 -2.1445  0.3997 -0.2696
 3897SOL    HW223151   1.528   1.228   4.321 -0.3286  1.8708  1.8314
 3898SOL     OW23152   2.363   4.243  16.538  0.3147 -0.3139 -0.0422
 3898SOL    HW123153   2.443   4.201  16.506 -0.2680 -1.0732 -0.4998
 3898SOL    HW223154   2.323   4.170  16.586  3.0518 -0.6918  1.6848
 3899SOL     OW23155   2.302   3.613   5.635  0.4495  0.1268  0.0154
 3899SOL    HW123156   2.284   3.528   5.595 -1.3267  0.2948  0.4600
 3899SOL    HW223157   2.397   3.609   5.643  0.5931  1.0097 -1.2424
 3900SOL     OW23158   0.572   0.069   4.973 -1.0245  0.0482  0.0613
 3900SOL    HW123159   0.621   0.009   5.028  1.3517  0.7046 -1.3300
 3900SOL    HW223160   0.638   0.101   4.912  2.7569  0.2532  4.3284
 3901SOL     OW23161   2.574   0.124   8.346  0.5974 -0.3544 -0.3121
 3901SOL    HW123162   2.622   0.178   8.409  1.2908 -0.8841 -0.3831
 3901SOL    HW223163   2.629   0.134   8.269 -0.0466 -3.7212 -1.2128
 3902SOL     OW23164   2.430   2.132  15.201 -0.4306 -0.1961  0.4222
 3902SOL    HW123165   2.433   2.183  15.281 -0.6995  1.0108 -0.3396
 3902SOL    HW223166   2.501   2.179  15.157 -2.3839  1.9516 -0.4298
 3903SOL     OW23167   1.210   0.814   3.094 -0.0569  0.5022  0.3381
 3903SOL    HW123168   1.170   0.797   3.179 -0.5970 -0.6994 -0.1520
 3903SOL    HW223169   1.275   0.881   3.116 -0.2651 -0.1353  2.8299
 3904SOL     OW23170   4.397   2.743   7.035  0.7776 -0.0609 -0.2834
 3904SOL    HW123171   4.360   2.761   6.949 -0.1273  1.4479  0.4204
 3904SOL    HW223172   4.483   2.701   7.022  0.0259 -1.2282 -1.4103
 3905SOL     OW23173   0.058   4.602   7.355 -0.0865  0.2243 -0.2097
 3905SOL    HW123174   0.148   4.572   7.341 -1.3926 -2.4944 -2.7249
 3905SOL    HW223175   0.043   4.563   7.442  0.9989  1.2934  0.4569
 3906SOL     OW23176   0.961   2.765   2.465 -0.2561  0.1192 -0.5603
 3906SOL    HW123177   1.032   2.728   2.413 -1.7719 -1.6219 -1.3616
 3906SOL    HW223178   0.882   2.742   2.417 -1.5784 -1.0632  2.1677
 3907SOL     OW23179   2.944   0.755   4.162 -0.1662  0.0001  0.5424
 3907SOL    HW123180   2.875   0.804   4.116  1.5964  0.4866 -1.5751
 3907SOL    HW223181   2.891   0.683   4.198  0.6110 -0.4917  0.7174
 3908SOL     OW23182   2.881   3.843   9.380  0.7087 -0.2929  0.4152
 3908SOL    HW123183   2.931   3.858   9.300  3.0313  0.0140  1.9012
 3908SOL    HW223184   2.901   3.750   9.386 -0.9241 -0.7700 -1.9233
 3909SOL     OW23185   0.103   0.508   9.041  0.4616 -0.3775  0.3089
 3909SOL    HW123186   0.028   0.449   9.029  1.5727 -1.5620 -0.7410
 3909SOL    HW223187   0.126   0.536   8.953 -0.4602 -0.6244 -0.0171
 3910SOL     OW23188   3.447   0.014  15.986  0.2946 -0.3929  0.5578
 3910SOL    HW123189   3.541   0.000  15.980  0.8709  3.1055  1.7865
 3910SOL    HW223190   3.405   4.651  15.992  0.0516 -0.2090  1.4614
 3911SOL     OW23191   3.287   1.720   3.342 -0.4950  0.3119 -0.2184
 3911SOL    HW123192   3.248   1.680   3.420  0.6564 -0.4396 -0.0320
 3911SOL    HW223193   3.266   1.812   3.357 -0.8200 -0.0007  1.3075
 3912SOL     OW23194   0.844   4.402  10.065 -0.4151 -0.2013 -0.3141
 3912SOL    HW123195   0.849   4.484  10.113 -1.5348 -0.1039 -0.3602
 3912SOL    HW223196   0.779   4.431  10.001 -0.2138  0.1234 -0.3735
 3913SOL     OW23197   4.074   0.369   8.795 -0.1956  0.4349 -0.2163
 3913SOL    HW123198   4.055   0.392   8.886  0.1223  3.0066 -0.7912
 3913SOL    HW223199   4.063   0.453   8.749 -0.3052  1.1508  1.1080
 3914SOL     OW23200   1.506   0.740   4.153  0.3804 -0.3250 -0.0424
 3914SOL    HW123201   1.547   0.695   4.080  0.1881 -1.1189  0.3368
 3914SOL    HW223202   1.566   0.814   4.164  2.5671 -2.4632  2.4852
 3915SOL     OW23203   2.267   2.244   4.307 -0.0265  0.2421 -0.1251
 3915SOL    HW123204   2.193   2.285   4.263  0.6482  0.3347 -1.1734
 3915SOL    HW223205   2.334   2.307   4.278  0.6653  0.0219  0.9770
 3916SOL     OW23206   4.049   3.545   3.680  0.2451  0.0316  0.0030
 3916SOL    HW123207   4.093   3.613   3.732  0.4519  1.1042 -1.5591
 3916SOL    HW223208   4.006   3.609   3.623  2.7489 -0.4768 -2.4780
 3917SOL     OW23209   0.055   1.943   1.106 -0.6399 -0.5629 -0.4624
 3917SOL    HW123210   0.131   1.899   1.069 -0.7007 -1.8094  0.9050
 3917SOL    HW223211   0.081   2.035   1.096 -2.2728 -0.0835 -0.3093
 3918SOL     OW23212   3.877   0.809   9.127  0.1022 -0.1962  0.1881
 3918SOL    HW123213   3.814   0.869   9.088 -0.5326 -0.6553  0.5222
 3918SOL    HW223214   3.890   0.852   9.211  1.2773 -1.7087  0.7850
 3919SOL     OW23215   3.203   1.868   5.648  0.5488  0.2710 -0.0219
 3919SOL    HW123216   3.145   1.793   5.664  0.7087  0.1518 -0.0055
 3919SOL    HW223217   3.283   1.843   5.694  1.0726 -1.1788 -1.7731
 3920SOL     OW23218   2.257   4.340  10.497 -0.6111 -0.2090 -0.5157
 3920SOL    HW123219   2.277   4.433  10.482  1.9205 -0.5077  1.0342
 3920SOL    HW223220   2.335   4.309  10.543 -0.9517 -0.6296 -0.2190
 3921SOL     OW23221   0.524   0.652   2.288  0.0383  0.2011  0.2565
 3921SOL    HW123222   0.468   0.727   2.309  1.9762  2.1549 -1.5802
 3921SOL    HW223223   0.463   0.579   2.279  0.9575 -0.4780 -0.3869
 3922SOL     OW23224   0.445   0.722  13.580  0.7173  0.3280  0.9673
 3922SOL    HW123225   0.522   0.738  13.525 -0.2643  0.5347 -0.3456
 3922SOL    HW223226   0.478   0.674  13.657  1.5994 -1.4397 -0.5209
 3923SOL     OW23227   0.995   4.452   4.822 -0.1049  0.4774 -0.5068
 3923SOL    HW123228   0.979   4.417   4.910  1.5335 -1.0767 -0.8261
 3923SOL    HW223229   1.091   4.442   4.820 -0.1606  0.6506 -3.2121
 3924SOL     OW23230   2.687   2.137   5.788  0.2181  0.6358 -0.9809
 3924SOL    HW123231   2.661   2.076   5.857  1.3253  0.2817 -0.8816
 3924SOL    HW223232   2.648   2.220   5.814  0.2603  0.1634  0.5811
 3925SOL     OW23233   1.460   2.811   7.943 -0.1796  0.3151  0.3987
 3925SOL    HW123234   1.529   2.764   7.897 -0.7782 -0.6910  0.5367
 3925SOL    HW223235   1.410   2.742   7.987 -0.5571 -0.2280 -0.8613
 3926SOL     OW23236   2.427   4.280   3.691  0.0865 -0.1358 -1.0590
 3926SOL    HW123237   2.397   4.210   3.633 -2.3738  0.0691 -0.0547
 3926SOL    HW223238   2.519   4.258   3.681  0.5331  0.4275  1.7280
 3927SOL     OW23239   2.297   4.599   1.313 -0.0679 -0.5795  0.9013
 3927SOL    HW123240   2.238   4.536   1.272 -1.1507  2.2892 -1.9720
 3927SOL    HW223241   2.361   4.595   1.241 -2.2472  0.1033 -1.0827
 3928SOL     OW23242   1.683   1.867  17.530  0.8413 -0.2791 -0.3984
 3928SOL    HW123243   1.647   1.834  17.448 -0.3727 -0.4974  0.2247
 3928SOL    HW223244   1.723   1.951  17.506  3.9816 -1.0200  2.2198
 3929SOL     OW23245   4.015   2.148   5.269 -0.5873 -0.0844 -0.4353
 3929SOL    HW123246   4.084   2.090   5.237  2.0250  3.1702 -0.6955
 3929SOL    HW223247   4.020   2.118   5.359 -0.5082 -1.4372 -0.8837
 3930SOL     OW23248   1.755   0.147   1.364  0.3229 -0.4690  0.4629
 3930SOL    HW123249   1.741   0.091   1.440  0.2234 -2.0427 -0.7169
 3930SOL    HW223250   1.668   0.184   1.348 -0.6203 -2.0709  1.9268
 3931SOL     OW23251   1.970   0.531  11.360 -0.2960  0.1215  0.2454
 3931SOL    HW123252   2.014   0.532  11.275  0.5297 -1.6081  0.6505
 3931SOL    HW223253   2.029   0.473  11.409 -0.8773 -0.4192  0.2986
 3932SOL     OW23254   3.083   4.344   0.173  0.0275  0.0367 -0.2781
 3932SOL    HW123255   3.004   4.295   0.150 -0.6227  1.2515 -0.6052
 3932SOL    HW223256   3.129   4.300   0.245 -1.5913  0.1219  0.7953
 3933SOL     OW23257   4.349   3.902   1.627 -0.6889 -0.6305  0.0951
 3933SOL    HW123258   4.320   3.902   1.719  1.3867  2.0118  0.7378
 3933SOL    HW223259   4.345   3.997   1.613  1.8869 -0.7918 -1.5709
 3934SOL     OW23260   0.372   0.968  12.968  0.1967  0.0207  0.1147
 3934SOL    HW123261   0.288   0.993  13.006 -0.6602 -1.3625 -0.9058
 3934SOL    HW223262   0.391   0.889  13.019  0.8338 -0.8813 -1.5002
 3935SOL     OW23263   3.477   2.924  15.756 -0.0617 -0.0958 -0.0357
 3935SOL    HW123264   3.447   2.911  15.846  0.3037 -1.8748 -0.1699
 3935SOL    HW223265   3.458   2.836  15.724 -2.8601  0.8445 -0.9785
 3936SOL     OW23266   3.540   4.328   6.894  0.4942 -0.2147  0.6295
 3936SOL    HW123267   3.485   4.257   6.862  0.4909  0.3566 -0.6326
 3936SOL    HW223268   3.599   4.278   6.950 -0.6141 -1.8420  0.3170
 3937SOL     OW23269   1.215   3.519  11.965 -0.4820 -0.2768 -0.3348
 3937SOL    HW123270   1.160   3.445  11.991 -0.3572 -0.2430  0.0119
 3937SOL    HW223271   1.208   3.582  12.036  0.0549 -1.6828  0.9594
 3938SOL     OW23272   4.057   1.615   4.566  0.0486 -0.2637 -0.4052
 3938SOL    HW123273   3.970   1.609   4.606  0.2067 -1.3167 -0.2218
 3938SOL    HW223274   4.062   1.535   4.514 -0.2277 -1.4541  1.3935
 3939SOL     OW23275   2.979   1.017   6.140 -0.0750 -0.2967 -0.2853
 3939SOL    HW123276   3.005   0.932   6.103 -0.6398 -1.2067  1.3973
 3939SOL    HW223277   3.054   1.035   6.197 -0.0511 -2.6984  0.4523
 3940SOL     OW23278   4.237   0.571   7.742  0.1752  0.3531  0.1350
 3940SOL    HW123279   4.304   0.503   7.738  1.8302  2.0391 -0.7718
 3940SOL    HW223280   4.237   0.603   7.652  3.1842 -1.7416 -0.5962
 3941SOL     OW23281   0.205   4.086  14.013 -0.0946 -0.7470  0.5305
 3941SOL    HW123282   0.179   4.092  14.105  1.3483  1.9546  0.7791
 3941SOL    HW223283   0.194   3.992  13.999 -1.2252 -0.3986 -0.8772
 3942SOL     OW23284   3.000   0.329   3.101 -0.2038  0.0323  0.1392
 3942SOL    HW123285   3.073   0.370   3.053 -1.8551  3.4261  0.5526
 3942SOL    HW223286   3.029   0.330   3.192  1.0038 -1.6104 -0.2277
 3943SOL     OW23287   3.948   2.574  14.560  0.5627  0.6774  0.2889
 3943SOL    HW123288   4.013   2.629  14.517 -1.3504  3.2163  0.6162
 3943SOL    HW223289   3.938   2.623  14.642 -1.9532  1.3968 -0.4357
 3944SOL     OW23290   1.494   1.964  15.364 -0.0974  0.2107  0.1096
 3944SOL    HW123291   1.422   1.909  15.333  0.5211 -0.9509  0.7415
 3944SOL    HW223292   1.557   1.957  15.292 -0.1722 -1.2782  0.1908
 3945SOL     OW23293   4.708   1.538   8.524  0.3494 -0.1790  0.0325
 3945SOL    HW123294   4.686   1.502   8.610 -0.2080  0.3850  0.1240
 3945SOL    HW223295   0.062   1.486   8.501  1.9990  1.1884  2.4596
 3946SOL     OW23296   1.531   0.326   7.701 -0.2553 -0.3045 -0.2370
 3946SOL    HW123297   1.503   0.405   7.748 -1.2017 -0.8836  0.1696
 3946SOL    HW223298   1.605   0.364   7.655 -1.4756  0.8971 -1.1990
 3947SOL     OW23299   0.065   0.483  14.096 -0.5668 -0.2165 -0.0755
 3947SOL    HW123300   4.702   0.451  14.067  0.1458 -2.4723  0.3039
 3947SOL    HW223301   0.076   0.544  14.023 -1.3178  1.2547  1.0312
 3948SOL     OW23302   3.936   3.960   6.846  0.1952  0.4795  0.4710
 3948SOL    HW123303   3.958   4.027   6.910  1.9284  1.4500 -1.1604
 3948SOL    HW223304   3.882   3.916   6.913  2.1634 -3.1979 -0.3841
 3949SOL     OW23305   3.934   0.187  15.925 -0.2368  0.3180 -0.6287
 3949SOL    HW123306   3.892   0.156  15.845 -3.8684  1.1584  0.9352
 3949SOL    HW223307   3.890   0.271  15.940 -0.0438  0.5779 -1.5182
 3950SOL     OW23308   3.450   4.417  12.830  0.5256  0.3451 -0.1808
 3950SOL    HW123309   3.495   4.335  12.850 -2.1721 -0.6655  1.6926
 3950SOL    HW223310   3.415   4.437  12.917 -0.5485 -0.5778 -0.4084
 3951SOL     OW23311   0.273   1.290   8.047  0.2004  0.8346 -0.0034
 3951SOL    HW123312   0.215   1.271   7.974 -1.2148  2.1504  0.7633
 3951SOL    HW223313   0.211   1.288   8.120  0.7274  1.0919  0.4550
 3952SOL     OW23314   3.642   2.012   8.478  0.4316  0.0346  0.3372
 3952SOL    HW123315   3.726   2.057   8.466 -0.0041  0.7038 -0.1979
 3952SOL    HW223316   3.672   1.921   8.469 -1.2934 -0.4159 -0.8773
 3953SOL     OW23317   0.642   0.319   7.321 -0.0592  0.1370  0.6363
 3953SOL    HW123318   0.715   0.258   7.335 -0.3291 -0.3526 -0.0837
 3953SOL    HW223319   0.690   0.401   7.329 -0.3508  0.4747 -0.9623
 3954SOL     OW23320   1.117   3.527   1.461 -0.0652  0.0266  0.0558
 3954SOL    HW123321   1.057   3.571   1.521  0.0310 -0.5091  0.5352
 3954SOL    HW223322   1.054   3.499   1.395 -0.0863  0.4984 -0.1279
 3955SOL     OW23323   2.224   0.707  17.016 -0.0997  0.2614 -0.0497
 3955SOL    HW123324   2.296   0.764  17.044  1.4608 -0.6794 -2.1455
 3955SOL    HW223325   2.155   0.772  17.002  0.6841  1.1668  0.3251
 3956SOL     OW23326   3.539   1.651   5.583 -0.4282  0.5223  0.1744
 3956SOL    HW123327   3.614   1.602   5.615 -0.4047  0.7163  0.4201
 3956SOL    HW223328   3.522   1.715   5.652  2.1737  1.1919  0.1965
 3957SOL     OW23329   4.676   3.015   3.158 -0.1190  0.0776  0.2605
 3957SOL    HW123330   4.636   3.100   3.176  0.4551  0.7747 -1.8534
 3957SOL    HW223331   4.597   2.962   3.145 -0.2596  1.0134 -2.5855
 3958SOL     OW23332   0.396   3.415   2.851 -0.1840  0.0863  0.0772
 3958SOL    HW123333   0.418   3.324   2.831 -0.1795  0.1867 -0.3857
 3958SOL    HW223334   0.333   3.409   2.922 -1.4560  0.8133 -0.9872
 3959SOL     OW23335   3.676   3.961  11.764 -0.0482 -0.2649 -0.0056
 3959SOL    HW123336   3.770   3.975  11.778  0.0884  1.3351 -2.6199
 3959SOL    HW223337   3.667   3.945  11.671 -1.4316 -0.4525  0.1639
 3960SOL     OW23338   1.073   0.594   1.549  0.1637 -0.2719 -0.0082
 3960SOL    HW123339   1.078   0.540   1.470 -0.9626  1.8356 -1.5569
 3960SOL    HW223340   0.979   0.610   1.547  0.8450  3.6350 -2.6718
 3961SOL     OW23341   2.464   0.525  15.055  0.4036  0.0206  0.2405
 3961SOL    HW123342   2.470   0.510  14.960  0.7811 -0.6054  0.3621
 3961SOL    HW223343   2.458   0.435  15.087 -0.2382 -0.2176 -0.5496
 3962SOL     OW23344   4.016   1.076   6.120 -0.0499 -0.1098  0.4065
 3962SOL    HW123345   3.925   1.106   6.130  0.3992  0.9929  1.1190
 3962SOL    HW223346   4.010   0.991   6.164  0.7044 -0.1124  0.5054
 3963SOL     OW23347   4.372   4.276   9.977  0.6392  0.3342  0.1234
 3963SOL    HW123348   4.418   4.352  10.014  0.3860  0.5036  0.0832
 3963SOL    HW223349   4.354   4.227  10.058  1.4532 -1.1082 -0.5690
 3964SOL     OW23350   0.378   4.300   9.240 -0.5654  0.1671 -0.8213
 3964SOL    HW123351   0.390   4.210   9.211  2.1145 -0.5568  2.4379
 3964SOL    HW223352   0.454   4.303   9.299 -0.3989  2.4353 -1.1477
 3965SOL     OW23353   2.999   2.436   1.155 -0.2967 -0.0420 -0.2481
 3965SOL    HW123354   2.973   2.522   1.188  1.8755  1.8417 -3.4407
 3965SOL    HW223355   3.047   2.462   1.076  0.6862 -0.5567  0.1807
 3966SOL     OW23356   3.329   4.338   7.485  0.0531 -0.1834  0.1122
 3966SOL    HW123357   3.333   4.351   7.580 -1.0892  1.4055 -0.0592
 3966SOL    HW223358   3.372   4.252   7.477  1.7072  0.5770  0.7348
 3967SOL     OW23359   3.973   4.067   5.010  0.1410 -0.0336  0.0992
 3967SOL    HW123360   4.005   4.064   4.919 -0.0480 -0.3765  0.0487
 3967SOL    HW223361   3.964   3.973   5.019  3.0737 -0.4109 -0.9392
 3968SOL     OW23362   3.871   1.700   8.885  0.0632  0.4249 -0.6353
 3968SOL    HW123363   3.791   1.741   8.918  0.9449  0.3602  1.5469
 3968SOL    HW223364   3.883   1.632   8.951 -1.2957  1.4272  0.6472
 3969SOL     OW23365   0.250   4.715   5.478 -0.1900 -0.1548  0.5060
 3969SOL    HW123366   0.327   4.658   5.471 -1.2145 -1.5730  1.0653
 3969SOL    HW223367   0.259   0.030   5.390  0.2401 -1.9731 -0.2421
 3970SOL     OW23368   3.746   0.565  15.510 -0.3418 -0.5626  0.0986
 3970SOL    HW123369   3.657   0.589  15.484 -0.3179  0.2125  0.7519
 3970SOL    HW223370   3.758   0.609  15.593  2.3336 -1.2945  0.0715
 3971SOL     OW23371   4.497   4.449   3.478 -0.1205 -0.0261 -0.2210
 3971SOL    HW123372   4.506   4.369   3.529 -3.3714 -0.2791 -0.0291
 3971SOL    HW223373   4.585   4.458   3.442 -0.2734  2.4279  0.0231
 3972SOL     OW23374   2.062   0.869  13.334 -0.2453 -0.2708  0.2255
 3972SOL    HW123375   2.052   0.839  13.425 -0.3260 -0.5452  0.1269
 3972SOL    HW223376   1.997   0.938  13.321 -1.0902 -0.7834  1.6204
 3973SOL     OW23377   3.347   0.905  16.444  0.2628 -0.3403 -0.2032
 3973SOL    HW123378   3.277   0.960  16.478 -0.0021 -1.2167  0.6698
 3973SOL    HW223379   3.294   0.829  16.421 -1.2915  0.5265  0.5547
 3974SOL     OW23380   3.520   3.907   3.960  0.1096 -0.2631  0.1531
 3974SOL    HW123381   3.468   3.897   3.881  0.0641  1.2791 -0.0017
 3974SOL    HW223382   3.609   3.896   3.926  0.4342  1.1167  0.5600
 3975SOL     OW23383   0.516   2.732   9.006  0.3844 -0.5440  0.2040
 3975SOL    HW123384   0.563   2.655   8.973  1.6400  0.7352 -1.0249
 3975SOL    HW223385   0.595   2.787   9.003 -0.6293  0.9328  1.0222
 3976SOL     OW23386   1.715   3.433   4.806  0.0107 -0.1308  0.3054
 3976SOL    HW123387   1.702   3.397   4.718 -1.7051 -0.3270  0.6423
 3976SOL    HW223388   1.629   3.439   4.847  0.6468 -0.6541  1.6978
 3977SOL     OW23389   0.491   3.133   1.924  0.4308  1.0296 -0.5037
 3977SOL    HW123390   0.448   3.157   1.842  1.4891 -0.4708 -1.4965
 3977SOL    HW223391   0.546   3.063   1.888 -2.0236 -0.7221 -0.8450
 3978SOL     OW23392   3.072   3.958   5.702  0.4032 -0.2541  0.5329
 3978SOL    HW123393   3.124   3.900   5.758 -1.0919 -1.6265  0.4970
 3978SOL    HW223394   3.024   4.016   5.761  1.4788 -0.0136  1.1706
 3979SOL     OW23395   1.779   0.943   6.622 -0.7139  1.0648 -0.3170
 3979SOL    HW123396   1.771   0.853   6.588 -0.4672  0.5458  1.0027
 3979SOL    HW223397   1.873   0.957   6.612 -0.3707  0.9071  2.5686
 3980SOL     OW23398   1.484   2.917  11.609  0.0930 -0.0091 -0.1726
 3980SOL    HW123399   1.576   2.899  11.591 -0.0919  0.1717 -1.3042
 3980SOL    HW223400   1.481   2.904  11.703  0.1633  2.3434  0.1438
 3981SOL     OW23401   1.197   2.849   0.848 -0.4695  0.1591  0.0972
 3981SOL    HW123402   1.125   2.849   0.785  0.3209 -0.4802 -0.8011
 3981SOL    HW223403   1.162   2.801   0.923  0.6655 -1.8702 -0.6941
 3982SOL     OW23404   1.160   3.476  13.528 -0.5614 -0.2244  0.0037
 3982SOL    HW123405   1.191   3.564  13.551  1.5383 -0.4216 -2.0486
 3982SOL    HW223406   1.073   3.475  13.569 -1.9354 -1.2661 -2.9571
 3983SOL     OW23407   2.244   0.914  14.505 -0.3999  0.0488 -0.6053
 3983SOL    HW123408   2.154   0.882  14.510  0.3653 -1.7894  1.3231
 3983SOL    HW223409   2.251   0.969  14.427 -2.4123 -1.7855 -2.0568
 3984SOL     OW23410   1.326   3.293   7.407 -0.3622  0.3976  0.1820
 3984SOL    HW123411   1.347   3.323   7.495  0.3136 -1.3900  0.6446
 3984SOL    HW223412   1.284   3.375   7.382  0.7722  0.1836 -2.4860
 3985SOL     OW23413   0.451   2.802   2.466  0.2591  0.3661 -0.1545
 3985SOL    HW123414   0.401   2.738   2.517  2.7446 -1.3698  0.0839
 3985SOL    HW223415   0.458   2.864   2.539  0.3454 -1.2458  1.2274
 3986SOL     OW23416   3.595   1.699  16.463 -0.5613  0.9005 -0.1180
 3986SOL    HW123417   3.581   1.611  16.429  0.3719  0.6637  0.1013
 3986SOL    HW223418   3.548   1.755  16.402 -2.2316  1.6091  1.8278
 3987SOL     OW23419   4.277   2.111   1.851  0.0733 -0.3025  0.0811
 3987SOL    HW123420   4.304   2.101   1.942  2.0415 -0.7914 -0.5555
 3987SOL    HW223421   4.353   2.164   1.827 -0.4843  0.3957 -0.1044
 3988SOL     OW23422   2.056   3.624  10.672 -0.5161 -0.8001 -0.0390
 3988SOL    HW123423   2.029   3.714  10.653  2.1155 -0.5573 -2.6628
 3988SOL    HW223424   2.119   3.628  10.745  0.0080 -2.5584 -0.4086
 3989SOL     OW23425   3.298   2.740   7.000 -0.1027  0.2150 -0.0097
 3989SOL    HW123426   3.250   2.821   7.017  2.1790  1.4638  0.4473
 3989SOL    HW223427   3.240   2.674   7.038  1.1186 -0.4092  0.7542
 3990SOL     OW23428   2.072   2.793  13.579  0.3335  0.4184 -0.1160
 3990SOL    HW123429   2.155   2.839  13.568  0.3740  0.5523  0.7354
 3990SOL    HW223430   2.015   2.863  13.610  0.7872  0.7644 -0.0710
 3991SOL     OW23431   3.507   1.332   1.903 -0.0247 -0.0470  0.1704
 3991SOL    HW123432   3.449   1.264   1.868  0.9098 -0.9829  0.4533
 3991SOL    HW223433   3.582   1.318   1.844 -0.2746  1.2952 -0.4770
 3992SOL     OW23434   1.935   1.018   5.706 -0.7223  0.3124 -0.3065
 3992SOL    HW123435   1.889   0.954   5.760  1.6795 -1.3562 -0.2039
 3992SOL    HW223436   2.022   1.015   5.747 -0.6897 -2.4792 -0.5316
 3993SOL     OW23437   0.811   4.001   1.049  0.4748 -0.4701 -0.1944
 3993SOL    HW123438   0.896   3.998   1.094  0.8558 -0.2138 -0.9082
 3993SOL    HW223439   0.823   4.034   0.960 -3.0401  0.5036 -0.3053
 3994SOL     OW23440   3.785   2.228  14.506 -0.4671 -0.4456 -0.3947
 3994SOL    HW123441   3.867   2.259  14.544 -1.3390  1.7242 -0.2890
 3994SOL    HW223442   3.808   2.136  14.492 -1.4257 -0.5863 -1.1583
 3995SOL     OW23443   1.457   2.461  15.537  0.2275  0.5536 -0.1349
 3995SOL    HW123444   1.382   2.417  15.498  2.1392 -0.6533 -2.4420
 3995SOL    HW223445   1.525   2.398  15.513  1.8625  2.3035 -0.1154
 3996SOL     OW23446   2.313   0.062   5.169  0.3656 -0.0669 -0.0392
 3996SOL    HW123447   2.336   0.001   5.099 -0.2407  1.4165 -1.5199
 3996SOL    HW223448   2.254   0.118   5.119 -1.1671 -1.0886  0.6287
 3997SOL     OW23449   1.785   2.229   8.953  0.3603  0.0559 -0.5836
 3997SOL    HW123450   1.856   2.168   8.970  1.3636  1.3259 -0.2438
 3997SOL    HW223451   1.739   2.171   8.892 -0.2594 -0.9615  0.8472
 3998SOL     OW23452   0.000   3.619   4.605  0.3879 -0.0023  0.3150
 3998SOL    HW123453   0.010   3.530   4.570 -0.8829 -1.4812  3.7477
 3998SOL    HW223454   4.644   3.610   4.657  1.5591  0.6473  2.2076
 3999SOL     OW23455   0.980   4.482   7.072  0.2631 -0.1120  0.1435
 3999SOL    HW123456   0.970   4.489   6.978  0.7069 -1.2235  0.0164
 3999SOL    HW223457   0.966   4.388   7.080  1.3625 -0.1663  1.4854
 4000SOL     OW23458   3.085   4.171   8.672 -0.1310 -0.3861  0.4695
 4000SOL    HW123459   3.002   4.131   8.646 -0.4329 -0.1762  1.1164
 4000SOL    HW223460   3.059   4.233   8.740 -1.8432  0.0689 -0.6107
 4001SOL     OW23461   0.205   1.330  13.964  0.0316 -0.0923  0.2982
 4001SOL    HW123462   0.153   1.408  13.942  0.3365  0.1186  0.3240
 4001SOL    HW223463   0.207   1.327  14.059 -0.4529 -2.9970  0.2119
 4002SOL     OW23464   1.823   2.000   6.833 -0.3657  0.1819 -0.1007
 4002SOL    HW123465   1.915   2.026   6.821 -0.5305  1.8937  2.4656
 4002SOL    HW223466   1.827   1.920   6.886 -0.2483  0.6632  0.6102
 4003SOL     OW23467   1.573   4.492  13.656  0.3754  0.0886  0.2957
 4003SOL    HW123468   1.516   4.446  13.594 -0.9545  0.9675  0.8432
 4003SOL    HW223469   1.640   4.429  13.683  0.5846  0.7141  1.2287
 4004SOL     OW23470   0.923   4.085   4.210 -0.5193  0.5115  0.1366
 4004SOL    HW123471   0.857   4.021   4.183 -1.5719  1.9101 -0.6177
 4004SOL    HW223472   0.961   4.053   4.292 -0.3069 -0.6554 -0.4077
 4005SOL     OW23473   0.900   4.075   6.864 -0.4286  0.3886  0.9128
 4005SOL    HW123474   0.991   4.072   6.895  0.2297 -0.4144 -1.0499
 4005SOL    HW223475   0.851   4.017   6.921  0.6250  0.0635  1.4877
 4006SOL     OW23476   2.509   1.841  11.394 -0.2291 -0.4187  0.1042
 4006SOL    HW123477   2.458   1.828  11.314  1.1939  2.9545 -1.3729
 4006SOL    HW223478   2.518   1.936  11.393 -0.6998 -0.3834 -0.5318
 4007SOL     OW23479   3.946   2.484   2.882  0.4343  0.0222 -0.4773
 4007SOL    HW123480   3.989   2.398   2.880 -2.4754 -1.4201 -1.0409
 4007SOL    HW223481   4.015   2.549   2.893  2.4363 -2.4131  1.4540
 4008SOL     OW23482   1.527   4.150   8.353 -0.3112  0.0577  0.1765
 4008SOL    HW123483   1.521   4.245   8.338  1.1395  0.3225  1.3378
 4008SOL    HW223484   1.508   4.152   8.446  0.2646 -2.6764  0.3457
 4009SOL     OW23485   3.992   2.073   5.942  0.1994 -0.1111  0.2985
 4009SOL    HW123486   4.024   2.015   6.011  1.0445  0.9446  0.8010
 4009SOL    HW223487   3.972   2.160   5.979 -0.8383 -0.6508  1.0069
 4010SOL     OW23488   3.759   1.174   9.884  0.3424 -0.2186  0.3606
 4010SOL    HW123489   3.818   1.242   9.916 -0.8806  0.2224  1.7041
 4010SOL    HW223490   3.758   1.119   9.963  1.7548 -0.3602  0.2763
 4011SOL     OW23491   2.756   0.902   6.481  0.2171 -0.6368 -0.6883
 4011SOL    HW123492   2.776   0.982   6.434 -1.4807 -0.1317 -0.5402
 4011SOL    HW223493   2.729   0.936   6.567  0.6725 -0.5066 -0.5985
 4012SOL     OW23494   2.903   3.297   7.533 -0.0235  0.0954 -0.2373
 4012SOL    HW123495   2.938   3.254   7.611  1.2323  0.8785 -0.3649
 4012SOL    HW223496   2.907   3.387   7.566 -0.3879  0.0700 -0.1284
 4013SOL     OW23497   0.189   2.893   7.003 -0.6513  0.7919  0.2858
 4013SOL    HW123498   0.206   2.843   6.924  0.5924 -0.8027  1.5445
 4013SOL    HW223499   0.257   2.863   7.064 -0.3152 -0.5054 -0.7405
 4014SOL     OW23500   1.645   2.234   9.784 -0.1607  0.3018 -0.1592
 4014SOL    HW123501   1.570   2.200   9.832  0.1038 -2.9003 -2.0591
 4014SOL    HW223502   1.630   2.321   9.822 -1.3558 -0.1739  0.4363
 4015SOL     OW23503   3.982   3.569   3.357  0.0945 -0.1241 -0.2126
 4015SOL    HW123504   4.035   3.572   3.277 -0.7818  3.1857 -0.7071
 4015SOL    HW223505   3.927   3.647   3.342  0.1395 -0.3706 -1.7069
 4016SOL     OW23506   1.810   0.623   7.913  0.5347  0.6988  0.1824
 4016SOL    HW123507   1.884   0.579   7.871 -0.9436  0.5690 -2.2618
 4016SOL    HW223508   1.841   0.712   7.898  0.2294  0.8776  0.6066
 4017SOL     OW23509   4.107   4.121   6.411  0.2711  0.0956  0.0360
 4017SOL    HW123510   4.183   4.068   6.389  1.2456  1.8969 -0.9221
 4017SOL    HW223511   4.096   4.093   6.501 -0.9313  0.5979  0.0561
 4018SOL     OW23512   4.545   1.716  11.277 -0.2002 -0.2917 -0.0361
 4018SOL    HW123513   4.631   1.673  11.278  0.3546  0.8344 -0.4980
 4018SOL    HW223514   4.576   1.789  11.331  2.3874  0.8170 -3.0592
 4019SOL     OW23515   3.270   3.838   6.319  0.7212 -0.3472  0.2042
 4019SOL    HW123516   3.307   3.774   6.259 -0.5985 -0.5037 -0.4494
 4019SOL    HW223517   3.229   3.787   6.389 -0.8550  2.1245  1.0900
 4020SOL     OW23518   2.608   2.726   8.873 -0.0011 -0.2757  0.2204
 4020SOL    HW123519   2.527   2.761   8.835 -0.0802 -0.3556  0.3173
 4020SOL    HW223520   2.597   2.747   8.966  0.9429  0.6450  0.1340
 4021SOL     OW23521   0.255   4.515   9.284 -0.0533 -0.1106  0.1620
 4021SOL    HW123522   0.174   4.465   9.295  0.8660 -1.2602  1.5853
 4021SOL    HW223523   0.312   4.444   9.255  0.0449  0.2740 -0.5884
 4022SOL     OW23524   3.878   4.708   3.601  0.4204 -0.2024  0.5736
 4022SOL    HW123525   3.891   0.074   3.568 -0.5079  0.2947  1.5621
 4022SOL    HW223526   3.963   4.670   3.578  0.3034  0.3732 -0.7918
 4023SOL     OW23527   4.137   4.318   8.875  0.1474  0.1622 -0.0775
 4023SOL    HW123528   4.100   4.239   8.915 -1.0809 -0.0880 -1.7266
 4023SOL    HW223529   4.220   4.312   8.923 -0.0351 -2.5683 -0.1268
 4024SOL     OW23530   0.577   0.778   4.837 -0.0475  0.2000  0.0167
 4024SOL    HW123531   0.527   0.744   4.912  0.6334 -0.0349  0.3664
 4024SOL    HW223532   0.621   0.856   4.871 -0.3095 -0.2741  1.4822
 4025SOL     OW23533   2.309   1.954   5.839 -0.3119 -0.0765 -0.3002
 4025SOL    HW123534   2.326   1.941   5.933 -0.5185  1.0125 -0.1200
 4025SOL    HW223535   2.397   1.942   5.804  0.5520  2.0861  1.1408
 4026SOL     OW23536   3.964   2.839   3.038 -0.1395  0.8119  0.8613
 4026SOL    HW123537   3.999   2.870   2.955  1.3095  1.6133  1.7815
 4026SOL    HW223538   3.871   2.860   3.027 -0.3818  0.0668  1.4381
 4027SOL     OW23539   4.236   1.710   6.816 -0.2948  0.0772 -0.5192
 4027SOL    HW123540   4.240   1.674   6.905  1.4139 -1.4206 -1.1941
 4027SOL    HW223541   4.324   1.744   6.800 -0.6879  1.2506 -0.1829
 4028SOL     OW23542   0.363   3.033   6.282 -0.1545 -0.2235 -0.6378
 4028SOL    HW123543   0.284   3.077   6.314 -0.2572 -0.1652 -0.9683
 4028SOL    HW223544   0.384   2.979   6.358  0.7085 -0.9116 -1.3553
 4029SOL     OW23545   2.107   0.039  17.187 -0.2668 -0.2160 -0.0565
 4029SOL    HW123546   2.120   0.001  17.101 -0.2000 -0.2641 -0.0248
 4029SOL    HW223547   2.025   0.086  17.172 -0.7455 -1.3901 -1.0772
 4030SOL     OW23548   2.629   0.811   9.386 -0.1950 -0.3190  0.0106
 4030SOL    HW123549   2.580   0.760   9.321 -1.8701  0.2583  0.7947
 4030SOL    HW223550   2.709   0.759   9.390 -1.5482 -2.4737 -1.3145
 4031SOL     OW23551   1.611   3.301   0.471 -0.2113  0.0305 -0.6650
 4031SOL    HW123552   1.651   3.216   0.489  1.0821  0.2308 -2.7218
 4031SOL    HW223553   1.541   3.291   0.536  0.6485  1.0199  0.4201
 4032SOL     OW23554   2.506   2.940   8.422  0.3148 -0.1283  0.1204
 4032SOL    HW123555   2.577   2.938   8.486  0.7082  2.9333 -0.2182
 4032SOL    HW223556   2.435   2.971   8.477 -1.8681 -2.2298 -1.5154
 4033SOL     OW23557   1.463   3.358   5.694  0.3628 -0.8263  0.4665
 4033SOL    HW123558   1.481   3.291   5.760 -0.3191 -0.5246  0.9657
 4033SOL    HW223559   1.552   3.379   5.668 -0.2891  0.9167 -0.3477
 4034SOL     OW23560   2.739   4.521   8.146 -0.2242  0.0545  0.0793
 4034SOL    HW123561   2.724   4.577   8.070  1.3655 -0.7890 -0.8508
 4034SOL    HW223562   2.767   4.586   8.212 -2.2718  0.1990  0.8088
 4035SOL     OW23563   1.689   4.542   6.256 -0.4490 -0.3179  0.5690
 4035SOL    HW123564   1.699   4.636   6.244 -0.7882 -0.1210  1.7988
 4035SOL    HW223565   1.601   4.535   6.293 -0.8846  3.0814  0.1372
 4036SOL     OW23566   2.851   3.390   6.826  0.2565 -0.7167 -0.3030
 4036SOL    HW123567   2.788   3.355   6.889 -1.4691 -1.9550 -2.7013
 4036SOL    HW223568   2.881   3.475   6.858  0.2551 -0.4131 -1.1119
 4037SOL     OW23569   1.835   2.000  11.187  0.5530 -0.3223 -0.3493
 4037SOL    HW123570   1.898   2.054  11.234  0.4773  0.1614 -0.7954
 4037SOL    HW223571   1.897   1.944  11.140  0.6023 -1.4094  1.0250
 4038SOL     OW23572   0.207   4.263  16.977  0.5227 -0.8774  0.5598
 4038SOL    HW123573   0.115   4.236  16.972 -0.1363  1.2944  0.7351
 4038SOL    HW223574   0.216   4.293  17.068  0.1292  0.5941  0.1092
 4039SOL     OW23575   4.085   2.830   1.836 -0.2112  0.5606  0.5526
 4039SOL    HW123576   4.147   2.861   1.769  0.0466 -0.4470  0.3296
 4039SOL    HW223577   4.064   2.914   1.876  0.1016  0.1453  1.5778
 4040SOL     OW23578   2.678   2.869  16.290 -0.1312  0.3565  0.3947
 4040SOL    HW123579   2.655   2.953  16.330  1.0846  0.2408  1.3243
 4040SOL    HW223580   2.635   2.884  16.205  0.1957  1.1772  0.3642
 4041SOL     OW23581   2.046   3.937  12.960  0.1109 -0.5209 -0.0229
 4041SOL    HW123582   2.097   3.867  12.918  0.8681 -0.5671  0.9848
 4041SOL    HW223583   2.108   4.010  12.971  2.2744 -1.9242 -2.8830
 4042SOL     OW23584   3.951   4.690   9.265  0.3035  0.6735 -0.5422
 4042SOL    HW123585   3.921   0.054   9.238 -0.9183  0.8468  1.3563
 4042SOL    HW223586   4.005   4.656   9.193 -1.5820  1.2164 -2.2157
 4043SOL     OW23587   0.176   3.666   9.419  0.2299 -0.3111 -0.3912
 4043SOL    HW123588   0.207   3.746   9.376  0.3395 -0.0503  0.1803
 4043SOL    HW223589   0.258   3.618   9.428 -1.3413 -2.6290  1.5356
 4044SOL     OW23590   2.462   3.144  13.518  0.2472  0.3086  0.1497
 4044SOL    HW123591   2.423   3.056  13.521  0.4293  0.2547  0.8764
 4044SOL    HW223592   2.411   3.187  13.450  1.0299 -0.0074 -0.6366
 4045SOL     OW23593   4.016   0.265   5.846  0.4280  0.7337 -0.6375
 4045SOL    HW123594   4.072   0.268   5.924 -0.3373  0.4182 -0.0849
 4045SOL    HW223595   3.927   0.277   5.877 -0.2619 -0.1824 -2.2985
 4046SOL     OW23596   4.220   2.064   7.964  0.0400 -0.1667  0.6945
 4046SOL    HW123597   4.212   2.034   8.054  0.4788  1.9468  1.4382
 4046SOL    HW223598   4.224   2.159   7.977  0.3606 -0.1415  0.4154
 4047SOL     OW23599   0.521   2.004   9.457 -0.0573 -0.0590 -0.3966
 4047SOL    HW123600   0.543   1.991   9.365 -0.0115 -0.1043 -0.3793
 4047SOL    HW223601   0.495   2.096   9.466 -0.3383 -0.1743  0.0064
 4048SOL     OW23602   2.966   0.679   3.750  0.4520  0.0324 -0.1458
 4048SOL    HW123603   3.046   0.695   3.799  0.5728  0.4689 -0.4910
 4048SOL    HW223604   3.000   0.694   3.662 -0.6789  0.2074 -0.5473
 4049SOL     OW23605   3.106   3.265   2.042  0.8614 -0.1626  0.2166
 4049SOL    HW123606   3.041   3.206   2.081  0.5048 -1.3306 -2.1031
 4049SOL    HW223607   3.062   3.349   2.051  2.3394  0.6864 -0.6072
 4050SOL     OW23608   2.650   1.221   7.752  0.4864 -0.4380  0.1388
 4050SOL    HW123609   2.630   1.314   7.763 -1.0379 -0.7584  0.1048
 4050SOL    HW223610   2.691   1.225   7.666  2.7934 -3.1886  1.0952
 4051SOL     OW23611   3.624   2.994   8.949  0.7882 -0.4786 -0.0671
 4051SOL    HW123612   3.535   2.964   8.968  0.8499 -0.6463 -0.0393
 4051SOL    HW223613   3.611   3.056   8.878  0.2940 -0.7444 -0.2051
 4052SOL     OW23614   0.522   3.639   0.548  0.0833 -0.0363 -0.6689
 4052SOL    HW123615   0.479   3.723   0.563 -0.2516  0.1477 -2.6959
 4052SOL    HW223616   0.455   3.590   0.499 -1.3291  0.2472  0.9868
 4053SOL     OW23617   0.775   3.360   3.343  0.6183 -0.2409  0.4246
 4053SOL    HW123618   0.764   3.397   3.256  2.3324  0.1992  0.4043
 4053SOL    HW223619   0.773   3.436   3.401  1.6871  0.8677 -1.0169
 4054SOL     OW23620   2.215   2.789  12.048 -0.2750 -0.2357  0.1662
 4054SOL    HW123621   2.253   2.871  12.079 -2.3510  0.5414  0.6889
 4054SOL    HW223622   2.188   2.753  12.133  0.5790 -1.9205 -0.2714
 4055SOL     OW23623   0.675   1.361   3.005 -0.5293  0.0997  0.3493
 4055SOL    HW123624   0.632   1.276   2.995 -1.8939  0.7366  0.7232
 4055SOL    HW223625   0.626   1.414   2.942 -1.3790  1.8097  2.4148
 4056SOL     OW23626   0.829   4.656   8.124 -0.7996 -0.0989  0.0335
 4056SOL    HW123627   0.846   4.640   8.217  2.7573 -0.8526 -0.7544
 4056SOL    HW223628   0.843   4.573   8.080  0.2283  0.1158 -0.0494
 4057SOL     OW23629   1.498   0.195   1.317  0.4175  0.0036  0.2838
 4057SOL    HW123630   1.490   0.191   1.221  0.0106 -0.2790  0.3290
 4057SOL    HW223631   1.450   0.277   1.324  1.1185  0.6723 -2.7588
 4058SOL     OW23632   2.306   1.284   7.750 -0.1678  0.2730 -0.2331
 4058SOL    HW123633   2.308   1.353   7.816  3.5636 -0.5457  0.5140
 4058SOL    HW223634   2.310   1.333   7.668  0.1886  1.4824  0.5123
 4059SOL     OW23635   1.492   2.533   8.089 -0.1585 -0.0787  0.9456
 4059SOL    HW123636   1.547   2.459   8.112 -0.1104 -0.1543  0.5857
 4059SOL    HW223637   1.492   2.582   8.171  4.0689  0.1102  0.8211
 4060SOL     OW23638   2.406   0.581   2.553  0.0531  0.2056  0.0340
 4060SOL    HW123639   2.420   0.654   2.492 -0.7647 -0.1221 -0.5438
 4060SOL    HW223640   2.414   0.504   2.497 -0.4882 -0.6709  1.1605
 4061SOL     OW23641   3.621   3.414   3.764 -0.7836 -0.6711 -0.8162
 4061SOL    HW123642   3.571   3.334   3.748 -0.6529 -1.1587  1.2085
 4061SOL    HW223643   3.632   3.447   3.675 -0.1993 -2.1154 -1.2840
 4062SOL     OW23644   2.376   0.635   8.990 -0.4824 -0.4475  0.2660
 4062SOL    HW123645   2.459   0.634   8.942 -0.0050  0.7463  1.0528
 4062SOL    HW223646   2.318   0.630   8.914 -0.7738  0.5328  0.4285
 4063SOL     OW23647   0.588   1.839   5.556 -0.0533 -0.0170 -0.3182
 4063SOL    HW123648   0.674   1.829   5.516  0.5812  0.8036  0.8244
 4063SOL    HW223649   0.594   1.761   5.611  1.1672  0.6993  0.5785
 4064SOL     OW23650   0.457   4.456  11.473 -0.2190  0.0623 -0.1772
 4064SOL    HW123651   0.430   4.540  11.509 -2.1188  0.1605 -1.8253
 4064SOL    HW223652   0.547   4.445  11.506  0.4035  0.2852 -1.7903
 4065SOL     OW23653   3.576   1.296   7.238 -0.0598  0.5275 -0.0503
 4065SOL    HW123654   3.583   1.209   7.198  0.3040  0.8399 -0.6772
 4065SOL    HW223655   3.503   1.341   7.195  0.4359 -0.8962 -2.3831
 4066SOL     OW23656   4.124   3.859   3.459  0.2499  0.2070  0.3659
 4066SOL    HW123657   4.113   3.946   3.422  0.4724 -0.7556 -1.9816
 4066SOL    HW223658   4.053   3.820   3.407  2.3225 -0.7941 -1.6979
 4067SOL     OW23659   3.839   1.371   5.992  0.7887  0.8223 -0.2738
 4067SOL    HW123660   3.820   1.293   6.046 -2.0590  1.1208 -0.8988
 4067SOL    HW223661   3.876   1.433   6.055  0.4366 -0.0665  0.8316
 4068SOL     OW23662   2.147   3.975  16.383  0.0103  0.0046 -0.0769
 4068SOL    HW123663   2.232   3.967  16.427 -0.4726 -1.2078  0.6346
 4068SOL    HW223664   2.119   3.883  16.388 -0.2439  0.2141  2.1711
 4069SOL     OW23665   1.164   1.341  10.287 -0.5990  0.0690  0.4114
 4069SOL    HW123666   1.190   1.392  10.210 -2.1746  0.2491  0.0016
 4069SOL    HW223667   1.176   1.254  10.249 -1.8275  0.3304 -0.5613
 4070SOL     OW23668   4.632   4.369   6.437 -0.7645  0.2783  0.2117
 4070SOL    HW123669   4.607   4.437   6.374 -0.0847 -0.2834 -0.6573
 4070SOL    HW223670   4.545   4.333   6.454 -0.0256 -0.9483  1.3689
 4071SOL     OW23671   1.492   3.048   8.881  0.3228  0.3329  0.1454
 4071SOL    HW123672   1.545   3.074   8.806  0.9128  0.8393  0.7410
 4071SOL    HW223673   1.560   3.025   8.944  1.2688  0.2550 -0.8889
 4072SOL     OW23674   1.718   4.389   4.075  0.0775  0.1487  0.4712
 4072SOL    HW123675   1.800   4.371   4.122  0.0725 -0.6015  0.1898
 4072SOL    HW223676   1.663   4.365   4.150  1.6682 -1.1538  1.2313
 4073SOL     OW23677   2.364   1.653   2.723 -0.4028 -0.2171  0.6146
 4073SOL    HW123678   2.320   1.735   2.700  1.4607  0.7165  0.3925
 4073SOL    HW223679   2.346   1.599   2.646  0.9234  0.7898 -0.4006
 4074SOL     OW23680   3.740   1.780  15.136 -0.1572 -0.2869  0.1307
 4074SOL    HW123681   3.709   1.720  15.069 -0.5098  1.0862 -0.9327
 4074SOL    HW223682   3.732   1.867  15.098  1.0963 -0.4333 -0.4531
 4075SOL     OW23683   2.408   4.481   6.445 -0.1867  0.2336 -0.4198
 4075SOL    HW123684   2.484   4.536   6.463 -0.0791  1.1606 -3.7059
 4075SOL    HW223685   2.374   4.538   6.376  1.3189  1.0331 -0.5124
 4076SOL     OW23686   2.056   0.563  13.764  0.1005 -0.0488  0.3478
 4076SOL    HW123687   1.965   0.533  13.772  0.2443 -0.2299  1.2093
 4076SOL    HW223688   2.052   0.621  13.688 -0.6343 -0.3116  0.1828
 4077SOL     OW23689   3.892   3.770   8.719  0.0480  0.5447 -0.3157
 4077SOL    HW123690   3.884   3.781   8.625  0.9984  0.8462 -0.3636
 4077SOL    HW223691   3.986   3.773   8.737 -0.0643 -1.4875  0.6348
 4078SOL     OW23692   0.259   0.018   9.127 -0.2184 -0.1743 -0.8476
 4078SOL    HW123693   0.295   0.099   9.164  0.0588 -0.4557 -0.5017
 4078SOL    HW223694   0.265   4.687   9.205  1.8661  0.0391 -0.8586
 4079SOL     OW23695   0.575   1.881   8.326 -0.3419 -0.0322  0.7400
 4079SOL    HW123696   0.588   1.840   8.411 -1.2491 -0.6170  0.5925
 4079SOL    HW223697   0.583   1.976   8.333 -1.1335  0.0533  0.5441
 4080SOL     OW23698   0.276   3.146   0.696  0.5893 -0.0430  0.1137
 4080SOL    HW123699   0.183   3.140   0.675  0.3644  3.9282 -0.1335
 4080SOL    HW223700   0.295   3.195   0.616 -0.5735  0.5532  0.2037
 4081SOL     OW23701   0.251   0.251  14.867  0.3956  0.3307 -0.1455
 4081SOL    HW123702   0.345   0.259  14.880 -0.0309  1.3494  2.2720
 4081SOL    HW223703   0.255   0.206  14.783 -3.2141 -2.3656  1.1472
 4082SOL     OW23704   1.176   3.050   2.810 -0.0164  0.8700  0.0556
 4082SOL    HW123705   1.146   3.042   2.720  0.6708 -1.2475  0.0104
 4082SOL    HW223706   1.112   2.990   2.848  0.1836 -0.3408 -1.5469
 4083SOL     OW23707   2.106   3.825  15.671 -0.6316  0.1253  0.6472
 4083SOL    HW123708   2.132   3.803  15.582  3.2581 -0.2660  1.8936
 4083SOL    HW223709   2.146   3.755  15.722 -2.7287 -1.8062 -0.3626
 4084SOL     OW23710   1.661   3.416   1.791  0.4546 -0.3465 -0.0910
 4084SOL    HW123711   1.646   3.468   1.712 -1.2007  0.9284  1.0466
 4084SOL    HW223712   1.577   3.426   1.836  0.9534  1.2578  0.4874
 4085SOL     OW23713   3.210   3.489   0.998  0.0841 -0.0649 -0.6880
 4085SOL    HW123714   3.219   3.496   1.093  0.8985  1.8170 -0.9029
 4085SOL    HW223715   3.143   3.555   0.981  1.2781  1.5013  0.6186
 4086SOL     OW23716   3.214   2.976   3.664  0.5430 -0.6569  0.3199
 4086SOL    HW123717   3.204   3.066   3.695 -0.5356 -0.3236 -0.9870
 4086SOL    HW223718   3.139   2.969   3.604 -0.1581  0.6775  1.0451
 4087SOL     OW23719   2.948   1.282  12.744 -0.0889 -0.2201 -0.6992
 4087SOL    HW123720   2.892   1.209  12.771 -0.9142  1.2963  1.6630
 4087SOL    HW223721   2.982   1.267  12.656 -0.1678  0.2281 -0.8068
 4088SOL     OW23722   4.711   2.973   5.526 -0.6609 -0.1409 -0.1437
 4088SOL    HW123723   4.702   3.068   5.520 -0.0206 -0.0679 -0.0200
 4088SOL    HW223724   0.080   2.957   5.504 -0.0856  1.5219  1.0252
 4089SOL     OW23725   0.587   4.240   8.496  0.4311 -0.0310 -0.1868
 4089SOL    HW123726   0.551   4.315   8.449  1.1865 -0.3071 -1.2118
 4089SOL    HW223727   0.652   4.285   8.551 -0.6510  1.3143 -0.0032
 4090SOL     OW23728   0.967   1.738  12.826 -0.1999  0.0986  0.3015
 4090SOL    HW123729   0.982   1.829  12.800 -3.0968 -0.4379 -3.1034
 4090SOL    HW223730   0.887   1.707  12.785  1.6547 -1.3905 -2.1716
 4091SOL     OW23731   0.877   3.888   6.441 -0.5940 -0.6076  0.0970
 4091SOL    HW123732   0.858   3.796   6.423  1.0066 -0.3855 -2.8789
 4091SOL    HW223733   0.932   3.918   6.368 -3.0278  2.3827 -0.5151
 4092SOL     OW23734   0.625   1.506   7.252 -0.1448 -0.1328 -0.6017
 4092SOL    HW123735   0.671   1.488   7.170  1.0990 -2.1624  0.5274
 4092SOL    HW223736   0.692   1.554   7.300 -1.8679  0.1216  1.5417
 4093SOL     OW23737   0.571   4.353   0.927 -0.2430 -0.3844 -0.8504
 4093SOL    HW123738   0.572   4.339   1.021 -1.9928  1.8760 -0.4835
 4093SOL    HW223739   0.626   4.431   0.913 -1.2257  0.0938 -2.1039
 4094SOL     OW23740   4.477   4.119  12.872  0.0179  0.5162 -0.4086
 4094SOL    HW123741   4.522   4.035  12.873 -0.4006  0.2718 -1.6552
 4094SOL    HW223742   4.448   4.126  12.962 -2.3055  0.4652 -1.1556
 4095SOL     OW23743   4.629   3.616   6.764  0.2566 -0.6229 -0.8461
 4095SOL    HW123744   4.571   3.555   6.810  1.5156 -1.6488 -0.6115
 4095SOL    HW223745   4.697   3.557   6.732  0.8618 -0.2631 -0.2167
 4096SOL     OW23746   1.164   4.471  15.210 -0.1234  0.4294  0.5424
 4096SOL    HW123747   1.245   4.431  15.180 -0.9808 -1.6676  1.0302
 4096SOL    HW223748   1.108   4.397  15.230  1.0413 -1.0850 -1.8108
 4097SOL     OW23749   2.519   4.566   0.520 -0.2998 -0.3157 -0.6098
 4097SOL    HW123750   2.436   4.521   0.535 -0.2623 -0.1303  0.1603
 4097SOL    HW223751   2.580   4.493   0.523  0.4655  0.2562 -2.4696
 4098SOL     OW23752   4.071   4.719   5.608 -0.2889  0.3408 -0.3386
 4098SOL    HW123753   4.160   0.031   5.614 -0.6161  1.1893 -0.4875
 4098SOL    HW223754   4.035   0.027   5.691 -1.1924  1.5131 -1.1790
 4099SOL     OW23755   2.069   0.166  16.858  0.1434 -0.0955 -0.3185
 4099SOL    HW123756   2.121   0.232  16.812  2.6862 -2.6185 -1.0798
 4099SOL    HW223757   2.062   0.101  16.787  0.5031  1.4402 -1.7586
 4100SOL     OW23758   2.136   1.017   5.399  0.1827  0.3909  0.2645
 4100SOL    HW123759   2.112   1.091   5.454 -2.2438 -1.1377  1.2822
 4100SOL    HW223760   2.219   1.043   5.359 -0.9125  0.9478 -1.6734
 4101SOL     OW23761   3.234   4.102   8.904 -0.1371  0.1966 -0.1289
 4101SOL    HW123762   3.323   4.127   8.876  0.5070  0.4235  2.1503
 4101SOL    HW223763   3.181   4.094   8.824 -0.1062  0.8326 -0.2181
 4102SOL     OW23764   0.169   4.173   0.445 -0.1752  0.1242 -0.1268
 4102SOL    HW123765   0.164   4.266   0.423  3.2153  0.2628 -0.3937
 4102SOL    HW223766   0.144   4.178   0.537 -0.8848 -0.1586 -0.3079
 4103SOL     OW23767   0.958   3.036   4.373 -0.2504  0.2177  0.1528
 4103SOL    HW123768   1.031   3.074   4.324 -0.9027  1.1960 -0.0517
 4103SOL    HW223769   0.987   3.048   4.464 -0.5644 -1.4269  0.4674
 4104SOL     OW23770   3.243   0.366   0.364 -0.3701  0.4477  0.0148
 4104SOL    HW123771   3.263   0.367   0.271  1.5455  1.7977  0.4510
 4104SOL    HW223772   3.258   0.274   0.385 -0.8537  0.6941  1.4527
 4105SOL     OW23773   4.457   3.009   8.773  0.0016  0.3883 -0.2197
 4105SOL    HW123774   4.551   3.019   8.759  0.2967  0.2721  1.7547
 4105SOL    HW223775   4.450   2.914   8.763 -2.4431  0.3416  1.8811
 4106SOL     OW23776   2.641   2.846   5.172  0.0078  0.1331 -0.1479
 4106SOL    HW123777   2.736   2.839   5.182 -0.1151 -1.6497 -0.1297
 4106SOL    HW223778   2.636   2.840   5.077 -2.7130 -1.3871  0.0557
 4107SOL     OW23779   2.300   4.496   7.744  0.1953  0.6822  0.3637
 4107SOL    HW123780   2.308   4.427   7.678  0.3018 -0.3199  1.4348
 4107SOL    HW223781   2.245   4.561   7.699  0.8024  2.4703  2.2117
 4108SOL     OW23782   4.058   4.662  13.374 -0.1963 -0.1188 -0.1407
 4108SOL    HW123783   4.080   0.024  13.337 -0.6252 -0.8532 -2.1168
 4108SOL    HW223784   4.147   4.626  13.380  1.4108  3.6137 -1.6189
 4109SOL     OW23785   4.150   2.049   9.350  0.0077  0.7333  0.4559
 4109SOL    HW123786   4.067   2.005   9.331  0.1850  0.2732  0.7721
 4109SOL    HW223787   4.110   2.130   9.383  0.1738  0.8760  0.3045
 4110SOL     OW23788   3.527   1.290   5.635 -0.0382 -0.2245 -0.0899
 4110SOL    HW123789   3.565   1.271   5.550  0.6423  0.2280  0.1159
 4110SOL    HW223790   3.437   1.315   5.613 -0.2044 -0.6201  0.1249
 4111SOL     OW23791   3.720   2.388  15.346  0.0432  0.3694  0.0984
 4111SOL    HW123792   3.740   2.448  15.274  0.5616  1.5254  1.2017
 4111SOL    HW223793   3.635   2.422  15.372  0.2489  0.9505  0.0133
 4112SOL     OW23794   3.771   4.041   3.384  0.7582 -0.0015  0.0106
 4112SOL    HW123795   3.723   4.072   3.307  0.5855  2.0947  0.9558
 4112SOL    HW223796   3.816   4.124   3.401  0.8447  0.6297 -3.2850
 4113SOL     OW23797   0.079   4.714   8.066  0.4929 -0.1896  0.5126
 4113SOL    HW123798   0.040   0.062   8.015  1.2209  0.6328  1.1129
 4113SOL    HW223799   0.098   0.034   8.149  2.1099  1.5522 -0.7478
 4114SOL     OW23800   0.886   4.051  11.265 -0.1226  0.3476  0.9856
 4114SOL    HW123801   0.818   4.105  11.225  0.2767 -1.4941 -2.2002
 4114SOL    HW223802   0.871   3.975  11.208 -0.5356 -0.1921  1.8029
 4115SOL     OW23803   2.437   1.684   7.622 -0.0320 -0.2062 -0.4141
 4115SOL    HW123804   2.501   1.622   7.586  0.4983 -0.5061  1.0521
 4115SOL    HW223805   2.478   1.729   7.696 -0.0376  0.4363 -0.7964
 4116SOL     OW23806   4.189   1.691  12.683  0.1915 -0.1312 -0.0737
 4116SOL    HW123807   4.203   1.751  12.757 -0.4679  2.0800 -1.7332
 4116SOL    HW223808   4.265   1.693  12.625 -0.2384  2.6451 -0.5571
 4117SOL     OW23809   2.736   1.451   6.247 -0.0501  0.2992  0.1450
 4117SOL    HW123810   2.719   1.488   6.334  1.2575  1.0765  0.0591
 4117SOL    HW223811   2.831   1.445   6.249 -0.0686 -0.1424 -0.1782
 4118SOL     OW23812   4.692   1.686   2.391  0.3379 -0.2955 -0.3639
 4118SOL    HW123813   4.613   1.718   2.346  0.9403  0.8948 -0.5814
 4118SOL    HW223814   0.035   1.750   2.364 -0.7392  0.1808 -1.9036
 4119SOL     OW23815   1.716   4.382   2.668  0.3079 -0.0070  0.5244
 4119SOL    HW123816   1.730   4.321   2.596  0.5019  0.8541 -0.1589
 4119SOL    HW223817   1.621   4.372   2.680  0.0089  0.9274 -1.1161
 4120SOL     OW23818   1.788   4.342  10.719 -0.2658 -0.2811  0.0411
 4120SOL    HW123819   1.857   4.344  10.654  0.0773  0.1211  0.4193
 4120SOL    HW223820   1.815   4.404  10.787 -1.7202  2.6803 -2.1272
 4121SOL     OW23821   0.464   2.843  12.179 -0.0675  0.6177 -0.6022
 4121SOL    HW123822   0.506   2.766  12.218 -1.9798  0.2295  0.7001
 4121SOL    HW223823   0.408   2.865  12.254  0.0655 -1.4165  0.0873
 4122SOL     OW23824   0.876   2.659  13.181  0.1096  0.3814  0.2388
 4122SOL    HW123825   0.958   2.658  13.231 -0.3993 -0.7178  1.0621
 4122SOL    HW223826   0.914   2.679  13.096 -0.5096 -0.1127 -0.1518
 4123SOL     OW23827   2.659   3.873   9.764  0.0079 -0.1483  0.3792
 4123SOL    HW123828   2.614   3.820   9.698 -0.3771 -1.1930  1.4911
 4123SOL    HW223829   2.732   3.815   9.784  1.4166  1.2478 -0.7601
 4124SOL     OW23830   0.164   3.870   8.992 -0.3638  0.0734 -0.1722
 4124SOL    HW123831   0.187   3.962   8.978 -5.0168  1.6002  2.3935
 4124SOL    HW223832   0.183   3.862   9.085  1.6690 -2.5019 -0.7839
 4125SOL     OW23833   0.096   4.704  14.967 -0.5787  0.5389  0.1186
 4125SOL    HW123834   0.137   0.052  14.917  1.7948 -2.8896 -2.8372
 4125SOL    HW223835   0.173   4.656  14.999 -0.3443 -0.0764 -1.3309
 4126SOL     OW23836   4.327   3.755   8.480  0.3309 -0.0124  0.6024
 4126SOL    HW123837   4.260   3.800   8.428 -0.9401 -0.6642  1.6787
 4126SOL    HW223838   4.349   3.824   8.542 -2.3638  0.4128  1.1046
 4127SOL     OW23839   2.046   2.932  10.988 -0.2311  0.5492 -0.3024
 4127SOL    HW123840   2.044   3.014  11.039 -0.1297 -0.3579  1.1507
 4127SOL    HW223841   2.039   2.950  10.894  1.7926  0.7507 -0.4039
 4128SOL     OW23842   0.139   0.009   4.451  0.0578  0.1281 -0.2081
 4128SOL    HW123843   0.206   0.029   4.517 -0.3651  0.1828  0.1988
 4128SOL    HW223844   0.058   0.026   4.498  0.6454  3.2717 -0.2739
 4129SOL     OW23845   1.516   2.599   0.909 -0.1783 -0.7131 -0.0434
 4129SOL    HW123846   1.484   2.638   0.990 -3.4187 -2.3473 -0.5171
 4129SOL    HW223847   1.507   2.671   0.847  2.0334 -0.3078  0.1214
 4130SOL     OW23848   0.644   2.199   7.778  0.5109  0.2911  0.0321
 4130SOL    HW123849   0.604   2.112   7.773  2.3592 -0.4973 -0.9374
 4130SOL    HW223850   0.735   2.178   7.800 -0.1460 -0.9265  1.6305
 4131SOL     OW23851   2.106   2.443   6.874  0.0894 -0.0315  0.1387
 4131SOL    HW123852   2.172   2.451   6.942 -0.0891 -1.1547  0.4460
 4131SOL    HW223853   2.091   2.537   6.864 -0.2919 -0.1925 -0.8500
 4132SOL     OW23854   2.576   1.388  16.369 -0.1889  0.2982  0.4534
 4132SOL    HW123855   2.493   1.350  16.397 -0.7174  1.3462  0.3217
 4132SOL    HW223856   2.641   1.333  16.412 -1.1594 -1.5243 -0.3954
 4133SOL     OW23857   0.361   2.706   8.328  0.1001  0.0555 -0.0532
 4133SOL    HW123858   0.368   2.740   8.238 -0.7657  0.8069  0.1530
 4133SOL    HW223859   0.396   2.788   8.363 -0.3344  0.0889  0.3085
 4134SOL     OW23860   0.280   2.012   5.250 -0.2088  0.1565 -0.2236
 4134SOL    HW123861   0.318   2.005   5.162 -0.8239 -2.3615 -0.2827
 4134SOL    HW223862   0.322   1.938   5.293 -0.9432 -1.2985 -2.0011
 4135SOL     OW23863   2.810   2.803   2.380  0.8179  0.2254 -0.1995
 4135SOL    HW123864   2.759   2.883   2.390  0.3837  0.0679 -1.2071
 4135SOL    HW223865   2.873   2.814   2.451  2.7231 -1.5254 -1.6057
 4136SOL     OW23866   3.931   0.578   8.992  0.1141  0.1280 -0.1669
 4136SOL    HW123867   3.904   0.654   9.044  0.2686  0.8402 -1.1424
 4136SOL    HW223868   3.995   0.543   9.055  0.9716  0.1127 -1.0491
 4137SOL     OW23869   0.659   1.032   3.157  0.1406  0.1438 -0.0942
 4137SOL    HW123870   0.706   1.005   3.078  0.5684  1.4088 -0.2739
 4137SOL    HW223871   0.714   1.096   3.203 -1.1518 -0.5101  2.3418
 4138SOL     OW23872   0.753   1.662   5.372 -0.0298  0.0791 -0.0609
 4138SOL    HW123873   0.671   1.628   5.334 -0.1383 -0.5428  0.7136
 4138SOL    HW223874   0.817   1.668   5.301 -1.0969  1.0756 -0.9403
 4139SOL     OW23875   4.345   0.828   2.294 -0.2758  0.2874  0.4278
 4139SOL    HW123876   4.332   0.758   2.231  3.5070  0.9848 -1.1787
 4139SOL    HW223877   4.260   0.870   2.282 -0.3706  0.3248  1.2679
 4140SOL     OW23878   0.509   2.520   1.138 -0.0813 -0.6224  0.0503
 4140SOL    HW123879   0.562   2.458   1.189  0.0411 -1.3099 -0.9127
 4140SOL    HW223880   0.521   2.488   1.049 -0.0063  3.6927 -1.4562
 4141SOL     OW23881   0.018   0.149  13.445 -0.0591  0.1611  0.3577
 4141SOL    HW123882   0.106   0.173  13.475 -0.1057  1.0495 -0.2136
 4141SOL    HW223883   4.698   0.234  13.446 -2.9097 -1.3086  3.0805
 4142SOL     OW23884   0.102   1.031   7.019  0.2755 -0.0675 -0.0610
 4142SOL    HW123885   0.138   0.945   6.998  1.1480 -0.0183  1.2302
 4142SOL    HW223886   0.115   1.086   6.942 -0.4694 -0.9382 -0.8105
 4143SOL     OW23887   0.616   1.122  13.633  0.2777 -0.0663 -0.5262
 4143SOL    HW123888   0.665   1.041  13.650 -0.9024 -0.7378 -0.3195
 4143SOL    HW223889   0.646   1.172  13.709 -0.9451 -1.9891  1.2566
 4144SOL     OW23890   3.300   0.222   6.588 -0.1018 -0.1023 -0.3466
 4144SOL    HW123891   3.360   0.294   6.606  1.2582 -2.1248  3.2564
 4144SOL    HW223892   3.361   0.148   6.592  1.9388  1.6315  0.2889
 4145SOL     OW23893   3.253   3.211   3.319 -0.0919 -0.3442  0.2001
 4145SOL    HW123894   3.164   3.180   3.337  0.2078 -0.8837  0.7768
 4145SOL    HW223895   3.252   3.278   3.387  1.1310  0.3929 -0.5178
 4146SOL     OW23896   1.321   1.606   7.524  0.1293  0.4103  0.4121
 4146SOL    HW123897   1.250   1.594   7.460 -0.1649 -0.6180  0.9399
 4146SOL    HW223898   1.264   1.623   7.599 -0.6238  1.0936 -0.3121
 4147SOL     OW23899   0.516   3.668   6.474  0.3954 -0.1683 -0.1299
 4147SOL    HW123900   0.532   3.671   6.380 -0.3457  1.6888 -0.2011
 4147SOL    HW223901   0.603   3.645   6.506  0.1620  3.6118  3.2163
 4148SOL     OW23902   0.537   1.117   4.290  0.0748  0.1925  0.8067
 4148SOL    HW123903   0.533   1.194   4.346  3.0314 -0.0302  1.3205
 4148SOL    HW223904   0.446   1.087   4.293  0.6267 -1.4976  0.3706
 4149SOL     OW23905   2.595   4.657   6.550 -0.7238 -0.3881 -0.2645
 4149SOL    HW123906   2.633   0.017   6.522 -2.9431  1.1311  1.1541
 4149SOL    HW223907   2.600   4.658   6.645 -0.4712 -0.9339 -0.2774
 4150SOL     OW23908   2.067   3.173   7.586  0.1180 -0.2220 -0.3969
 4150SOL    HW123909   2.030   3.243   7.640 -1.4010 -1.4785  0.2016
 4150SOL    HW223910   2.122   3.137   7.656 -1.1933  0.3485  0.9175
 4151SOL     OW23911   2.995   1.519   3.119 -0.4264  0.4736  0.1227
 4151SOL    HW123912   2.942   1.445   3.090 -1.3526  1.2092 -0.0509
 4151SOL    HW223913   3.085   1.485   3.116 -0.5766  0.0488  0.5356
 4152SOL     OW23914   0.166   0.316   2.760  0.0531 -0.1372 -0.4478
 4152SOL    HW123915   0.179   0.356   2.847 -1.2268  1.2457 -0.8947
 4152SOL    HW223916   0.185   0.389   2.702 -1.6450  0.9863  0.4036
 4153SOL     OW23917   0.439   1.792   6.085  0.3586  0.2782 -0.1228
 4153SOL    HW123918   0.428   1.762   6.175  2.0136 -1.0569 -0.3760
 4153SOL    HW223919   0.347   1.794   6.056 -0.0126 -0.6557  0.9928
 4154SOL     OW23920   0.725   2.487   6.728  0.4590  0.1398 -0.3413
 4154SOL    HW123921   0.804   2.433   6.726 -0.9301 -1.9708  1.3031
 4154SOL    HW223922   0.711   2.492   6.822  1.2243  2.8884 -0.3783
 4155SOL     OW23923   1.388   2.411   7.501  0.3177 -0.2727  0.0842
 4155SOL    HW123924   1.302   2.425   7.539  0.6211 -0.9655  1.0159
 4155SOL    HW223925   1.435   2.469   7.561 -1.5757  0.3609  0.9329
 4156SOL     OW23926   3.485   1.116  12.636  0.1857  0.4394  0.1816
 4156SOL    HW123927   3.405   1.066  12.623  2.2048 -2.5858 -0.6334
 4156SOL    HW223928   3.497   1.153  12.549 -2.5388  1.2314  0.1560
 4157SOL     OW23929   0.651   2.381  17.071  0.1054 -0.4048  0.3350
 4157SOL    HW123930   0.649   2.348  17.160 -1.5268 -0.0142  0.4333
 4157SOL    HW223931   0.694   2.310  17.023 -0.5454 -1.4416  1.3006
 4158SOL     OW23932   0.800   1.583  15.094 -0.5575 -0.5531 -0.6616
 4158SOL    HW123933   0.813   1.591  15.188 -1.1799  0.2444 -0.6436
 4158SOL    HW223934   0.867   1.515  15.082 -2.1292 -1.9319 -1.7167
 4159SOL     OW23935   2.117   3.341   8.183  0.0231  0.0913 -0.1242
 4159SOL    HW123936   2.033   3.381   8.204  0.0504  0.1527 -0.1312
 4159SOL    HW223937   2.124   3.276   8.254  1.2125  1.2785  0.8536
 4160SOL     OW23938   3.481   4.489   4.082  0.1817 -0.7212  0.1471
 4160SOL    HW123939   3.404   4.432   4.085  0.0856 -0.6321 -0.8552
 4160SOL    HW223940   3.537   4.443   4.146  1.9053  1.1465 -0.0199
 4161SOL     OW23941   0.476   0.418   4.799 -0.4268  0.2679 -0.5770
 4161SOL    HW123942   0.542   0.468   4.752  0.0868 -1.0871 -1.2945
 4161SOL    HW223943   0.418   0.391   4.727 -0.5330 -0.6082 -0.1662
 4162SOL     OW23944   2.914   1.234   3.046 -0.2770  0.3105  0.1936
 4162SOL    HW123945   2.836   1.180   3.034 -0.0683 -0.1785  1.0074
 4162SOL    HW223946   2.949   1.257   2.961  1.3708  0.6777  0.9688
 4163SOL     OW23947   4.291   2.104   6.251  0.3296 -0.0998 -0.7869
 4163SOL    HW123948   4.215   2.144   6.294  0.6834 -2.7232  2.2939
 4163SOL    HW223949   4.360   2.153   6.295 -1.8248  0.3467  2.1078
 4164SOL     OW23950   2.287   0.276  11.699 -0.4478 -0.1075 -0.3698
 4164SOL    HW123951   2.379   0.267  11.676 -0.5843  1.6843 -1.6212
 4164SOL    HW223952   2.254   0.186  11.696 -2.2592  0.5622 -0.8772
 4165SOL     OW23953   3.479   2.735  17.675  0.2903 -0.5808 -0.3431
 4165SOL    HW123954   3.457   2.642  17.682  1.9579 -0.8758  0.9811
 4165SOL    HW223955   3.574   2.727  17.686  0.0592  0.3434  2.3432
 4166SOL     OW23956   1.843   4.549   3.831  0.2558 -0.0689  0.4265
 4166SOL    HW123957   1.922   4.594   3.863 -0.2251  1.1324 -0.0466
 4166SOL    HW223958   1.780   4.621   3.840 -0.2611 -0.5553  0.6304
 4167SOL     OW23959   3.883   4.708   8.276  0.0950 -0.5446  0.7535
 4167SOL    HW123960   3.831   0.046   8.224  1.4596 -0.3412 -0.3753
 4167SOL    HW223961   3.884   4.627   8.224  0.4476  0.4777 -0.8397
 4168SOL     OW23962   2.436   0.572   7.056 -0.6038  0.6170 -0.2232
 4168SOL    HW123963   2.438   0.477   7.045 -2.6336  0.4380  0.9258
 4168SOL    HW223964   2.342   0.576   7.073 -0.2349  0.9670  1.8042
 4169SOL     OW23965   2.360   2.483   1.550  0.0980 -0.4929  0.5450
 4169SOL    HW123966   2.353   2.571   1.511  0.0275 -0.4349  0.6863
 4169SOL    HW223967   2.410   2.508   1.628  1.9560 -0.6409 -0.5939
 4170SOL     OW23968   4.533   1.361  17.622  0.4817 -0.2213  0.1142
 4170SOL    HW123969   4.609   1.411  17.653 -0.3602  0.6686  0.7385
 4170SOL    HW223970   4.460   1.421  17.635  0.6883 -0.2668  1.5787
 4171SOL     OW23971   0.534   4.538   7.809 -0.1115 -0.6025  0.6661
 4171SOL    HW123972   0.488   4.493   7.738 -1.2546  0.4628  0.7151
 4171SOL    HW223973   0.458   4.555   7.866  1.0656 -1.2641  2.4155
 4172SOL     OW23974   3.202   1.488   4.069  0.5690  0.2853 -0.0085
 4172SOL    HW123975   3.206   1.450   3.981 -1.2921 -0.0297  0.0379
 4172SOL    HW223976   3.254   1.429   4.123  1.8287  0.3832 -1.1052
 4173SOL     OW23977   1.863   1.616   3.565  0.0108 -0.5609  0.8569
 4173SOL    HW123978   1.821   1.652   3.486  0.0272 -3.3170 -0.3929
 4173SOL    HW223979   1.855   1.521   3.556 -1.2828 -0.4583  0.9284
 4174SOL     OW23980   2.491   1.648  10.865 -0.3661 -0.1313  0.2483
 4174SOL    HW123981   2.555   1.716  10.842  0.6246 -1.3865 -0.7257
 4174SOL    HW223982   2.545   1.608  10.934  0.0555  2.2981  1.3092
 4175SOL     OW23983   0.423   1.277  15.899  0.6483  0.0074  0.1738
 4175SOL    HW123984   0.399   1.199  15.950  0.7684 -0.9042 -1.1530
 4175SOL    HW223985   0.346   1.307  15.851 -0.6454 -2.3593  0.7316
 4176SOL     OW23986   2.581   3.282   2.588 -0.2348 -0.0575  0.5568
 4176SOL    HW123987   2.486   3.297   2.587  0.0961  1.8200 -1.6270
 4176SOL    HW223988   2.591   3.262   2.495 -1.4885  0.0505  0.4013
 4177SOL     OW23989   3.960   3.496  10.839 -0.5957 -0.0822 -0.3968
 4177SOL    HW123990   4.056   3.488  10.841 -0.4098  2.3294  0.1089
 4177SOL    HW223991   3.950   3.567  10.903  0.3828 -0.4224  0.1368
 4178SOL     OW23992   0.165   2.380   6.945 -0.1687  0.4835 -0.1949
 4178SOL    HW123993   0.095   2.355   7.005 -1.4409 -1.6813 -2.5587
 4178SOL    HW223994   0.221   2.421   7.011 -0.6190 -0.2865  0.6664
 4179SOL     OW23995   3.944   0.628   2.698  0.0729 -0.0667 -0.0701
 4179SOL    HW123996   3.880   0.599   2.763 -0.0752 -2.5020 -1.3097
 4179SOL    HW223997   3.898   0.680   2.632 -0.0750 -2.2083 -1.6437
 4180SOL     OW23998   2.623   2.354   9.313 -0.1201 -0.7228  0.0913
 4180SOL    HW123999   2.664   2.334   9.398  0.9445  0.8879 -0.0457
 4180SOL    HW224000   2.624   2.450   9.314 -1.7703 -0.6971  0.3410
 4181SOL     OW24001   1.102   4.318   7.470 -0.6693 -0.1957 -0.6826
 4181SOL    HW124002   1.131   4.410   7.467  0.1312 -0.3759  1.5870
 4181SOL    HW224003   1.021   4.319   7.418 -0.4244 -1.6088 -1.0654
 4182SOL     OW24004   0.852   3.166   5.021 -0.3835  0.3199  0.2248
 4182SOL    HW124005   0.928   3.177   5.078 -0.9755 -0.1004  1.1090
 4182SOL    HW224006   0.778   3.191   5.077 -0.1671  1.1274  0.1486
 4183SOL     OW24007   3.370   3.163  15.735 -0.0121  0.2988 -0.2242
 4183SOL    HW124008   3.390   3.070  15.728 -1.3814  0.1339 -2.1163
 4183SOL    HW224009   3.446   3.192  15.785 -0.9511  0.1839  1.2878
 4184SOL     OW24010   2.278   4.487   0.598  0.2797  0.3131  0.4802
 4184SOL    HW124011   2.255   4.523   0.684 -2.5782 -0.7939  0.2065
 4184SOL    HW224012   2.191   4.467   0.563 -0.1935  0.4694  1.5530
 4185SOL     OW24013   1.084   0.104   3.498 -0.3176 -0.1334 -0.0544
 4185SOL    HW124014   1.077   0.155   3.579 -0.0875  2.0373 -1.3908
 4185SOL    HW224015   1.180   0.101   3.502 -0.4071  0.1981  2.1917
 4186SOL     OW24016   3.740   1.352   4.701 -0.2070 -0.3788 -0.1900
 4186SOL    HW124017   3.709   1.271   4.662  0.3172 -0.7650  0.2046
 4186SOL    HW224018   3.832   1.353   4.677 -0.4171  1.3977 -0.9711
 4187SOL     OW24019   2.538   2.197   2.997  0.6448  0.3438 -0.5499
 4187SOL    HW124020   2.628   2.222   3.018  0.4112  0.4240  0.3779
 4187SOL    HW224021   2.549   2.109   3.035  0.1825  1.1965  1.5748
 4188SOL     OW24022   3.142   1.804   2.380  0.4696 -0.4174  0.0937
 4188SOL    HW124023   3.108   1.720   2.348 -0.4382  0.3138 -0.8658
 4188SOL    HW224024   3.231   1.803   2.344  0.7464 -3.1383  0.8256
 4189SOL     OW24025   3.284   1.415   3.821 -0.2643 -0.3044 -0.5143
 4189SOL    HW124026   3.311   1.357   3.750  0.5320 -1.0762  0.4063
 4189SOL    HW224027   3.357   1.474   3.839 -0.8511  0.6126 -1.1368
 4190SOL     OW24028   1.215   0.805   4.635 -0.0816 -0.0646 -0.0371
 4190SOL    HW124029   1.214   0.796   4.539 -0.6054 -1.1245  0.0772
 4190SOL    HW224030   1.204   0.899   4.644 -0.3124 -0.0526 -0.4326
 4191SOL     OW24031   2.448   0.483   2.988  0.2495  0.0165  0.5035
 4191SOL    HW124032   2.430   0.484   3.082 -0.2467 -2.2132  0.4271
 4191SOL    HW224033   2.532   0.437   2.980  0.9899  1.3464  0.6631
 4192SOL     OW24034   3.491   4.329   1.677 -0.2643  0.4237  0.0731
 4192SOL    HW124035   3.470   4.256   1.618  0.0677  0.7491 -0.4497
 4192SOL    HW224036   3.571   4.295   1.717 -0.6719 -1.3966 -0.6265
 4193SOL     OW24037   2.649   4.401   7.144 -0.1726  0.2839 -0.0025
 4193SOL    HW124038   2.719   4.336   7.157 -1.6669 -1.1590  0.8536
 4193SOL    HW224039   2.617   4.366   7.060  0.1400 -0.3627  0.1508
 4194SOL     OW24040   4.605   0.315   4.491 -0.0304 -0.0170 -0.6634
 4194SOL    HW124041   4.513   0.341   4.497 -0.4772 -1.1695 -2.5397
 4194SOL    HW224042   4.612   0.258   4.415  1.2378  2.5630 -2.4758
 4195SOL     OW24043   0.183   1.850   5.981 -0.3932 -0.3932  0.2012
 4195SOL    HW124044   0.192   1.889   5.894 -1.6115 -0.9370 -0.1697
 4195SOL    HW224045   0.122   1.914   6.018 -2.4675 -0.8940 -2.3494
 4196SOL     OW24046   4.019   3.744   9.834  0.1402  0.9516 -0.5891
 4196SOL    HW124047   4.000   3.658   9.871 -1.4104  2.4119  1.9767
 4196SOL    HW224048   4.015   3.806   9.906  1.4620  1.1562 -0.7005
 4197SOL     OW24049   0.970   2.243   3.527  0.1917 -0.0202  0.3905
 4197SOL    HW124050   0.979   2.317   3.468  2.6032 -0.4556  0.2231
 4197SOL    HW224051   1.050   2.252   3.578  0.1015  2.4544  0.1017
 4198SOL     OW24052   2.237   3.521   7.661  0.3817 -0.0271  0.9373
 4198SOL    HW124053   2.203   3.472   7.735  1.0339 -2.9711 -0.7276
 4198SOL    HW224054   2.259   3.600   7.712 -1.0547  1.8346 -1.3141
 4199SOL     OW24055   3.882   0.436  16.945  0.5415  0.2799 -0.6092
 4199SOL    HW124056   3.813   0.501  16.959  0.1350 -0.5704  1.2671
 4199SOL    HW224057   3.922   0.448  17.030  0.6606  1.1003 -0.7790
 4200SOL     OW24058   3.730   0.808  17.287 -0.0410  0.2855 -0.4003
 4200SOL    HW124059   3.796   0.745  17.256  0.2430  0.4179 -0.0685
 4200SOL    HW224060   3.652   0.782  17.238 -1.6045  0.6508  1.8665
 4201SOL     OW24061   2.855   2.578   4.268 -0.2718  0.1979  0.2970
 4201SOL    HW124062   2.892   2.579   4.356  0.9662 -0.5583 -0.2241
 4201SOL    HW224063   2.777   2.633   4.279  1.1931  2.0429  1.4337
 4202SOL     OW24064   2.512   1.030   9.512 -0.3056  0.5432  0.1414
 4202SOL    HW124065   2.467   1.029   9.596  0.3578  3.2305  0.5508
 4202SOL    HW224066   2.524   0.937   9.497  0.3465  0.3891  1.6127
 4203SOL     OW24067   4.348   3.979   5.456  0.1372 -0.0322 -0.7128
 4203SOL    HW124068   4.257   4.007   5.450 -0.2251 -1.2499 -0.9141
 4203SOL    HW224069   4.368   3.973   5.362  2.2027 -1.8794 -0.1443
 4204SOL     OW24070   0.534   2.539  13.565 -0.0196  0.9798  0.2535
 4204SOL    HW124071   0.590   2.576  13.496 -0.5758  0.3646 -0.5269
 4204SOL    HW224072   0.586   2.559  13.643  1.1774 -0.6448 -0.1229
 4205SOL     OW24073   2.809   1.852  12.698 -0.1154  0.0010 -0.1531
 4205SOL    HW124074   2.718   1.827  12.715  0.2629 -2.4778 -1.7522
 4205SOL    HW224075   2.799   1.866  12.604  1.8988  2.7828  0.0340
 4206SOL     OW24076   0.681   1.633   2.868 -0.1345  0.0326  0.0788
 4206SOL    HW124077   0.748   1.700   2.882  0.6592 -0.5480 -0.9614
 4206SOL    HW224078   0.718   1.587   2.793  0.7778  0.9524 -0.0421
 4207SOL     OW24079   3.379   1.661   7.321 -0.5636  0.4041  0.5919
 4207SOL    HW124080   3.304   1.720   7.324 -0.5315  0.3588  1.9906
 4207SOL    HW224081   3.379   1.643   7.227  0.6163  0.4114  0.5900
 4208SOL     OW24082   3.516   0.512   9.909 -0.4473 -0.3910 -0.8625
 4208SOL    HW124083   3.428   0.550   9.909  0.3658  1.5297 -0.0151
 4208SOL    HW224084   3.527   0.451   9.981  1.9024 -2.1782 -2.7301
 4209SOL     OW24085   1.336   1.304   5.549 -0.1517 -0.7503 -0.2154
 4209SOL    HW124086   1.283   1.380   5.571  0.0114 -0.3287 -1.3099
 4209SOL    HW224087   1.350   1.333   5.459  0.4157 -1.2334 -0.2839
 4210SOL     OW24088   4.211   3.112   3.901  0.6257  0.0958  0.8891
 4210SOL    HW124089   4.132   3.118   3.954 -0.9276 -1.6979 -1.2250
 4210SOL    HW224090   4.218   3.206   3.885 -0.4701 -0.1580 -1.0760
 4211SOL     OW24091   1.275   0.778   2.578  0.2189 -0.4614  0.1432
 4211SOL    HW124092   1.288   0.794   2.485  0.3414 -0.6956  0.1199
 4211SOL    HW224093   1.242   0.865   2.600  0.2575  0.0060 -1.6537
 4212SOL     OW24094   4.610   4.291   8.450 -0.2523 -0.4115 -0.6112
 4212SOL    HW124095   4.524   4.301   8.491 -0.6738  0.3029 -1.6496
 4212SOL    HW224096   4.665   4.322   8.521  1.6597 -0.2740 -2.1591
 4213SOL     OW24097   0.245   4.129   8.927  0.4686  0.0199 -0.1207
 4213SOL    HW124098   0.273   4.104   8.839  0.2607 -1.6353  0.2741
 4213SOL    HW224099   0.218   4.221   8.929 -1.6959 -0.6167  0.3758
 4214SOL     OW24100   1.893   0.539   4.193  0.2764  0.7153 -0.0407
 4214SOL    HW124101   1.873   0.458   4.148  0.0028  0.7213  0.0721
 4214SOL    HW224102   1.937   0.598   4.132 -1.7648  2.6970  0.3902
 4215SOL     OW24103   3.551   1.933   1.691  0.2298  0.2919 -0.4938
 4215SOL    HW124104   3.641   1.929   1.659  0.7927 -1.4684  1.3430
 4215SOL    HW224105   3.542   1.839   1.704  0.4948  0.3323 -0.0139
 4216SOL     OW24106   2.847   1.326   4.496 -0.0459 -0.5114  0.0807
 4216SOL    HW124107   2.773   1.338   4.436 -0.2891  3.2087  1.1585
 4216SOL    HW224108   2.821   1.381   4.570 -0.6695 -0.5248 -0.1273
 4217SOL     OW24109   1.378   0.000   9.370 -0.7857 -0.8128 -0.0271
 4217SOL    HW124110   1.427   4.695   9.292  2.3904  1.0453  1.2716
 4217SOL    HW224111   1.403   4.653   9.429 -1.8024  0.3130  1.7227
 4218SOL     OW24112   2.361   0.148   1.864 -0.5718 -0.1522 -0.8837
 4218SOL    HW124113   2.320   0.217   1.813 -0.5203  1.5178  1.3326
 4218SOL    HW224114   2.282   0.106   1.899 -1.0252  2.6707  1.4145
 4219SOL     OW24115   2.389   1.841   0.210 -0.6918 -0.1540 -0.4036
 4219SOL    HW124116   2.395   1.866   0.117  1.0404  1.1001  0.0485
 4219SOL    HW224117   2.448   1.766   0.215 -1.5281 -0.8212 -0.7161
 4220SOL     OW24118   0.518   0.901   7.266 -0.3209  0.1075 -0.2726
 4220SOL    HW124119   0.449   0.847   7.229 -0.9532  0.4188  0.4657
 4220SOL    HW224120   0.473   0.939   7.342  0.1176 -0.6536  0.3650
 4221SOL     OW24121   4.440   3.659   4.712 -0.4057  0.2385  0.1755
 4221SOL    HW124122   4.412   3.749   4.724 -0.2707  0.2876  0.1222
 4221SOL    HW224123   4.372   3.611   4.760  1.6633 -1.4742  1.3705
 4222SOL     OW24124   0.526   3.538   4.192 -0.3186 -0.4774 -0.1357
 4222SOL    HW124125   0.467   3.489   4.249 -0.4973  1.9953  1.8026
 4222SOL    HW224126   0.590   3.558   4.260 -0.7421 -1.3863  0.5224
 4223SOL     OW24127   4.566   1.004  10.406 -0.0326  0.2915 -0.7620
 4223SOL    HW124128   4.507   1.031  10.335  0.5985  1.0982 -0.9777
 4223SOL    HW224129   4.584   0.912  10.390 -2.1452 -0.4052  0.8783
 4224SOL     OW24130   2.606   1.963   6.003  0.0723 -0.2488 -0.3947
 4224SOL    HW124131   2.541   1.946   6.071 -2.0930 -0.9826 -2.6578
 4224SOL    HW224132   2.626   1.874   5.974  1.5072  0.4999 -1.6873
 4225SOL     OW24133   3.929   0.297   4.658 -0.2003  0.5788  1.3025
 4225SOL    HW124134   3.971   0.373   4.697 -1.7231  1.1624  1.7841
 4225SOL    HW224135   3.913   0.237   4.731  3.0259 -1.0330  0.6887
 4226SOL     OW24136   0.323   1.508   6.321 -0.0951  0.2620  0.2147
 4226SOL    HW124137   0.287   1.505   6.233  0.6720  0.7473 -0.1196
 4226SOL    HW224138   0.315   1.418   6.353  0.0949 -0.2635 -1.2267
 4227SOL     OW24139   4.110   1.627   6.576 -0.0212 -0.7098 -0.1176
 4227SOL    HW124140   4.160   1.637   6.657  1.0153  0.4850 -0.9014
 4227SOL    HW224141   4.147   1.543   6.550 -1.7886 -1.0824 -1.4441
 4228SOL     OW24142   2.267   4.055   8.292  0.5924  0.4322  0.1406
 4228SOL    HW124143   2.185   4.052   8.342  0.3869 -1.7166 -0.3091
 4228SOL    HW224144   2.297   3.964   8.284 -0.4502  0.0358  0.6044
 4229SOL     OW24145   2.220   3.859   3.668  0.3168 -0.5882  0.2920
 4229SOL    HW124146   2.145   3.830   3.720 -0.3689  0.1202 -0.2820
 4229SOL    HW224147   2.284   3.837   3.735 -0.2334  0.7391  1.2533
 4230SOL     OW24148   3.333   2.068   1.863  0.0759 -0.3839 -0.1024
 4230SOL    HW124149   3.274   2.094   1.793 -0.3418  1.8894  1.0667
 4230SOL    HW224150   3.393   2.012   1.814  2.1429  1.3558  0.4006
 4231SOL     OW24151   2.203   1.316   3.012  0.0012  0.1320 -0.3594
 4231SOL    HW124152   2.277   1.377   3.001  0.2370  0.4394  2.8729
 4231SOL    HW224153   2.187   1.300   2.919 -1.2071 -0.3277 -0.0766
 4232SOL     OW24154   0.630   1.172  16.362  0.4683 -0.0224 -0.3489
 4232SOL    HW124155   0.693   1.118  16.410  0.0455 -0.6708 -0.5333
 4232SOL    HW224156   0.626   1.241  16.429 -2.0019 -0.3609 -0.1760
 4233SOL     OW24157   3.124   2.179   2.933  0.1503 -0.3817  0.3677
 4233SOL    HW124158   3.162   2.262   2.908 -0.2760 -1.4754 -3.8463
 4233SOL    HW224159   3.126   2.196   3.027 -0.5040  0.4660  0.2226
 4234SOL     OW24160   2.050   2.689   6.805 -0.6626 -0.4511  0.6364
 4234SOL    HW124161   2.078   2.780   6.792  1.0692 -0.9403  0.9247
 4234SOL    HW224162   1.964   2.694   6.763  0.3055  0.1812 -1.3230
 4235SOL     OW24163   2.383   3.123   1.811 -0.5702  0.3026 -0.5221
 4235SOL    HW124164   2.445   3.052   1.830  0.4547  0.1464 -4.4151
 4235SOL    HW224165   2.448   3.188   1.784  1.3294  0.1245  3.5329
 4236SOL     OW24166   1.927   0.389   0.938  0.2753 -0.8774  0.1683
 4236SOL    HW124167   2.019   0.415   0.936  0.0834 -0.2268 -0.2775
 4236SOL    HW224168   1.936   0.299   0.970 -1.7550 -0.5981  1.5776
 4237SOL     OW24169   2.275   1.829   7.414  0.2363  0.0912  0.4665
 4237SOL    HW124170   2.339   1.791   7.475  0.4377  1.3996  1.0678
 4237SOL    HW224171   2.285   1.775   7.336 -2.7817 -0.5734  0.5474
 4238SOL     OW24172   2.438   2.447  17.028  0.1309 -0.0035 -0.0137
 4238SOL    HW124173   2.479   2.416  16.947 -0.1848  1.9973 -0.9352
 4238SOL    HW224174   2.362   2.495  16.996  1.9851  2.5386 -0.6655
 4239SOL     OW24175   3.161   3.947   7.934 -0.3306  0.1230  0.5958
 4239SOL    HW124176   3.085   3.941   7.876  0.7245 -3.5264 -0.4108
 4239SOL    HW224177   3.123   3.914   8.016 -1.5488  0.2284  0.0750
 4240SOL     OW24178   4.664   1.915  11.402 -0.2106  0.4727  0.0783
 4240SOL    HW124179   0.000   1.937  11.330 -1.8648  1.1336 -1.0928
 4240SOL    HW224180   4.720   1.929  11.478 -1.5634  0.7767  1.0395
 4241SOL     OW24181   4.061   1.723   4.242  0.7586 -0.3943 -0.3903
 4241SOL    HW124182   4.105   1.759   4.319  0.0478  0.6806 -0.4923
 4241SOL    HW224183   4.132   1.742   4.180  1.5451  1.2180  1.0081
 4242SOL     OW24184   3.795   0.575   8.661 -0.0655 -0.1216  0.2483
 4242SOL    HW124185   3.848   0.532   8.593  1.3992  0.5593  0.9771
 4242SOL    HW224186   3.862   0.641   8.679 -0.5802  0.0777  1.3838
 4243SOL     OW24187   2.779   3.646   3.842 -0.3683  0.4388 -0.3516
 4243SOL    HW124188   2.709   3.582   3.852  0.2763  0.0967  1.9902
 4243SOL    HW224189   2.801   3.627   3.751 -2.1861  0.2682 -0.7473
 4244SOL     OW24190   0.889   4.135  11.564 -0.3162  0.5189  0.1294
 4244SOL    HW124191   0.898   4.085  11.483 -1.0579  1.1363 -0.3378
 4244SOL    HW224192   0.980   4.123  11.592 -0.2570 -2.0661 -1.2394
 4245SOL     OW24193   1.946   1.347   8.961 -0.9255 -0.0790  0.1346
 4245SOL    HW124194   1.856   1.359   8.931  0.2475 -1.4883 -3.9083
 4245SOL    HW224195   1.982   1.366   8.874  1.2314 -0.3273  0.9639
 4246SOL     OW24196   0.020   2.818   1.704 -0.5210  0.6597 -0.0606
 4246SOL    HW124197   0.092   2.852   1.757 -0.1487  0.4230 -0.4120
 4246SOL    HW224198   4.670   2.867   1.743 -1.9252  0.0772 -1.9703
 4247SOL     OW24199   0.763   3.446   3.813  0.3724  0.4267  0.2763
 4247SOL    HW124200   0.715   3.390   3.752 -1.6651  0.5037  1.7860
 4247SOL    HW224201   0.718   3.529   3.797  1.4322  1.0170  0.4028
 4248SOL     OW24202   0.664   4.152   2.738  0.2793  0.5019 -0.2320
 4248SOL    HW124203   0.646   4.058   2.743  1.2689  0.1760 -2.5741
 4248SOL    HW224204   0.587   4.182   2.689 -2.3093 -0.5439  3.2110
 4249SOL     OW24205   3.620   1.941   0.575 -0.3897  0.4556 -0.2864
 4249SOL    HW124206   3.556   2.003   0.539 -0.0523  0.3481 -1.0794
 4249SOL    HW224207   3.605   1.939   0.669 -0.2053  2.2682 -0.2048
 4250SOL     OW24208   0.133   1.488   0.860  0.1357 -0.6117  0.1750
 4250SOL    HW124209   0.101   1.574   0.834 -0.2306 -0.9635 -0.5578
 4250SOL    HW224210   0.110   1.446   0.777  0.8034  0.6667 -0.6400
 4251SOL     OW24211   4.575   4.073   8.830  0.1973 -0.3494 -0.0192
 4251SOL    HW124212   4.498   4.028   8.862  0.4643 -0.0312  1.0821
 4251SOL    HW224213   4.592   4.130   8.905  3.1642 -0.2845 -0.7291
 4252SOL     OW24214   4.083   4.046   5.436  0.5254  0.0037 -0.2183
 4252SOL    HW124215   4.007   4.104   5.432  1.3861  1.1608  0.2529
 4252SOL    HW224216   4.032   3.972   5.468  1.9128 -0.8850 -0.0595
 4253SOL     OW24217   1.009   4.111   7.837 -0.6519  0.2714 -0.5348
 4253SOL    HW124218   1.070   4.154   7.777 -1.0912 -1.2898 -2.0982
 4253SOL    HW224219   1.055   4.102   7.920 -1.7720 -1.2632 -0.0873
 4254SOL     OW24220   3.491   3.782   7.206  0.2422  0.2625  0.2319
 4254SOL    HW124221   3.534   3.852   7.255 -0.0369 -0.7161  1.8457
 4254SOL    HW224222   3.545   3.705   7.225 -3.2292 -2.2549 -0.2177
 4255SOL     OW24223   4.218   1.818  12.915  0.7159  0.4559  0.0687
 4255SOL    HW124224   4.299   1.855  12.948  0.8520  0.8353 -0.6974
 4255SOL    HW224225   4.168   1.890  12.875  2.0500  1.5669  0.4216
 4256SOL     OW24226   3.633   3.271   2.982  0.3065 -0.1501  0.0248
 4256SOL    HW124227   3.658   3.204   3.047  0.6389 -1.4684 -1.4580
 4256SOL    HW224228   3.545   3.282   3.017  1.3149 -0.0613  2.5531
 4257SOL     OW24229   4.528   0.170   6.486 -0.3739 -0.4340 -0.1552
 4257SOL    HW124230   4.532   0.202   6.576  1.5335 -2.2011  0.3830
 4257SOL    HW224231   4.604   0.113   6.487 -1.0559 -1.3910 -2.6609
 4258SOL     OW24232   0.482   3.949   6.206  0.0956 -0.0088 -0.3137
 4258SOL    HW124233   0.404   3.949   6.151 -0.9195 -0.1531  1.1366
 4258SOL    HW224234   0.530   3.876   6.167  1.8823  1.0310 -0.0802
 4259SOL     OW24235   0.174   0.153   8.715  0.0987  0.6086 -0.4930
 4259SOL    HW124236   0.144   0.091   8.781  1.8454  1.5833  1.2017
 4259SOL    HW224237   0.093   0.176   8.669 -0.5246 -0.4995  0.0573
 4260SOL     OW24238   3.650   2.758   5.866  0.2940 -0.0098  0.0574
 4260SOL    HW124239   3.555   2.755   5.860  0.3317 -0.3764 -0.3675
 4260SOL    HW224240   3.666   2.667   5.892  2.9120  1.2391  2.7791
 4261SOL     OW24241   4.587   3.889  10.398  0.8598 -0.1932 -0.6912
 4261SOL    HW124242   4.605   3.899  10.492 -0.0018  1.6879 -0.7204
 4261SOL    HW224243   4.518   3.954  10.385 -0.7453 -1.5018  1.1735
 4262SOL     OW24244   2.091   2.925   8.006  0.1240  0.5614  0.3636
 4262SOL    HW124245   2.145   2.941   8.084 -1.2723  1.2585  1.1935
 4262SOL    HW224246   2.103   2.831   7.989 -0.9247  0.9456 -2.5544
 4263SOL     OW24247   3.471   4.073   4.409  0.3136  0.9146 -0.4052
 4263SOL    HW124248   3.380   4.105   4.407 -0.8072 -2.0868  2.5249
 4263SOL    HW224249   3.484   4.075   4.314 -0.4955 -1.0419 -0.5618
 4264SOL     OW24250   3.528   2.420   1.467  0.8221  0.2074  0.2945
 4264SOL    HW124251   3.567   2.487   1.523 -1.0943  2.7143 -1.3924
 4264SOL    HW224252   3.512   2.349   1.530  1.4786  1.9202  2.4177
 4265SOL     OW24253   2.691   0.729   3.520  0.2333 -0.2579  0.0751
 4265SOL    HW124254   2.649   0.814   3.504  0.0580 -0.6178 -1.3999
 4265SOL    HW224255   2.734   0.705   3.438  2.4497  2.5339  0.4067
 4266SOL     OW24256   0.967   0.865   4.258 -0.1115  0.0382  0.4927
 4266SOL    HW124257   1.008   0.844   4.174 -0.4486  1.0591  0.0710
 4266SOL    HW224258   0.881   0.893   4.228 -0.8188 -0.5815  1.9442
 4267SOL     OW24259   4.719   0.408  13.553  0.3005 -0.2214  0.0616
 4267SOL    HW124260   0.075   0.455  13.525  0.2517  0.6523  1.3876
 4267SOL    HW224261   4.666   0.481  13.585  0.5081 -0.4764  0.9773
 4268SOL     OW24262   4.408   4.067  14.424 -0.2436  0.1836 -0.6061
 4268SOL    HW124263   4.457   3.984  14.421 -1.8117 -0.8638  2.9148
 4268SOL    HW224264   4.370   4.075  14.337 -1.5122 -1.6189 -0.2320
 4269SOL     OW24265   1.600   4.334   1.223 -0.3992  0.4868 -0.1579
 4269SOL    HW124266   1.531   4.400   1.229 -0.8600  0.0023 -0.1310
 4269SOL    HW224267   1.577   4.279   1.298  1.6467  3.2494  2.4768
 4270SOL     OW24268   1.495   4.487   3.893 -0.3202  0.0843 -0.3579
 4270SOL    HW124269   1.569   4.539   3.862 -0.2787 -0.6186 -1.4028
 4270SOL    HW224270   1.543   4.435   3.958 -0.1374 -0.6441 -1.0825
 4271SOL     OW24271   3.825   3.594   7.971  0.2875  0.7441 -0.3148
 4271SOL    HW124272   3.858   3.612   8.059  1.2042 -0.6682 -0.3578
 4271SOL    HW224273   3.850   3.501   7.965  0.6670  0.9804 -2.2903
 4272SOL     OW24274   0.572   1.446   6.105 -0.2246  0.6459 -0.5225
 4272SOL    HW124275   0.664   1.456   6.083  0.3285 -1.4063  0.9071
 4272SOL    HW224276   0.527   1.512   6.052  1.5159  1.7232 -0.6263
 4273SOL     OW24277   0.095   0.457  15.577 -0.0870  0.4496 -0.3401
 4273SOL    HW124278   0.179   0.498  15.556 -0.1034  0.4661 -0.3741
 4273SOL    HW224279   0.103   0.457  15.672 -0.2575  0.2005 -0.3265
 4274SOL     OW24280   0.957   0.403  17.279 -0.2509 -0.7268  0.0922
 4274SOL    HW124281   0.882   0.405  17.339 -0.6898 -0.7495 -0.4580
 4274SOL    HW224282   0.916   0.356  17.207  1.0152 -2.0409  0.2396
 4275SOL     OW24283   0.022   2.073   6.087  0.8919  0.0653 -0.3773
 4275SOL    HW124284   0.075   2.152   6.092  0.1994  0.4581  0.7185
 4275SOL    HW224285   4.659   2.107   6.065  1.3673  1.3935 -0.1897
 4276SOL     OW24286   2.734   2.161  16.489 -0.9163 -0.0918 -0.7571
 4276SOL    HW124287   2.733   2.066  16.484 -0.9940 -0.0552 -1.5663
 4276SOL    HW224288   2.705   2.175  16.399  1.7339  0.7918 -1.4799
 4277SOL     OW24289   1.204   1.242   3.645  0.8565  0.0727 -0.4708
 4277SOL    HW124290   1.216   1.323   3.595  1.9990 -1.1727 -2.2604
 4277SOL    HW224291   1.180   1.276   3.731 -1.6978  1.6493 -1.8004
 4278SOL     OW24292   0.313   1.233  13.744  0.0053  0.2064  0.3703
 4278SOL    HW124293   0.396   1.266  13.777  1.1531 -3.8477  1.4589
 4278SOL    HW224294   0.264   1.255  13.823  1.3818 -0.2159  1.3187
 4279SOL     OW24295   0.173   0.387  16.168  0.0972  0.2999 -0.0891
 4279SOL    HW124296   0.078   0.395  16.159 -0.2562 -2.9231  0.7745
 4279SOL    HW224297   0.169   0.299  16.205  1.9225  0.5454  0.7102
 4280SOL     OW24298   1.751   2.956  15.532  0.3920  0.5517  0.3087
 4280SOL    HW124299   1.840   2.945  15.498  0.7057 -1.1291  1.6370
 4280SOL    HW224300   1.730   3.044  15.500 -0.0891  0.8283  1.3735
 4281SOL     OW24301   2.105   1.378   7.546  0.1309  0.3222  0.2466
 4281SOL    HW124302   2.114   1.468   7.577  1.5508  0.3670 -0.2737
 4281SOL    HW224303   2.016   1.355   7.573  0.0280  2.3862  1.6319
 4282SOL     OW24304   3.231   4.206   8.019 -0.2002  0.5375 -0.2150
 4282SOL    HW124305   3.225   4.111   8.009  2.5194  0.3708 -0.3932
 4282SOL    HW224306   3.152   4.226   8.068 -0.2882  1.2048 -0.6278
 4283SOL     OW24307   0.185   0.773   2.093 -0.4061  0.2771 -0.1635
 4283SOL    HW124308   0.169   0.682   2.119 -0.2959  0.2129 -0.3159
 4283SOL    HW224309   0.104   0.810   2.127 -0.1238 -1.6548  2.5571
 4284SOL     OW24310   2.009   2.692   3.797  0.2518  0.0324  0.1396
 4284SOL    HW124311   2.102   2.698   3.820  0.9989 -0.5425 -2.7213
 4284SOL    HW224312   1.976   2.766   3.847 -0.1524 -0.9175  1.2870
 4285SOL     OW24313   2.935   2.295   4.791 -0.0193 -0.2480  0.1785
 4285SOL    HW124314   2.869   2.345   4.839 -1.2104  0.8742 -2.5992
 4285SOL    HW224315   3.004   2.295   4.857 -1.8143  1.7922  2.0815
 4286SOL     OW24316   3.191   3.420   1.797 -0.1125  0.4568 -0.4395
 4286SOL    HW124317   3.103   3.455   1.785 -0.0830  0.4931 -0.5505
 4286SOL    HW224318   3.174   3.380   1.882 -1.0929  0.7900 -0.4795
 4287SOL     OW24319   0.445   2.383   8.957 -0.5493  0.2415  0.3368
 4287SOL    HW124320   0.527   2.430   8.939 -0.9515  0.8228 -0.0002
 4287SOL    HW224321   0.380   2.440   8.914 -1.2894 -0.6580  0.2764
 4288SOL     OW24322   3.244   2.018   6.629 -0.1318  0.5165  0.1571
 4288SOL    HW124323   3.159   2.059   6.646 -0.5581 -0.4685  0.4204
 4288SOL    HW224324   3.268   2.072   6.554 -0.3268 -0.1899 -0.4042
 4289SOL     OW24325   2.878   2.354   3.312  0.1553 -0.5815  0.2321
 4289SOL    HW124326   2.965   2.316   3.300  0.7384  0.8607 -0.2265
 4289SOL    HW224327   2.890   2.378   3.404  0.8514 -0.1197  0.0319
 4290SOL     OW24328   1.734   3.942   6.743 -0.1068 -0.3732 -0.4143
 4290SOL    HW124329   1.664   3.884   6.714 -1.7869  2.4397 -1.9430
 4290SOL    HW224330   1.806   3.896   6.699  0.9467 -0.6470  1.5619
 4291SOL     OW24331   2.827   3.054   2.601  0.1057 -0.4147 -0.0008
 4291SOL    HW124332   2.891   2.987   2.576 -0.4502 -1.6229  1.8264
 4291SOL    HW224333   2.884   3.131   2.593 -1.1086  0.5735  0.8505
 4292SOL     OW24334   3.753   0.397   2.635  0.4171  0.4589  0.3871
 4292SOL    HW124335   3.679   0.456   2.648 -0.7048 -0.9496  0.4155
 4292SOL    HW224336   3.817   0.435   2.694 -0.7896  3.4255 -0.2015
 4293SOL     OW24337   4.251   4.587   1.560 -0.4684  0.0616 -0.1603
 4293SOL    HW124338   4.247   4.513   1.500 -0.3679 -0.5732  0.6163
 4293SOL    HW224339   4.337   4.619   1.533 -0.6616  1.7162  1.2016
 4294SOL     OW24340   1.599   4.371  14.325  0.4894  0.0706  0.3221
 4294SOL    HW124341   1.600   4.425  14.404 -0.0352 -2.1989  1.8958
 4294SOL    HW224342   1.503   4.365  14.319  0.4382  0.9793  0.2519
 4295SOL     OW24343   4.429   4.331   4.007  0.1367  0.6887  0.2506
 4295SOL    HW124344   4.414   4.338   4.101 -0.6467  2.8563 -0.0173
 4295SOL    HW224345   4.469   4.245   4.000 -1.8518 -0.2667  0.5456
 4296SOL     OW24346   4.376   1.619  10.634 -0.0794 -0.0960  0.4663
 4296SOL    HW124347   4.444   1.624  10.702  2.0570 -0.7350 -1.5857
 4296SOL    HW224348   4.431   1.606  10.556  0.9419 -1.2311  1.3755
 4297SOL     OW24349   2.023   2.614   4.175  0.7188  0.0561 -0.3303
 4297SOL    HW124350   2.095   2.600   4.236 -1.4667 -0.9889  1.9854
 4297SOL    HW224351   1.961   2.551   4.212  1.9195 -1.0526 -0.1896
 4298SOL     OW24352   0.840   1.514   4.941  0.0119 -0.4831 -0.2816
 4298SOL    HW124353   0.832   1.463   5.022  1.0237  0.3795  0.3690
 4298SOL    HW224354   0.865   1.601   4.971 -1.0017 -0.5599  0.8105
 4299SOL     OW24355   3.531   3.388   0.261 -0.3131 -0.0999  0.4768
 4299SOL    HW124356   3.570   3.394   0.174 -3.4337  1.1498 -0.8526
 4299SOL    HW224357   3.553   3.302   0.297  1.8318 -0.0102 -0.6365
 4300SOL     OW24358   0.083   3.865   5.532  0.2146 -0.4630 -0.3029
 4300SOL    HW124359   0.023   3.839   5.462  1.6124 -0.7731 -1.3734
 4300SOL    HW224360   0.062   3.804   5.603  0.0514  1.7366  1.5400
 4301SOL     OW24361   3.612   1.880   6.165 -0.0014 -0.2611  0.4613
 4301SOL    HW124362   3.665   1.958   6.153  1.1758 -0.8744  1.6001
 4301SOL    HW224363   3.526   1.903   6.130 -1.1693 -3.3404  1.2406
 4302SOL     OW24364   4.413   2.256   8.210  0.6220 -0.0133 -0.6900
 4302SOL    HW124365   4.330   2.300   8.191  0.9038  1.0807  0.6391
 4302SOL    HW224366   4.458   2.262   8.126 -0.1706 -1.0283 -1.1892
 4303SOL     OW24367   2.828   4.068  13.283 -0.3989 -0.1105 -0.2916
 4303SOL    HW124368   2.905   4.105  13.238 -0.9706  0.9770 -0.3889
 4303SOL    HW224369   2.772   4.048  13.208 -1.9422  1.2623  0.4874
 4304SOL     OW24370   0.962   0.281   9.950 -0.3051 -0.4197 -0.1325
 4304SOL    HW124371   0.902   0.233  10.009 -1.7573  1.8773  0.2512
 4304SOL    HW224372   1.047   0.238   9.953  0.5534  1.4367  1.6754
 4305SOL     OW24373   0.374   2.580   7.579  0.5405  0.3858 -0.2371
 4305SOL    HW124374   0.350   2.501   7.532  1.5199  0.1452 -0.3266
 4305SOL    HW224375   0.303   2.581   7.643 -0.0421 -0.6744 -0.8737
 4306SOL     OW24376   1.009   1.164  15.434  0.0855  0.3481 -0.1037
 4306SOL    HW124377   1.086   1.128  15.478  0.3593 -0.0924 -0.9466
 4306SOL    HW224378   0.946   1.109  15.481  0.2388 -1.0141 -1.4846
 4307SOL     OW24379   4.320   1.424   1.975  0.4146 -0.2520  0.4308
 4307SOL    HW124380   4.305   1.382   1.890 -1.2700 -0.8323  1.0285
 4307SOL    HW224381   4.386   1.365   2.011 -1.1331 -1.5659  1.0882
 4308SOL     OW24382   2.400   4.314   2.086 -0.5022 -0.6199  0.2115
 4308SOL    HW124383   2.442   4.398   2.103 -1.7620  0.1613 -0.5675
 4308SOL    HW224384   2.339   4.327   2.013 -0.2169  2.4696  0.5288
 4309SOL     OW24385   2.134   1.735   5.910 -0.2176  0.2281 -0.0942
 4309SOL    HW124386   2.164   1.737   6.001 -0.4588  0.9216 -0.0298
 4309SOL    HW224387   2.113   1.828   5.904  2.2940  0.7079 -1.4747
 4310SOL     OW24388   2.116   1.805  15.963 -0.4321  0.8007 -0.1103
 4310SOL    HW124389   2.164   1.727  15.991  1.1533  2.0983  0.7679
 4310SOL    HW224390   2.029   1.787  15.998 -0.6720 -2.0944 -2.1883
 4311SOL     OW24391   2.836   0.306   7.881 -0.1472  0.4427 -0.1350
 4311SOL    HW124392   2.848   0.391   7.838  4.5725 -0.8142 -1.3216
 4311SOL    HW224393   2.838   0.249   7.804 -0.3586 -0.5243  0.5833
 4312SOL     OW24394   4.444   3.692   7.987  0.1554  0.1663  0.7529
 4312SOL    HW124395   4.465   3.598   7.989  1.1221  0.3973  1.4766
 4312SOL    HW224396   4.381   3.702   8.059 -0.1248  0.3076  0.4852
 4313SOL     OW24397   0.538   3.614   7.532 -0.1771  1.0613  0.2266
 4313SOL    HW124398   0.629   3.620   7.503  0.6939  1.0840  2.9245
 4313SOL    HW224399   0.531   3.703   7.568 -0.8194  0.5768  1.2834
 4314SOL     OW24400   0.956   1.237   5.370  0.3061 -0.5835 -0.4610
 4314SOL    HW124401   0.980   1.169   5.433  1.4772  0.2514 -0.0001
 4314SOL    HW224402   1.005   1.312   5.406 -0.8679 -0.2621  0.4606
 4315SOL     OW24403   2.671   3.121   1.495  0.2808 -0.6189 -0.0406
 4315SOL    HW124404   2.748   3.176   1.480 -1.1894  0.4804 -3.6051
 4315SOL    HW224405   2.678   3.050   1.432  0.0753  0.2657 -1.0602
 4316SOL     OW24406   3.106   0.034  16.107 -0.4416  0.4649 -0.7120
 4316SOL    HW124407   3.091   4.700  16.183 -2.3156 -0.2296 -1.6208
 4316SOL    HW224408   3.021   0.038  16.064 -1.0066  0.7015  0.4270
 4317SOL     OW24409   0.392   3.473   8.885 -0.0853  0.2782 -0.1999
 4317SOL    HW124410   0.317   3.520   8.849 -0.6268 -0.2868  0.1939
 4317SOL    HW224411   0.366   3.382   8.872 -1.0659  0.5361 -0.0809
 4318SOL     OW24412   0.172   4.030   3.982  0.3619  0.4647 -0.1182
 4318SOL    HW124413   0.120   3.956   4.012  0.5879  0.3974  0.1023
 4318SOL    HW224414   0.114   4.093   4.025  1.3751  1.4453 -0.2061
 4319SOL     OW24415   0.920   1.147   3.219  0.2291 -0.2890  0.1092
 4319SOL    HW124416   0.940   1.240   3.208 -2.0437  0.4295  2.0831
 4319SOL    HW224417   0.912   1.117   3.128  0.5594  0.1799 -0.0721
 4320SOL     OW24418   0.023   3.580   8.884  0.1166 -0.1224 -0.2466
 4320SOL    HW124419   0.050   3.501   8.931 -0.4678  0.6073  1.2972
 4320SOL    HW224420   0.094   3.634   8.918  0.5924 -0.9960  0.1399
 4321SOL     OW24421   3.127   2.274   3.975 -0.6889 -0.2789 -0.2253
 4321SOL    HW124422   3.099   2.225   3.898 -1.2446 -0.3965  0.0469
 4321SOL    HW224423   3.120   2.208   4.044  0.6183 -0.4539 -0.2770
 4322SOL     OW24424   0.664   1.353   9.006  0.1678  0.3260 -0.0797
 4322SOL    HW124425   0.631   1.343   9.095  0.2190  1.9561  0.1117
 4322SOL    HW224426   0.759   1.340   9.013 -0.0143 -2.3588 -2.3679
 4323SOL     OW24427   1.082   4.490  13.468 -0.1769  0.7151  0.6346
 4323SOL    HW124428   1.095   4.439  13.388  2.0936  3.0979 -0.4899
 4323SOL    HW224429   1.103   4.418  13.527  0.8928 -0.0175 -0.6248
 4324SOL     OW24430   4.122   2.759   3.423  0.0977  0.0329 -1.0894
 4324SOL    HW124431   4.190   2.816   3.388  0.7255  0.3547  0.6242
 4324SOL    HW224432   4.046   2.815   3.409  1.3666  1.9715 -0.3061
 4325SOL     OW24433   3.095   3.148   9.122 -0.4383 -0.2386  0.2359
 4325SOL    HW124434   3.005   3.122   9.103  0.0298 -0.3489 -1.8678
 4325SOL    HW224435   3.137   3.065   9.146  0.6631  0.1092 -0.4993
 4326SOL     OW24436   2.325   1.363   9.927  0.3919 -0.2645  0.7007
 4326SOL    HW124437   2.270   1.290   9.898  1.0452 -2.5830  5.3771
 4326SOL    HW224438   2.309   1.429   9.859  0.5485  1.0410  1.9486
 4327SOL     OW24439   0.350   0.356   7.022  0.0414 -0.3037 -0.2311
 4327SOL    HW124440   0.371   0.294   6.952  1.2742  0.6836 -0.7338
 4327SOL    HW224441   0.353   0.293   7.094 -1.5164  1.1133  1.0584
 4328SOL     OW24442   2.984   3.889  10.909 -0.4617  0.1149  0.2878
 4328SOL    HW124443   3.002   3.852  10.823  3.6144  2.0957  0.2936
 4328SOL    HW224444   2.926   3.818  10.935 -1.0043  0.2973 -0.4319
 4329SOL     OW24445   4.603   0.471  15.263  0.6782 -0.1552  0.3039
 4329SOL    HW124446   4.585   0.436  15.350  1.1429  1.2694  0.9684
 4329SOL    HW224447   4.560   0.556  15.275  0.3921 -0.3446  0.6221
 4330SOL     OW24448   4.604   0.308  14.751  0.6396 -0.2962 -0.4100
 4330SOL    HW124449   4.589   0.303  14.656 -3.4340 -0.6181  0.2371
 4330SOL    HW224450   4.538   0.246  14.782 -1.3777  1.2381 -1.6064
 4331SOL     OW24451   2.625   2.764   4.888  0.0634  0.3117 -0.3458
 4331SOL    HW124452   2.681   2.842   4.884  0.2164  0.1450 -1.5885
 4331SOL    HW224453   2.631   2.743   4.795 -1.8566  1.0319 -0.6122
 4332SOL     OW24454   0.751   4.502   5.012 -0.6684  0.6871 -0.0839
 4332SOL    HW124455   0.710   4.475   4.930 -0.5333  0.0514  0.0548
 4332SOL    HW224456   0.726   4.429   5.068  0.7610 -0.0223 -0.3522
 4333SOL     OW24457   3.808   2.593   7.688  0.1018  0.4194 -0.3335
 4333SOL    HW124458   3.787   2.525   7.751  1.1018  0.7274  0.3274
 4333SOL    HW224459   3.796   2.544   7.606 -3.4464 -2.0856  1.6825
 4334SOL     OW24460   1.403   1.231   3.906 -0.0024 -0.2948 -0.1067
 4334SOL    HW124461   1.389   1.164   3.839 -1.1904 -0.3885  0.2403
 4334SOL    HW224462   1.388   1.182   3.987 -1.3476 -0.8029 -0.6629
 4335SOL     OW24463   1.368   2.463  16.614 -0.4509  0.0078 -0.3308
 4335SOL    HW124464   1.383   2.483  16.522  2.9055  0.7493  0.3631
 4335SOL    HW224465   1.298   2.398  16.606 -0.1479 -0.4439  0.6912
 4336SOL     OW24466   0.309   0.288   8.398 -0.1851 -0.3137 -0.2687
 4336SOL    HW124467   0.378   0.316   8.339  1.5104 -1.8905  0.9393
 4336SOL    HW224468   0.284   0.374   8.430  2.0926  0.3394 -0.2895
 4337SOL     OW24469   4.495   0.925   6.497 -0.5899 -0.1924  0.1507
 4337SOL    HW124470   4.534   0.846   6.533 -2.4150 -0.3562  1.7252
 4337SOL    HW224471   4.405   0.894   6.487 -0.0112 -1.6520 -0.4187
 4338SOL     OW24472   4.421   0.847   3.436 -0.0069  0.1701 -0.3535
 4338SOL    HW124473   4.374   0.812   3.361 -0.4428  0.3547 -0.1653
 4338SOL    HW224474   4.350   0.888   3.486 -0.5221 -2.0507  0.7042
 4339SOL     OW24475   2.120   3.138   2.762  0.6644  0.1797 -0.7115
 4339SOL    HW124476   2.158   3.057   2.729 -0.1572  0.2230 -1.7497
 4339SOL    HW224477   2.185   3.194   2.720  0.2944  1.5744  0.5760
 4340SOL     OW24478   4.333   2.460  17.682  0.0900 -0.5759  0.3793
 4340SOL    HW124479   4.342   2.546  17.643  2.9718 -1.1879 -0.2910
 4340SOL    HW224480   4.317   2.413  17.601 -0.9138 -0.6996  0.6467
 4341SOL     OW24481   0.508   4.561   2.585  0.2360 -0.4792 -0.0555
 4341SOL    HW124482   0.540   4.650   2.576 -0.0637 -0.2002  1.7198
 4341SOL    HW224483   0.464   4.550   2.501 -1.9635 -0.6696  1.1419
 4342SOL     OW24484   3.208   0.524  11.595  0.0636  0.0264 -0.1453
 4342SOL    HW124485   3.206   0.488  11.684 -1.1938 -1.1068 -0.6361
 4342SOL    HW224486   3.146   0.465  11.553  0.5631 -0.4502 -0.2161
 4343SOL     OW24487   0.397   2.271  10.737  0.4764 -0.1018 -0.1044
 4343SOL    HW124488   0.341   2.348  10.745 -1.0587 -1.3851  1.3781
 4343SOL    HW224489   0.363   2.232  10.658 -1.1451 -1.1648  1.1328
 4344SOL     OW24490   2.830   1.403   2.188  0.3239 -0.0958  0.6632
 4344SOL    HW124491   2.885   1.325   2.182  0.2300  0.1869 -4.0182
 4344SOL    HW224492   2.822   1.434   2.098 -1.5934 -1.6660  0.3181
 4345SOL     OW24493   3.659   3.870   6.607 -0.1675 -0.3209 -0.1289
 4345SOL    HW124494   3.686   3.813   6.535 -1.7504 -0.1073 -0.8981
 4345SOL    HW224495   3.576   3.827   6.629 -0.6455 -0.2744 -1.8053
 4346SOL     OW24496   2.823   2.263   2.789 -0.2186  0.4254 -0.0514
 4346SOL    HW124497   2.900   2.235   2.840  0.2756  1.0831 -0.4317
 4346SOL    HW224498   2.760   2.198   2.818 -0.1268  0.4816  0.2834
 4347SOL     OW24499   3.296   3.987  10.537  0.2737  0.2629 -0.4623
 4347SOL    HW124500   3.260   3.941  10.461  0.7482  0.0297 -0.5435
 4347SOL    HW224501   3.232   4.057  10.551  0.0953 -0.0434  0.2766
 4348SOL     OW24502   3.426   2.542  12.392  0.4749  0.1938 -0.2451
 4348SOL    HW124503   3.430   2.478  12.462  2.0252  1.0085  0.4049
 4348SOL    HW224504   3.511   2.531  12.349  0.4367  0.9241 -0.5206
 4349SOL     OW24505   4.248   2.013   5.289 -0.2846 -0.1899 -0.2500
 4349SOL    HW124506   4.248   2.079   5.358 -0.2370  0.2097 -0.6349
 4349SOL    HW224507   4.225   1.941   5.348 -0.0229 -1.3199 -1.5112
 4350SOL     OW24508   0.918   4.691   5.166  0.2752 -0.0766 -0.1655
 4350SOL    HW124509   0.875   4.627   5.110 -1.8828  1.1233  0.1059
 4350SOL    HW224510   0.839   0.015   5.195  0.8168  0.1195  0.9801
 4351SOL     OW24511   2.311   1.425  15.781  0.1968  0.0514 -0.7147
 4351SOL    HW124512   2.338   1.508  15.741 -0.5217  0.2042 -0.8910
 4351SOL    HW224513   2.385   1.366  15.767  1.2236  0.7790  1.6678
 4352SOL     OW24514   2.224   4.126   3.052  0.0840 -0.1238  0.2909
 4352SOL    HW124515   2.282   4.094   2.982 -0.7419 -0.5191 -0.2140
 4352SOL    HW224516   2.194   4.205   3.007  0.2030  0.7281  1.7239
 4353SOL     OW24517   0.658   0.126   8.927  0.0046 -0.6034 -0.1972
 4353SOL    HW124518   0.732   0.160   8.877  0.1649  0.7748  0.9980
 4353SOL    HW224519   0.646   0.187   8.999 -1.5592 -1.7068  0.4781
 4354SOL     OW24520   1.260   1.478  13.259  0.0589 -0.2321  0.1763
 4354SOL    HW124521   1.243   1.489  13.353 -0.4319 -0.0543  0.0676
 4354SOL    HW224522   1.178   1.459  13.212 -1.8498  1.0402  2.9755
 4355SOL     OW24523   4.586   3.269   3.209 -0.5340  0.5296  0.1914
 4355SOL    HW124524   4.549   3.319   3.282  2.7670  0.3150  2.0691
 4355SOL    HW224525   4.585   3.331   3.136 -1.2896  0.1161 -0.1400
 4356SOL     OW24526   4.471   2.185   9.196  0.0287 -0.2811 -0.0135
 4356SOL    HW124527   4.429   2.099   9.192  0.5723 -0.5775  0.6274
 4356SOL    HW224528   4.534   2.168   9.266 -0.8073 -0.4481  0.7032
 4357SOL     OW24529   3.256   2.429   6.321  0.0962 -0.4595  0.0065
 4357SOL    HW124530   3.184   2.485   6.351 -1.9381 -3.2832  0.3055
 4357SOL    HW224531   3.244   2.421   6.227  2.9329  1.5603 -0.5214
 4358SOL     OW24532   0.649   0.577  12.175  0.0039 -0.6438 -0.0386
 4358SOL    HW124533   0.642   0.520  12.251 -1.7942  1.5346  1.4244
 4358SOL    HW224534   0.566   0.626  12.182  1.0746  1.1305  0.2719
 4359SOL     OW24535   3.851   3.796   2.497 -0.1355  0.3437  0.2811
 4359SOL    HW124536   3.759   3.798   2.524  0.3088  0.6430  1.7736
 4359SOL    HW224537   3.872   3.890   2.498  0.5576  0.2229 -4.5653
 4360SOL     OW24538   2.710   2.313   7.836  0.1150 -0.2313 -0.5579
 4360SOL    HW124539   2.732   2.392   7.885  1.2570 -0.7629 -0.2071
 4360SOL    HW224540   2.747   2.246   7.894  0.9200 -0.1029 -0.9316
 4361SOL     OW24541   1.462   1.040   5.882  0.0076  0.3522 -0.6188
 4361SOL    HW124542   1.552   1.055   5.910 -0.0195  1.8119 -1.3619
 4361SOL    HW224543   1.431   1.128   5.899 -0.0686  0.3190 -0.5866
 4362SOL     OW24544   2.017   0.136   8.255 -0.4798  0.2064  0.0386
 4362SOL    HW124545   1.940   0.180   8.219 -0.6872 -0.6418 -0.5618
 4362SOL    HW224546   2.082   0.136   8.185 -0.2950  0.0483  0.2075
 4363SOL     OW24547   4.306   0.084   1.939 -0.1775  0.1452 -0.6614
 4363SOL    HW124548   4.254   0.007   1.915  2.6706 -2.0501  0.1772
 4363SOL    HW224549   4.378   0.097   1.878  0.1947  0.7775 -0.0807
 4364SOL     OW24550   4.177   0.140   1.554  0.3900  0.0117  0.0141
 4364SOL    HW124551   4.131   0.179   1.628 -0.7153 -0.6476 -0.3325
 4364SOL    HW224552   4.164   0.045   1.559  0.3017  0.1526  2.2386
 4365SOL     OW24553   0.122   4.142   5.745 -0.3399  0.6721  0.6567
 4365SOL    HW124554   0.071   4.129   5.825  0.7050  2.2887  1.5964
 4365SOL    HW224555   0.085   4.222   5.708 -1.6975  0.3480  1.3159
 4366SOL     OW24556   0.991   0.545   5.545 -0.2266 -1.2146 -0.6144
 4366SOL    HW124557   0.970   0.551   5.452 -2.8215 -0.7102 -0.0220
 4366SOL    HW224558   1.086   0.549   5.540 -0.1498  0.0417  1.5524
 4367SOL     OW24559   0.853   4.413   3.526 -0.2398  0.1672  0.1003
 4367SOL    HW124560   0.926   4.463   3.562 -0.2650 -0.5406  1.1369
 4367SOL    HW224561   0.887   4.323   3.529 -0.7182 -0.1481 -4.0926
 4368SOL     OW24562   3.583   1.531   6.954  0.0795 -0.2046 -0.2054
 4368SOL    HW124563   3.515   1.596   6.969  1.9840  1.6109  0.6229
 4368SOL    HW224564   3.658   1.574   6.995  0.2048 -2.6006  2.1209
 4369SOL     OW24565   1.689   1.791  11.666  0.2550 -0.1896  0.8734
 4369SOL    HW124566   1.745   1.853  11.713  0.1722  1.5208 -1.2840
 4369SOL    HW224567   1.695   1.833  11.580 -0.6025  0.3192  1.0625
 4370SOL     OW24568   3.829   2.401   8.244  0.2757  0.1138 -0.3438
 4370SOL    HW124569   3.833   2.496   8.230  0.7152 -0.0444 -1.2796
 4370SOL    HW224570   3.741   2.385   8.279  0.7053 -1.3836  0.0650
 4371SOL     OW24571   4.566   3.089  13.762 -0.0561  0.0996  0.6736
 4371SOL    HW124572   4.487   3.130  13.798 -1.3853  0.2818 -2.4177
 4371SOL    HW224573   4.568   3.007  13.812  1.6144 -0.0763  0.3058
 4372SOL     OW24574   1.231   2.347   2.212 -0.1245  0.0158 -0.8104
 4372SOL    HW124575   1.317   2.387   2.220  0.4719 -1.4480  0.3367
 4372SOL    HW224576   1.241   2.300   2.129 -1.7556 -0.7752 -0.5713
 4373SOL     OW24577   3.081   0.632  15.677 -0.0100  1.1233  0.0979
 4373SOL    HW124578   3.048   0.721  15.691 -1.1522  1.1485 -2.6412
 4373SOL    HW224579   3.012   0.577  15.640 -1.0619  1.7668  1.1291
 4374SOL     OW24580   1.807   2.124   8.664  0.6418  0.5869  0.2779
 4374SOL    HW124581   1.753   2.068   8.720  1.6895 -0.1018  0.6060
 4374SOL    HW224582   1.890   2.076   8.665  0.3274  0.0356 -0.6471
 4375SOL     OW24583   2.858   4.521   1.195 -0.3786 -1.1519 -0.8107
 4375SOL    HW124584   2.873   4.430   1.219  1.4234 -1.0682 -1.6552
 4375SOL    HW224585   2.840   4.525   1.101 -0.0886 -0.9889 -0.8594
 4376SOL     OW24586   0.844   3.485  14.282  0.0943 -0.3883  0.7185
 4376SOL    HW124587   0.926   3.437  14.296 -0.3117 -1.7677 -1.4740
 4376SOL    HW224588   0.784   3.443  14.343 -1.1751  0.7993  0.2871
 4377SOL     OW24589   2.801   2.027   6.978 -0.0488  0.5244  0.1518
 4377SOL    HW124590   2.809   2.119   7.002  2.8039  0.0504  1.0211
 4377SOL    HW224591   2.889   1.995   6.996  0.7753  1.2445 -2.6032
 4378SOL     OW24592   2.264   1.888   9.229 -0.6380 -0.8744  0.0803
 4378SOL    HW124593   2.229   1.947   9.295  0.0104 -0.9721  0.5126
 4378SOL    HW224594   2.221   1.809   9.262 -0.8965 -0.6146  0.3617
 4379SOL     OW24595   4.420   1.070  15.980 -0.1222 -0.2098 -0.9317
 4379SOL    HW124596   4.382   1.093  16.065  0.9043  2.1943 -1.1334
 4379SOL    HW224597   4.393   1.141  15.923 -2.2832 -0.8331 -0.6865
 4380SOL     OW24598   1.445   4.635   7.662  0.0558  0.3777 -0.0281
 4380SOL    HW124599   1.413   4.715   7.621  0.8156  0.1955 -0.9725
 4380SOL    HW224600   1.446   4.586   7.580 -1.5782  0.2386  0.0449
 4381SOL     OW24601   4.096   1.262  17.252 -0.2895  0.3440 -0.3072
 4381SOL    HW124602   4.131   1.177  17.279 -1.2475  0.8346  2.4374
 4381SOL    HW224603   4.052   1.243  17.169  0.1262 -1.5640 -0.0899
 4382SOL     OW24604   3.797   3.664  13.742 -0.2394 -0.0430 -0.2888
 4382SOL    HW124605   3.809   3.706  13.827 -0.7841 -0.6896  0.1060
 4382SOL    HW224606   3.781   3.739  13.685  2.6225  1.0822  0.3758
 4383SOL     OW24607   1.520   2.742  11.159  0.7062 -0.0135  0.8229
 4383SOL    HW124608   1.486   2.798  11.089  0.1917 -0.3747  0.7832
 4383SOL    HW224609   1.612   2.761  11.143  1.0172 -1.5306  0.7822
 4384SOL     OW24610   3.450   1.498   5.374 -0.2809 -0.7451 -0.0975
 4384SOL    HW124611   3.511   1.554   5.326 -0.2231 -1.5913 -1.0072
 4384SOL    HW224612   3.441   1.537   5.461 -1.7178 -2.5084  0.5536
 4385SOL     OW24613   0.632   3.752   9.977 -0.6396  0.4904 -0.1882
 4385SOL    HW124614   0.547   3.762  10.018 -0.4023  1.8247 -0.0300
 4385SOL    HW224615   0.665   3.673  10.019 -1.9908  0.4855  0.8433
 4386SOL     OW24616   2.229   1.299   2.714  0.7221  0.1196 -0.4041
 4386SOL    HW124617   2.227   1.358   2.639 -1.4101  0.6771  0.0896
 4386SOL    HW224618   2.145   1.254   2.704  0.0952  0.6941  2.4488
 4387SOL     OW24619   1.831   0.259  11.711  0.1451 -0.4298  0.0949
 4387SOL    HW124620   1.754   0.204  11.723  1.1222 -1.5047  1.3373
 4387SOL    HW224621   1.805   0.318  11.640 -3.5504 -1.0743  0.9348
 4388SOL     OW24622   2.892   3.606   6.337  0.1917 -0.3928 -0.1082
 4388SOL    HW124623   2.806   3.649   6.341  0.3800 -0.0471  0.1998
 4388SOL    HW224624   2.851   3.521   6.355  1.4173 -1.5854 -2.9531
 4389SOL     OW24625   2.184   2.766   4.021 -0.0841 -0.2198 -0.3335
 4389SOL    HW124626   2.254   2.702   4.021 -0.6541 -0.8292  0.5096
 4389SOL    HW224627   2.114   2.714   4.060 -2.6741  1.8831 -2.1084
 4390SOL     OW24628   2.885   4.165  15.035 -0.2273  0.6241  0.1612
 4390SOL    HW124629   2.864   4.212  14.954 -1.4316  0.2918  0.2828
 4390SOL    HW224630   2.906   4.078  15.002  0.8916  0.0434  2.4434
 4391SOL     OW24631   3.927   3.659  15.829  0.0095  0.1958 -0.3749
 4391SOL    HW124632   3.839   3.640  15.796 -0.0951 -1.9134  1.1178
 4391SOL    HW224633   3.962   3.570  15.823  0.7881  0.4492  0.3246
 4392SOL     OW24634   2.600   3.770   2.923  0.3551  0.2390  0.6846
 4392SOL    HW124635   2.693   3.766   2.902  0.1376  4.2152 -1.0525
 4392SOL    HW224636   2.574   3.804   2.838  2.3892  0.6212  0.2346
 4393SOL     OW24637   0.493   4.257   7.810 -0.1130  0.4105  0.5474
 4393SOL    HW124638   0.555   4.281   7.879  0.3784 -0.5727  0.4459
 4393SOL    HW224639   0.415   4.239   7.862  0.2769  0.1254  1.0303
 4394SOL     OW24640   1.249   2.706   4.362 -0.0567  0.2865 -0.5554
 4394SOL    HW124641   1.218   2.627   4.317  1.2173  0.6694 -2.1218
 4394SOL    HW224642   1.268   2.759   4.284 -0.2912  2.1390  0.6452
 4395SOL     OW24643   3.447   0.780  15.024 -0.2981  0.6275 -0.6488
 4395SOL    HW124644   3.369   0.816  14.983 -0.9177  1.4951  1.3440
 4395SOL    HW224645   3.503   0.792  14.947  0.1710 -1.8262 -0.6975
 4396SOL     OW24646   4.351   0.807   5.573 -0.1180 -0.4085  0.3458
 4396SOL    HW124647   4.440   0.795   5.541 -0.2336 -0.5652  0.0798
 4396SOL    HW224648   4.358   0.787   5.667  0.5664 -0.7414  0.2227
 4397SOL     OW24649   4.592   3.482   4.197  0.0613  0.3868 -0.1003
 4397SOL    HW124650   4.672   3.509   4.152 -0.2232  1.6158  0.1282
 4397SOL    HW224651   4.583   3.552   4.261 -1.5621  0.8361 -0.8201
 4398SOL     OW24652   2.051   2.017  17.629 -0.1917 -0.0259  0.1606
 4398SOL    HW124653   1.978   2.065  17.589 -0.4993 -0.5711  0.0714
 4398SOL    HW224654   2.094   1.980  17.552  1.7235  1.4793  0.4989
 4399SOL     OW24655   2.361   2.933   7.092 -0.6718  0.4736  0.5532
 4399SOL    HW124656   2.379   2.867   7.024  2.0490  1.6413  0.1403
 4399SOL    HW224657   2.329   2.874   7.160  0.2124  0.0453  0.5981
 4400SOL     OW24658   1.239   0.963   5.758 -0.2350 -0.0863 -0.1452
 4400SOL    HW124659   1.231   0.870   5.781 -2.0643  0.0639 -0.1168
 4400SOL    HW224660   1.315   0.985   5.810  1.0301  0.9650 -2.4600
 4401SOL     OW24661   3.465   0.122   9.620 -0.3814  0.0381  0.1648
 4401SOL    HW124662   3.436   0.180   9.690  1.5178  1.5441 -0.3206
 4401SOL    HW224663   3.470   0.179   9.544 -0.2359 -0.0457  0.1127
 4402SOL     OW24664   2.662   2.688   1.988 -0.9989  0.1543 -0.1011
 4402SOL    HW124665   2.690   2.699   1.897  2.5413  0.2256  0.9818
 4402SOL    HW224666   2.726   2.623   2.020 -0.4071  0.7046 -0.1629
 4403SOL     OW24667   0.664   0.449   4.577 -0.2331  0.3241 -0.1663
 4403SOL    HW124668   0.661   0.365   4.531 -0.0123  0.2257 -0.0011
 4403SOL    HW224669   0.672   0.512   4.505  0.1811  0.9800  0.4634
 4404SOL     OW24670   1.418   3.231  15.899  0.0942 -0.2823 -0.0922
 4404SOL    HW124671   1.504   3.268  15.878  0.1031 -1.2572 -1.7958
 4404SOL    HW224672   1.439   3.141  15.872  0.1713 -0.1431 -0.4977
 4405SOL     OW24673   3.620   1.777   9.899 -0.2091  0.3442 -0.4717
 4405SOL    HW124674   3.601   1.703   9.956 -1.2556  1.4047  0.5723
 4405SOL    HW224675   3.645   1.834   9.972 -1.6437 -1.7275  1.6216
 4406SOL     OW24676   1.037   0.460   6.432 -0.0940  0.3773  0.3890
 4406SOL    HW124677   1.062   0.399   6.362  0.2986 -0.3989  1.2043
 4406SOL    HW224678   1.073   0.544   6.404 -0.8653 -0.0873 -2.0147
 4407SOL     OW24679   3.988   0.505  15.794 -0.3051  0.1387  0.0168
 4407SOL    HW124680   3.968   0.494  15.887  0.1815 -0.5751  0.0397
 4407SOL    HW224681   4.084   0.506  15.790 -0.3043  2.5319  1.0485
 4408SOL     OW24682   3.407   4.111   6.839  0.4106  0.4625 -0.8912
 4408SOL    HW124683   3.467   4.050   6.880 -2.9725 -2.2607  0.0490
 4408SOL    HW224684   3.431   4.088   6.749  1.2406 -1.5182 -0.1490
 4409SOL     OW24685   0.022   1.717   3.534  0.0461 -0.3787 -0.3963
 4409SOL    HW124686   0.003   1.625   3.556 -1.6908  0.0101 -0.2850
 4409SOL    HW224687   4.677   1.767   3.579  1.5361  0.7453  0.6042
 4410SOL     OW24688   0.440   4.383   4.564  0.5366 -0.4308 -0.5416
 4410SOL    HW124689   0.450   4.296   4.523  1.9351  0.3456 -1.8711
 4410SOL    HW224690   0.394   4.428   4.494 -2.5855 -1.4447  0.8813
 4411SOL     OW24691   3.535   3.386   6.793  0.1674 -0.1162 -0.3648
 4411SOL    HW124692   3.448   3.363   6.825  0.9028 -1.3860  0.7652
 4411SOL    HW224693   3.529   3.469   6.747 -1.4832  0.1235  0.3056
 4412SOL     OW24694   4.690   1.776  15.509 -0.2567  0.0380 -0.6307
 4412SOL    HW124695   4.694   1.693  15.461  1.7727 -0.1009 -0.2255
 4412SOL    HW224696   4.615   1.750  15.561  0.5605 -1.3182 -0.1391
 4413SOL     OW24697   0.402   2.949  11.889  0.9054 -0.0803 -0.1065
 4413SOL    HW124698   0.424   3.039  11.862  1.4571 -0.2998 -0.3904
 4413SOL    HW224699   0.421   2.945  11.982  0.5395  2.3650  0.0798
 4414SOL     OW24700   4.540   4.299   7.937 -0.5562  0.1017  0.3612
 4414SOL    HW124701   4.579   4.275   8.021  3.2781 -0.8112 -1.6935
 4414SOL    HW224702   4.581   4.240   7.873 -0.0219 -0.9697  1.7010
 4415SOL     OW24703   4.513   4.613  11.200 -0.0943 -0.3901  0.6942
 4415SOL    HW124704   4.508   4.670  11.277 -0.4328  0.9969 -0.3522
 4415SOL    HW224705   4.421   4.588  11.205  0.2202 -1.3836  1.5228
 4416SOL     OW24706   4.404   1.699   0.943  0.4369 -0.6370  0.1979
 4416SOL    HW124707   4.347   1.668   0.873 -0.3709 -0.8877  0.9604
 4416SOL    HW224708   4.377   1.630   1.004 -0.6100 -0.5485 -0.1700
 4417SOL     OW24709   2.490   3.208  16.117 -0.3069  0.1235 -0.6439
 4417SOL    HW124710   2.468   3.295  16.150 -2.2542 -0.5291 -0.2042
 4417SOL    HW224711   2.517   3.234  16.029  0.7986  0.6249 -0.1592
 4418SOL     OW24712   3.182   0.301   8.840  0.6126  0.1351  0.0252
 4418SOL    HW124713   3.214   0.371   8.897 -1.3688  1.4101 -0.3970
 4418SOL    HW224714   3.090   0.328   8.841  0.4718 -0.3301 -1.3570
 4419SOL     OW24715   2.012   4.579   1.486  0.2671  0.3948 -0.4748
 4419SOL    HW124716   1.983   4.588   1.395 -2.0839 -0.3990  0.1983
 4419SOL    HW224717   1.935   4.622   1.523 -0.3499 -1.6502  0.5712
 4420SOL     OW24718   1.055   4.330   9.261 -0.1895  0.3283 -0.0747
 4420SOL    HW124719   1.028   4.240   9.278  1.4244 -0.2132 -0.3267
 4420SOL    HW224720   1.066   4.370   9.347  0.5364 -1.3185  0.5872
 4421SOL     OW24721   3.386   4.665   6.564 -0.3354 -0.4055  0.7333
 4421SOL    HW124722   3.424   4.583   6.598  0.3655 -0.2334  0.3604
 4421SOL    HW224723   3.308   4.637   6.516 -0.7603  2.3627 -0.1874
 4422SOL     OW24724   1.957   3.435  13.521 -0.2091  0.1974  0.4778
 4422SOL    HW124725   1.910   3.500  13.470 -1.6865 -1.1904  0.0855
 4422SOL    HW224726   1.946   3.356  13.469 -0.0334  0.2221  0.4018
 4423SOL     OW24727   1.019   4.645  15.364 -0.1774  0.3372 -0.5614
 4423SOL    HW124728   1.082   4.679  15.428 -0.5060  1.4826 -0.8557
 4423SOL    HW224729   1.078   4.590  15.312 -0.6319 -0.8497  0.1666
 4424SOL     OW24730   0.789   3.565   0.651  0.3952  0.0068  0.4057
 4424SOL    HW124731   0.787   3.658   0.631  2.5149 -0.0960 -0.3402
 4424SOL    HW224732   0.697   3.543   0.636  0.5945 -0.0070 -0.7506
 4425SOL     OW24733   1.556   4.152   5.739 -0.4933  0.1970 -0.0034
 4425SOL    HW124734   1.470   4.180   5.768 -0.2062 -0.5683  1.5744
 4425SOL    HW224735   1.583   4.243   5.725  1.8360 -0.4996  0.0257
 4426SOL     OW24736   2.264   2.098   4.831  0.5190  0.6316 -0.5985
 4426SOL    HW124737   2.237   2.010   4.858 -2.2953  1.4847 -0.6920
 4426SOL    HW224738   2.216   2.108   4.749 -0.3931 -1.4358 -0.3180
 4427SOL     OW24739   1.808   1.783  15.501  0.5295 -0.0960 -0.7107
 4427SOL    HW124740   1.716   1.757  15.506  0.2255  1.0993  0.0925
 4427SOL    HW224741   1.817   1.871  15.538  0.1915 -0.3035 -0.1413
 4428SOL     OW24742   1.478   2.815   9.840  0.3784 -0.6757  0.1699
 4428SOL    HW124743   1.385   2.802   9.821  0.1488 -2.2978  2.3715
 4428SOL    HW224744   1.478   2.841   9.932  0.3003 -0.8999  0.2339
 4429SOL     OW24745   2.124   3.569   5.199  0.5585 -0.4758 -0.1276
 4429SOL    HW124746   2.148   3.644   5.145  0.7584 -0.5144 -0.0907
 4429SOL    HW224747   2.211   3.549   5.234 -0.3997 -2.2997  1.1958
 4430SOL     OW24748   0.050   3.368   0.543 -0.0808 -0.5018  0.3656
 4430SOL    HW124749   4.697   3.373   0.485 -0.7499 -0.0400  1.2917
 4430SOL    HW224750   0.032   3.277   0.565  0.5747 -0.3702  1.4548
 4431SOL     OW24751   1.528   1.886   9.358  0.1665 -0.1841  0.2661
 4431SOL    HW124752   1.461   1.818   9.352  1.4786 -1.4647  0.1577
 4431SOL    HW224753   1.530   1.928   9.272 -0.7476 -1.1892 -0.2421
 4432SOL     OW24754   3.822   4.375  16.245  0.2574  0.3433  0.6369
 4432SOL    HW124755   3.840   4.446  16.183  0.9532  0.8020  1.3493
 4432SOL    HW224756   3.872   4.402  16.323  0.4966  2.7760 -0.3476
 4433SOL     OW24757   0.797   3.827   0.619 -0.3394  0.1883 -0.1611
 4433SOL    HW124758   0.754   3.901   0.576  0.0752  0.3856 -0.2457
 4433SOL    HW224759   0.768   3.830   0.710  0.4064 -0.1969  0.0947
 4434SOL     OW24760   4.084   3.112  12.599 -0.6391 -0.4473 -0.1302
 4434SOL    HW124761   4.039   3.181  12.648  0.5106 -0.2060  0.5812
 4434SOL    HW224762   4.068   3.137  12.508  1.6656  1.9024  0.1053
 4435SOL     OW24763   2.699   2.031   7.366 -0.9794 -0.3696  0.3279
 4435SOL    HW124764   2.649   2.110   7.350  0.6330  0.0078 -2.7165
 4435SOL    HW224765   2.790   2.058   7.374 -0.4749 -2.0055  0.1338
 4436SOL     OW24766   2.177   1.890   2.618  0.3519  0.6766 -0.5129
 4436SOL    HW124767   2.084   1.876   2.637  0.5729  1.5141  1.1851
 4436SOL    HW224768   2.180   1.914   2.525  0.4269 -1.3627 -1.0471
 4437SOL     OW24769   2.054   0.923  17.671  0.4953  0.3795  0.1146
 4437SOL    HW124770   1.961   0.903  17.686  0.0365 -0.3319 -3.6261
 4437SOL    HW224771   2.089   0.836  17.689  0.5853  0.2721 -0.5729
 4438SOL     OW24772   1.595   3.550   0.154 -0.7671 -0.0314  0.0415
 4438SOL    HW124773   1.573   3.467   0.196  3.9054 -0.0101  2.4985
 4438SOL    HW224774   1.524   3.605   0.187 -0.1955  0.5603  0.2783
 4439SOL     OW24775   0.784   1.309   8.591  0.2977  0.1459 -0.4183
 4439SOL    HW124776   0.724   1.374   8.629 -1.8105 -2.7031  1.1355
 4439SOL    HW224777   0.849   1.328   8.658 -0.1057 -2.6065  0.7633
 4440SOL     OW24778   4.380   4.345   9.007  0.8852 -0.1494  0.1192
 4440SOL    HW124779   4.348   4.333   9.097  0.3050 -0.0647 -0.0723
 4440SOL    HW224780   4.471   4.321   9.023  1.0018 -0.6311 -1.2502
 4441SOL     OW24781   2.479   1.674   2.374  0.3168  0.6049 -0.2608
 4441SOL    HW124782   2.391   1.687   2.410  0.8185 -1.0765  1.5581
 4441SOL    HW224783   2.497   1.763   2.344  0.5609  0.5829 -0.1745
 4442SOL     OW24784   0.086   1.900   5.548  0.6479  0.3235  0.8461
 4442SOL    HW124785   0.069   1.808   5.567 -0.1885  0.6232  1.5547
 4442SOL    HW224786   0.092   1.936   5.636 -0.9517  2.1804  0.1958
 4443SOL     OW24787   1.065   0.153   9.203 -0.3542 -0.3721  0.0976
 4443SOL    HW124788   0.978   0.130   9.233 -0.5207 -0.1264 -0.1870
 4443SOL    HW224789   1.128   0.121   9.267  0.1967  1.0034  0.2468
 4444SOL     OW24790   2.599   1.496  15.676 -0.0247 -0.0333 -0.2899
 4444SOL    HW124791   2.674   1.533  15.723  0.6997 -1.2956 -0.4449
 4444SOL    HW224792   2.603   1.408  15.714  1.4277  0.8873  1.7054
 4445SOL     OW24793   3.473   2.560   6.465 -0.4461 -0.4237  0.2648
 4445SOL    HW124794   3.405   2.521   6.411  0.8542 -0.9236 -1.0333
 4445SOL    HW224795   3.546   2.504   6.438  1.4281  1.9255  0.3937
 4446SOL     OW24796   2.845   4.413   2.487 -0.4110  0.4889 -0.5006
 4446SOL    HW124797   2.851   4.413   2.392 -0.8944 -1.8965 -0.5125
 4446SOL    HW224798   2.795   4.337   2.516  1.2649 -0.6931 -0.7527
 4447SOL     OW24799   0.849   3.830  11.116  0.9494 -0.2791  0.1604
 4447SOL    HW124800   0.799   3.755  11.148 -0.8692  0.4222 -1.0287
 4447SOL    HW224801   0.901   3.788  11.048  0.6394  0.2621 -0.4066
 4448SOL     OW24802   3.737   1.075   3.154 -1.0031 -0.3652 -0.3373
 4448SOL    HW124803   3.815   1.117   3.191 -0.7985 -0.3791 -0.7442
 4448SOL    HW224804   3.669   1.136   3.181 -0.2077  0.8658 -1.1158
 4449SOL     OW24805   0.256   1.091   8.428  0.1484  0.2013 -0.4371
 4449SOL    HW124806   0.233   1.032   8.500 -2.0062  1.8996  0.2797
 4449SOL    HW224807   0.175   1.142   8.423  1.4426  2.1629 -1.2666
 4450SOL     OW24808   1.616   2.531  15.919 -0.5156 -0.0375  0.1247
 4450SOL    HW124809   1.664   2.574  15.848 -1.0070 -1.1823 -0.9095
 4450SOL    HW224810   1.688   2.511  15.980 -1.1207  2.3191  1.6015
 4451SOL     OW24811   1.323   2.822   8.261  0.8861  0.6032 -0.7344
 4451SOL    HW124812   1.297   2.864   8.342  0.4062 -0.1430 -0.4977
 4451SOL    HW224813   1.368   2.746   8.297  0.7758  1.7461  1.7554
 4452SOL     OW24814   3.493   2.598   8.103 -0.5121 -0.0705 -0.5701
 4452SOL    HW124815   3.480   2.517   8.152 -0.3873  0.6380  0.6360
 4452SOL    HW224816   3.439   2.661   8.152 -0.0663  0.3580 -0.6357
 4453SOL     OW24817   1.301   4.211  17.166 -0.3334 -0.3355  0.1149
 4453SOL    HW124818   1.358   4.279  17.128 -1.1083  1.3893  2.0607
 4453SOL    HW224819   1.258   4.192  17.083  0.8058  1.2383 -0.8444
 4454SOL     OW24820   0.253   0.828  16.779  0.4336 -0.1247  0.4640
 4454SOL    HW124821   0.291   0.851  16.694 -0.9573  1.1032  0.1839
 4454SOL    HW224822   0.285   0.739  16.790 -0.0604 -0.5136 -1.1961
 4455SOL     OW24823   3.799   4.390   1.135  0.4273 -0.0715  0.5080
 4455SOL    HW124824   3.872   4.449   1.152  1.3413 -0.3312 -2.4801
 4455SOL    HW224825   3.772   4.367   1.224  0.8043  2.1842  1.2116
 4456SOL     OW24826   0.175   1.802  11.627 -0.7449  0.5782 -0.5405
 4456SOL    HW124827   0.089   1.761  11.641 -0.1670 -0.6475 -0.5973
 4456SOL    HW224828   0.217   1.743  11.565  0.7192  0.7210  0.3187
 4457SOL     OW24829   1.159   1.072   7.866  0.2000  0.4463  0.6395
 4457SOL    HW124830   1.118   1.109   7.788 -0.3188  0.8721  1.1148
 4457SOL    HW224831   1.087   1.024   7.908 -1.0336 -0.0575 -2.0268
 4458SOL     OW24832   0.526   2.187   8.088 -0.2332  0.0776 -0.4729
 4458SOL    HW124833   0.538   2.179   8.183  1.0184 -0.6774 -0.7003
 4458SOL    HW224834   0.559   2.275   8.071 -3.4472  1.6898  1.6311
 4459SOL     OW24835   0.333   0.106   9.705 -0.0882  0.0187  0.1169
 4459SOL    HW124836   0.398   0.056   9.655  1.1638  0.8847  0.8827
 4459SOL    HW224837   0.349   0.081   9.795 -0.9089 -0.0257  0.2481
 4460SOL     OW24838   3.168   1.532   7.680 -0.0252 -0.4444  0.4630
 4460SOL    HW124839   3.137   1.570   7.598 -1.5036 -0.5829  0.9573
 4460SOL    HW224840   3.177   1.610   7.735 -0.1794 -0.3065  0.2937
 4461SOL     OW24841   2.146   0.542  14.435 -0.8702 -0.0308  0.3404
 4461SOL    HW124842   2.184   0.626  14.461 -0.2623 -0.4200  0.7064
 4461SOL    HW224843   2.094   0.518  14.512 -0.1882 -2.6451 -0.0031
 4462SOL     OW24844   2.115   1.465   7.073  0.3648 -0.0245 -0.1769
 4462SOL    HW124845   2.035   1.483   7.025  0.4055  0.1465 -0.1779
 4462SOL    HW224846   2.178   1.520   7.027  0.7260 -1.3831 -1.3220
 4463SOL     OW24847   2.689   0.116  11.397  0.2197 -0.3669 -0.5925
 4463SOL    HW124848   2.718   0.046  11.455 -1.0830 -0.4745 -0.0684
 4463SOL    HW224849   2.713   0.191  11.451 -0.3801 -0.4141 -0.2568
 4464SOL     OW24850   4.380   0.921  16.529  0.5582  0.6655 -0.5299
 4464SOL    HW124851   4.430   1.002  16.529 -0.0061  1.0162  0.4131
 4464SOL    HW224852   4.334   0.942  16.447 -0.5210 -1.1088 -0.3834
 4465SOL     OW24853   0.162   4.719  11.324  0.5203  0.5411  0.3635
 4465SOL    HW124854   0.103   0.008  11.399  0.5475  0.4017  0.4068
 4465SOL    HW224855   0.153   4.624  11.325  0.6335  0.5433  2.0212
 4466SOL     OW24856   4.494   2.209  13.882 -0.4820 -0.0440 -0.3325
 4466SOL    HW124857   4.549   2.134  13.902 -0.0511  0.6819  1.1935
 4466SOL    HW224858   4.519   2.233  13.793  0.8743  0.2825  0.1431
 4467SOL     OW24859   0.308   0.874   9.173  0.1140  0.2254  0.1526
 4467SOL    HW124860   0.217   0.894   9.151  0.4996 -0.9913 -2.5986
 4467SOL    HW224861   0.348   0.894   9.088 -0.5617  0.9987  0.0185
 4468SOL     OW24862   4.713   2.607   6.329  0.1840  0.2257  0.6281
 4468SOL    HW124863   4.659   2.679   6.362 -1.8382 -0.2729 -1.5921
 4468SOL    HW224864   4.653   2.542   6.293  0.3274  0.1554  0.5183
 4469SOL     OW24865   4.451   0.200   8.025  0.2628 -0.4643  0.1511
 4469SOL    HW124866   4.498   0.196   8.108 -2.3629  2.4883  1.7472
 4469SOL    HW224867   4.526   0.177   7.969  0.2824 -0.3773  0.1412
 4470SOL     OW24868   3.061   0.885   5.163  0.0793 -0.2703  0.4863
 4470SOL    HW124869   3.131   0.941   5.131  0.9166 -1.1057  0.8329
 4470SOL    HW224870   3.078   0.802   5.117 -1.0147 -0.4368  0.3979
 4471SOL     OW24871   4.211   1.514   8.069  0.3889  0.0669 -0.9566
 4471SOL    HW124872   4.281   1.578   8.063 -1.3553  2.2364  2.2721
 4471SOL    HW224873   4.139   1.576   8.074  1.1664  0.9359 -0.5823
 4472SOL     OW24874   2.379   0.234   4.789 -0.0316  0.3719  0.3650
 4472SOL    HW124875   2.470   0.204   4.785  0.3184  1.5784 -0.7034
 4472SOL    HW224876   2.326   0.155   4.796  1.5618 -0.7778 -0.7244
 4473SOL     OW24877   2.318   1.663   7.091  0.0324 -0.0463  0.3682
 4473SOL    HW124878   2.400   1.710   7.104 -0.2640  0.1376  1.6102
 4473SOL    HW224879   2.262   1.733   7.057  0.6341  0.1306 -0.2569
 4474SOL     OW24880   3.119   3.466   6.184  0.4491 -0.4489 -0.1603
 4474SOL    HW124881   3.051   3.526   6.215  1.7482  0.1011  1.6502
 4474SOL    HW224882   3.075   3.415   6.116 -0.0173  0.4987 -0.5634
 4475SOL     OW24883   2.624   2.543  16.809  0.6305 -0.0897  0.3087
 4475SOL    HW124884   2.625   2.544  16.905  0.9358  0.3240  0.2995
 4475SOL    HW224885   2.588   2.459  16.779 -0.8768  0.6117  0.1479
 4476SOL     OW24886   1.691   1.717   2.335  0.6199 -0.5487  0.2752
 4476SOL    HW124887   1.721   1.766   2.258  1.5582 -1.1461  0.2584
 4476SOL    HW224888   1.667   1.634   2.293 -2.1908 -0.6000  1.9676
 4477SOL     OW24889   0.591   1.490  16.036 -0.5342  0.0216  0.0752
 4477SOL    HW124890   0.560   1.426  15.972 -0.9181  0.8396 -0.5637
 4477SOL    HW224891   0.657   1.433  16.075 -0.4405 -1.0442 -1.6329
 4478SOL     OW24892   2.319   0.748   6.571 -0.2259  0.5464  0.3284
 4478SOL    HW124893   2.347   0.833   6.537 -2.1617  0.5541 -1.2444
 4478SOL    HW224894   2.287   0.779   6.656 -2.3113 -0.4058 -0.1156
 4479SOL     OW24895   1.178   3.083  16.865 -0.3031  0.3565  0.4613
 4479SOL    HW124896   1.149   3.126  16.945 -0.5737  3.2157 -1.1923
 4479SOL    HW224897   1.094   3.089  16.820 -1.3186  1.1351  2.4902
 4480SOL     OW24898   0.077   4.146   0.693  0.5527  0.2348  0.3362
 4480SOL    HW124899   0.012   4.080   0.716  0.1073  0.5771  0.0720
 4480SOL    HW224900   0.120   4.162   0.777  0.9931 -0.1901  0.1878
 4481SOL     OW24901   1.208   2.060   0.290 -0.2967 -0.1179  0.0564
 4481SOL    HW124902   1.233   2.015   0.371  1.4486 -0.4168 -0.6435
 4481SOL    HW224903   1.280   2.122   0.285  0.6565 -1.3606 -1.5518
 4482SOL     OW24904   2.314   4.187   7.125  0.6954  0.3075  0.4052
 4482SOL    HW124905   2.380   4.207   7.191  2.9730 -1.2270 -1.4122
 4482SOL    HW224906   2.351   4.232   7.049  0.4665 -3.0761 -1.7096
 4483SOL     OW24907   0.986   3.717   9.709  0.0168  0.6601  0.1615
 4483SOL    HW124908   0.910   3.669   9.675 -1.2074  2.5256  0.2499
 4483SOL    HW224909   0.935   3.785   9.753 -0.8063 -0.7835  1.4493
 4484SOL     OW24910   4.447   3.049   6.783  0.5349 -0.0835  0.1852
 4484SOL    HW124911   4.424   3.064   6.874  0.4556 -0.0033  0.1521
 4484SOL    HW224912   4.521   2.991   6.798  1.5737  0.5152 -2.5292
 4485SOL     OW24913   0.156   4.657   4.206 -0.1048  0.1526 -0.1439
 4485SOL    HW124914   0.136   4.687   4.295  0.3534  0.9416 -0.3042
 4485SOL    HW224915   0.252   4.659   4.200  0.0883 -0.2902  2.6551
 4486SOL     OW24916   3.004   1.714  15.891 -0.3330 -0.3584  0.5546
 4486SOL    HW124917   2.971   1.804  15.891  1.1380  0.1901  0.2249
 4486SOL    HW224918   2.978   1.677  15.807  0.1162 -0.9021  0.6543
 4487SOL     OW24919   0.672   1.924   4.826  0.1086  0.2936  0.1324
 4487SOL    HW124920   0.754   1.908   4.779  1.2019  0.4499  1.9807
 4487SOL    HW224921   0.624   1.847   4.797 -2.1928  1.5877  0.5393
 4488SOL     OW24922   1.974   1.392   3.147  0.2561 -0.2708 -0.2007
 4488SOL    HW124923   2.060   1.391   3.106 -0.4031 -0.0460 -1.6192
 4488SOL    HW224924   2.004   1.416   3.234  0.4285  1.7023 -0.7904
 4489SOL     OW24925   3.253   0.005   6.070 -0.4650 -0.0090  0.0940
 4489SOL    HW124926   3.337   0.041   6.096 -0.2517 -1.2742  1.1901
 4489SOL    HW224927   3.205   0.087   6.065  2.1200  1.5015  0.6075
 4490SOL     OW24928   1.277   2.831  11.462 -0.7831  0.1579  0.1612
 4490SOL    HW124929   1.268   2.916  11.420  2.7523  1.2101  1.4969
 4490SOL    HW224930   1.351   2.860  11.516 -0.4724  0.5096 -0.4571
 4491SOL     OW24931   1.953   3.157   5.230 -0.1247  0.0779  0.0921
 4491SOL    HW124932   1.871   3.127   5.270 -1.1085 -0.9861 -2.6747
 4491SOL    HW224933   1.927   3.212   5.157  0.0972  0.0484 -0.0090
 4492SOL     OW24934   0.621   2.381   2.480  0.2447 -0.6294  0.2301
 4492SOL    HW124935   0.628   2.306   2.421 -1.0181 -0.5635  0.0001
 4492SOL    HW224936   0.561   2.446   2.444 -0.3868 -2.2912 -1.7672
 4493SOL     OW24937   3.281   1.057   2.641  0.4594 -0.0365  0.2236
 4493SOL    HW124938   3.250   1.072   2.731  0.0195  1.8770 -0.2426
 4493SOL    HW224939   3.372   1.073   2.665  0.5726 -0.7428  0.2663
 4494SOL     OW24940   3.012   3.520   2.984  0.3827  0.2533 -0.2982
 4494SOL    HW124941   3.011   3.533   2.889  0.1801  2.7091  0.0397
 4494SOL    HW224942   3.079   3.579   3.020  0.1134  0.1096  0.4462
 4495SOL     OW24943   3.209   3.038   6.053  0.0141  0.7829 -0.4966
 4495SOL    HW124944   3.197   2.962   5.996  0.8593  0.5386 -0.3456
 4495SOL    HW224945   3.151   3.007   6.122  0.1202  1.8346  0.0632
 4496SOL     OW24946   3.326   1.541  13.916 -0.3682 -0.5406 -0.0427
 4496SOL    HW124947   3.371   1.556  13.833  0.0499  2.2285  0.6834
 4496SOL    HW224948   3.239   1.536  13.877 -0.7986  3.0073  0.4631
 4497SOL     OW24949   0.678   4.691   7.240  0.3472 -0.1215  0.5397
 4497SOL    HW124950   0.740   0.029   7.201  1.5767 -1.5647  0.2449
 4497SOL    HW224951   0.734   4.613   7.245  0.5064 -0.1051 -0.8951
 4498SOL     OW24952   1.444   2.759  15.883 -0.2257  0.0894  0.2382
 4498SOL    HW124953   1.491   2.687  15.924 -1.2751  0.0696  1.3970
 4498SOL    HW224954   1.382   2.780  15.953 -2.1109  0.3001 -1.4806
 4499SOL     OW24955   3.133   0.594   7.348 -0.2131  0.5367  0.4172
 4499SOL    HW124956   3.112   0.685   7.369  2.0722  1.0587  0.4084
 4499SOL    HW224957   3.061   0.579   7.287  0.7137  1.2545 -0.8512
 4500SOL     OW24958   3.125   2.136  11.778  0.0551 -0.4696 -0.5834
 4500SOL    HW124959   3.113   2.045  11.804  0.1149 -0.5376 -0.7921
 4500SOL    HW224960   3.105   2.190  11.855 -0.4203  1.0747 -1.7903
 4501SOL     OW24961   4.051   2.530   6.776 -0.5781 -0.2444  0.0416
 4501SOL    HW124962   3.955   2.530   6.775 -0.5397 -0.2205 -3.1509
 4501SOL    HW224963   4.068   2.436   6.769 -1.1329 -0.3721  0.4513
 4502SOL     OW24964   1.819   1.137   0.892 -0.1216  0.2248  0.0495
 4502SOL    HW124965   1.798   1.170   0.980 -2.9749 -0.4243 -0.4129
 4502SOL    HW224966   1.744   1.166   0.841  1.1448  1.0716 -1.3498
 4503SOL     OW24967   3.229   4.208   4.470 -0.4062  0.0838  0.0465
 4503SOL    HW124968   3.223   4.211   4.565 -0.4759 -1.0378  0.0850
 4503SOL    HW224969   3.142   4.179   4.442 -0.8100  1.0135  0.3570
 4504SOL     OW24970   2.225   2.338   6.470  0.0582 -0.3808  0.4276
 4504SOL    HW124971   2.230   2.431   6.448 -2.0347 -0.0669  1.2689
 4504SOL    HW224972   2.144   2.336   6.521  1.3098 -0.8340  2.3953
 4505SOL     OW24973   0.008   3.918  15.486  0.1774 -0.7438 -0.1801
 4505SOL    HW124974   0.062   3.896  15.410  1.1129  0.0956  0.2508
 4505SOL    HW224975   4.645   3.902  15.448 -0.9939 -0.6286  2.4038
 4506SOL     OW24976   1.630   2.343   2.922  0.4212 -0.2857  0.1478
 4506SOL    HW124977   1.720   2.370   2.902  0.5875 -0.6583  0.3846
 4506SOL    HW224978   1.572   2.362   2.848 -1.2208 -1.1085  1.2360
 4507SOL     OW24979   1.788   2.756   4.082  0.6084 -0.6079  0.3399
 4507SOL    HW124980   1.791   2.827   4.017  1.1846 -0.9797 -0.0431
 4507SOL    HW224981   1.879   2.751   4.112  0.4200  1.3372  1.2102
 4508SOL     OW24982   3.316   0.633  16.349 -0.3060  0.0666 -0.1857
 4508SOL    HW124983   3.355   0.567  16.291  1.4815 -0.2842  1.4318
 4508SOL    HW224984   3.345   0.707  16.296 -0.2500  0.6333  0.6373
 4509SOL     OW24985   3.149   2.538   0.957  0.1808  0.8128 -0.4754
 4509SOL    HW124986   3.230   2.546   0.908 -0.6404  1.4061 -1.7469
 4509SOL    HW224987   3.090   2.605   0.923  0.2644  0.4241 -1.3812
 4510SOL     OW24988   2.164   4.683   0.232 -0.3933  0.0124  0.1059
 4510SOL    HW124989   2.250   4.682   0.274 -0.6359  2.2047  0.6382
 4510SOL    HW224990   2.168   0.055   0.226  1.5307  0.0401  1.7069
 4511SOL     OW24991   4.077   2.623   3.646 -0.1155 -0.0614  0.2202
 4511SOL    HW124992   4.080   2.703   3.698  1.5825  0.1666 -0.2229
 4511SOL    HW224993   4.070   2.656   3.557 -1.2646  0.0443  0.3470
 4512SOL     OW24994   2.400   2.691  10.993  0.7552  0.2600  0.6572
 4512SOL    HW124995   2.351   2.686  10.911  1.0875 -1.3247  0.5590
 4512SOL    HW224996   2.484   2.649  10.979 -0.2776 -1.9217  0.9747
 4513SOL     OW24997   4.156   1.351  10.668  0.7173 -0.1259 -0.4352
 4513SOL    HW124998   4.093   1.420  10.647 -0.4023 -0.5940  1.3767
 4513SOL    HW224999   4.206   1.393  10.737 -1.0435  1.9286 -0.3978
 4514SOL     OW25000   3.382   2.387   5.975  0.5212 -0.0019  0.1527
 4514SOL    HW125001   3.400   2.434   6.056 -0.2858 -3.9888  2.6271
 4514SOL    HW225002   3.307   2.427   5.930 -0.8278 -0.4128  2.0393
 4515SOL     OW25003   1.750   2.014   5.271 -0.7086 -0.3575 -0.3041
 4515SOL    HW125004   1.707   2.020   5.356  1.6393  0.4581  0.8052
 4515SOL    HW225005   1.841   2.004   5.297 -0.4603  0.7816 -0.7251
 4516SOL     OW25006   3.312   4.024   0.488  0.3985  0.0378 -0.0486
 4516SOL    HW125007   3.308   4.036   0.583  2.4283 -2.5156  0.3459
 4516SOL    HW225008   3.372   3.950   0.484  0.6038  0.2468 -0.9659
 4517SOL     OW25009   2.540   2.607   6.623  0.4444  0.1413  0.4065
 4517SOL    HW125010   2.546   2.518   6.659  4.2108  0.1863 -0.1579
 4517SOL    HW225011   2.483   2.650   6.687  0.6955 -1.8506  1.9834
 4518SOL     OW25012   0.685   1.552  13.803 -0.5772  0.3566  0.0010
 4518SOL    HW125013   0.629   1.509  13.739 -0.5762  0.2566  0.0673
 4518SOL    HW225014   0.662   1.645  13.804 -0.5511  0.3722 -1.1176
 4519SOL     OW25015   2.928   1.884   8.649 -0.4153 -0.2025 -0.6536
 4519SOL    HW125016   2.899   1.903   8.559 -0.2922  0.5141 -0.5389
 4519SOL    HW225017   2.954   1.792   8.646 -0.8757 -0.3940  1.5015
 4520SOL     OW25018   1.220   1.112  11.232 -0.0696 -0.9024 -0.0996
 4520SOL    HW125019   1.221   1.153  11.146 -1.5024  1.8172  1.1824
 4520SOL    HW225020   1.239   1.019  11.217  0.0928 -0.9294  0.2693
 4521SOL     OW25021   3.162   1.775   1.125  0.1717  0.7742  0.2588
 4521SOL    HW125022   3.154   1.867   1.103 -0.9154  0.5977 -0.1040
 4521SOL    HW225023   3.120   1.731   1.051  3.2052 -1.7845  0.0659
 4522SOL     OW25024   1.757   2.270   5.122 -0.4886  0.1528  0.3622
 4522SOL    HW125025   1.751   2.191   5.068 -0.5887  0.0135  0.5778
 4522SOL    HW225026   1.811   2.249   5.198  0.6919 -1.9571 -1.0557
 4523SOL     OW25027   1.714   0.079  12.317  0.2124  0.3610  0.5866
 4523SOL    HW125028   1.780   0.009  12.318  3.0468  3.0377 -0.7516
 4523SOL    HW225029   1.752   0.134  12.248 -0.2211  2.0920  1.7495
 4524SOL     OW25030   3.794   2.367   2.610  0.3116 -0.7049 -0.1413
 4524SOL    HW125031   3.823   2.384   2.699 -0.7570  1.3014 -0.1646
 4524SOL    HW225032   3.699   2.373   2.615  0.3764 -1.4134  1.7102
 4525SOL     OW25033   0.596   3.119   5.893 -0.4357  0.5520  0.3339
 4525SOL    HW125034   0.642   3.036   5.902  1.9630  1.5824 -2.1858
 4525SOL    HW225035   0.661   3.176   5.935  1.0757 -1.0773  0.1902
 4526SOL     OW25036   2.572   0.913  15.197  0.2515  0.2713 -0.0966
 4526SOL    HW125037   2.566   0.939  15.289 -1.7944 -2.1512  0.4607
 4526SOL    HW225038   2.639   0.966  15.154  0.6630 -0.2401 -0.0923
 4527SOL     OW25039   3.803   2.758  14.250 -0.2891  0.3789  0.1861
 4527SOL    HW125040   3.862   2.781  14.178 -1.9157  1.7953 -0.6940
 4527SOL    HW225041   3.830   2.825  14.314  2.0271 -1.2443  0.9193
 4528SOL     OW25042   3.924   1.381  15.831  0.3602 -0.3567 -0.5519
 4528SOL    HW125043   3.978   1.439  15.885 -1.5055  0.2038  0.7047
 4528SOL    HW225044   3.894   1.434  15.757 -0.7378  0.3516  0.3994
 4529SOL     OW25045   3.732   4.545   7.896 -0.1422 -0.0136  0.6819
 4529SOL    HW125046   3.813   4.594   7.884 -0.5061  0.3123 -0.3499
 4529SOL    HW225047   3.742   4.522   7.989  0.0736  0.8035  0.8629
 4530SOL     OW25048   2.277   1.541  16.023  0.0957  0.1706 -0.0677
 4530SOL    HW125049   2.298   1.510  15.935 -0.5518 -1.8677  0.4931
 4530SOL    HW225050   2.295   1.460  16.071 -1.9240 -1.2753 -1.7353
 4531SOL     OW25051   3.858   0.883   4.158 -0.6718 -0.3046  0.2741
 4531SOL    HW125052   3.906   0.919   4.233 -0.0471  0.5325 -0.5302
 4531SOL    HW225053   3.778   0.932   4.175 -0.6061  0.2424 -0.9483
 4532SOL     OW25054   0.877   1.908   2.388 -0.3351 -0.0132 -0.4616
 4532SOL    HW125055   0.798   1.928   2.438  0.5588  2.8332 -0.1827
 4532SOL    HW225056   0.875   1.984   2.330 -1.2999  0.3765  0.0777
 4533SOL     OW25057   4.082   2.783   4.414 -0.1980  0.0767  0.2030
 4533SOL    HW125058   4.159   2.730   4.434 -0.1058  0.8763  1.9036
 4533SOL    HW225059   4.058   2.815   4.501 -1.4949  1.4123 -0.6501
 4534SOL     OW25060   0.087   4.034  15.725 -0.3970 -0.5094  0.0211
 4534SOL    HW125061   0.062   3.987  15.645  3.4761  0.9900 -2.0982
 4534SOL    HW225062   0.129   4.111  15.687  0.9847 -0.8647  0.8140
 4535SOL     OW25063   2.393   1.053  10.899 -0.4528  0.1390  0.2937
 4535SOL    HW125064   2.480   1.014  10.904 -1.4336 -1.8434  1.6597
 4535SOL    HW225065   2.372   1.022  10.811 -2.4488 -0.9682  1.1679
 4536SOL     OW25066   1.149   1.622  15.472  0.2602 -0.0286  0.4780
 4536SOL    HW125067   1.207   1.548  15.493  0.3789  0.1678  0.8348
 4536SOL    HW225068   1.147   1.675  15.551  1.1236  0.1600  0.3740
 4537SOL     OW25069   1.898   2.544   6.457 -0.0737  0.4112  0.2139
 4537SOL    HW125070   1.874   2.582   6.541 -0.5604  1.7826 -0.5541
 4537SOL    HW225071   1.809   2.535   6.424  0.7115 -2.2343 -1.2389
 4538SOL     OW25072   0.273   2.121   7.280 -0.4613 -0.5265  0.0475
 4538SOL    HW125073   0.352   2.112   7.333  1.0839  0.2465 -2.1218
 4538SOL    HW225074   0.235   2.203   7.312 -2.5013 -0.5914 -2.2092
 4539SOL     OW25075   3.555   0.357   6.660  0.3605 -0.0572  0.3877
 4539SOL    HW125076   3.586   0.270   6.635 -0.0533 -0.0025 -0.3131
 4539SOL    HW225077   3.629   0.380   6.716 -0.6693  1.2542  1.2393
 4540SOL     OW25078   3.529   1.363  13.991 -0.0388 -0.2844  0.9196
 4540SOL    HW125079   3.443   1.405  13.986 -0.2843 -1.0950 -1.6147
 4540SOL    HW225080   3.574   1.395  13.913 -0.5945 -2.1467 -0.1709
 4541SOL     OW25081   0.070   2.077   3.555  0.3693  0.5635  0.1787
 4541SOL    HW125082   0.004   2.145   3.567 -1.2476 -0.5242 -2.5825
 4541SOL    HW225083   0.129   2.119   3.493 -1.8479 -0.5609 -2.6948
 4542SOL     OW25084   4.220   0.712   6.075  0.3569  0.2863 -0.0810
 4542SOL    HW125085   4.261   0.634   6.114 -1.5514  0.1890  1.7103
 4542SOL    HW225086   4.276   0.786   6.099 -0.8395  0.9761  0.5197
 4543SOL     OW25087   2.334   2.787   9.263  0.3333  0.0642  0.1200
 4543SOL    HW125088   2.270   2.858   9.262 -0.6899 -0.8548  0.0183
 4543SOL    HW225089   2.277   2.721   9.302  0.7228  0.7755  1.9139
 4544SOL     OW25090   2.718   4.116  10.724 -0.3667 -0.0298 -0.2790
 4544SOL    HW125091   2.775   4.184  10.689  0.1965  0.5420  1.7204
 4544SOL    HW225092   2.754   4.035  10.688 -1.0313 -0.2136 -0.5223
 4545SOL     OW25093   4.344   2.675  10.598  0.4990 -0.0658  0.1323
 4545SOL    HW125094   4.333   2.714  10.512  1.6901  0.9380  0.4306
 4545SOL    HW225095   4.312   2.741  10.660  1.4690  1.1820 -0.7112
 4546SOL     OW25096   4.336   3.653   4.273 -0.6636 -0.4643  0.5154
 4546SOL    HW125097   4.316   3.581   4.333 -1.4427 -0.7327 -0.0646
 4546SOL    HW225098   4.383   3.716   4.327  0.4735  0.4816 -1.5662
 4547SOL     OW25099   3.620   3.108   0.320  0.3801 -0.3772  0.2035
 4547SOL    HW125100   3.670   3.027   0.305 -0.1472 -0.7099  0.2352
 4547SOL    HW225101   3.563   3.070   0.386 -1.0155  4.1617  1.5566
 4548SOL     OW25102   0.781   1.461   2.339 -0.4585  0.2184 -0.0951
 4548SOL    HW125103   0.720   1.520   2.384 -0.5824 -0.3894  0.5317
 4548SOL    HW225104   0.798   1.509   2.258  0.0505  1.1412  0.5517
 4549SOL     OW25105   0.780   2.595   5.072 -0.0681 -0.0478 -0.1220
 4549SOL    HW125106   0.710   2.537   5.044 -1.0681 -0.4141  3.1762
 4549SOL    HW225107   0.843   2.583   5.001 -0.0770 -0.8438  0.0045
 4550SOL     OW25108   2.205   3.241   4.546 -0.7537  0.5745 -0.7691
 4550SOL    HW125109   2.294   3.219   4.517  0.7871  2.9123  2.1561
 4550SOL    HW225110   2.157   3.196   4.477  2.8364 -0.4057 -2.6232
 4551SOL     OW25111   1.594   0.353   9.821 -0.2949  0.5299  0.6049
 4551SOL    HW125112   1.637   0.412   9.883  0.1034  0.5400  0.3205
 4551SOL    HW225113   1.505   0.351   9.857 -0.3407  0.4088  0.4842
 4552SOL     OW25114   2.421   2.673   5.142  0.6885 -0.4988  0.3970
 4552SOL    HW125115   2.503   2.721   5.151  0.2781  0.0768  1.0828
 4552SOL    HW225116   2.449   2.586   5.113  0.2916 -0.6456  0.4556
 4553SOL     OW25117   1.301   3.782  16.762 -0.3124  0.1798  0.2063
 4553SOL    HW125118   1.384   3.817  16.729 -0.7357  0.8321 -0.1689
 4553SOL    HW225119   1.237   3.847  16.734  2.1902  2.0066 -1.2769
 4554SOL     OW25120   0.742   1.117  11.251 -0.2994 -0.3283 -0.1817
 4554SOL    HW125121   0.798   1.131  11.175 -0.0403 -1.6255 -0.2166
 4554SOL    HW225122   0.799   1.160  11.315  1.5590 -1.8574 -0.8280
 4555SOL     OW25123   4.635   1.246  16.151  0.1450  0.2951  0.6428
 4555SOL    HW125124   4.652   1.181  16.082 -0.5526  0.8228 -0.0252
 4555SOL    HW225125   4.695   1.316  16.124  1.6074 -0.8347  0.9243
 4556SOL     OW25126   0.588   0.603   9.023 -0.4923  0.8409  0.1376
 4556SOL    HW125127   0.647   0.650   9.081 -0.4356  0.9536 -0.0115
 4556SOL    HW225128   0.640   0.610   8.943  0.7711 -0.5981  0.8176
 4557SOL     OW25129   3.252   1.428  11.574 -0.1944 -0.4297  0.4007
 4557SOL    HW125130   3.346   1.430  11.555 -0.2314  1.6626  0.4288
 4557SOL    HW225131   3.214   1.423  11.486 -0.4206  0.9338  0.4225
 4558SOL     OW25132   4.076   2.648  11.914 -0.3418 -0.0509  0.2301
 4558SOL    HW125133   4.158   2.658  11.867 -0.4335 -2.1946 -0.3821
 4558SOL    HW225134   4.022   2.695  11.851  0.9039  1.6981  0.4566
 4559SOL     OW25135   4.401   1.073   4.076 -0.3966  0.3280  0.4551
 4559SOL    HW125136   4.453   0.995   4.059 -3.0232 -1.1097 -0.9568
 4559SOL    HW225137   4.469   1.140   4.066 -1.3672  1.6431  2.5381
 4560SOL     OW25138   3.161   3.713   3.416 -0.3083  0.2114  0.1730
 4560SOL    HW125139   3.121   3.739   3.333 -2.6865 -1.5888  0.7506
 4560SOL    HW225140   3.242   3.763   3.406 -0.4607 -0.1053 -2.7668
 4561SOL     OW25141   1.803   1.609   5.543  0.1627  0.1245  0.2436
 4561SOL    HW125142   1.828   1.519   5.520 -1.9458  0.0694 -1.8253
 4561SOL    HW225143   1.813   1.636   5.451 -1.0066 -0.6050 -0.0983
 4562SOL     OW25144   1.713   0.949   9.517  0.1264  0.4560  0.1170
 4562SOL    HW125145   1.707   0.993   9.601 -2.5155 -0.4766  0.4115
 4562SOL    HW225146   1.783   0.998   9.474 -0.9860  1.4846 -0.5221
 4563SOL     OW25147   0.490   0.721  16.117  0.2320  0.6375 -0.0501
 4563SOL    HW125148   0.559   0.773  16.158 -1.3116  2.1437  0.6259
 4563SOL    HW225149   0.424   0.735  16.184 -1.1145 -1.4846 -0.9375
 4564SOL     OW25150   1.694   2.212  10.209  0.3590 -0.3143 -0.0159
 4564SOL    HW125151   1.686   2.219  10.305 -0.0991  0.3714 -0.1033
 4564SOL    HW225152   1.602   2.205  10.182  0.1641  2.9517 -0.1400
 4565SOL     OW25153   0.883   2.354  11.561  0.0878 -0.5834 -0.3281
 4565SOL    HW125154   0.959   2.398  11.599 -2.8190  2.2155  2.2923
 4565SOL    HW225155   0.827   2.426  11.533  0.1291 -0.5755 -0.3905
 4566SOL     OW25156   4.256   1.793   5.444 -0.0376 -0.3689  0.2129
 4566SOL    HW125157   4.285   1.711   5.402  2.3095  0.2729  0.5691
 4566SOL    HW225158   4.208   1.744   5.510  0.8260  0.1110  1.1889
 4567SOL     OW25159   2.616   3.886   5.483 -0.3502  0.0437  0.3225
 4567SOL    HW125160   2.526   3.901   5.512 -1.4413 -1.2778 -2.3933
 4567SOL    HW225161   2.605   3.921   5.395  0.9810  0.3511  0.2656
 4568SOL     OW25162   1.181   3.007   8.128  0.3292 -0.4125 -0.3953
 4568SOL    HW125163   1.233   3.036   8.053  1.6558 -0.2056  0.6007
 4568SOL    HW225164   1.246   2.954   8.174 -0.8888 -1.3411  0.2334
 4569SOL     OW25165   4.211   3.784  16.513  0.0908  0.1652 -0.0422
 4569SOL    HW125166   4.257   3.825  16.586  1.3184 -0.7152 -0.3306
 4569SOL    HW225167   4.198   3.696  16.547  1.2515  0.0328  0.0755
 4570SOL     OW25168   4.142   3.589   4.597 -0.1901  0.0965  0.1954
 4570SOL    HW125169   4.188   3.534   4.533  1.1323 -0.1344  1.3632
 4570SOL    HW225170   4.059   3.540   4.600 -0.8052  1.0889 -0.3977
 4571SOL     OW25171   3.432   3.440  17.423 -0.1509 -0.2431  0.3688
 4571SOL    HW125172   3.428   3.506  17.493  0.7108  0.9499 -0.7114
 4571SOL    HW225173   3.343   3.450  17.391 -0.1430  0.6483  0.6079
 4572SOL     OW25174   1.927   2.091   7.885  0.4228 -0.0709 -0.3535
 4572SOL    HW125175   1.859   2.110   7.821 -0.8269 -1.4624  0.5436
 4572SOL    HW225176   1.900   2.007   7.924 -0.2214 -0.0591 -0.7768
 4573SOL     OW25177   0.382   1.770   1.421  0.0208 -0.0982 -0.0978
 4573SOL    HW125178   0.454   1.767   1.358  0.4508  2.8875  0.2644
 4573SOL    HW225179   0.319   1.718   1.370  1.2780 -0.9371 -0.7730
 4574SOL     OW25180   3.701   2.480  14.581  0.7135 -0.2005 -0.3462
 4574SOL    HW125181   3.724   2.388  14.571 -0.4087 -0.6182  0.8256
 4574SOL    HW225182   3.779   2.535  14.582  0.2683  0.4419 -2.6179
 4575SOL     OW25183   1.701   2.440   6.668 -0.7922  0.0253  0.1111
 4575SOL    HW125184   1.643   2.496   6.719 -0.0863  0.7830  0.0952
 4575SOL    HW225185   1.675   2.355   6.703  1.5994 -0.5955  0.4112
 4576SOL     OW25186   1.063   4.536   3.220  0.2027 -0.1956 -0.1881
 4576SOL    HW125187   1.157   4.548   3.211  0.3361 -0.6337  0.6835
 4576SOL    HW225188   1.036   4.627   3.234  1.6918  0.1162  0.5890
 4577SOL     OW25189   3.317   1.303   6.436  0.3886  0.1850  0.1478
 4577SOL    HW125190   3.331   1.356   6.515 -1.0035 -1.9769  1.8625
 4577SOL    HW225191   3.262   1.362   6.385 -2.8899 -2.2711  0.8432
 4578SOL     OW25192   2.074   4.635   9.523 -0.1762  0.0457 -0.1921
 4578SOL    HW125193   2.052   4.569   9.458 -1.0158  1.0074 -0.8826
 4578SOL    HW225194   2.008   4.614   9.590 -1.9310  1.6905 -1.3916
 4579SOL     OW25195   0.044   3.947   7.074  0.0001  0.7763  0.1626
 4579SOL    HW125196   0.031   4.029   7.121 -2.5032 -0.1031  0.9910
 4579SOL    HW225197   0.101   3.909   7.141  1.1955 -1.3418 -2.0538
 4580SOL     OW25198   4.366   3.072   9.285 -0.4712  0.1368  0.3555
 4580SOL    HW125199   4.353   2.985   9.249  3.0903  0.8407 -2.6064
 4580SOL    HW225200   4.363   3.046   9.377  2.3256 -1.1510  0.0658
 4581SOL     OW25201   0.556   3.782   9.317  0.2432 -0.4028 -0.0857
 4581SOL    HW125202   0.583   3.695   9.345 -1.2404 -0.4002  1.3620
 4581SOL    HW225203   0.521   3.761   9.231 -1.4854 -0.6761  0.6819
 4582SOL     OW25204   0.520   3.176   9.193  0.4361  0.3464 -0.5689
 4582SOL    HW125205   0.612   3.171   9.169  1.0137  1.1004  1.5524
 4582SOL    HW225206   0.500   3.085   9.218 -1.0804  0.9956  0.5816
 4583SOL     OW25207   2.112   4.565   0.918 -0.1066 -0.5766  0.8033
 4583SOL    HW125208   2.065   4.499   0.969  0.4144 -1.4169  0.1999
 4583SOL    HW225209   2.087   4.542   0.829 -0.7415  2.5249  0.1793
 4584SOL     OW25210   4.135   3.275   7.564  0.5636  0.4742 -0.5550
 4584SOL    HW125211   4.217   3.267   7.613  0.2749  0.9520  0.0183
 4584SOL    HW225212   4.160   3.344   7.501 -0.3600 -1.6100 -3.1869
 4585SOL     OW25213   4.441   3.455   8.130 -0.2947 -0.6984 -0.6207
 4585SOL    HW125214   4.349   3.446   8.157 -0.6276 -0.1852 -1.5860
 4585SOL    HW225215   4.468   3.368   8.101  1.3017 -0.3989  0.0026
 4586SOL     OW25216   2.450   2.239   8.090  0.0951 -0.2771 -0.1295
 4586SOL    HW125217   2.442   2.186   8.010  1.4915 -0.0969 -0.3858
 4586SOL    HW225218   2.457   2.165   8.150 -2.6656  1.0196  1.7727
 4587SOL     OW25219   3.136   1.668   3.576 -0.9960  0.0470  0.1101
 4587SOL    HW125220   3.063   1.688   3.635 -1.1695  1.3743 -0.5475
 4587SOL    HW225221   3.205   1.711   3.627 -0.4160  1.2901 -1.7551
 4588SOL     OW25222   4.554   0.741   3.658  0.3823 -0.8165  0.3550
 4588SOL    HW125223   4.585   0.831   3.670 -2.6574 -0.1088  2.7846
 4588SOL    HW225224   4.508   0.765   3.578 -0.2447  0.2487  1.0402
 4589SOL     OW25225   2.172   2.612   6.425  0.0480 -0.2690 -0.4200
 4589SOL    HW125226   2.130   2.677   6.369  0.8939  0.7728  0.1589
 4589SOL    HW225227   2.093   2.573   6.464  1.3426 -1.4362  1.0197
 4590SOL     OW25228   4.160   0.288  14.526 -0.0068  0.2107 -0.2877
 4590SOL    HW125229   4.140   0.204  14.568  0.4657 -0.5736 -1.5998
 4590SOL    HW225230   4.145   0.261  14.435  0.3579 -2.2017  0.3463
 4591SOL     OW25231   2.895   3.028  16.403 -0.1152 -0.2489 -0.4349
 4591SOL    HW125232   2.817   3.050  16.354 -1.0646 -0.0738  1.1500
 4591SOL    HW225233   2.962   3.079  16.358  1.9915 -3.0817 -0.5044
 4592SOL     OW25234   1.049   3.299   7.609  0.3199 -0.0245  0.1017
 4592SOL    HW125235   1.095   3.227   7.567 -0.7571 -0.4920 -0.2890
 4592SOL    HW225236   0.974   3.256   7.651 -1.5581  0.6847 -2.5350
 4593SOL     OW25237   2.679   3.915   2.427  0.7604 -0.1635  0.2059
 4593SOL    HW125238   2.656   3.977   2.357 -0.4377  1.1180  1.7395
 4593SOL    HW225239   2.710   3.839   2.378 -0.2474 -1.2702  1.3039
 4594SOL     OW25240   2.649   0.967  10.956  0.4196 -0.6101  0.1652
 4594SOL    HW125241   2.650   0.965  11.051  0.5753  0.4173  0.1828
 4594SOL    HW225242   2.636   0.874  10.936 -0.3709 -0.5175  0.2705
 4595SOL     OW25243   1.117   1.380   6.498 -0.5673 -0.0035 -0.4054
 4595SOL    HW125244   1.192   1.340   6.453 -0.3857  1.9392 -1.8298
 4595SOL    HW225245   1.061   1.400   6.424  1.5946  2.0932 -1.4620
 4596SOL     OW25246   3.681   0.771   6.124 -0.0438  0.4170 -0.3550
 4596SOL    HW125247   3.593   0.795   6.151 -0.5105 -1.7305  0.0732
 4596SOL    HW225248   3.695   0.809   6.037  1.7537  0.2738 -0.1367
 4597SOL     OW25249   1.719   1.916   4.261 -0.0489 -0.3586  0.2853
 4597SOL    HW125250   1.658   1.952   4.325  1.0764  1.2047  0.4513
 4597SOL    HW225251   1.758   1.995   4.226 -1.7442  0.9041  1.2703
 4598SOL     OW25252   3.845   3.756  16.984  0.3732  0.0828 -0.4427
 4598SOL    HW125253   3.831   3.845  17.015 -0.6423 -0.2153 -0.0661
 4598SOL    HW225254   3.891   3.776  16.903  0.1225  2.1162 -0.0749
 4599SOL     OW25255   4.550   1.806   3.693  0.1179 -0.1006 -0.1571
 4599SOL    HW125256   4.541   1.897   3.720  2.0392  0.4986 -1.5653
 4599SOL    HW225257   4.469   1.808   3.641  0.8637 -1.3915 -1.3678
 4600SOL     OW25258   2.979   2.955   2.158 -0.0251  0.2572  0.1077
 4600SOL    HW125259   2.929   2.905   2.223  0.1748 -0.4813 -0.3036
 4600SOL    HW225260   3.013   2.896   2.090  1.2532  0.7198  0.3523
 4601SOL     OW25261   0.981   0.537   7.743 -0.4898 -0.8703  0.2745
 4601SOL    HW125262   0.917   0.497   7.685  0.1296 -1.5317  0.0341
 4601SOL    HW225263   0.939   0.545   7.828  1.1946  1.9115  0.8197
 4602SOL     OW25264   3.221   1.933  10.486  0.6069 -0.3338 -0.5291
 4602SOL    HW125265   3.249   1.959  10.574  2.9923  0.1355 -1.4277
 4602SOL    HW225266   3.165   1.856  10.493 -3.1244  2.4316  0.3530
 4603SOL     OW25267   1.678   2.984  13.725 -0.7823 -0.1606  0.2583
 4603SOL    HW125268   1.647   2.950  13.641  0.6193 -0.4919 -0.1219
 4603SOL    HW225269   1.773   2.973  13.719 -0.5288  1.7098  0.8629
 4604SOL     OW25270   1.127   0.058   2.669 -0.4036  0.0618  0.1925
 4604SOL    HW125271   1.096   4.715   2.732  2.4179  1.7460  3.3160
 4604SOL    HW225272   1.051   0.042   2.614 -0.7577  2.4389  0.0213
 4605SOL     OW25273   4.518   3.676  17.569 -0.3498  1.0779  0.2886
 4605SOL    HW125274   4.497   3.589  17.534 -1.5614  0.8953  1.4552
 4605SOL    HW225275   4.541   3.731  17.495 -2.5070 -0.2525 -1.3749
 4606SOL     OW25276   3.084   1.001  16.533  0.2317 -0.1222 -0.1665
 4606SOL    HW125277   3.059   1.076  16.587  0.3281 -0.2158  0.0064
 4606SOL    HW225278   3.054   1.037  16.450 -0.5367 -1.6851 -0.5605
 4607SOL     OW25279   0.429   3.737   7.828 -0.2984  0.2094  0.3126
 4607SOL    HW125280   0.417   3.759   7.920 -1.1730  1.8515 -0.1842
 4607SOL    HW225281   0.338   3.714   7.810  0.5759 -0.8975 -2.6258
 4608SOL     OW25282   1.703   2.176   7.692  0.0244 -0.1759  0.7420
 4608SOL    HW125283   1.719   2.206   7.602 -3.3082 -2.8321 -0.7293
 4608SOL    HW225284   1.684   2.255   7.742 -2.0401 -1.3381  1.7747
 4609SOL     OW25285   2.467   3.985   4.947 -0.1266 -0.0084 -0.2022
 4609SOL    HW125286   2.549   4.008   4.990 -0.0182  0.5420 -0.7181
 4609SOL    HW225287   2.458   4.040   4.870  0.5114 -0.7586 -0.8066
 4610SOL     OW25288   4.286   2.939  16.669 -0.1480 -0.6404 -0.3904
 4610SOL    HW125289   4.280   2.919  16.762 -1.3069 -0.0692 -0.3454
 4610SOL    HW225290   4.198   2.969  16.647 -0.4001  0.1761  1.7937
 4611SOL     OW25291   2.233   4.050  12.681  0.4367 -0.0673 -0.1761
 4611SOL    HW125292   2.227   3.958  12.707  0.6309 -0.3637 -1.1942
 4611SOL    HW225293   2.222   4.094  12.766 -0.4587 -0.9755  0.1796
 4612SOL     OW25294   1.725   0.434   7.567  0.1878  0.1879  0.2555
 4612SOL    HW125295   1.748   0.430   7.474 -0.2980  1.4319  0.0746
 4612SOL    HW225296   1.767   0.518   7.583  1.3223 -0.3521  0.1003
 4613SOL     OW25297   3.768   2.283  17.453 -0.5404  1.1113 -0.6704
 4613SOL    HW125298   3.794   2.276  17.545 -2.4876 -2.7087 -0.3925
 4613SOL    HW225299   3.740   2.374  17.451 -3.8360  0.0765 -2.2908
 4614SOL     OW25300   2.188   3.829   2.528  0.1407  0.2504 -0.1157
 4614SOL    HW125301   2.105   3.830   2.575  0.2924 -0.1345  0.1585
 4614SOL    HW225302   2.249   3.796   2.594  1.3926  1.9550 -0.3935
 4615SOL     OW25303   3.054   0.770   6.087 -0.4229 -0.5140 -0.1391
 4615SOL    HW125304   3.133   0.733   6.048 -0.3634 -1.6901  1.0712
 4615SOL    HW225305   3.046   0.719   6.168 -1.9302  0.7246  0.4881
 4616SOL     OW25306   3.511   1.478   7.463  0.3413 -0.6010  0.6629
 4616SOL    HW125307   3.445   1.538   7.429 -0.9537 -2.5859 -0.3675
 4616SOL    HW225308   3.520   1.417   7.389  0.2846 -0.1881  0.3203
 4617SOL     OW25309   2.095   2.319  11.209  0.1568  0.7283  0.4602
 4617SOL    HW125310   2.098   2.340  11.302 -1.4294 -1.0936  0.9269
 4617SOL    HW225311   2.148   2.241  11.197 -1.1988 -0.3636  1.5857
 4618SOL     OW25312   1.985   0.488   5.696 -0.4593 -0.2158  0.0730
 4618SOL    HW125313   2.020   0.554   5.636 -1.0151 -0.1890 -0.2228
 4618SOL    HW225314   2.015   0.530   5.777 -0.0322 -1.6263  0.6410
 4619SOL     OW25315   1.440   3.996   4.909  0.1886 -0.0428 -0.0368
 4619SOL    HW125316   1.415   4.068   4.851  0.6680  0.9332  0.9769
 4619SOL    HW225317   1.388   4.008   4.988 -0.3472 -3.2423  0.0909
 4620SOL     OW25318   0.079   0.213  14.176  0.3150  0.1431  0.0043
 4620SOL    HW125319   0.083   0.306  14.155 -1.1307  0.5028  1.3678
 4620SOL    HW225320   0.096   0.172  14.091 -1.6782  0.1655 -0.4048
 4621SOL     OW25321   2.632   1.530  11.067 -0.1216 -0.3856  0.2842
 4621SOL    HW125322   2.619   1.435  11.068 -1.2693 -0.2213  0.7684
 4621SOL    HW225323   2.603   1.548  11.157 -3.0593 -0.5831 -0.6478
 4622SOL     OW25324   0.382   4.341   6.573  0.3016 -0.0936  0.4346
 4622SOL    HW125325   0.456   4.336   6.513  2.3275 -2.3198  3.1397
 4622SOL    HW225326   0.307   4.307   6.523  3.3595 -0.3479 -3.9728
 4623SOL     OW25327   1.654   1.304   3.824 -0.5137 -0.0802 -0.7282
 4623SOL    HW125328   1.563   1.282   3.843 -0.0148 -0.6455  0.9431
 4623SOL    HW225329   1.678   1.364   3.894  1.1663 -2.5226  0.7914
 4624SOL     OW25330   1.282   1.666   4.281 -0.6595  0.1295  0.2247
 4624SOL    HW125331   1.218   1.735   4.262  1.1437  1.2473 -1.7711
 4624SOL    HW225332   1.354   1.685   4.221 -0.7360 -0.3914 -0.0346
 4625SOL     OW25333   4.158   0.926  14.783 -0.1412  0.1459  0.0751
 4625SOL    HW125334   4.086   0.864  14.777 -0.7852  1.1233 -2.2090
 4625SOL    HW225335   4.124   1.009  14.751 -0.5091 -0.5863 -1.3944
 4626SOL     OW25336   3.519   4.122   7.271  0.7312  0.0561  0.6025
 4626SOL    HW125337   3.572   4.135   7.192  1.7198 -1.0734  1.0866
 4626SOL    HW225338   3.576   4.161   7.338  0.5451 -1.0961  1.4276
 4627SOL     OW25339   1.416   4.157   3.322 -0.0380  0.4470 -0.3185
 4627SOL    HW125340   1.494   4.208   3.297  0.1739 -0.6769 -1.9212
 4627SOL    HW225341   1.432   4.142   3.415  0.0126 -0.8422 -0.5439
 4628SOL     OW25342   1.536   0.236  17.595 -0.4645  0.1881  0.1184
 4628SOL    HW125343   1.490   0.304  17.645  0.8036  3.0244 -2.5661
 4628SOL    HW225344   1.504   0.165  17.650 -0.0519 -0.3318 -0.3122
 4629SOL     OW25345   2.832   4.254  12.415 -0.3798  0.6936  0.0226
 4629SOL    HW125346   2.924   4.231  12.406 -0.2430  0.8492  1.0482
 4629SOL    HW225347   2.823   4.284  12.506 -1.7090 -0.8097  0.3686
 4630SOL     OW25348   2.233   1.189   0.170  0.1180 -0.3373  0.2955
 4630SOL    HW125349   2.171   1.171   0.099  2.2533 -0.6259 -1.4961
 4630SOL    HW225350   2.215   1.112   0.224 -1.1779 -1.0967 -1.1977
 4631SOL     OW25351   0.434   1.467   4.232  0.4502  0.0380  0.3644
 4631SOL    HW125352   0.419   1.392   4.291  0.6778  0.5736  1.1082
 4631SOL    HW225353   0.525   1.474   4.262  0.6666 -0.9812 -0.0541
 4632SOL     OW25354   1.119   1.338   3.922 -0.2208 -0.3518  0.3730
 4632SOL    HW125355   1.071   1.415   3.953  0.7356  0.6687 -0.6292
 4632SOL    HW225356   1.204   1.370   3.952 -1.5693  3.4012  0.2387
 4633SOL     OW25357   0.210   1.875   3.651 -0.2114 -0.3125  0.4617
 4633SOL    HW125358   0.203   1.961   3.610 -0.2740 -0.2912  0.5178
 4633SOL    HW225359   0.134   1.836   3.607 -0.8290 -0.5988  1.8076
 4634SOL     OW25360   2.962   3.186   8.265 -0.1131 -0.3807 -0.3029
 4634SOL    HW125361   2.936   3.095   8.280  0.5839 -0.3323  1.1082
 4634SOL    HW225362   3.029   3.200   8.332 -0.3035  0.9666 -0.4012
 4635SOL     OW25363   0.007   3.726   5.814  0.0804  0.3499 -0.0633
 4635SOL    HW125364   4.691   3.659   5.870 -1.8585 -0.8900 -2.9704
 4635SOL    HW225365   0.044   3.683   5.737 -0.5054 -1.0514  0.4409
 4636SOL     OW25366   2.937   0.575   7.807 -0.1325  0.0207 -0.2892
 4636SOL    HW125367   2.946   0.671   7.809 -0.0255 -0.0059  0.3556
 4636SOL    HW225368   2.955   0.564   7.714  1.7399  2.6159 -0.2505
 4637SOL     OW25369   2.305   1.463   1.083  0.0256  0.0265 -0.4560
 4637SOL    HW125370   2.269   1.479   1.170  1.4023  0.6095  0.0074
 4637SOL    HW225371   2.292   1.370   1.066 -0.5189  0.0504 -0.1551
 4638SOL     OW25372   4.124   3.998  12.139  0.1565 -0.5636  0.4020
 4638SOL    HW125373   4.042   3.962  12.104 -0.1659  0.3815  0.1928
 4638SOL    HW225374   4.175   3.917  12.139 -2.7279 -2.4075 -1.1355
 4639SOL     OW25375   1.170   3.631  15.524  0.0866 -0.7022 -0.3553
 4639SOL    HW125376   1.260   3.616  15.551  0.7093  5.2745  0.9433
 4639SOL    HW225377   1.126   3.546  15.529  1.7013 -1.5294 -0.4095
 4640SOL     OW25378   0.082   1.891  13.440 -0.4063 -0.1276  0.3457
 4640SOL    HW125379   4.722   1.883  13.392 -0.1071  0.6641 -0.2907
 4640SOL    HW225380   0.130   1.956  13.390  1.0911 -1.7721 -0.3276
 4641SOL     OW25381   1.467   1.429   5.334  0.3131  0.2475  0.2548
 4641SOL    HW125382   1.522   1.367   5.285 -0.8968 -1.0807  0.5621
 4641SOL    HW225383   1.471   1.507   5.279  1.3523  0.2355  0.3288
 4642SOL     OW25384   2.583   1.311   6.450 -0.0038 -0.0799  0.5240
 4642SOL    HW125385   2.660   1.352   6.489  0.0649  0.4663 -0.1893
 4642SOL    HW225386   2.521   1.304   6.523 -2.2135  1.9299 -1.1525
 4643SOL     OW25387   0.356   2.426   2.087  0.0502  0.5752  0.4833
 4643SOL    HW125388   0.351   2.363   2.159  1.7594  0.0887  0.1758
 4643SOL    HW225389   0.437   2.471   2.110  1.3976 -1.1452 -0.9273
 4644SOL     OW25390   1.868   1.447  15.909  0.2654 -0.4565 -0.4037
 4644SOL    HW125391   1.846   1.517  15.848  0.9281 -1.0792 -1.3709
 4644SOL    HW225392   1.855   1.488  15.994 -0.6638 -0.8421 -0.3627
 4645SOL     OW25393   1.167   3.826   1.532  0.0162  0.5601  0.2966
 4645SOL    HW125394   1.159   3.777   1.614  1.5178 -1.8875 -0.9938
 4645SOL    HW225395   1.249   3.788   1.500  0.3844  0.2183  1.6637
 4646SOL     OW25396   0.671   3.756   6.116 -0.3011  0.0010 -0.4717
 4646SOL    HW125397   0.626   3.677   6.146 -2.5794  2.5112  2.7077
 4646SOL    HW225398   0.763   3.731   6.114 -0.5436 -0.6471 -4.2619
 4647SOL     OW25399   3.057   0.473   9.880 -0.1740  0.2849 -0.1857
 4647SOL    HW125400   2.991   0.542   9.870  0.6308  1.1334  0.3852
 4647SOL    HW225401   3.009   0.390   9.887 -0.1326  0.3696  1.1427
 4648SOL     OW25402   3.383   2.440   9.122  0.3116  0.2995  0.5188
 4648SOL    HW125403   3.343   2.448   9.035  0.1757  1.5364  0.6933
 4648SOL    HW225404   3.318   2.463   9.189  0.5093  0.3343  0.6998
 4649SOL     OW25405   1.662   0.494   5.130 -0.0043  0.3246  0.3843
 4649SOL    HW125406   1.590   0.550   5.159 -0.9520 -0.6613 -0.0618
 4649SOL    HW225407   1.655   0.499   5.034  0.4923 -0.3527  0.3158
 4650SOL     OW25408   1.637   3.115   6.968  0.1299  0.1397  0.0460
 4650SOL    HW125409   1.572   3.064   6.920 -1.1518  0.0931  1.8221
 4650SOL    HW225410   1.579   3.161   7.029 -0.8483  2.0789 -2.3669
 4651SOL     OW25411   3.988   4.140   7.037  0.0984  0.5975 -0.0479
 4651SOL    HW125412   4.016   4.222   6.996 -0.0395  1.0022  0.6604
 4651SOL    HW225413   4.007   4.160   7.128 -3.1045  0.0736  0.7555
 4652SOL     OW25414   0.700   1.725   8.919  0.2278  0.6822  0.5139
 4652SOL    HW125415   0.686   1.689   9.007  3.9538  0.2208  0.9207
 4652SOL    HW225416   0.684   1.644   8.870 -0.6366  0.9174  0.4115
 4653SOL     OW25417   2.036   2.067   5.242 -0.0468 -0.2370  0.4798
 4653SOL    HW125418   2.099   2.125   5.199 -2.5195  1.9658 -0.1164
 4653SOL    HW225419   2.047   1.998   5.176  3.0329  2.0239 -1.3620
 4654SOL     OW25420   4.121   2.643   7.038 -0.2911  0.6852 -0.0065
 4654SOL    HW125421   4.133   2.653   6.944 -0.6541 -0.6233 -0.2009
 4654SOL    HW225422   4.194   2.693   7.075  1.3328 -0.3610 -1.7682
 4655SOL     OW25423   2.204   3.046   7.791 -0.4750 -0.8256 -0.0962
 4655SOL    HW125424   2.254   3.097   7.854 -3.0634  1.5744 -0.0199
 4655SOL    HW225425   2.163   2.983   7.850 -0.0272 -1.7788 -0.7861
 4656SOL     OW25426   3.240   1.332   8.702 -0.3972 -0.6197 -0.4252
 4656SOL    HW125427   3.236   1.251   8.753  1.8380 -0.3193  0.2228
 4656SOL    HW225428   3.244   1.401   8.769 -1.0968 -0.9593 -0.0254
 4657SOL     OW25429   3.993   1.716   9.695 -0.2934  0.0074 -0.5125
 4657SOL    HW125430   3.939   1.674   9.627 -1.5831 -0.7336  0.9608
 4657SOL    HW225431   4.079   1.677   9.681  0.6901  1.3080  1.8642
 4658SOL     OW25432   2.902   1.034   7.113  0.1336  0.8962  0.0244
 4658SOL    HW125433   2.950   0.954   7.093  0.0354  0.2167  2.5554
 4658SOL    HW225434   2.829   1.000   7.165  0.0558 -0.1759 -0.8057
 4659SOL     OW25435   1.532   2.407   2.676  0.1389 -0.2348  0.3870
 4659SOL    HW125436   1.513   2.498   2.696 -0.4191 -0.2944  0.1194
 4659SOL    HW225437   1.459   2.384   2.618 -0.0201  0.1923  0.4237
 4660SOL     OW25438   2.291   2.447   7.086  0.7049 -0.0255  0.2935
 4660SOL    HW125439   2.304   2.426   7.179 -3.7921  1.6611  1.2788
 4660SOL    HW225440   2.360   2.510   7.067  0.7557  0.2211  1.3226
 4661SOL     OW25441   3.746   3.209   8.077 -0.3580  0.2867  0.0233
 4661SOL    HW125442   3.741   3.223   8.172 -0.2207  0.4968 -0.0001
 4661SOL    HW225443   3.810   3.138   8.081 -1.6059 -0.8066  0.7831
 4662SOL     OW25444   3.771   1.736   0.762  0.0477 -0.3776  0.1114
 4662SOL    HW125445   3.826   1.665   0.795  0.8916  1.1538  2.0068
 4662SOL    HW225446   3.740   1.778   0.842  0.2179 -0.9062  0.4531
 4663SOL     OW25447   0.349   0.901   2.974 -0.5453 -0.2074 -0.0578
 4663SOL    HW125448   0.360   0.836   2.904 -2.4121 -0.6480  0.0565
 4663SOL    HW225449   0.254   0.895   2.978 -0.5132  0.5841  1.6886
 4664SOL     OW25450   0.976   1.635   5.227 -0.1188  0.2404  0.4160
 4664SOL    HW125451   1.024   1.554   5.243 -0.9450 -0.4925 -0.8109
 4664SOL    HW225452   1.033   1.679   5.163 -0.3210  0.0671  0.1173
 4665SOL     OW25453   4.274   4.348   1.417 -0.1323  0.0260 -0.3202
 4665SOL    HW125454   4.225   4.303   1.348  0.3204 -0.0877 -0.5713
 4665SOL    HW225455   4.256   4.288   1.489  0.4526  0.3816  0.1266
 4666SOL     OW25456   1.208   0.278   6.006 -0.2256 -0.1248  0.9293
 4666SOL    HW125457   1.266   0.350   5.982  1.4779 -1.5563  0.7518
 4666SOL    HW225458   1.154   0.272   5.927 -0.4487  1.7477  0.9341
 4667SOL     OW25459   3.362   0.474   4.349 -0.2673  0.0297  0.0583
 4667SOL    HW125460   3.441   0.433   4.384 -1.6110 -1.2901  1.5421
 4667SOL    HW225461   3.317   0.390   4.343 -1.6429  0.7823 -0.1977
 4668SOL     OW25462   3.608   0.301  17.094  0.1882  0.0884  0.4358
 4668SOL    HW125463   3.692   0.334  17.124 -0.2883  3.7616 -2.2396
 4668SOL    HW225464   3.570   0.376  17.048  0.2954 -0.9678 -1.4147
 4669SOL     OW25465   2.769   2.712  16.637  0.3248 -0.2181 -0.1831
 4669SOL    HW125466   2.848   2.711  16.692  0.1326  1.1422  0.1101
 4669SOL    HW225467   2.694   2.684  16.690  0.1851  0.5957  0.0364
 4670SOL     OW25468   3.775   2.309   6.814 -0.2489 -0.3581 -0.0140
 4670SOL    HW125469   3.866   2.280   6.808 -0.2796 -0.4491 -0.0437
 4670SOL    HW225470   3.740   2.275   6.897  1.5705 -1.0116  0.5081
 4671SOL     OW25471   2.488   0.217   5.814 -0.3394 -0.0074  0.2260
 4671SOL    HW125472   2.574   0.257   5.827  0.5907 -2.0967  0.5152
 4671SOL    HW225473   2.511   0.125   5.827  1.0336  0.2585 -0.3582
 4672SOL     OW25474   1.975   0.361   2.474  0.4664  0.0929  0.2086
 4672SOL    HW125475   1.896   0.410   2.493 -0.6902 -2.4817  2.0905
 4672SOL    HW225476   2.000   0.340   2.564  2.8365 -0.0964 -0.4846
 4673SOL     OW25477   3.929   2.201   7.494  0.3202  0.1887 -0.1349
 4673SOL    HW125478   4.016   2.182   7.460 -0.1159 -1.3543 -0.3752
 4673SOL    HW225479   3.906   2.120   7.539 -0.9889  1.3019  1.1906
 4674SOL     OW25480   2.676   4.340   9.978  0.3627 -0.1535  0.3914
 4674SOL    HW125481   2.634   4.270   9.929  3.9128 -0.4947 -2.1867
 4674SOL    HW225482   2.765   4.317   9.949 -0.3335  0.2018 -2.0276
 4675SOL     OW25483   1.222   4.206   4.196 -0.2603  0.7237 -0.1724
 4675SOL    HW125484   1.201   4.256   4.116 -1.4899 -0.8349 -0.8162
 4675SOL    HW225485   1.166   4.129   4.194 -1.1042  1.3757 -2.0242
 4676SOL     OW25486   0.563   2.936   4.426 -0.2047  0.1160 -0.6865
 4676SOL    HW125487   0.629   3.005   4.423  0.1382 -0.1958 -0.2574
 4676SOL    HW225488   0.492   2.970   4.371 -3.3273  1.1366  3.9969
 4677SOL     OW25489   0.441   0.022   7.099 -0.3402  0.0304  0.1529
 4677SOL    HW125490   0.518   4.708   7.142 -0.9854  0.2110  1.4947
 4677SOL    HW225491   0.447   0.111   7.134 -0.3825  0.9951 -2.3497
 4678SOL     OW25492   2.855   0.148   1.372  0.1298 -0.6756 -0.1088
 4678SOL    HW125493   2.934   0.163   1.422 -0.6571  3.2611 -0.0339
 4678SOL    HW225494   2.884   0.074   1.318  0.7925  0.5044 -1.3812
 4679SOL     OW25495   1.021   3.228   6.264 -0.0887 -0.5451 -0.0148
 4679SOL    HW125496   1.084   3.163   6.234 -0.4878 -0.9791  0.0773
 4679SOL    HW225497   0.977   3.260   6.186 -0.4471  0.2581  0.5111
 4680SOL     OW25498   1.201   4.547   4.494 -0.4446  0.4285  0.6721
 4680SOL    HW125499   1.161   4.464   4.520 -0.6272 -0.0788 -1.1871
 4680SOL    HW225500   1.219   4.544   4.400  0.5316 -0.4890  0.8776
 4681SOL     OW25501   3.086   0.690   8.349  0.8103  0.0615  0.2084
 4681SOL    HW125502   3.160   0.648   8.304  0.3560 -0.7248  0.2047
 4681SOL    HW225503   3.089   0.641   8.431  1.0559  0.3675  0.3835
 4682SOL     OW25504   2.259   0.179   1.151  0.2231 -0.3843  0.7054
 4682SOL    HW125505   2.170   0.148   1.138  0.2034 -0.0021 -0.0668
 4682SOL    HW225506   2.277   0.179   1.245  1.8851  2.5391  0.3787
 4683SOL     OW25507   3.406   2.044   7.748 -0.2282 -0.1609 -0.0002
 4683SOL    HW125508   3.398   1.973   7.812  1.1785  0.0743  0.4271
 4683SOL    HW225509   3.458   2.110   7.794 -1.9877  1.0528  0.2417
 4684SOL     OW25510   1.434   1.537   1.156  0.4327 -0.2009  0.1487
 4684SOL    HW125511   1.378   1.614   1.171 -0.0605 -0.2686 -1.3155
 4684SOL    HW225512   1.368   1.468   1.151  2.1669 -1.7764 -0.8267
 4685SOL     OW25513   0.754   2.247   4.243 -0.2455 -0.5001 -0.7704
 4685SOL    HW125514   0.718   2.184   4.181  0.8524 -1.4251 -0.4572
 4685SOL    HW225515   0.735   2.205   4.327 -1.0234  0.9981 -0.1961
 4686SOL     OW25516   3.890   3.467   7.228  0.1444  0.1681 -0.4604
 4686SOL    HW125517   3.949   3.405   7.185  0.9656  0.5465  0.1210
 4686SOL    HW225518   3.820   3.405   7.250  1.8152 -1.8711 -0.9031
 4687SOL     OW25519   1.702   1.707  14.534 -0.5164  0.2690  0.2455
 4687SOL    HW125520   1.723   1.771  14.603 -0.7984  1.6629 -0.9672
 4687SOL    HW225521   1.782   1.663  14.507 -0.7784 -1.2621  1.9701
 4688SOL     OW25522   1.095   0.327   0.980  0.3374  0.2609  0.1521
 4688SOL    HW125523   1.097   0.389   1.052  1.0414  2.0484 -1.3859
 4688SOL    HW225524   1.000   0.314   0.973  0.6281 -0.9663 -1.5899
 4689SOL     OW25525   0.327   2.934   9.045  0.5071 -0.3816 -0.0093
 4689SOL    HW125526   0.311   2.935   9.139 -3.1249 -0.3840 -0.6432
 4689SOL    HW225527   0.388   2.860   9.038  0.7906 -0.4279  2.9277
 4690SOL     OW25528   3.831   2.997   2.118 -0.0302  0.1981 -0.2857
 4690SOL    HW125529   3.744   2.958   2.129 -0.2468  0.2956 -1.7257
 4690SOL    HW225530   3.887   2.944   2.174 -0.6484 -0.2098 -0.0453
 4691SOL     OW25531   2.357   1.488   9.697  0.1926  0.2127  0.2223
 4691SOL    HW125532   2.315   1.428   9.635 -1.5456 -1.7141  3.2112
 4691SOL    HW225533   2.351   1.575   9.659  1.4743  0.5757  0.8504
 4692SOL     OW25534   0.754   2.399  15.367 -0.5857  0.2443 -0.1292
 4692SOL    HW125535   0.752   2.432  15.277  0.2570  1.5821  0.3439
 4692SOL    HW225536   0.668   2.433  15.391 -0.9306 -2.2472  2.1895
 4693SOL     OW25537   4.587   2.651  15.203 -0.2506 -0.1813  0.7453
 4693SOL    HW125538   4.633   2.567  15.207  1.8911  1.0656  2.4109
 4693SOL    HW225539   4.654   2.719  15.201 -0.3149 -0.2171 -2.9697
 4694SOL     OW25540   0.738   0.056   3.667  0.2665  0.9257 -0.0418
 4694SOL    HW125541   0.711   0.143   3.698 -0.0511  0.8273 -0.0340
 4694SOL    HW225542   0.812   0.044   3.727  0.5458  2.5820 -0.0643
 4695SOL     OW25543   0.064   2.803  15.285 -0.0050  0.5358 -0.2621
 4695SOL    HW125544   0.150   2.843  15.295 -0.2444  0.6464  1.4095
 4695SOL    HW225545   0.013   2.859  15.345  1.4617  0.7525  0.7730
 4696SOL     OW25546   0.865   0.731   6.353 -0.2286  0.7573  0.5794
 4696SOL    HW125547   0.921   0.759   6.280  0.8131  0.0292  1.1089
 4696SOL    HW225548   0.774   0.749   6.329 -0.5968 -0.6711  0.8827
 4697SOL     OW25549   1.648   0.955   5.241 -1.0413 -0.0758 -0.0928
 4697SOL    HW125550   1.614   0.878   5.196 -4.6527  1.1353  0.6035
 4697SOL    HW225551   1.717   0.976   5.178 -0.7647 -0.9688 -0.0881
 4698SOL     OW25552   1.545   0.173  13.152 -0.2708  0.5592  1.0705
 4698SOL    HW125553   1.487   0.135  13.086  0.9434  0.5517  0.0100
 4698SOL    HW225554   1.557   0.256  13.107  0.6699  0.4778  1.1880
 4699SOL     OW25555   2.811   3.598   1.446  0.1227  0.6730 -0.1021
 4699SOL    HW125556   2.853   3.615   1.361 -0.3804  0.3473 -0.4168
 4699SOL    HW225557   2.718   3.590   1.425  0.4014  0.1055 -1.1110
 4700SOL     OW25558   3.768   1.763   4.872  0.8870 -0.4041  0.1558
 4700SOL    HW125559   3.708   1.691   4.891  0.7512 -0.6321 -1.1254
 4700SOL    HW225560   3.703   1.832   4.881 -2.1565 -3.1982 -0.4571
 4701SOL     OW25561   2.794   2.242   3.079 -0.2112  0.4483 -0.0601
 4701SOL    HW125562   2.815   2.256   3.171 -1.4835  0.5522  0.2171
 4701SOL    HW225563   2.846   2.314   3.043  0.7678 -0.3161 -0.1804
 4702SOL     OW25564   0.879   1.613   3.520 -0.2966  0.1172  0.1105
 4702SOL    HW125565   0.868   1.526   3.482 -2.9459 -0.2335  1.7003
 4702SOL    HW225566   0.884   1.668   3.442 -1.0264  0.6159  0.4173
 4703SOL     OW25567   2.119   3.128   1.727 -0.5030  0.0340 -0.6342
 4703SOL    HW125568   2.202   3.147   1.772 -1.0995  2.1522 -0.4144
 4703SOL    HW225569   2.133   3.052   1.671  0.4775 -2.6501  3.2088
 4704SOL     OW25570   2.544   3.728   9.479  0.3342 -0.1069  0.3596
 4704SOL    HW125571   2.621   3.679   9.449  1.6666  2.3202 -0.2101
 4704SOL    HW225572   2.538   3.796   9.411  3.3123 -0.4118 -0.2352
 4705SOL     OW25573   3.047   0.620  16.411  0.6684  0.0775  0.3514
 4705SOL    HW125574   3.005   0.575  16.338  1.7388  0.6911 -0.6358
 4705SOL    HW225575   3.137   0.594  16.391 -0.0685 -0.2008 -2.5201
 4706SOL     OW25576   0.256   4.528   1.068  0.3343  0.3027  0.2921
 4706SOL    HW125577   0.327   4.536   1.132  0.6665 -0.0912 -0.0334
 4706SOL    HW225578   0.185   4.579   1.106  1.2960  0.7427  1.5168
 4707SOL     OW25579   3.436   4.356  12.219 -0.4694 -0.2214  0.2938
 4707SOL    HW125580   3.408   4.301  12.292  2.4996 -3.1130 -0.7187
 4707SOL    HW225581   3.484   4.428  12.262 -0.4686 -0.1625  0.1952
 4708SOL     OW25582   3.679   1.771   7.176  0.3466 -0.0082 -0.2166
 4708SOL    HW125583   3.592   1.758   7.215  0.3614  0.5553  0.0058
 4708SOL    HW225584   3.664   1.842   7.113  1.0152 -1.2385 -1.7476
 4709SOL     OW25585   3.220   2.213   4.773  0.2500 -0.4160 -0.2553
 4709SOL    HW125586   3.315   2.208   4.782  0.0051 -2.5563  0.9052
 4709SOL    HW225587   3.212   2.190   4.680 -1.0633 -0.3892 -0.1538
 4710SOL     OW25588   0.766   1.095   5.764 -0.4575  0.3056  0.1716
 4710SOL    HW125589   0.701   1.042   5.811 -1.7195  1.6886  0.0042
 4710SOL    HW225590   0.813   1.043   5.699 -1.1819 -1.8767  1.3967
 4711SOL     OW25591   2.782   0.252   4.570 -0.1128 -0.4007 -0.4101
 4711SOL    HW125592   2.869   0.291   4.584 -0.3390  1.1003 -3.3223
 4711SOL    HW225593   2.795   0.222   4.480  0.7541 -0.3925 -0.2959
 4712SOL     OW25594   2.810   1.807   5.478  0.0368 -0.0722 -0.1363
 4712SOL    HW125595   2.892   1.855   5.467 -0.6059  0.9247 -0.6321
 4712SOL    HW225596   2.813   1.733   5.416  1.7885  0.0090 -0.1351
 4713SOL     OW25597   3.629   0.276   6.258 -0.5106 -0.0669 -0.7761
 4713SOL    HW125598   3.685   0.258   6.334  0.0320  1.3376 -0.8380
 4713SOL    HW225599   3.633   0.372   6.253 -0.4890 -0.1005 -1.3717
 4714SOL     OW25600   0.123   3.007   8.230 -0.1847  0.1832 -0.2011
 4714SOL    HW125601   0.207   2.969   8.258 -0.3037  1.7150  2.2714
 4714SOL    HW225602   0.125   3.093   8.272  0.9656 -1.3901  3.0119
 4715SOL     OW25603   4.586   2.725  15.581 -0.1020  0.2585  0.5749
 4715SOL    HW125604   4.672   2.688  15.599  0.9062  1.3875 -1.8654
 4715SOL    HW225605   4.544   2.650  15.539  0.6441  1.1007 -1.6913
 4716SOL     OW25606   0.896   0.650   8.207 -0.4588 -0.0072 -0.6076
 4716SOL    HW125607   0.930   0.575   8.256 -0.0725  0.6698  0.1674
 4716SOL    HW225608   0.846   0.606   8.139 -3.0153  0.4106  1.0132
 4717SOL     OW25609   3.728   4.651   4.535  0.0843 -0.7540 -0.2706
 4717SOL    HW125610   3.647   4.600   4.535 -1.5022  1.7686 -0.4347
 4717SOL    HW225611   3.688   0.009   4.566 -1.2022 -0.7384 -1.9759
 4718SOL     OW25612   3.912   0.184   2.889  0.6812  0.1535  0.4066
 4718SOL    HW125613   3.961   0.221   2.963 -0.1119  1.9546  0.0240
 4718SOL    HW225614   3.973   0.163   2.819 -0.1025 -0.9325  0.0417
 4719SOL     OW25615   2.811   2.379   6.810 -0.1605 -0.0814 -0.6310
 4719SOL    HW125616   2.826   2.359   6.903  2.9972 -1.3670 -1.4017
 4719SOL    HW225617   2.878   2.445   6.795 -0.8541  1.0665  1.2464
 4720SOL     OW25618   1.927   1.071   7.124 -0.2458  0.3465 -0.6120
 4720SOL    HW125619   1.944   1.137   7.191 -1.0783 -3.1070  2.9866
 4720SOL    HW225620   1.832   1.073   7.133 -0.2335 -0.4641 -0.3527
 4721SOL     OW25621   0.503   1.485   4.741 -0.0983 -0.1218  0.9446
 4721SOL    HW125622   0.422   1.478   4.690  1.1658  0.1975 -1.1025
 4721SOL    HW225623   0.498   1.407   4.796 -1.6286  1.4713  3.0567
 4722SOL     OW25624   3.057   1.888  17.082 -0.1098  0.3783  0.0004
 4722SOL    HW125625   3.080   1.861  16.993  1.2146  0.1554  0.4100
 4722SOL    HW225626   3.127   1.949  17.107 -0.1824  0.9523 -1.1855
 4723SOL     OW25627   3.985   4.627   4.677  0.6228 -0.3316  0.1250
 4723SOL    HW125628   3.966   4.693   4.744  1.6144  1.3920 -1.2961
 4723SOL    HW225629   3.901   4.582   4.672  1.1528 -0.8692 -3.5833
 4724SOL     OW25630   4.559   1.791   1.176  0.2308  1.0533 -0.4624
 4724SOL    HW125631   4.630   1.851   1.150  2.0424 -0.1987  1.6051
 4724SOL    HW225632   4.516   1.783   1.091  0.1672  0.5561 -0.3784
 4725SOL     OW25633   3.035   1.214   4.256  0.8166 -0.5449  0.0017
 4725SOL    HW125634   3.123   1.253   4.257  0.6268 -0.1632  1.6652
 4725SOL    HW225635   2.997   1.228   4.169 -3.0933 -2.5029  1.4062
 4726SOL     OW25636   1.411   1.893   4.682 -0.4169  0.0250 -0.0644
 4726SOL    HW125637   1.325   1.857   4.662 -0.8294  1.1771 -0.3732
 4726SOL    HW225638   1.378   1.969   4.731  1.7990  1.0175 -0.1166
 4727SOL     OW25639   2.763   1.777  11.292  0.0328 -0.0060  0.5520
 4727SOL    HW125640   2.817   1.855  11.304  0.6807 -0.3575 -0.0974
 4727SOL    HW225641   2.682   1.794  11.340 -0.2715 -0.5870  0.2462
 4728SOL     OW25642   3.947   1.835  15.419 -0.0916  0.8344  0.1184
 4728SOL    HW125643   4.009   1.770  15.385  0.0817  1.4809 -0.8152
 4728SOL    HW225644   3.962   1.905  15.356 -0.2003  2.2021  1.6055
 4729SOL     OW25645   1.574   0.858   8.264 -0.0994 -0.5800  0.6970
 4729SOL    HW125646   1.605   0.822   8.348 -0.6171  0.5468  1.3751
 4729SOL    HW225647   1.570   0.779   8.211  0.4303 -0.2576  0.1802
 4730SOL     OW25648   3.125   1.892   4.644 -0.2307 -0.2520 -0.3112
 4730SOL    HW125649   3.032   1.911   4.634 -0.4889 -1.2069  0.2541
 4730SOL    HW225650   3.148   1.921   4.556  2.0125 -3.9458 -0.9525
 4731SOL     OW25651   0.149   1.398   7.807  0.4162 -0.1566  0.3456
 4731SOL    HW125652   0.102   1.436   7.733 -1.2449 -2.5705  0.1681
 4731SOL    HW225653   0.156   1.469   7.871 -1.3947  0.5240 -0.2143
 4732SOL     OW25654   3.830   0.728   8.033  0.4350  0.2765  0.4217
 4732SOL    HW125655   3.857   0.745   7.943 -1.2509  2.1937  0.2768
 4732SOL    HW225656   3.765   0.659   8.018 -1.9716  2.1163  2.3255
 4733SOL     OW25657   0.932   4.716  13.092  0.3615 -0.8369  0.1023
 4733SOL    HW125658   0.922   0.065  13.029  1.0102 -1.0916 -0.2914
 4733SOL    HW225659   1.013   4.677  13.059  0.1758  0.3149 -1.7321
 4734SOL     OW25660   2.968   2.606   0.449  0.8873 -0.1260 -0.0207
 4734SOL    HW125661   3.000   2.647   0.529 -0.6218 -0.7186  0.8858
 4734SOL    HW225662   2.984   2.676   0.386  1.8259 -0.5496 -0.2466
 4735SOL     OW25663   2.080   3.004   9.507 -0.1990  0.4614 -0.1013
 4735SOL    HW125664   2.140   2.955   9.563 -0.5703  1.1932  0.9338
 4735SOL    HW225665   2.024   3.034   9.579 -0.1148  1.0187 -0.2684
 4736SOL     OW25666   0.394   1.464   8.753 -0.2353  0.5412  0.2453
 4736SOL    HW125667   0.384   1.553   8.787  1.6250  1.4839 -1.7039
 4736SOL    HW225668   0.359   1.477   8.665  1.3181 -0.9902 -0.5788
 4737SOL     OW25669   1.765   0.867  16.803 -0.4837  0.7818 -0.1328
 4737SOL    HW125670   1.720   0.951  16.810 -0.8235  0.8796 -3.6573
 4737SOL    HW225671   1.815   0.865  16.884 -1.1294 -1.9249  0.2118
 4738SOL     OW25672   1.744   2.631   4.468  0.3721  0.0174 -0.5104
 4738SOL    HW125673   1.682   2.681   4.521  1.1217 -0.3460  0.6898
 4738SOL    HW225674   1.826   2.679   4.484  0.1933  0.5880 -1.2651
 4739SOL     OW25675   1.032   0.797  10.729 -0.6502 -0.3495  0.6526
 4739SOL    HW125676   1.070   0.722  10.776  0.0368 -1.2268 -1.3208
 4739SOL    HW225677   0.940   0.796  10.756 -1.1923 -1.3949 -1.2585
 4740SOL     OW25678   2.797   0.456   6.866 -0.0956 -0.7221 -0.4518
 4740SOL    HW125679   2.893   0.457   6.868 -0.0904  0.6227 -2.1074
 4740SOL    HW225680   2.776   0.544   6.898  0.6608 -1.2071  1.4285
 4741SOL     OW25681   4.249   1.090   2.712 -0.1588 -0.4896  0.6028
 4741SOL    HW125682   4.242   1.000   2.744 -0.2632 -1.3307 -1.7542
 4741SOL    HW225683   4.305   1.077   2.635 -0.3145 -2.7685  0.8920
 4742SOL     OW25684   3.929   0.002   6.122 -0.0076 -0.4565  0.4439
 4742SOL    HW125685   3.920   4.711   6.216 -1.6328  1.6059  0.5826
 4742SOL    HW225686   3.982   0.082   6.122 -0.1651 -0.3588 -1.0063
 4743SOL     OW25687   2.760   4.531   5.071 -0.4760 -0.1554  0.6643
 4743SOL    HW125688   2.835   4.475   5.049  0.3154  0.5305  1.6424
 4743SOL    HW225689   2.711   4.467   5.124 -1.5909 -1.3173 -1.7949
 4744SOL     OW25690   1.904   2.352  12.978  0.7502  0.0028 -0.2613
 4744SOL    HW125691   1.813   2.347  13.010  1.5044  1.4924  2.0962
 4744SOL    HW225692   1.924   2.259  12.989  2.6707  0.1300 -2.8557
 4745SOL     OW25693   4.704   0.859   2.248 -0.0430 -0.2216 -0.4965
 4745SOL    HW125694   4.669   0.940   2.211 -0.2393 -0.2325 -0.3320
 4745SOL    HW225695   0.002   0.884   2.338  1.5707 -0.3496 -0.8351
 4746SOL     OW25696   2.471   0.403   1.249  0.0113 -0.1765  0.1328
 4746SOL    HW125697   2.565   0.385   1.259 -0.2287 -1.3634  0.3012
 4746SOL    HW225698   2.444   0.378   1.161 -2.1114  0.0006  0.7210
 4747SOL     OW25699   1.277   3.879   7.645 -0.4633  0.1238 -0.4720
 4747SOL    HW125700   1.372   3.882   7.632 -0.0357 -2.8712  2.1052
 4747SOL    HW225701   1.260   3.969   7.617 -0.0638  1.3978  3.4286
 4748SOL     OW25702   3.810   4.453   0.196  0.0291  0.3072 -0.4250
 4748SOL    HW125703   3.838   4.530   0.245 -0.4140  1.6329 -2.2244
 4748SOL    HW225704   3.745   4.416   0.255  1.1174  0.0927  0.6446
 4749SOL     OW25705   3.447   3.888  15.030  0.2885  0.1941 -0.0417
 4749SOL    HW125706   3.394   3.942  15.088  0.3764  0.6287 -0.3610
 4749SOL    HW225707   3.530   3.928  15.056  0.5826  0.3419 -1.1939
 4750SOL     OW25708   1.750   2.528  14.388  0.4656  0.5890  0.1794
 4750SOL    HW125709   1.699   2.605  14.413 -0.6491 -0.1789  0.3217
 4750SOL    HW225710   1.685   2.458  14.401  0.4605 -0.1263 -3.6811
 4751SOL     OW25711   4.622   2.590   7.041  0.3340 -0.4094  0.5023
 4751SOL    HW125712   4.632   2.552   6.954  1.7980  0.5522  0.2375
 4751SOL    HW225713   4.659   2.523   7.099  1.4891  0.3378  0.6386
 4752SOL     OW25714   4.177   4.157   5.160 -0.1804 -0.4939  0.4057
 4752SOL    HW125715   4.151   4.159   5.252 -0.3914 -0.9409  0.3590
 4752SOL    HW225716   4.093   4.149   5.115  0.2561 -0.6407 -0.3876
 4753SOL     OW25717   4.655   0.919  15.504  0.1763  0.2936 -0.0505
 4753SOL    HW125718   4.663   0.826  15.523  2.4316  0.5646  0.3178
 4753SOL    HW225719   4.714   0.928  15.428  0.0946 -1.0875 -0.2845
 4754SOL     OW25720   4.440   1.200   2.913 -0.2024  0.3835 -0.0712
 4754SOL    HW125721   4.534   1.207   2.925 -0.0760  0.1411 -0.9465
 4754SOL    HW225722   4.435   1.233   2.824 -0.0041 -0.6004 -0.4525
 4755SOL     OW25723   4.275   0.759   9.788  0.1153 -0.3215 -0.0940
 4755SOL    HW125724   4.212   0.829   9.802  0.0299 -1.1136  3.6570
 4755SOL    HW225725   4.208   0.692   9.806  2.4246 -2.7493 -0.6067
 4756SOL     OW25726   3.043   0.069   3.845 -0.3054 -0.2014 -0.5755
 4756SOL    HW125727   3.050   0.069   3.941 -0.1028 -0.3787 -0.5911
 4756SOL    HW225728   3.117   0.115   3.807  1.1395 -3.0335 -1.1627
 4757SOL     OW25729   0.342   0.252   2.106 -0.2490 -0.1459  0.2323
 4757SOL    HW125730   0.376   0.261   2.017  0.0714  2.4515  0.6014
 4757SOL    HW225731   0.411   0.251   2.172 -0.3273 -0.2088  0.3130
 4758SOL     OW25732   4.364   1.939   9.149 -0.0696 -0.3089 -0.2281
 4758SOL    HW125733   4.285   1.966   9.195  0.5879  3.2675 -1.1845
 4758SOL    HW225734   4.325   1.883   9.081 -1.2778  0.6076 -0.2921
 4759SOL     OW25735   1.850   2.492  16.086 -0.2751 -0.0529 -0.2330
 4759SOL    HW125736   1.861   2.586  16.097  0.0867 -0.3827  2.0695
 4759SOL    HW225737   1.916   2.495  16.017  0.9615  3.3291  1.1189
 4760SOL     OW25738   2.378   2.164   1.010  0.3385 -0.2331  0.5465
 4760SOL    HW125739   2.302   2.223   1.002 -0.7886 -1.8826 -0.9084
 4760SOL    HW225740   2.453   2.223   1.017  1.6438 -1.9852  0.9495
 4761SOL     OW25741   2.959   2.227  15.205 -0.4140 -0.4641  0.1898
 4761SOL    HW125742   2.976   2.256  15.116  0.8952 -0.7809  0.3390
 4761SOL    HW225743   2.869   2.194  15.205 -0.4693 -0.3066 -1.6096
 4762SOL     OW25744   0.588   2.631   7.265 -0.7736 -0.2223 -0.0490
 4762SOL    HW125745   0.674   2.590   7.252 -0.0746  1.2839 -0.1076
 4762SOL    HW225746   0.574   2.600   7.354  1.8040  1.6608  0.9993
 4763SOL     OW25747   2.202   1.497   5.583  0.5521  0.2098 -0.1641
 4763SOL    HW125748   2.183   1.580   5.539  0.7932  0.7551  0.7459
 4763SOL    HW225749   2.259   1.535   5.650  0.4406  0.0606  0.0150
 4764SOL     OW25750   4.443   3.827   4.488 -0.1250 -0.4366 -0.0843
 4764SOL    HW125751   4.433   3.745   4.536 -2.3030 -0.9068 -1.3151
 4764SOL    HW225752   4.424   3.899   4.548  1.8939 -0.9635  1.1751
 4765SOL     OW25753   4.184   4.611   3.007 -0.0726  0.0506  0.0224
 4765SOL    HW125754   4.275   4.625   2.981  0.4336 -0.8138  1.3235
 4765SOL    HW225755   4.172   4.705   3.023 -0.9051  0.0573 -0.6113
 4766SOL     OW25756   0.792   2.394   5.430  0.0390  0.6147  0.3067
 4766SOL    HW125757   0.752   2.371   5.346  1.4257 -0.0571 -0.1765
 4766SOL    HW225758   0.735   2.462   5.465 -1.9380  0.0335 -1.7306
 4767SOL     OW25759   1.792   4.352   5.806 -0.1456  0.3543 -0.4859
 4767SOL    HW125760   1.783   4.325   5.897  0.1285 -1.2446 -0.9133
 4767SOL    HW225761   1.770   4.445   5.802 -1.1473  0.1313 -0.1377
 4768SOL     OW25762   2.632   4.068  12.542  0.2420  0.1553  0.0632
 4768SOL    HW125763   2.695   4.113  12.485 -0.3202 -2.3083 -2.5124
 4768SOL    HW225764   2.570   4.141  12.550 -2.4990 -2.2506  0.6412
 4769SOL     OW25765   0.890   0.194   1.291 -0.1506 -0.8243  0.1006
 4769SOL    HW125766   0.955   0.264   1.292 -0.8568 -0.1213 -2.1621
 4769SOL    HW225767   0.866   0.183   1.199 -1.1660 -0.3111  0.3101
 4770SOL     OW25768   0.116   3.060  12.385 -0.3959 -0.0197  0.5930
 4770SOL    HW125769   0.183   2.993  12.370  0.7212  0.5239  3.1806
 4770SOL    HW225770   0.045   3.020  12.336 -0.6246  0.3832  0.5946
 4771SOL     OW25771   2.290   1.688   1.670  0.5942  0.4671 -0.0796
 4771SOL    HW125772   2.332   1.740   1.602 -0.0864  0.9400 -0.1384
 4771SOL    HW225773   2.229   1.634   1.619  0.8187  0.3472 -0.2213
 4772SOL     OW25774   1.442   2.695   5.629 -0.0416  0.2430  0.1142
 4772SOL    HW125775   1.529   2.724   5.655  0.3007 -0.5667 -0.1592
 4772SOL    HW225776   1.450   2.704   5.534  1.9597  1.9121  0.4391
 4773SOL     OW25777   1.902   1.880   1.054  0.2741 -0.0964 -0.7200
 4773SOL    HW125778   1.939   1.959   1.094  1.8559 -0.7851 -0.8084
 4773SOL    HW225779   1.911   1.911   0.964  0.4058  0.8046 -0.3969
 4774SOL     OW25780   4.036   0.634   5.765 -0.6510 -0.4291  0.3570
 4774SOL    HW125781   4.015   0.590   5.847 -0.5626  0.3144  0.7737
 4774SOL    HW225782   4.121   0.592   5.752 -0.9983 -1.4653  1.4575
 4775SOL     OW25783   3.140   0.611   1.710 -0.0440 -0.1062 -0.9167
 4775SOL    HW125784   3.111   0.532   1.665 -0.4960  0.7557 -2.1684
 4775SOL    HW225785   3.123   0.668   1.635  1.1566  0.3347 -0.8600
 4776SOL     OW25786   1.291   1.150   2.546  0.3719  0.3865 -0.0226
 4776SOL    HW125787   1.349   1.112   2.479 -1.9329 -1.3891 -1.0058
 4776SOL    HW225788   1.211   1.151   2.494 -0.2120 -3.0010  0.7945
 4777SOL     OW25789   1.993   0.634   3.204  0.0110  0.0822 -0.1115
 4777SOL    HW125790   1.943   0.622   3.124 -0.3941 -0.5815  0.2382
 4777SOL    HW225791   2.018   0.726   3.198 -1.6954  0.4896 -1.0928
 4778SOL     OW25792   0.249   2.234   3.416 -0.0366 -0.7538  0.1488
 4778SOL    HW125793   0.312   2.162   3.416  1.1310  0.2749 -2.4641
 4778SOL    HW225794   0.291   2.296   3.474  0.9975 -2.7683  1.5380
 4779SOL     OW25795   0.267   2.285   6.598 -0.1652  0.2031 -0.3943
 4779SOL    HW125796   0.251   2.342   6.674  0.1301  0.0525 -0.2226
 4779SOL    HW225797   0.362   2.289   6.594 -0.1307  0.3402  0.6361
 4780SOL     OW25798   0.300   3.426   2.545 -0.1325 -0.2787 -0.2214
 4780SOL    HW125799   0.359   3.402   2.474 -2.2949 -0.6564 -1.8975
 4780SOL    HW225800   0.341   3.409   2.630 -1.0274 -2.7412 -0.2816
 4781SOL     OW25801   1.599   2.275  16.912 -0.0318  0.1145 -0.1039
 4781SOL    HW125802   1.659   2.294  16.840  1.4882  1.3148  1.4467
 4781SOL    HW225803   1.541   2.218  16.862 -0.6275  1.5000 -0.9818
 4782SOL     OW25804   0.457   1.251   6.912  0.0402 -0.0704  0.2573
 4782SOL    HW125805   0.523   1.194   6.873  1.0762  1.2406  0.0946
 4782SOL    HW225806   0.464   1.222   7.003 -1.0338 -0.3749  0.2467
 4783SOL     OW25807   1.186   1.220  10.560  0.2369 -0.0933 -0.0299
 4783SOL    HW125808   1.135   1.182  10.631 -1.9383  0.7936 -1.1094
 4783SOL    HW225809   1.275   1.208  10.593  0.7750  0.2579 -1.3487
 4784SOL     OW25810   4.311   4.334   9.285  0.1685  0.6374 -0.4061
 4784SOL    HW125811   4.290   4.277   9.360  0.6631  1.2582  0.1955
 4784SOL    HW225812   4.288   4.414   9.332  0.9214 -0.3829  1.7213
 4785SOL     OW25813   1.447   2.845  10.119  0.5019 -0.2889  0.3652
 4785SOL    HW125814   1.413   2.757  10.107  0.3015 -0.0496 -0.8557
 4785SOL    HW225815   1.466   2.843  10.213 -1.1696  1.4987  0.7448
 4786SOL     OW25816   2.512   3.849  12.631 -0.2030 -0.3740  0.7128
 4786SOL    HW125817   2.552   3.908  12.567 -3.1666  2.7511  1.6898
 4786SOL    HW225818   2.512   3.903  12.710 -1.6107  1.5998 -0.6270
 4787SOL     OW25819   0.830   2.388   6.968 -0.8210 -0.2457  0.3662
 4787SOL    HW125820   0.890   2.417   7.037 -0.3726 -1.9468  0.6926
 4787SOL    HW225821   0.886   2.387   6.890 -0.4733 -2.4754  0.6219
 4788SOL     OW25822   0.658   1.224  16.105  0.0949  0.3603  0.1713
 4788SOL    HW125823   0.667   1.213  16.200 -3.1094  1.1463  0.5413
 4788SOL    HW225824   0.574   1.183  16.083  0.9752 -1.1067 -0.4701
 4789SOL     OW25825   1.105   1.015   6.745 -0.5409  0.4416  0.0259
 4789SOL    HW125826   1.175   1.021   6.680  0.6234  1.6923  1.4035
 4789SOL    HW225827   1.048   0.947   6.709  0.4043  0.0980 -0.8184
 4790SOL     OW25828   1.029   1.393  12.248  0.4319 -0.0525 -0.4561
 4790SOL    HW125829   1.001   1.472  12.202  0.2194  0.5243  0.6645
 4790SOL    HW225830   1.021   1.407  12.342  0.4061 -2.4084 -0.0987
 4791SOL     OW25831   4.713   0.078   3.460 -0.6423 -0.5600  0.6752
 4791SOL    HW125832   4.621   0.104   3.450  0.0875  2.4876  1.9196
 4791SOL    HW225833   0.021   0.139   3.394  1.7455 -1.3702  1.0401
 4792SOL     OW25834   4.237   3.212   3.335 -0.2585 -0.3902  0.1545
 4792SOL    HW125835   4.180   3.282   3.367  0.4065  1.1543 -2.0963
 4792SOL    HW225836   4.249   3.235   3.243 -0.1058 -0.2197  0.2172
 4793SOL     OW25837   4.514   3.949   9.414 -0.1495 -0.4973 -0.2848
 4793SOL    HW125838   4.420   3.934   9.422 -0.3077  0.7384  0.1646
 4793SOL    HW225839   4.558   3.871   9.449 -0.6837 -2.1260 -3.2522
 4794SOL     OW25840   4.447   1.241   8.476  0.0881  0.2863  0.1689
 4794SOL    HW125841   4.389   1.258   8.402 -1.6580  0.9069  1.6614
 4794SOL    HW225842   4.452   1.328   8.515  2.5796  0.2158  0.0161
 4795SOL     OW25843   2.296   2.709   3.682  0.1944  0.1031  0.6697
 4795SOL    HW125844   2.257   2.796   3.697  0.3381  0.5957 -1.8196
 4795SOL    HW225845   2.227   2.672   3.626  0.4669 -0.0573  0.4419
 4796SOL     OW25846   2.530   0.505   6.726  0.5750  0.1866  0.5063
 4796SOL    HW125847   2.568   0.533   6.809 -0.3489  1.5069  0.4778
 4796SOL    HW225848   2.579   0.566   6.669 -1.3436  0.2507 -1.0933
 4797SOL     OW25849   2.718   4.467   9.650 -0.4366 -0.2772  0.0930
 4797SOL    HW125850   2.790   4.413   9.683 -1.1491 -1.4509 -0.2641
 4797SOL    HW225851   2.752   4.511   9.572 -0.8650 -1.0969 -0.5541
 4798SOL     OW25852   3.780   0.515   3.504 -0.3359 -0.1630 -0.4603
 4798SOL    HW125853   3.786   0.497   3.598 -0.1858 -0.5638 -0.5489
 4798SOL    HW225854   3.799   0.609   3.502  2.6074 -0.7346  0.4957
 4799SOL     OW25855   4.634   4.548   3.113  0.2379  0.1825 -0.0282
 4799SOL    HW125856   4.672   4.491   3.180  2.1081 -0.5173 -1.7017
 4799SOL    HW225857   4.584   4.490   3.055 -0.7607  0.7880  0.2176
 4800SOL     OW25858   3.953   2.553   2.440  0.0431  0.1343  0.3703
 4800SOL    HW125859   3.919   2.474   2.482 -1.5696  1.2975  1.2631
 4800SOL    HW225860   4.047   2.534   2.438 -0.0527 -0.2408 -0.6348
 4801SOL     OW25861   2.158   0.129   0.828  0.6095 -0.2491 -0.1430
 4801SOL    HW125862   2.168   0.064   0.898 -2.9355 -1.0391 -0.3439
 4801SOL    HW225863   2.246   0.124   0.791  0.7877 -1.4249  0.4186
 4802SOL     OW25864   1.064   4.302  15.560  0.6881  0.5989 -0.3725
 4802SOL    HW125865   1.012   4.225  15.583  0.8892  0.9086  1.1178
 4802SOL    HW225866   1.042   4.310  15.468  0.4989  0.4718 -0.3383
 4803SOL     OW25867   1.690   4.392   6.949 -0.0971 -0.2721  0.2822
 4803SOL    HW125868   1.615   4.333   6.952  0.7287 -1.3166  0.2644
 4803SOL    HW225869   1.753   4.324   6.926  2.6317  2.6459 -0.9275
 4804SOL     OW25870   3.577   1.507   8.828  0.0928 -0.2914  0.0467
 4804SOL    HW125871   3.557   1.599   8.811 -1.8145 -0.6641  0.2590
 4804SOL    HW225872   3.608   1.476   8.744 -0.3731  1.0377 -0.6214
 4805SOL     OW25873   0.002   0.818   2.514  0.5226 -0.0080 -0.0144
 4805SOL    HW125874   4.651   0.759   2.520 -0.7257  1.4097 -1.5705
 4805SOL    HW225875   4.712   0.869   2.594 -0.4800  1.3407 -1.0387
 4806SOL     OW25876   2.523   2.488   8.108 -0.0470 -0.4608 -0.2002
 4806SOL    HW125877   2.486   2.402   8.088 -2.1766 -0.0644  1.9825
 4806SOL    HW225878   2.460   2.537   8.055 -0.5017  2.4147  3.0091
 4807SOL     OW25879   2.095   4.402  16.783  0.3224 -0.1355 -0.5777
 4807SOL    HW125880   2.090   4.443  16.870 -0.3418 -0.5513 -0.4160
 4807SOL    HW225881   2.084   4.311  16.810  1.3318 -0.1583 -0.2744
 4808SOL     OW25882   3.879   3.234  16.627  0.6870  0.2690  0.4113
 4808SOL    HW125883   3.904   3.301  16.563  0.2911  0.4602  0.4592
 4808SOL    HW225884   3.784   3.229  16.618  0.7019  0.3321  0.2075
 4809SOL     OW25885   1.542   2.646   8.384  0.3300 -0.5233 -0.3180
 4809SOL    HW125886   1.635   2.666   8.391  0.3719 -0.9701  0.4348
 4809SOL    HW225887   1.523   2.689   8.468  1.7898  2.9083 -1.7487
 4810SOL     OW25888   3.492   4.031  17.392 -0.0159 -0.0685 -0.3335
 4810SOL    HW125889   3.514   4.113  17.435  0.9517 -2.0083  2.8756
 4810SOL    HW225890   3.570   4.014  17.340  0.4512 -0.9084  0.6533
 4811SOL     OW25891   4.176   0.015  14.685 -0.0581 -0.0448  0.2329
 4811SOL    HW125892   4.123   4.706  14.612  1.9456 -1.2135 -0.7163
 4811SOL    HW225893   4.163   4.667  14.747  1.2172 -1.2205 -0.8418
 4812SOL     OW25894   2.228   2.552  11.949 -0.4188  0.0883 -0.3165
 4812SOL    HW125895   2.251   2.574  11.859 -0.2710  1.1106 -0.0280
 4812SOL    HW225896   2.212   2.638  11.988  1.3462 -0.0607  0.7136
 4813SOL     OW25897   2.122   2.690   4.860  0.4164 -0.5129  0.5508
 4813SOL    HW125898   2.081   2.722   4.941 -0.4464 -1.4607  0.5048
 4813SOL    HW225899   2.200   2.744   4.855  0.2984 -0.6543 -2.4969
 4814SOL     OW25900   0.949   4.488   8.721  0.0472  0.1793  0.1767
 4814SOL    HW125901   0.988   4.532   8.797  2.8553 -1.5837 -0.2103
 4814SOL    HW225902   1.025   4.462   8.669 -1.1383 -1.3121 -0.7965
 4815SOL     OW25903   4.332   2.920   2.927  0.2453  0.2908  0.1391
 4815SOL    HW125904   4.360   2.869   3.003 -2.3824 -2.3278 -0.6232
 4815SOL    HW225905   4.336   3.012   2.954  0.9277  0.3679 -0.2319
 4816SOL     OW25906   0.799   3.206   2.950  0.3815 -0.0826  0.3021
 4816SOL    HW125907   0.816   3.139   3.016 -0.6286 -0.0084  0.6385
 4816SOL    HW225908   0.762   3.154   2.878  0.7956 -1.0547  0.7930
 4817SOL     OW25909   1.774   0.053  15.581  0.5774 -0.1278  0.3633
 4817SOL    HW125910   1.822   0.106  15.517  2.7051 -0.1604  1.9019
 4817SOL    HW225911   1.747   4.701  15.528 -0.3491 -0.7257  1.6748
 4818SOL     OW25912   2.193   2.306   3.738 -0.1297  0.0576  0.2175
 4818SOL    HW125913   2.273   2.255   3.732 -1.0505 -1.5827  1.7967
 4818SOL    HW225914   2.221   2.394   3.716  1.6692 -0.3081  1.1090
 4819SOL     OW25915   4.494   0.659   2.459 -0.4334  0.5142  0.4216
 4819SOL    HW125916   4.478   0.689   2.369  1.2429 -0.8995 -0.3524
 4819SOL    HW225917   4.408   0.619   2.470 -1.4672  2.6788  0.1006
 4820SOL     OW25918   0.458   2.044   7.471 -0.0556 -0.1491 -0.2243
 4820SOL    HW125919   0.525   2.106   7.500 -0.3641 -0.6612  1.5898
 4820SOL    HW225920   0.437   2.009   7.558 -1.1192 -0.5155 -0.6294
 4821SOL     OW25921   0.570   1.138   1.717 -0.1310  0.5800  0.1574
 4821SOL    HW125922   0.508   1.146   1.789  0.6882  0.4256  0.8738
 4821SOL    HW225923   0.636   1.203   1.744  0.5194 -0.2363  0.5330
 4822SOL     OW25924   0.856   2.613   6.448  0.3867 -0.6440 -0.3071
 4822SOL    HW125925   0.894   2.701   6.438  0.2676 -0.4386  1.0779
 4822SOL    HW225926   0.769   2.623   6.486  0.0285 -0.9925 -1.0421
 4823SOL     OW25927   3.155   3.042  16.855  0.0415 -0.0915 -0.4239
 4823SOL    HW125928   3.146   3.060  16.761 -1.2350 -0.6336 -0.4134
 4823SOL    HW225929   3.064   3.070  16.867  0.1088 -0.7193  1.4809
 4824SOL     OW25930   3.189   4.673  13.500 -0.2230 -0.0484  0.1895
 4824SOL    HW125931   3.156   4.664  13.411  2.5968 -0.6695 -0.7800
 4824SOL    HW225932   3.273   4.709  13.474  0.1918 -1.4397 -0.4166
 4825SOL     OW25933   0.961   1.655   9.202 -0.2552  0.2142 -0.4250
 4825SOL    HW125934   0.944   1.736   9.250 -1.1656 -0.8408  1.0346
 4825SOL    HW225935   0.898   1.595   9.244 -0.3086 -0.5370 -1.5696
 4826SOL     OW25936   0.038   1.277  17.467 -0.1383  0.0658  0.4818
 4826SOL    HW125937   0.113   1.260  17.524  0.2850  2.3116  0.5764
 4826SOL    HW225938   0.085   1.322  17.396  1.4722 -2.1347  0.1575
 4827SOL     OW25939   3.521   0.137   4.252  0.2925  0.1709  0.0661
 4827SOL    HW125940   3.597   0.091   4.289  1.6336  2.6955  0.4353
 4827SOL    HW225941   3.472   0.055   4.247 -0.2048  0.4765 -0.0388
 4828SOL     OW25942   2.304   1.952   3.048 -0.5034  0.2898 -0.5033
 4828SOL    HW125943   2.212   1.938   3.026 -0.6498 -0.3186  0.5087
 4828SOL    HW225944   2.297   2.011   3.124  1.7005  2.0053 -1.6379
 4829SOL     OW25945   3.494   3.418  15.672 -0.3943 -0.3649  0.2791
 4829SOL    HW125946   3.474   3.325  15.686 -1.6852 -0.5408 -2.7353
 4829SOL    HW225947   3.404   3.450  15.670 -0.8608 -1.6969 -0.6970
 4830SOL     OW25948   3.833   4.562  16.959  0.4555  0.0288  0.0092
 4830SOL    HW125949   3.767   4.583  16.894 -0.0740 -0.6961  0.3194
 4830SOL    HW225950   3.828   4.646  17.003  1.2981  0.1368 -0.0912
 4831SOL     OW25951   1.077   0.863   3.652 -0.7126  0.2206  0.4239
 4831SOL    HW125952   1.151   0.889   3.707  0.6269  0.0805 -1.3018
 4831SOL    HW225953   1.044   0.947   3.621 -3.8042 -0.5302  1.6886
 4832SOL     OW25954   4.606   1.055   5.541 -0.2413  0.0320  0.2748
 4832SOL    HW125955   4.691   1.045   5.497  0.0156 -3.1950  1.4810
 4832SOL    HW225956   4.611   0.996   5.616  0.2082  2.0599  1.8349
 4833SOL     OW25957   2.352   0.476  12.908  0.4605 -0.1145 -0.7260
 4833SOL    HW125958   2.409   0.482  12.984 -1.1084  1.6282  0.3106
 4833SOL    HW225959   2.317   0.389  12.926  1.0013  0.2074  1.8475
 4834SOL     OW25960   4.286   2.490  15.060  0.3899 -0.1283 -0.3279
 4834SOL    HW125961   4.191   2.483  15.057  0.4591 -1.1430 -0.1404
 4834SOL    HW225962   4.316   2.400  15.049 -0.7444 -0.7256  1.4807
 4835SOL     OW25963   0.031   2.391   7.688  0.2444 -0.1734  0.2987
 4835SOL    HW125964   0.040   2.469   7.742 -2.5178 -0.3743  1.0351
 4835SOL    HW225965   4.667   2.401   7.650  0.0757 -0.6883  0.5538
 4836SOL     OW25966   1.859   2.999   2.271 -0.1406  0.0504  0.1543
 4836SOL    HW125967   1.931   2.956   2.226 -1.4751 -0.8490 -1.1368
 4836SOL    HW225968   1.836   3.071   2.212  0.1054 -1.3545 -1.6637
 4837SOL     OW25969   0.960   2.828   8.644 -0.9124 -0.3457  0.3236
 4837SOL    HW125970   0.873   2.805   8.611 -0.3503 -2.4725  0.3031
 4837SOL    HW225971   0.946   2.828   8.738  0.5210  0.8837  0.5460
 4838SOL     OW25972   4.365   2.692   1.150 -0.1786 -0.0025 -0.4406
 4838SOL    HW125973   4.461   2.694   1.158 -0.3761 -1.0836  2.2991
 4838SOL    HW225974   4.345   2.622   1.212 -0.5232 -0.0166 -0.5682
 4839SOL     OW25975   3.378   2.776   4.130  0.5557  0.3426 -0.2393
 4839SOL    HW125976   3.396   2.752   4.040 -1.0599  0.8879 -0.7172
 4839SOL    HW225977   3.355   2.691   4.169  0.5786  0.7733  0.7167
 4840SOL     OW25978   0.575   1.975   9.737 -0.0268  0.2094 -0.4015
 4840SOL    HW125979   0.581   1.974   9.641  1.2263  0.0564 -0.3311
 4840SOL    HW225980   0.663   2.008   9.757  0.4176 -1.4946  0.4377
 4841SOL     OW25981   3.026   4.423   6.282 -0.2493 -0.3492 -0.1873
 4841SOL    HW125982   3.037   4.341   6.330 -1.8915  0.4929  1.5776
 4841SOL    HW225983   3.092   4.478   6.324  1.0721 -0.1850 -2.4555
 4842SOL     OW25984   1.377   0.567   3.031 -0.3164  0.2628 -0.1531
 4842SOL    HW125985   1.389   0.531   2.943 -0.1149  2.6503 -1.1175
 4842SOL    HW225986   1.348   0.656   3.010  0.3085  0.2564 -1.0539
 4843SOL     OW25987   2.752   3.688   8.602 -0.8817  0.0770 -0.3568
 4843SOL    HW125988   2.767   3.779   8.579 -1.0685 -0.3780 -2.2461
 4843SOL    HW225989   2.708   3.649   8.527  0.0421 -0.8334 -0.4314
 4844SOL     OW25990   3.316   4.359   9.548 -0.4753  1.0541 -0.1622
 4844SOL    HW125991   3.387   4.352   9.612  0.6047 -0.7482 -1.5547
 4844SOL    HW225992   3.304   4.454   9.543 -1.1127  0.9144 -1.1329
 4845SOL     OW25993   3.120   4.684   4.839 -0.6205 -0.4253 -0.1727
 4845SOL    HW125994   3.166   4.617   4.889 -0.9942  1.4428  2.6721
 4845SOL    HW225995   3.113   0.031   4.903 -1.0807  1.2116 -1.9984
 4846SOL     OW25996   3.253   1.421   3.072  0.1695 -0.5317  0.5733
 4846SOL    HW125997   3.303   1.351   3.030  0.2779  0.1775 -0.4812
 4846SOL    HW225998   3.284   1.501   3.031 -1.8473 -0.4964 -0.8969
 4847SOL     OW25999   2.088   3.294   5.664 -0.5998 -0.4637 -0.1449
 4847SOL    HW126000   2.083   3.341   5.748 -0.4323  0.6926 -0.7785
 4847SOL    HW226001   2.183   3.292   5.657 -0.4757  1.2609  1.0013
 4848SOL     OW26002   1.552   3.013  14.608 -0.3502 -0.2283 -0.6706
 4848SOL    HW126003   1.552   3.050  14.697 -1.1880  0.8519 -1.1292
 4848SOL    HW226004   1.642   2.978  14.612 -0.2504  0.0212 -0.7729
 4849SOL     OW26005   0.821   4.620   4.695 -0.5695  0.5206 -0.3852
 4849SOL    HW126006   0.883   4.562   4.740  2.8992  1.8178 -3.4906
 4849SOL    HW226007   0.738   4.578   4.717 -0.5989  0.2423 -1.0307
 4850SOL     OW26008   2.877   3.956   3.479  0.1453  0.0662  0.5403
 4850SOL    HW126009   2.866   3.870   3.439 -0.5705 -0.2819  1.4975
 4850SOL    HW226010   2.789   3.992   3.489 -0.3935 -0.9046 -0.6418
 4851SOL     OW26011   1.834   4.401   9.966 -0.7692  0.0252  0.1554
 4851SOL    HW126012   1.920   4.382  10.003 -0.8744  0.9370  0.8694
 4851SOL    HW226013   1.775   4.374  10.035  0.6543 -0.9690  0.9880
 4852SOL     OW26014   3.045   2.584   5.573 -0.0773 -0.4931  0.0705
 4852SOL    HW126015   3.133   2.599   5.538  0.0592 -1.6355 -0.0867
 4852SOL    HW226016   3.023   2.501   5.531 -0.9218 -1.2002  1.8796
 4853SOL     OW26017   2.382   3.514   6.805  0.2597 -0.5588 -0.3750
 4853SOL    HW126018   2.300   3.553   6.775  1.1935  1.9705  0.3998
 4853SOL    HW226019   2.418   3.577   6.866 -2.3970 -0.1619  0.7916
 4854SOL     OW26020   4.109   2.026   9.643 -0.0166 -0.0016 -0.2697
 4854SOL    HW126021   4.128   2.034   9.549 -1.8592  0.8992 -0.5640
 4854SOL    HW226022   4.086   1.934   9.632 -0.3204  0.2276 -1.6451
 4855SOL     OW26023   1.597   2.717  14.486 -0.1764 -0.1697 -0.4733
 4855SOL    HW126024   1.629   2.787  14.543  0.6068 -1.1182  0.2525
 4855SOL    HW226025   1.502   2.730  14.480  0.1165  2.3136  0.0601
 4856SOL     OW26026   4.623   0.643  15.535  0.2336 -0.2215 -0.0651
 4856SOL    HW126027   4.695   0.582  15.517  1.3356  0.8484  0.7558
 4856SOL    HW226028   4.584   0.598  15.610 -4.3054 -0.5586 -2.6233
 4857SOL     OW26029   2.195   3.575   7.406  0.2744  0.0644  0.0918
 4857SOL    HW126030   2.188   3.542   7.496  0.3134 -0.0181  0.0645
 4857SOL    HW226031   2.290   3.572   7.395  0.1617  3.4455 -1.8648
 4858SOL     OW26032   1.669   0.385   0.162  0.0631  0.1381  0.4615
 4858SOL    HW126033   1.680   0.289   0.160  1.4692  0.2610  1.5814
 4858SOL    HW226034   1.578   0.384   0.192 -0.4695  1.4421 -1.1571
 4859SOL     OW26035   2.886   1.741   7.486  0.2371  0.1183  0.2855
 4859SOL    HW126036   2.885   1.729   7.581 -1.2940  0.9187  0.3777
 4859SOL    HW226037   2.900   1.836   7.488 -0.9218  0.2518  2.1625
 4860SOL     OW26038   0.228   4.178   7.950  0.5109 -0.3275  0.0155
 4860SOL    HW126039   0.199   4.235   8.021 -2.9535 -1.7840 -0.2652
 4860SOL    HW226040   0.226   4.086   7.975  0.9123 -0.0136  1.1918
 4861SOL     OW26041   3.638   3.276   6.407  0.4868 -0.0782  0.2021
 4861SOL    HW126042   3.551   3.297   6.442 -0.1963 -0.7779 -1.0538
 4861SOL    HW226043   3.648   3.184   6.429  0.5221 -0.0406  0.3426
 4862SOL     OW26044   4.723   0.566   6.398 -0.2420  0.6477  0.6131
 4862SOL    HW126045   0.083   0.526   6.374 -1.8784 -1.6332 -1.1547
 4862SOL    HW226046   4.710   0.518   6.480  0.2263  2.4827  1.7815
 4863SOL     OW26047   2.858   2.816   7.990 -0.0198 -0.3265 -0.3137
 4863SOL    HW126048   2.907   2.894   8.016  0.0011 -0.1074 -1.0037
 4863SOL    HW226049   2.828   2.840   7.902 -0.8191  0.9823  0.2983
 4864SOL     OW26050   1.220   2.828   7.011  0.7898  0.8234 -0.0092
 4864SOL    HW126051   1.184   2.780   6.936  0.7141  0.4687  0.2540
 4864SOL    HW226052   1.287   2.769   7.044 -1.4294 -1.0820  1.0413
 4865SOL     OW26053   2.408   3.383  12.279  0.3994 -0.1156  0.3556
 4865SOL    HW126054   2.416   3.459  12.221  0.5537 -0.5049 -0.1394
 4865SOL    HW226055   2.436   3.315  12.217  0.0393 -1.9051  2.1342
 4866SOL     OW26056   0.077   0.380   7.644  0.0670 -0.4497  0.1103
 4866SOL    HW126057   4.721   0.349   7.600 -1.0126 -2.1175  3.2284
 4866SOL    HW226058   0.036   0.438   7.708 -0.4099  0.3007 -0.8789
 4867SOL     OW26059   0.341   1.390   0.433  0.2538  0.4786  0.0934
 4867SOL    HW126060   0.331   1.429   0.520 -1.9020 -0.5331  0.3007
 4867SOL    HW226061   0.430   1.357   0.440  0.1178  0.0140 -0.3519
 4868SOL     OW26062   4.445   4.672   8.620 -0.4969  0.3407  0.2767
 4868SOL    HW126063   4.434   4.671   8.525  2.2207  0.1502 -0.0141
 4868SOL    HW226064   4.530   4.713   8.631 -0.7730  1.1060 -0.5069
 4869SOL     OW26065   3.423   3.718   1.128 -0.2002 -0.0664 -0.1718
 4869SOL    HW126066   3.493   3.758   1.077  1.6060 -2.0023  0.8043
 4869SOL    HW226067   3.381   3.667   1.059  0.4999 -1.0263  0.0987
 4870SOL     OW26068   1.217   2.836   9.830 -0.0006 -0.5484 -0.4315
 4870SOL    HW126069   1.183   2.844   9.919  1.3060 -0.4799  0.0643
 4870SOL    HW226070   1.142   2.800   9.782  0.3610  1.5978 -2.6079
 4871SOL     OW26071   2.382   2.223   6.654  0.0313 -0.1486 -0.0962
 4871SOL    HW126072   2.455   2.276   6.688  0.9735 -0.8387 -1.0330
 4871SOL    HW226073   2.336   2.279   6.592 -3.0352 -0.0731  2.2557
 4872SOL     OW26074   2.111   0.435   5.296  0.2919 -0.9148 -0.2071
 4872SOL    HW126075   2.108   0.417   5.390  1.8405  2.1458  0.4578
 4872SOL    HW226076   2.023   0.472   5.285  1.3291  1.1568 -1.5454
 4873SOL     OW26077   1.860   1.810  12.662  0.1172  0.9266  0.3039
 4873SOL    HW126078   1.860   1.842  12.572  0.7487  2.8902  1.0044
 4873SOL    HW226079   1.827   1.890  12.702  0.3123 -0.3885  3.0657
 4874SOL     OW26080   1.803   2.061   2.871  0.3863 -0.5084 -0.2771
 4874SOL    HW126081   1.770   2.120   2.803 -1.2832 -0.0901  0.9211
 4874SOL    HW226082   1.806   1.984   2.814  0.2647 -1.1223  0.5405
 4875SOL     OW26083   4.274   4.025   7.192 -0.0442  0.0644 -0.2860
 4875SOL    HW126084   4.307   4.108   7.158  0.9039 -1.0128 -1.9913
 4875SOL    HW226085   4.310   4.014   7.280  0.8680  0.7196 -0.5730
 4876SOL     OW26086   1.547   4.183   4.170  0.4752  0.6135 -0.0514
 4876SOL    HW126087   1.601   4.153   4.097 -3.1887 -1.1090 -2.0424
 4876SOL    HW226088   1.455   4.162   4.154  1.1809 -2.2986 -0.2228
 4877SOL     OW26089   0.389   2.650   4.344 -0.1483 -0.7567 -0.2966
 4877SOL    HW126090   0.398   2.714   4.415  1.1995 -0.5054 -0.7079
 4877SOL    HW226091   0.480   2.626   4.329 -0.2686  0.8559 -3.6542
 4878SOL     OW26092   4.605   4.148  10.559  0.2418  0.1169  0.3397
 4878SOL    HW126093   4.626   4.061  10.592 -1.8421 -0.4663  0.1048
 4878SOL    HW226094   4.659   4.146  10.480  2.2367 -1.1074  1.7592
 4879SOL     OW26095   3.190   2.388  11.633 -0.1185  0.1785  0.3608
 4879SOL    HW126096   3.228   2.469  11.668  1.1136 -0.8495  1.4052
 4879SOL    HW226097   3.107   2.377  11.679  0.5627 -1.0924  1.2655
 4880SOL     OW26098   0.439   4.014   4.019  0.1380  0.3657 -0.3258
 4880SOL    HW126099   0.350   4.050   4.025  0.6729  1.6759 -0.3626
 4880SOL    HW226100   0.433   3.921   4.045  0.0845 -0.0572 -1.8562
 4881SOL     OW26101   3.346   1.093  11.642  0.0154 -0.6214  0.9633
 4881SOL    HW126102   3.423   1.042  11.666  0.2240 -0.7335  0.0638
 4881SOL    HW226103   3.318   1.037  11.569  2.3798 -0.8633  0.2609
 4882SOL     OW26104   1.283   2.604   3.694  0.0466  0.2280 -0.1327
 4882SOL    HW126105   1.252   2.695   3.693 -0.7181  0.0015  1.8529
 4882SOL    HW226106   1.336   2.608   3.614  0.9412  2.7203  0.5659
 4883SOL     OW26107   1.430   2.182  10.140 -0.2753 -0.7722  0.1386
 4883SOL    HW126108   1.420   2.151  10.050  4.5891  1.5853 -1.1901
 4883SOL    HW226109   1.347   2.154  10.180 -1.1282  2.8508  0.8694
 4884SOL     OW26110   1.360   3.776   2.328 -0.2328  0.1803 -0.4462
 4884SOL    HW126111   1.280   3.746   2.286  0.7723 -0.9693 -1.5579
 4884SOL    HW226112   1.389   3.692   2.366  3.5171  1.1566 -1.1753
 4885SOL     OW26113   2.102   0.237   6.548 -0.7060  0.4058  0.0373
 4885SOL    HW126114   2.158   0.292   6.603 -0.0156  0.4545 -0.7177
 4885SOL    HW226115   2.090   0.293   6.471 -0.8505 -0.9479 -0.9259
 4886SOL     OW26116   1.876   1.379   4.092  0.3651  0.0586 -0.6679
 4886SOL    HW126117   1.832   1.457   4.060  1.9796  1.0598 -0.4658
 4886SOL    HW226118   1.927   1.361   4.013 -1.9547  1.1310 -2.3940
 4887SOL     OW26119   2.743   0.327   1.197 -0.3224  0.5185  0.0476
 4887SOL    HW126120   2.807   0.300   1.131 -0.5815  0.5108 -0.1963
 4887SOL    HW226121   2.755   0.258   1.263 -0.8823  0.1970 -0.1899
 4888SOL     OW26122   0.489   1.262   5.678 -0.9290 -0.4757 -0.0392
 4888SOL    HW126123   0.484   1.211   5.597  1.2561 -0.1829 -0.3666
 4888SOL    HW226124   0.582   1.281   5.668 -0.7807 -0.1141  1.9469
 4889SOL     OW26125   3.846   1.642   2.095 -0.5768 -0.2938 -0.2270
 4889SOL    HW126126   3.779   1.671   2.033  1.0448 -0.2411 -1.9356
 4889SOL    HW226127   3.918   1.700   2.073 -1.4365  1.3538  1.3115
 4890SOL     OW26128   1.634   2.876   2.417 -0.0038 -0.0217 -0.3296
 4890SOL    HW126129   1.721   2.912   2.402 -0.3613  0.8892 -0.2442
 4890SOL    HW226130   1.584   2.944   2.371 -0.6204  0.3020  0.8084
 4891SOL     OW26131   4.601   3.480   3.029 -0.5158  0.0213  0.3610
 4891SOL    HW126132   4.555   3.424   2.967  0.1405  1.1579 -1.1549
 4891SOL    HW226133   4.594   3.565   2.985  1.1395  0.3220  0.6484
 4892SOL     OW26134   0.757   1.575   0.882 -0.2071 -0.4553  0.3944
 4892SOL    HW126135   0.824   1.512   0.909 -0.1096 -0.3705  0.3472
 4892SOL    HW226136   0.772   1.567   0.787 -2.2315 -0.4575  0.0753
 4893SOL     OW26137   2.006   2.037   3.359 -0.0585  0.0144  0.3007
 4893SOL    HW126138   1.994   1.963   3.298  0.3439 -0.6077  0.9805
 4893SOL    HW226139   1.924   2.028   3.408  0.3508 -1.1846  0.7607
 4894SOL     OW26140   2.435   3.775   3.145 -0.3973  0.5189  0.0905
 4894SOL    HW126141   2.496   3.792   3.073 -0.3937  1.5469  0.3313
 4894SOL    HW226142   2.486   3.791   3.225  2.0682 -1.2065 -1.1431
 4895SOL     OW26143   2.024   2.259   9.182  0.3860 -0.3978  0.0221
 4895SOL    HW126144   2.003   2.182   9.130  2.2610 -1.2509  0.5060
 4895SOL    HW226145   2.095   2.299   9.132 -0.3645 -0.8550 -1.3867
 4896SOL     OW26146   2.686   2.480  14.202  0.4884  0.2605 -0.1632
 4896SOL    HW126147   2.743   2.554  14.180  0.7476  0.0914 -0.0698
 4896SOL    HW226148   2.688   2.439  14.116  1.5660  1.5382 -0.7571
 4897SOL     OW26149   2.179   1.762   7.909  0.4836 -0.3614 -0.2412
 4897SOL    HW126150   2.234   1.761   7.987 -0.8205  2.3591  0.7141
 4897SOL    HW226151   2.214   1.840   7.867 -1.4575  0.9180  0.5302
 4898SOL     OW26152   1.369   3.261  17.654 -0.2700 -0.3998 -0.1309
 4898SOL    HW126153   1.387   3.274   0.053  3.6037 -2.0796 -0.6732
 4898SOL    HW226154   1.452   3.221  17.631 -0.5732 -0.8869 -0.3777
 4899SOL     OW26155   3.993   2.963  17.623  0.0577 -0.3648 -0.6031
 4899SOL    HW126156   3.931   2.947  17.551  1.6657  0.0113 -2.0766
 4899SOL    HW226157   3.957   3.046  17.653 -0.1030  0.7111 -3.7139
 4900SOL     OW26158   2.072   4.592  11.365  0.0233  0.1450  0.2146
 4900SOL    HW126159   1.988   4.589  11.318 -0.3243  0.9150  0.7844
 4900SOL    HW226160   2.125   4.637  11.299 -1.4970  1.4689 -0.1040
 4901SOL     OW26161   0.028   3.338   3.571 -0.4541 -0.8498 -0.1235
 4901SOL    HW126162   4.697   3.350   3.649 -0.8159 -0.7749 -0.3864
 4901SOL    HW226163   4.715   3.401   3.508  1.5939 -0.4198 -0.8391
 4902SOL     OW26164   3.351   0.422   5.461 -0.6381  0.2106  0.4168
 4902SOL    HW126165   3.377   0.355   5.397 -0.2865  0.6706  0.0759
 4902SOL    HW226166   3.424   0.483   5.451 -1.0195  0.2482 -2.4296
 4903SOL     OW26167   2.509   2.779   1.623 -0.0191  0.3689  0.3285
 4903SOL    HW126168   2.463   2.859   1.596 -2.8433 -1.0352  1.0976
 4903SOL    HW226169   2.600   2.808   1.637  0.4109 -1.0826  0.4775
 4904SOL     OW26170   2.096   3.290   6.256  0.4044  0.0373  0.0822
 4904SOL    HW126171   2.152   3.246   6.320  2.4464  1.5313 -0.6787
 4904SOL    HW226172   2.157   3.290   6.181  1.2579 -3.0204  0.7754
 4905SOL     OW26173   2.507   2.567   4.510 -0.2405 -0.3049  0.2877
 4905SOL    HW126174   2.545   2.512   4.578  1.5788  0.7880  0.1718
 4905SOL    HW226175   2.466   2.625   4.574 -2.7546  0.2516 -1.8197
 4906SOL     OW26176   4.483   2.529  17.235 -0.1362 -0.5094 -0.2314
 4906SOL    HW126177   4.516   2.619  17.232 -0.7866 -0.2542  0.2401
 4906SOL    HW226178   4.390   2.546  17.218 -0.5792  0.3096  3.1911
 4907SOL     OW26179   2.797   0.829   5.053 -0.1698  0.3828 -0.1431
 4907SOL    HW126180   2.875   0.839   5.107 -0.4808 -0.0096  0.3839
 4907SOL    HW226181   2.828   0.779   4.978 -0.7688 -3.2516  2.0275
 4908SOL     OW26182   0.784   2.093   5.870 -0.0727 -0.0635 -0.4537
 4908SOL    HW126183   0.767   2.154   5.798  3.1116 -0.6583 -1.7108
 4908SOL    HW226184   0.713   2.029   5.857 -1.0628  0.6317  1.5986
 4909SOL     OW26185   3.560   4.618   7.202  0.1411 -0.2025  0.2524
 4909SOL    HW126186   3.513   4.537   7.184  0.9404 -0.4987 -0.5145
 4909SOL    HW226187   3.564   4.647   7.111 -3.0882 -0.8723 -0.1146
 4910SOL     OW26188   2.640   1.959   3.715 -0.5493 -0.7257  0.0634
 4910SOL    HW126189   2.628   1.940   3.622 -2.0414 -0.0791  0.1324
 4910SOL    HW226190   2.640   1.868   3.746 -0.2144  0.0021  2.1413
 4911SOL     OW26191   0.075   3.020   5.885 -0.3098 -1.1952  0.4083
 4911SOL    HW126192   0.161   3.058   5.869 -0.6654 -1.8818 -3.1272
 4911SOL    HW226193   0.113   2.945   5.930  1.0615 -0.6755  0.0920
 4912SOL     OW26194   3.465   2.409  12.621  0.6449  0.4450  0.2954
 4912SOL    HW126195   3.491   2.492  12.659 -2.9691  1.8359 -0.1940
 4912SOL    HW226196   3.433   2.365  12.700 -3.4636  0.9172 -1.0580
 4913SOL     OW26197   3.284   3.069   4.115 -0.2102 -0.1415 -0.0990
 4913SOL    HW126198   3.291   2.978   4.087  0.8937  0.0088 -0.3260
 4913SOL    HW226199   3.366   3.081   4.162 -1.0444 -0.3679  1.4270
 4914SOL     OW26200   1.394   2.214   4.559 -0.6436  0.1101  0.2924
 4914SOL    HW126201   1.327   2.278   4.534  1.6606  2.3973  0.0018
 4914SOL    HW226202   1.386   2.198   4.653 -0.1315  0.4783  0.3981
 4915SOL     OW26203   4.295   0.304  17.519  0.1685  0.2075  0.0167
 4915SOL    HW126204   4.339   0.222  17.499  0.4389  0.3729 -0.0731
 4915SOL    HW226205   4.280   0.299  17.613 -0.7418  1.0715 -0.0768
 4916SOL     OW26206   1.577   3.729   3.822  0.0129 -0.1705  0.1516
 4916SOL    HW126207   1.519   3.731   3.747  0.9953  0.0588 -0.6037
 4916SOL    HW226208   1.665   3.726   3.783  0.0065  3.2361 -0.2082
 4917SOL     OW26209   3.299   0.164   3.807  0.4983 -0.3726 -0.4556
 4917SOL    HW126210   3.344   0.083   3.831  1.0154 -0.5441 -1.9727
 4917SOL    HW226211   3.363   0.231   3.829  0.5223 -0.4464 -0.2989
 4918SOL     OW26212   3.928   0.185   4.375 -0.1996  0.0143  0.2602
 4918SOL    HW126213   3.884   0.190   4.460 -0.9785 -1.3360 -0.0651
 4918SOL    HW226214   3.936   0.278   4.357  0.4607  0.3303  2.2571
 4919SOL     OW26215   1.706   0.958   6.895 -0.2639 -0.1854  0.0155
 4919SOL    HW126216   1.717   0.868   6.925 -2.3871 -0.0450  1.1911
 4919SOL    HW226217   1.728   0.958   6.802  0.8035 -2.3346  0.2569
 4920SOL     OW26218   2.088   2.432   7.437  0.0003  0.4466 -0.0789
 4920SOL    HW126219   2.028   2.398   7.370  1.0031  1.4617 -1.4981
 4920SOL    HW226220   2.029   2.462   7.506 -0.5192  1.6294 -1.0413
 4921SOL     OW26221   0.199   2.566   7.166 -0.1398 -0.0481 -0.4362
 4921SOL    HW126222   0.166   2.581   7.255  0.4556  1.0400 -0.3999
 4921SOL    HW226223   0.250   2.647   7.159 -0.0114  0.0437  1.3518
 4922SOL     OW26224   1.954   2.309   6.323  0.3891 -0.0809  0.3637
 4922SOL    HW126225   1.954   2.382   6.386 -1.2196 -0.2087  0.5298
 4922SOL    HW226226   1.879   2.321   6.265  0.4854 -0.2055  0.2140
 4923SOL     OW26227   0.549   4.682   4.441 -0.0949  0.6610 -0.2481
 4923SOL    HW126228   0.500   4.678   4.359  2.3958 -2.2774 -1.5916
 4923SOL    HW226229   0.623   4.623   4.424  1.2353  2.0259  0.7299
 4924SOL     OW26230   4.702   1.992   9.536 -0.1866  0.2340 -0.0385
 4924SOL    HW126231   0.004   2.056   9.603  1.3508  0.1865 -0.5651
 4924SOL    HW226232   4.680   2.054   9.466  0.6890 -0.4074 -0.8866
 4925SOL     OW26233   3.336   3.469  12.029  0.1727 -0.5008 -0.2231
 4925SOL    HW126234   3.285   3.546  12.004 -1.4047 -0.9678  1.5421
 4925SOL    HW226235   3.269   3.405  12.004 -1.1013  0.5054  0.5814
 4926SOL     OW26236   1.088   0.684   7.209 -0.0275 -0.3260  0.3530
 4926SOL    HW126237   1.055   0.763   7.168  0.8065 -0.4020 -0.4613
 4926SOL    HW226238   1.005   0.644   7.236 -0.3016  0.4450  0.6324
 4927SOL     OW26239   3.324   2.008   6.164  0.0983  0.2355 -0.0952
 4927SOL    HW126240   3.352   2.060   6.239 -1.8960  1.8940 -0.5100
 4927SOL    HW226241   3.251   2.057   6.126  0.4605  2.2458  1.8213
 4928SOL     OW26242   1.598   2.246  16.523 -0.2664  0.2039  0.4916
 4928SOL    HW126243   1.624   2.209  16.439  3.1962  0.4563  1.4519
 4928SOL    HW226244   1.503   2.234  16.526  0.0869 -2.2142  2.1135
 4929SOL     OW26245   0.471   1.671  15.364  0.5235 -1.0650  0.1785
 4929SOL    HW126246   0.490   1.602  15.301  0.7391  0.3528 -1.3152
 4929SOL    HW226247   0.495   1.635  15.449 -2.9691  1.1680  2.1596
 4930SOL     OW26248   4.050   0.497   4.829  0.9474 -0.6415 -0.3931
 4930SOL    HW126249   4.107   0.568   4.798  1.0541 -0.4358  0.2835
 4930SOL    HW226250   4.094   0.474   4.911  0.1199 -1.3076 -0.1291
 4931SOL     OW26251   3.978   1.704  10.671  0.0253  0.5050  0.4045
 4931SOL    HW126252   3.885   1.725  10.676 -0.1102  0.2628 -1.4178
 4931SOL    HW226253   3.991   1.679  10.763 -2.6447 -1.2087  0.3267
 4932SOL     OW26254   2.549   2.477   8.769 -0.4729 -0.1316  0.0487
 4932SOL    HW126255   2.528   2.454   8.860  0.9967 -0.7950  0.2150
 4932SOL    HW226256   2.557   2.571   8.786 -0.7465 -0.2421  0.7880
 4933SOL     OW26257   2.611   3.763   4.713  0.2033 -0.1935  0.0078
 4933SOL    HW126258   2.646   3.848   4.684 -0.9517  0.4908  0.6402
 4933SOL    HW226259   2.678   3.740   4.777  1.0920  0.1896 -0.7777
 4934SOL     OW26260   1.967   3.227  10.767  0.0500 -0.3285  0.0305
 4934SOL    HW126261   2.032   3.248  10.700 -1.3665 -0.2587 -1.3197
 4934SOL    HW226262   1.912   3.155  10.737 -2.0812  0.8990  1.0115
 4935SOL     OW26263   4.558   2.834   2.739 -0.1616  0.1848  0.1907
 4935SOL    HW126264   4.553   2.925   2.708  0.1613 -0.1527 -0.8602
 4935SOL    HW226265   4.483   2.838   2.798 -1.0439 -0.4508 -0.8828
 4936SOL     OW26266   1.687   4.353   6.638  0.2201  0.1550 -0.2440
 4936SOL    HW126267   1.754   4.413   6.606  0.6578 -0.1755  0.0381
 4936SOL    HW226268   1.617   4.417   6.647 -0.2767 -0.6955  1.8698
 4937SOL     OW26269   4.001   2.755   2.242 -0.1604 -0.1418 -0.3368
 4937SOL    HW126270   3.958   2.701   2.309  0.4856  1.4851  1.3685
 4937SOL    HW226271   4.063   2.797   2.301 -0.3539 -1.2379  0.6488
 4938SOL     OW26272   2.018   0.330   3.138 -0.0943  0.5306 -0.2300
 4938SOL    HW126273   2.005   0.406   3.081 -2.4550  2.6475  3.1320
 4938SOL    HW226274   2.056   0.381   3.209 -0.8260  1.7871 -0.7485
 4939SOL     OW26275   3.243   0.175   2.914 -0.0785  0.2866  0.0711
 4939SOL    HW126276   3.309   0.147   2.852  0.2033 -0.1255  0.5589
 4939SOL    HW226277   3.166   0.163   2.858  1.5765 -1.6701 -1.7313
 4940SOL     OW26278   0.275   3.376   4.654 -0.2735  0.7206 -0.0764
 4940SOL    HW126279   0.275   3.357   4.748  1.6160 -1.3547 -0.5113
 4940SOL    HW226280   0.364   3.411   4.649  0.5970 -1.5753 -0.5195
 4941SOL     OW26281   1.618   0.510   4.842 -0.4054 -0.2559 -1.2260
 4941SOL    HW126282   1.545   0.566   4.868 -0.1782  0.8077 -2.9109
 4941SOL    HW226283   1.673   0.576   4.801 -1.9645 -0.2275 -3.2851
 4942SOL     OW26284   2.186   2.535   9.366 -0.1461  0.1244 -0.0829
 4942SOL    HW126285   2.099   2.572   9.357  0.2002  0.8257 -0.5332
 4942SOL    HW226286   2.181   2.513   9.459 -1.2526 -3.4179 -0.9843
 4943SOL     OW26287   1.833   4.692  16.949 -0.5614  0.4486 -0.3155
 4943SOL    HW126288   1.915   4.644  16.959 -3.3350 -4.0056  0.9544
 4943SOL    HW226289   1.802   4.648  16.870 -0.2258 -1.9407  0.8709
 4944SOL     OW26290   0.738   4.124   6.112  0.0733  0.1681  0.2746
 4944SOL    HW126291   0.706   4.183   6.043 -2.5339 -1.7335 -0.1383
 4944SOL    HW226292   0.666   4.062   6.122 -1.4765  1.7158 -1.4336
 4945SOL     OW26293   1.542   0.061  16.780 -0.0761  0.8175  0.2755
 4945SOL    HW126294   1.613   0.001  16.757  0.9447  2.5600 -1.1270
 4945SOL    HW226295   1.540   0.112  16.699  2.4588 -0.1199 -0.3945
 4946SOL     OW26296   1.282   3.779   8.804  0.2346  0.0368 -0.0768
 4946SOL    HW126297   1.352   3.807   8.864  0.3570  0.0980 -0.2493
 4946SOL    HW226298   1.223   3.728   8.859  1.4525 -1.3814 -0.0861
 4947SOL     OW26299   2.396   0.553   6.386 -0.4030 -0.4715 -0.6564
 4947SOL    HW126300   2.372   0.595   6.468 -1.4028  1.4555 -1.9371
 4947SOL    HW226301   2.471   0.611   6.371 -0.6198  0.1335  0.5818
 4948SOL     OW26302   2.508   0.519   1.696 -0.4177 -0.7085  0.5760
 4948SOL    HW126303   2.422   0.551   1.721 -1.3398 -2.2443 -0.6136
 4948SOL    HW226304   2.488   0.426   1.688 -0.8634 -0.5970  0.4165
 4949SOL     OW26305   4.114   2.081   1.647  0.1750 -0.0822 -0.0496
 4949SOL    HW126306   4.154   2.002   1.609 -2.3341 -0.4562 -1.9114
 4949SOL    HW226307   4.150   2.095   1.735 -1.0702 -0.7072  0.5546
 4950SOL     OW26308   3.769   1.084   4.528  0.0473  0.0153 -0.4944
 4950SOL    HW126309   3.683   1.123   4.517 -0.2599 -0.3570  0.5470
 4950SOL    HW226310   3.816   1.124   4.455  1.5131 -0.0309  0.4191
 4951SOL     OW26311   0.484   2.036   6.162 -0.0121  0.1083 -0.3511
 4951SOL    HW126312   0.575   2.007   6.163 -0.7478 -2.2912 -2.3908
 4951SOL    HW226313   0.444   1.954   6.134  1.1534 -0.9268  1.0428
 4952SOL     OW26314   3.525   3.928  16.832  0.2461  0.0553  0.2540
 4952SOL    HW126315   3.537   3.902  16.924 -0.2079  1.0941  0.6076
 4952SOL    HW226316   3.568   3.852  16.793  0.8651  1.1437 -1.1616
 4953SOL     OW26317   2.327   1.959   6.099 -0.3196  0.3728 -0.1069
 4953SOL    HW126318   2.298   1.878   6.141 -0.4347 -0.2938 -1.4474
 4953SOL    HW226319   2.277   2.031   6.138 -2.6301 -1.7272  0.8147
 4954SOL     OW26320   0.844   0.114   0.440  0.1857 -0.0413  0.3903
 4954SOL    HW126321   0.843   0.121   0.535 -0.2715 -0.5873  0.4276
 4954SOL    HW226322   0.882   0.028   0.423 -0.7606 -0.3065 -0.3851
 4955SOL     OW26323   3.077   0.414   6.887 -0.3875 -1.0387 -0.3651
 4955SOL    HW126324   3.071   0.364   6.805 -1.5253 -3.7927  1.4319
 4955SOL    HW226325   3.172   0.425   6.879 -0.5718  2.0154  1.5978
 4956SOL     OW26326   2.791   3.863  13.685 -0.6161 -0.0049  0.5490
 4956SOL    HW126327   2.877   3.821  13.684 -0.5167  0.2150  0.1884
 4956SOL    HW226328   2.775   3.868  13.780 -1.0667 -2.4585  0.6120
 4957SOL     OW26329   2.624   3.917   9.297 -0.1757 -0.2596 -0.1955
 4957SOL    HW126330   2.705   3.899   9.346  0.2634  0.2334 -0.7494
 4957SOL    HW226331   2.667   3.925   9.212 -0.8349 -0.2823 -0.5265
 4958SOL     OW26332   4.317   1.292   5.300 -0.4083 -0.9129  0.0800
 4958SOL    HW126333   4.310   1.217   5.360 -2.6581 -1.6845 -1.1200
 4958SOL    HW226334   4.411   1.305   5.311 -0.1868 -1.5645 -1.0584
 4959SOL     OW26335   1.545   2.650  17.105 -0.1026 -0.4904  0.0968
 4959SOL    HW126336   1.588   2.625  17.187  0.0832  2.2338  0.8484
 4959SOL    HW226337   1.606   2.718  17.075  0.7368 -0.6620  1.3988
 4960SOL     OW26338   2.848   2.182   3.764 -0.9204  0.7508  0.0004
 4960SOL    HW126339   2.901   2.108   3.795 -1.1552  1.0171  1.0234
 4960SOL    HW226340   2.841   2.156   3.672  0.3490  2.5970 -0.6015
 4961SOL     OW26341   1.253   3.312   3.217  0.0947 -0.0380  0.0276
 4961SOL    HW126342   1.343   3.338   3.194  1.0819 -3.8189 -0.4010
 4961SOL    HW226343   1.235   3.267   3.134 -0.3957  2.0930 -1.0255
 4962SOL     OW26344   0.925   2.902   6.405  0.0615 -0.3233 -0.3213
 4962SOL    HW126345   1.010   2.880   6.366 -0.4304 -1.1706 -0.9243
 4962SOL    HW226346   0.932   2.995   6.425 -0.1103 -0.3458 -0.1532
 4963SOL     OW26347   0.384   2.656   5.916 -0.0462  0.0970 -0.7130
 4963SOL    HW126348   0.459   2.701   5.954  0.2050  0.8031 -2.0112
 4963SOL    HW226349   0.433   2.600   5.855 -0.0432  1.4907 -1.9929
 4964SOL     OW26350   1.397   0.672   4.846  0.4941 -0.2936  0.1345
 4964SOL    HW126351   1.360   0.690   4.760 -1.9611  1.2997  1.5140
 4964SOL    HW226352   1.326   0.702   4.903 -0.0377  0.5271 -0.9691
 4965SOL     OW26353   0.803   2.139   5.026  0.1190  0.1752 -0.4523
 4965SOL    HW126354   0.741   2.119   4.956  1.8203 -0.8169 -1.6901
 4965SOL    HW226355   0.885   2.159   4.981  1.3956 -2.6727  0.5595
 4966SOL     OW26356   3.140   2.462   5.837  0.1392  0.3166 -0.5024
 4966SOL    HW126357   3.117   2.547   5.801  1.4875 -0.2361 -2.6246
 4966SOL    HW226358   3.058   2.414   5.847 -0.0832  0.6145 -0.9234
 4967SOL     OW26359   0.418   1.764   6.358  0.6878  0.2454 -0.3035
 4967SOL    HW126360   0.362   1.782   6.433  1.7866 -1.1219  0.8318
 4967SOL    HW226361   0.389   1.675   6.336  0.3217  0.4239 -0.5424
 4968SOL     OW26362   0.489   3.079  13.734  0.1090  0.0558  0.0927
 4968SOL    HW126363   0.481   3.152  13.674 -0.4834 -0.5619 -0.5699
 4968SOL    HW226364   0.426   3.091  13.805  0.7397  0.6289  0.5542
 4969SOL     OW26365   0.239   4.034  15.950 -0.8117 -0.2191 -0.0576
 4969SOL    HW126366   0.183   4.015  15.874  0.2914  1.9497 -1.4189
 4969SOL    HW226367   0.320   4.056  15.904  0.5261 -1.9802  1.4614
 4970SOL     OW26368   4.723   1.786  10.267 -0.3714  0.0790  0.3108
 4970SOL    HW126369   0.062   1.856  10.249 -2.1545  1.5243 -0.1621
 4970SOL    HW226370   4.655   1.808  10.204 -0.4052  0.3909  0.4562
 4971SOL     OW26371   1.876   0.892   4.001  0.1006 -0.2171  0.4715
 4971SOL    HW126372   1.905   0.961   3.941 -0.4416 -1.0118 -0.7081
 4971SOL    HW226373   1.885   0.809   3.953  2.3816  0.2730  0.0460
 4972SOL     OW26374   0.904   3.946   7.112  0.4869 -0.4813  0.2008
 4972SOL    HW126375   0.939   3.946   7.201  0.6267  0.1968  0.1478
 4972SOL    HW226376   0.886   3.856   7.085  1.6177 -0.5018 -0.5277
 4973SOL     OW26377   2.374   3.719   2.663  0.1876 -0.5804  0.2246
 4973SOL    HW126378   2.458   3.753   2.631  1.6473 -2.9792  1.5569
 4973SOL    HW226379   2.370   3.635   2.619  0.4894 -0.1386 -0.6506
 4974SOL     OW26380   3.041   1.440   1.692 -0.0601  0.4794  0.0229
 4974SOL    HW126381   3.122   1.444   1.642  0.2598  2.6743  0.7325
 4974SOL    HW226382   3.054   1.521   1.740  2.4657 -0.2028  0.4530
 4975SOL     OW26383   0.704   3.452   3.063 -0.2513 -0.4889  0.4596
 4975SOL    HW126384   0.706   3.368   3.017 -2.9629  0.0521 -0.7007
 4975SOL    HW226385   0.790   3.489   3.046 -0.0060 -0.7344  1.1741
 4976SOL     OW26386   2.729   0.290   2.083 -0.1105  0.2180  0.2044
 4976SOL    HW126387   2.737   0.372   2.034  1.7399 -0.3166 -0.3817
 4976SOL    HW226388   2.751   0.313   2.173  2.6269 -0.3623 -0.3190
 4977SOL     OW26389   0.121   2.717   1.967 -0.0499  0.1784 -0.7453
 4977SOL    HW126390   0.097   2.699   2.058  0.7213 -1.9111 -0.9462
 4977SOL    HW226391   0.206   2.674   1.955 -0.2673 -0.5515  0.3211
 4978SOL     OW26392   4.292   1.475  17.329 -0.3612 -0.5928  0.2133
 4978SOL    HW126393   4.229   1.405  17.317 -1.2875  0.4542 -1.0967
 4978SOL    HW226394   4.370   1.420  17.341 -1.3127 -1.6473  1.4923
 4979SOL     OW26395   2.853   4.405   2.195 -0.4276  0.5558 -0.5536
 4979SOL    HW126396   2.930   4.460   2.178  0.9806 -0.4341  2.6052
 4979SOL    HW226397   2.783   4.452   2.151 -0.2614 -1.0131 -2.5013
 4980SOL     OW26398   4.294   0.020   6.089  0.1764  0.1140  0.1137
 4980SOL    HW126399   4.273   4.704   6.173  1.9265 -1.6403 -0.2676
 4980SOL    HW226400   4.272   4.678   6.023  0.4633  2.0433 -1.9117
 4981SOL     OW26401   1.293   1.212  17.318  0.0867  0.0306  0.1563
 4981SOL    HW126402   1.284   1.127  17.274 -0.7435  1.5491 -2.6284
 4981SOL    HW226403   1.253   1.271  17.254 -0.0872  2.0034  2.0674
 4982SOL     OW26404   3.629   0.818  14.836 -0.1589 -0.1846  0.0280
 4982SOL    HW126405   3.716   0.858  14.843  0.2962 -1.4063  1.6152
 4982SOL    HW226406   3.651   0.725  14.833  1.6965  0.2365  0.6932
 4983SOL     OW26407   1.963   2.182   2.501  0.2193 -0.3631  0.2792
 4983SOL    HW126408   1.955   2.276   2.487  0.2369 -0.2599  0.9901
 4983SOL    HW226409   1.869   2.164   2.503  0.0479  0.5328  0.2332
 4984SOL     OW26410   1.102   0.292   2.825 -0.0132 -0.1280  0.1115
 4984SOL    HW126411   1.033   0.350   2.791  2.1300  1.5790 -1.3564
 4984SOL    HW226412   1.083   0.204   2.793  0.1699 -0.5634  1.2381
 4985SOL     OW26413   1.841   3.479   6.254 -0.8342  0.1574 -0.6639
 4985SOL    HW126414   1.885   3.400   6.223  0.7779  1.0413 -0.6888
 4985SOL    HW226415   1.889   3.553   6.215 -3.2159  1.2568 -1.5001
 4986SOL     OW26416   2.370   4.276   8.179  0.2335 -0.4209 -0.5739
 4986SOL    HW126417   2.328   4.250   8.097  1.6722  0.9588 -1.7368
 4986SOL    HW226418   2.346   4.205   8.238 -1.0547  0.2874 -0.2448
 4987SOL     OW26419   4.395   3.866  16.713  0.0057 -0.0212 -0.3014
 4987SOL    HW126420   4.443   3.794  16.672  0.9993  0.8333 -0.6482
 4987SOL    HW226421   4.413   3.837  16.802 -1.3306 -0.4534 -0.1778
 4988SOL     OW26422   2.977   4.129   8.211 -0.0138 -0.3529  0.6235
 4988SOL    HW126423   2.896   4.180   8.209  0.1060 -0.1862  0.0477
 4988SOL    HW226424   3.023   4.182   8.275  2.6725 -2.3605  0.3837
 4989SOL     OW26425   1.883   0.798   6.236 -0.2116  0.6974  0.9053
 4989SOL    HW126426   1.942   0.723   6.246 -2.9400 -1.6119 -0.2584
 4989SOL    HW226427   1.948   0.867   6.223  0.3336 -0.1686 -1.0227
 4990SOL     OW26428   3.580   1.181  16.479  0.2565  0.2640 -0.3974
 4990SOL    HW126429   3.647   1.168  16.412  0.7031 -1.2253  0.3511
 4990SOL    HW226430   3.558   1.089  16.493 -1.6311  0.8632  0.5699
 4991SOL     OW26431   3.235   2.952  13.506 -0.0311  0.2586 -0.2940
 4991SOL    HW126432   3.139   2.954  13.509 -0.0283 -2.5996  0.8077
 4991SOL    HW226433   3.254   3.018  13.439  1.5640  0.5642  0.4436
 4992SOL     OW26434   1.805   0.704   6.938  0.0503  0.2323 -0.3699
 4992SOL    HW126435   1.829   0.642   6.870  0.7438  0.0790  0.0117
 4992SOL    HW226436   1.828   0.646   7.011  0.6811 -0.1551 -0.8758
 4993SOL     OW26437   2.970   2.999  10.732  0.0096  0.1696  0.3843
 4993SOL    HW126438   2.905   3.038  10.790  1.7396  2.3062  0.8883
 4993SOL    HW226439   3.029   2.971  10.801  2.2227  1.3389 -1.0405
 4994SOL     OW26440   1.876   1.300  16.746 -0.1246  0.1693 -0.3345
 4994SOL    HW126441   1.925   1.382  16.744  1.2727 -0.5998  2.5249
 4994SOL    HW226442   1.866   1.281  16.652 -0.5816  0.4587 -0.3457
 4995SOL     OW26443   4.207   3.091   1.404 -0.4486  0.3999 -0.3315
 4995SOL    HW126444   4.276   3.091   1.338 -0.1158 -1.5507  0.0334
 4995SOL    HW226445   4.186   2.998   1.413  0.2415  0.5028  2.6133
 4996SOL     OW26446   3.834   0.465   3.756 -0.0578 -0.1011  0.1229
 4996SOL    HW126447   3.895   0.437   3.824 -0.0065  0.2868  0.2346
 4996SOL    HW226448   3.762   0.486   3.816 -1.1848 -0.8101 -0.9583
 4997SOL     OW26449   0.948   0.363   9.365  0.0977 -0.4303  0.2391
 4997SOL    HW126450   1.044   0.361   9.368  0.1589  2.3690 -0.1665
 4997SOL    HW226451   0.947   0.389   9.273 -1.9522 -0.7268  0.1858
 4998SOL     OW26452   2.057   1.765   6.547 -0.0636 -0.0639  0.2352
 4998SOL    HW126453   2.000   1.781   6.472 -1.1662 -1.9046  0.6961
 4998SOL    HW226454   2.063   1.856   6.575 -0.9712 -0.1709  0.7760
 4999SOL     OW26455   0.376   0.739   8.356  0.3339  0.0936  0.0142
 4999SOL    HW126456   0.472   0.742   8.350  0.3888  1.0954  1.4926
 4999SOL    HW226457   0.366   0.651   8.392  0.6453  0.9533  2.1451
 5000SOL     OW26458   1.484   4.697   5.180  0.2837 -0.1321 -0.0592
 5000SOL    HW126459   1.447   0.053   5.140  0.6254  0.3812  0.6385
 5000SOL    HW226460   1.558   0.013   5.228 -1.1589  2.5781 -0.0714
 5001SOL     OW26461   2.987   4.477  14.730 -0.2273 -0.1515  0.4951
 5001SOL    HW126462   2.929   4.404  14.709  1.2952 -0.9812 -0.8541
 5001SOL    HW226463   3.066   4.443  14.688 -1.1460 -0.2382 -1.1830
 5002SOL     OW26464   3.043   3.537   7.108  0.1442 -0.6918 -0.0346
 5002SOL    HW126465   3.093   3.615   7.130 -0.7664 -0.2703  0.5707
 5002SOL    HW226466   3.064   3.481   7.183 -2.3771 -0.0614  1.1398
 5003SOL     OW26467   2.611   2.004   3.202  0.2197  0.0740  0.4163
 5003SOL    HW126468   2.688   1.975   3.153 -1.7339  1.1841 -3.2783
 5003SOL    HW226469   2.625   1.934   3.267  1.2191  0.8116  0.9989
 5004SOL     OW26470   4.641   1.223  16.792  0.0295 -0.2008 -0.6135
 5004SOL    HW126471   4.602   1.283  16.729  3.3059  2.7110  0.1514
 5004SOL    HW226472   4.664   1.156  16.727 -0.6426 -0.4043 -0.6475
 5005SOL     OW26473   2.965   1.655  17.177  0.0531 -0.0551  0.1648
 5005SOL    HW126474   2.881   1.688  17.208  1.5262  1.5503  2.4157
 5005SOL    HW226475   3.001   1.730  17.129 -0.3929 -0.8764 -1.4666
 5006SOL     OW26476   4.428   2.891  16.928 -0.4391 -0.4575  0.0575
 5006SOL    HW126477   4.523   2.897  16.940 -0.8911  2.0277  2.4877
 5006SOL    HW226478   4.402   2.959  16.991 -0.5987  0.7023 -1.2763
 5007SOL     OW26479   0.746   4.683   3.383  0.0694  0.2789  0.0521
 5007SOL    HW126480   0.810   4.717   3.321  0.4056  0.2338  0.3780
 5007SOL    HW226481   0.769   0.004   3.464  1.7210 -2.2364  0.9345
 5008SOL     OW26482   3.030   0.272  12.850  0.3885 -0.7063 -0.0947
 5008SOL    HW126483   3.112   0.230  12.878  0.7982 -1.1507 -1.9791
 5008SOL    HW226484   3.013   0.337  12.918 -0.5916 -1.2239  0.1481
 5009SOL     OW26485   4.278   3.248   8.592  0.0161 -0.2118 -0.6724
 5009SOL    HW126486   4.332   3.327   8.591 -1.7978  1.0268 -1.2250
 5009SOL    HW226487   4.288   3.211   8.504 -1.0803  0.4203 -1.0624
 5010SOL     OW26488   1.703   0.011   8.304 -0.2696 -0.1223 -0.1746
 5010SOL    HW126489   1.714   4.692   8.219  1.0159 -1.5525  0.7065
 5010SOL    HW226490   1.763   0.085   8.298 -0.6067  0.2778  1.3970
 5011SOL     OW26491   1.085   1.141   4.791  0.3579  0.1339 -0.3049
 5011SOL    HW126492   1.075   1.235   4.776  0.5075  0.2008 -0.0005
 5011SOL    HW226493   1.053   1.130   4.881  1.3741 -1.3113 -0.1219
 5012SOL     OW26494   3.525   1.607   0.543  0.4179 -0.5767  0.1600
 5012SOL    HW126495   3.490   1.552   0.613  0.3479  0.1860  0.7274
 5012SOL    HW226496   3.460   1.602   0.473  1.2135 -1.9927 -0.4766
 5013SOL     OW26497   1.301   3.416   1.013 -0.1933 -0.6277  0.4748
 5013SOL    HW126498   1.343   3.470   0.947  1.0504  1.1010  2.6630
 5013SOL    HW226499   1.349   3.334   0.996  0.0876 -0.3050 -0.2671
 5014SOL     OW26500   1.343   4.641  16.934  0.2443 -0.0021  0.0672
 5014SOL    HW126501   1.400   4.685  16.998  0.0879 -0.2168  0.3535
 5014SOL    HW226502   1.353   4.692  16.853 -2.2889 -0.7187 -0.6707
 5015SOL     OW26503   3.277   1.680  16.024  0.0292 -0.1971  0.2982
 5015SOL    HW126504   3.198   1.689  15.972  1.4607  0.4517 -1.7543
 5015SOL    HW226505   3.337   1.709  15.956  2.1648 -2.3111  1.2422
 5016SOL     OW26506   3.861   2.813   3.933  0.6398 -0.8616  0.3370
 5016SOL    HW126507   3.937   2.816   3.876 -1.1052 -2.0306 -2.0467
 5016SOL    HW226508   3.892   2.828   4.023  1.3536 -1.8098  0.2569
 5017SOL     OW26509   3.755   0.630  14.550 -0.5161 -0.0089 -0.3520
 5017SOL    HW126510   3.708   0.628  14.633 -1.3282  0.8340 -0.8015
 5017SOL    HW226511   3.774   0.537  14.539  1.4014  0.4057 -0.6053
 5018SOL     OW26512   4.660   1.907  16.570 -0.3062  0.1084 -0.2369
 5018SOL    HW126513   4.674   1.956  16.651 -2.2383 -0.6755  0.5568
 5018SOL    HW226514   4.577   1.948  16.547 -0.8023  0.6457  2.5497
 5019SOL     OW26515   1.058   2.480   8.892  0.1912 -0.5742 -0.9605
 5019SOL    HW126516   0.970   2.516   8.903  0.8916  0.8294 -0.0835
 5019SOL    HW226517   1.087   2.482   8.983 -1.3151 -0.5474 -0.4731
 5020SOL     OW26518   1.339   1.540   6.333 -0.5097 -0.1378  0.1979
 5020SOL    HW126519   1.337   1.445   6.334  0.2437 -0.1541  0.6473
 5020SOL    HW226520   1.245   1.558   6.332 -0.0422  2.3895  0.4433
 5021SOL     OW26521   0.220   0.200   3.769  0.1915  0.0941 -0.2822
 5021SOL    HW126522   0.138   0.157   3.748  0.2022  0.7498 -1.6565
 5021SOL    HW226523   0.271   0.188   3.689  0.3127 -0.9233 -0.0478
 5022SOL     OW26524   3.384   3.830   4.253 -0.3665  0.1356  0.6073
 5022SOL    HW126525   3.443   3.817   4.179 -0.9901 -1.8412  0.4605
 5022SOL    HW226526   3.311   3.879   4.213 -0.1576  0.5934  0.7792
 5023SOL     OW26527   1.274   3.671   3.223  0.3059 -0.1813  0.5490
 5023SOL    HW126528   1.303   3.642   3.137 -0.6226 -3.7024  1.4004
 5023SOL    HW226529   1.260   3.762   3.199  1.3525  0.0571  0.8533
 5024SOL     OW26530   0.860   0.266  17.678 -0.4092 -0.1803  0.7568
 5024SOL    HW126531   0.931   0.241  17.619 -0.5160 -1.4380  1.1500
 5024SOL    HW226532   0.902   0.289   0.067 -0.3174  1.4853  0.2360
 5025SOL     OW26533   3.778   2.947  15.767  0.0067 -0.4435  0.3948
 5025SOL    HW126534   3.790   2.937  15.862 -0.7993 -0.4973  0.4928
 5025SOL    HW226535   3.700   3.002  15.765 -1.0754 -1.9438  0.7215
 5026SOL     OW26536   3.619   1.561   2.921  0.1409  0.3759  0.1043
 5026SOL    HW126537   3.585   1.551   3.010  2.6221  3.0741  1.3722
 5026SOL    HW226538   3.543   1.550   2.863 -0.1349 -0.4271  0.6156
 5027SOL     OW26539   4.011   2.299  14.638  0.2888 -0.2802 -0.6369
 5027SOL    HW126540   4.098   2.328  14.663  0.0865  0.1291 -0.3917
 5027SOL    HW226541   3.964   2.383  14.637  0.3450 -0.2452 -0.3036
 5028SOL     OW26542   4.264   4.127  16.299  0.2205  0.6637 -0.1686
 5028SOL    HW126543   4.285   4.043  16.257 -1.5397  0.4964 -0.7242
 5028SOL    HW226544   4.187   4.134  16.242  0.4324  1.2210 -0.3812
 5029SOL     OW26545   3.464   2.057   6.802  0.5173  0.3269  0.0704
 5029SOL    HW126546   3.457   2.149   6.829 -0.3320  0.1169  0.5623
 5029SOL    HW226547   3.380   2.043   6.758  0.7164  1.6101 -0.7455
 5030SOL     OW26548   0.549   3.860   5.745  0.1470  0.4111 -0.1891
 5030SOL    HW126549   0.472   3.895   5.702  1.4265  1.5679 -1.5624
 5030SOL    HW226550   0.519   3.808   5.820 -1.4524  0.0852 -1.0639
 5031SOL     OW26551   4.139   3.809   5.963  0.0151  0.0582  0.0705
 5031SOL    HW126552   4.159   3.870   5.892  1.8088 -1.3046 -0.6092
 5031SOL    HW226553   4.046   3.829   5.974  0.1012  0.9887 -0.8900
 5032SOL     OW26554   1.820   2.366   7.004 -0.6826 -0.2269 -0.1642
 5032SOL    HW126555   1.893   2.368   6.942  2.0267  1.1702  3.0744
 5032SOL    HW226556   1.833   2.450   7.049  0.7183  0.2265 -1.4123
 5033SOL     OW26557   1.631   1.404   4.590  1.0357  0.3458  0.2402
 5033SOL    HW126558   1.726   1.403   4.580  0.9158  0.1695 -0.9532
 5033SOL    HW226559   1.619   1.499   4.593 -2.6436 -0.0528 -2.2829
 5034SOL     OW26560   3.001   2.421   3.575  0.0665 -0.4021 -0.0537
 5034SOL    HW126561   2.963   2.458   3.654  0.7809 -0.4006  0.2916
 5034SOL    HW226562   3.026   2.331   3.593  3.0430 -0.0601 -2.3380
 5035SOL     OW26563   4.659   0.072   0.711  0.0375 -0.7494  0.1845
 5035SOL    HW126564   0.030   0.092   0.716  0.5469 -3.3662  1.5508
 5035SOL    HW226565   4.646   0.000   0.649 -1.8539  0.9049 -1.3113
 5036SOL     OW26566   3.964   3.635   7.652 -0.1422 -0.4334  0.5090
 5036SOL    HW126567   4.048   3.658   7.691  0.4354 -0.0334 -0.9682
 5036SOL    HW226568   3.973   3.609   7.560  1.9463 -0.3687  0.6890
 5037SOL     OW26569   4.179   4.265   3.984 -0.5219 -0.2947  0.4843
 5037SOL    HW126570   4.135   4.316   4.052  0.3028 -0.7920  1.4006
 5037SOL    HW226571   4.256   4.320   3.968 -1.2836  0.1456 -1.6892
 5038SOL     OW26572   4.254   2.139  10.430 -0.0056 -0.1938  0.3913
 5038SOL    HW126573   4.228   2.055  10.467 -1.5732 -0.8220 -2.0902
 5038SOL    HW226574   4.216   2.142  10.342  0.9557  2.0163  0.0533
 5039SOL     OW26575   3.667   0.551   8.912 -0.6992 -0.1011 -0.0795
 5039SOL    HW126576   3.749   0.565   8.959 -1.4545  1.0726  0.8860
 5039SOL    HW226577   3.699   0.539   8.823  1.5373 -3.0665  1.1317
 5040SOL     OW26578   2.838   4.412   8.508 -0.2542 -0.1711 -0.0485
 5040SOL    HW126579   2.839   4.371   8.594 -0.6057 -1.0330 -0.4627
 5040SOL    HW226580   2.746   4.435   8.495 -0.4419 -0.9741 -0.0961
 5041SOL     OW26581   0.377   0.062   3.933 -0.5888 -0.3116  0.2554
 5041SOL    HW126582   0.309   0.110   3.884 -1.1783  0.2505  1.6127
 5041SOL    HW226583   0.380   4.714   3.869 -0.4263  0.6425 -0.8034
 5042SOL     OW26584   3.535   0.123   8.258 -0.0877  0.1650  0.1792
 5042SOL    HW126585   3.599   0.105   8.189 -3.6883  0.8352 -3.3436
 5042SOL    HW226586   3.571   0.070   8.329  1.2671  0.0859 -0.5775
 5043SOL     OW26587   2.289   1.188   3.658 -0.0098  0.1342  0.2216
 5043SOL    HW126588   2.381   1.206   3.642 -0.0884 -2.0828 -2.5820
 5043SOL    HW226589   2.264   1.107   3.613 -1.3928  1.4640 -1.4135
 5044SOL     OW26590   1.932   0.910   8.149 -0.0089 -0.5587  0.0213
 5044SOL    HW126591   2.022   0.891   8.176  0.4270  0.0490 -1.0456
 5044SOL    HW226592   1.903   0.957   8.227 -1.5582 -2.7728  0.7873
 5045SOL     OW26593   2.889   1.033  16.281 -0.4598 -0.0350  0.2309
 5045SOL    HW126594   2.816   0.979  16.309 -0.3793  1.0658  2.5599
 5045SOL    HW226595   2.879   1.038  16.186 -0.8949  0.0341  0.2797
 5046SOL     OW26596   1.714   3.311   7.587 -0.0111 -1.0315 -0.0148
 5046SOL    HW126597   1.725   3.406   7.584  0.4984 -1.0551  1.1923
 5046SOL    HW226598   1.719   3.295   7.492  0.6053 -3.1162  0.3558
 5047SOL     OW26599   3.444   1.640   4.604 -0.4521 -0.4539  0.5177
 5047SOL    HW126600   3.532   1.661   4.572 -0.7382  0.8156  0.5876
 5047SOL    HW226601   3.451   1.654   4.698 -0.2566 -0.6212  0.5294
 5048SOL     OW26602   4.289   0.382   7.390 -0.0977 -0.1366  0.0063
 5048SOL    HW126603   4.207   0.355   7.348 -0.7783  0.4023  0.9750
 5048SOL    HW226604   4.274   0.472   7.418 -3.0416 -0.5628 -0.2047
 5049SOL     OW26605   3.288   1.011   6.669  0.2359 -0.2640  0.4365
 5049SOL    HW126606   3.374   0.970   6.681 -0.8581 -2.7274 -0.1347
 5049SOL    HW226607   3.224   0.940   6.671 -0.4470  0.3178 -0.3348
 5050SOL     OW26608   3.578   3.885   0.965 -0.7272 -0.0812  0.3356
 5050SOL    HW126609   3.617   3.967   0.994 -1.6186  0.1769  0.7944
 5050SOL    HW226610   3.618   3.875   0.878 -2.8477 -0.4006 -0.6225
 5051SOL     OW26611   1.971   3.451   5.431  0.1386 -0.8002 -0.2883
 5051SOL    HW126612   2.008   3.387   5.492  1.8181  0.8981  0.4700
 5051SOL    HW226613   2.047   3.472   5.377 -0.6662  1.0702 -0.6735
 5052SOL     OW26614   1.021   2.157   1.277 -0.0825 -0.1209  0.1147
 5052SOL    HW126615   1.058   2.222   1.337  2.6884 -2.4181  0.8994
 5052SOL    HW226616   0.937   2.197   1.256 -0.0127 -0.4929 -0.8561
 5053SOL     OW26617   0.048   0.087   6.106  0.0022 -0.0671 -0.5234
 5053SOL    HW126618   4.696   0.138   6.135  2.0106  2.2610  0.5921
 5053SOL    HW226619   0.041   0.089   6.011  1.2549  1.7501 -0.5682
 5054SOL     OW26620   4.497   4.226   3.652  0.2104 -0.2138  0.6401
 5054SOL    HW126621   4.449   4.282   3.712  3.4097  2.4581  0.7355
 5054SOL    HW226622   4.581   4.240   3.696  1.3284 -0.5570 -1.4009
 5055SOL     OW26623   3.392   2.362   7.133 -0.3815  0.0718 -0.1619
 5055SOL    HW126624   3.452   2.421   7.177  1.6545 -1.3279 -1.0254
 5055SOL    HW226625   3.334   2.338   7.205 -1.6253  3.6150  0.0119
 5056SOL     OW26626   2.598   0.038   1.969 -0.0111  0.2875  0.1748
 5056SOL    HW126627   2.515   0.076   1.940  0.5250  1.0757 -0.3358
 5056SOL    HW226628   2.635   0.119   2.004  0.6250 -0.1053  0.4084
 5057SOL     OW26629   3.252   3.989  16.771 -0.0974  0.2011 -0.5455
 5057SOL    HW126630   3.247   4.042  16.851 -0.5134 -1.2860  0.4215
 5057SOL    HW226631   3.347   3.978  16.764 -0.2138 -1.9346  1.0667
 5058SOL     OW26632   1.931   1.100  14.811  0.7032  0.2018 -0.0137
 5058SOL    HW126633   1.886   1.155  14.875  0.8120 -1.4140  1.4600
 5058SOL    HW226634   2.014   1.083  14.856  1.5767 -0.4626 -1.8953
 5059SOL     OW26635   4.268   0.809   6.654 -0.5119 -0.1532 -0.0241
 5059SOL    HW126636   4.210   0.779   6.724 -0.2401  0.3474  0.4149
 5059SOL    HW226637   4.230   0.896   6.642  1.9595  1.1353  1.6012
 5060SOL     OW26638   1.478   2.959   6.313  0.1828  0.2810 -0.0211
 5060SOL    HW126639   1.462   3.054   6.306 -1.6649  0.0415  0.9351
 5060SOL    HW226640   1.431   2.935   6.392  0.8582 -0.0475  0.2712
 5061SOL     OW26641   0.689   4.223  15.697  0.8575  0.2755 -0.4322
 5061SOL    HW126642   0.723   4.186  15.778 -0.9690  1.6141  0.9230
 5061SOL    HW226643   0.761   4.199  15.638 -0.3958 -1.1748 -1.3844
 5062SOL     OW26644   0.447   4.048   9.159  0.4051 -1.1183  0.8808
 5062SOL    HW126645   0.451   4.016   9.068 -1.1881 -0.5273  0.6055
 5062SOL    HW226646   0.536   4.026   9.187  0.5422  1.0229  2.0549
 5063SOL     OW26647   4.694   0.996  15.962  0.4448  0.3671 -0.2024
 5063SOL    HW126648   4.694   1.030  15.873 -1.2477 -1.2827 -0.8387
 5063SOL    HW226649   4.602   0.987  15.985  0.7070  0.6901  1.0020
 5064SOL     OW26650   1.928   3.189   8.889 -0.4246  0.3347  0.2872
 5064SOL    HW126651   1.961   3.222   8.973  1.1694 -1.7091  0.4820
 5064SOL    HW226652   2.010   3.147   8.862 -1.0966  0.4198 -1.8307
 5065SOL     OW26653   3.175   3.740  10.450 -0.1728 -0.3415  0.4732
 5065SOL    HW126654   3.237   3.735  10.378  0.7369  0.0325  1.2410
 5065SOL    HW226655   3.088   3.768  10.420  1.4309  3.3734 -0.6646
 5066SOL     OW26656   1.066   2.503  12.267  0.3242 -0.3885 -0.7192
 5066SOL    HW126657   1.141   2.443  12.256 -0.4935 -1.7740  1.2564
 5066SOL    HW226658   1.106   2.578  12.310 -1.9055  0.3245  0.0760
 5067SOL     OW26659   4.400   2.059  16.844 -0.9835  1.2981 -0.4118
 5067SOL    HW126660   4.380   2.150  16.819  0.8158  1.4587 -1.2974
 5067SOL    HW226661   4.394   2.019  16.758 -0.6612  2.4867 -0.9971
 5068SOL     OW26662   3.224   0.656   5.123  0.8742 -0.0972 -0.5623
 5068SOL    HW126663   3.280   0.590   5.083  0.8108 -0.4427 -0.0824
 5068SOL    HW226664   3.265   0.664   5.210  0.1605  0.1033 -0.2392
 5069SOL     OW26665   1.110   2.139   2.368 -0.3005  0.2326  0.8818
 5069SOL    HW126666   1.017   2.158   2.362 -0.2983 -0.0940 -0.1112
 5069SOL    HW226667   1.150   2.201   2.306  0.8678 -0.9955  0.4207
 5070SOL     OW26668   2.476   1.496   4.723 -0.1116 -0.0520 -0.3341
 5070SOL    HW126669   2.462   1.535   4.637  1.5374 -1.6549 -1.3226
 5070SOL    HW226670   2.515   1.409   4.716 -0.6240 -0.0230 -3.4704
 5071SOL     OW26671   3.329   2.592  11.707  0.2174  0.1870 -0.6194
 5071SOL    HW126672   3.366   2.559  11.788 -2.4617  0.1258  0.5719
 5071SOL    HW226673   3.404   2.575  11.649 -0.4140 -0.9145 -1.1061
 5072SOL     OW26674   1.158   2.346   0.463  0.0003 -1.0584 -0.1583
 5072SOL    HW126675   1.091   2.305   0.408 -0.1805 -0.3424 -0.4773
 5072SOL    HW226676   1.240   2.330   0.417  0.2642 -0.4756  0.1076
 5073SOL     OW26677   4.442   3.392   2.831 -0.4073  0.3024 -0.0639
 5073SOL    HW126678   4.465   3.448   2.756  0.9415 -0.8964 -0.5481
 5073SOL    HW226679   4.428   3.313   2.780 -2.4571 -0.5782  1.8994
 5074SOL     OW26680   2.550   1.474   2.216 -0.5257 -0.4440  0.5058
 5074SOL    HW126681   2.644   1.463   2.203 -0.3440  0.7012  0.8415
 5074SOL    HW226682   2.544   1.553   2.270 -0.6940 -1.3032  1.7405
 5075SOL     OW26683   0.380   4.326   4.169 -0.2632  0.4226  0.7196
 5075SOL    HW126684   0.305   4.321   4.229  2.2516 -1.7193  3.6554
 5075SOL    HW226685   0.338   4.308   4.085 -0.9175  1.2305  0.8675
 5076SOL     OW26686   2.901   0.091   2.995 -0.0363  0.0908 -0.0888
 5076SOL    HW126687   2.871   0.132   2.915  0.1260  2.2294  0.9616
 5076SOL    HW226688   2.931   0.167   3.044 -1.8908 -2.7742  5.5144
 5077SOL     OW26689   2.039   0.025   7.779 -0.2897 -0.0973 -0.0201
 5077SOL    HW126690   1.989   4.670   7.753 -0.1797 -0.6039  1.2760
 5077SOL    HW226691   1.982   0.097   7.753 -1.9520 -1.3436  0.1558
 5078SOL     OW26692   4.443   2.614   7.873  1.0264  0.0358  0.2826
 5078SOL    HW126693   4.481   2.699   7.853  1.3076 -0.3217 -0.6835
 5078SOL    HW226694   4.447   2.573   7.787  2.2135 -1.7502  1.1975
 5079SOL     OW26695   4.634   1.554   6.149  0.2015 -0.0750  0.5817
 5079SOL    HW126696   4.693   1.537   6.223  1.0491  0.1248 -0.0520
 5079SOL    HW226697   4.554   1.563   6.201 -0.8212 -1.4776 -0.7646
 5080SOL     OW26698   0.411   3.110   2.743  0.4323 -0.5237 -0.0937
 5080SOL    HW126699   0.346   3.042   2.758 -0.2899  0.1333 -0.2195
 5080SOL    HW226700   0.495   3.069   2.722 -0.4122 -1.8561 -0.8419
 5081SOL     OW26701   3.022   0.257   6.666 -0.1615 -0.4674 -0.2094
 5081SOL    HW126702   2.994   0.170   6.695  1.4235 -0.7702  0.4442
 5081SOL    HW226703   3.106   0.230   6.628 -0.1595 -0.4421 -0.2226
 5082SOL     OW26704   3.719   4.418  16.670 -0.0790 -0.1888  0.0486
 5082SOL    HW126705   3.662   4.488  16.702  0.6775  0.4616 -0.0228
 5082SOL    HW226706   3.675   4.336  16.692  1.5505 -0.5329  1.9904
 5083SOL     OW26707   3.950   1.071   2.672 -0.0534 -0.4469 -0.1787
 5083SOL    HW126708   4.041   1.071   2.703 -0.6771 -0.0361  1.6168
 5083SOL    HW226709   3.935   1.163   2.651  0.9716  0.0242  1.1418
 5084SOL     OW26710   0.125   0.965  13.076  0.0162  0.1603 -0.3321
 5084SOL    HW126711   0.037   0.982  13.112  0.4065  1.3649  0.0598
 5084SOL    HW226712   0.089   0.940  12.991 -0.9790 -1.7063  0.6271
 5085SOL     OW26713   4.411   1.338  13.682  0.1674 -0.3750  0.2011
 5085SOL    HW126714   4.348   1.303  13.745 -0.6128  1.1708  0.2903
 5085SOL    HW226715   4.360   1.403  13.633 -1.5626 -1.1439  0.9906
 5086SOL     OW26716   1.828   4.062   4.973  0.2184  0.0184 -0.2938
 5086SOL    HW126717   1.770   3.993   4.941 -0.9982  0.5254  0.7910
 5086SOL    HW226718   1.907   4.009   4.974  0.3672  0.2348 -0.6940
 5087SOL     OW26719   1.738   3.573   7.578  0.3179  0.1991  0.4006
 5087SOL    HW126720   1.768   3.641   7.639 -0.5372 -1.4973  2.6887
 5087SOL    HW226721   1.783   3.600   7.498 -1.4547  0.2347 -0.5897
 5088SOL     OW26722   1.500   2.056   8.555  0.9214 -0.0358  0.2991
 5088SOL    HW126723   1.420   2.081   8.602  0.5473 -0.6716  0.0054
 5088SOL    HW226724   1.554   2.134   8.569  0.3594  0.9681 -3.0084
 5089SOL     OW26725   0.996   4.329   3.037 -0.3267 -0.0050 -0.0122
 5089SOL    HW126726   1.065   4.274   3.075 -0.4014  0.5208  0.9132
 5089SOL    HW226727   1.030   4.410   3.077 -1.4879 -0.0686  1.0846
 5090SOL     OW26728   3.202   0.688   8.002  0.6185  0.1114  0.4474
 5090SOL    HW126729   3.264   0.622   8.033 -0.4853 -0.9658  0.3699
 5090SOL    HW226730   3.247   0.699   7.918 -1.3125  2.4509 -0.2672
 5091SOL     OW26731   1.282   1.731   9.369 -0.2168 -0.4488  0.3969
 5091SOL    HW126732   1.229   1.809   9.353 -1.6097 -1.1983  1.3262
 5091SOL    HW226733   1.224   1.673   9.420 -0.8201 -0.7203 -0.6029
 5092SOL     OW26734   0.761   1.671   6.272 -0.0771  0.4305  0.1772
 5092SOL    HW126735   0.832   1.715   6.226 -0.6775  1.5518  0.3183
 5092SOL    HW226736   0.731   1.741   6.329 -1.4638  1.1628 -1.4209
 5093SOL     OW26737   2.402   4.187  17.370  0.1389 -0.0513  0.6653
 5093SOL    HW126738   2.425   4.243  17.444  0.8276  0.0353  0.3848
 5093SOL    HW226739   2.476   4.126  17.369  1.9121  2.1318 -1.1221
 5094SOL     OW26740   4.223   0.985  15.672 -0.4945 -0.0304 -0.2859
 5094SOL    HW126741   4.148   0.991  15.613 -0.4375 -1.3736 -0.5054
 5094SOL    HW226742   4.273   0.922  15.620  0.4688 -1.0811  1.9396
 5095SOL     OW26743   0.886   2.710  15.148 -0.2881  0.2713  0.0141
 5095SOL    HW126744   0.818   2.778  15.150 -0.6680 -0.1112  0.3379
 5095SOL    HW226745   0.832   2.635  15.123  1.5345 -0.9401 -0.2633
 5096SOL     OW26746   0.863   1.119  11.754 -0.0815 -0.3864 -0.1441
 5096SOL    HW126747   0.788   1.164  11.714  0.9170 -0.3973 -2.0219
 5096SOL    HW226748   0.836   1.103  11.844  1.1168  0.9331  0.4585
 5097SOL     OW26749   1.236   1.592   5.572 -0.5794  0.1991  0.4634
 5097SOL    HW126750   1.191   1.668   5.536 -0.2333  0.0062 -0.3875
 5097SOL    HW226751   1.326   1.624   5.575 -0.0462 -1.4731  2.3713
 5098SOL     OW26752   2.480   3.550   3.526 -0.4622  0.5406 -0.1162
 5098SOL    HW126753   2.465   3.493   3.601  2.0993 -1.6560 -1.2909
 5098SOL    HW226754   2.499   3.477   3.468  3.5625  0.6339  1.0628
 5099SOL     OW26755   0.980   1.085   3.482  0.2864  0.3620 -0.3072
 5099SOL    HW126756   1.057   1.136   3.505  1.8668 -1.6361 -1.1283
 5099SOL    HW226757   0.967   1.082   3.387 -1.1589 -0.9476 -0.0668
 5100SOL     OW26758   1.683   1.556   6.040 -0.2310 -0.3036 -0.5055
 5100SOL    HW126759   1.606   1.614   6.042  0.1328  0.1468  0.6159
 5100SOL    HW226760   1.743   1.599   5.979 -1.7957 -0.2879 -2.0579
 5101SOL     OW26761   0.056   4.351   4.537 -0.0762  0.4941  0.0485
 5101SOL    HW126762   0.063   4.430   4.591  0.4518  0.0190  0.6903
 5101SOL    HW226763   4.711   4.298   4.578  0.2945 -0.8890 -1.1158
 5102SOL     OW26764   0.810   0.106   9.169  0.5483  0.1376  0.3589
 5102SOL    HW126765   0.760   0.188   9.172 -0.0614 -0.1518 -1.5014
 5102SOL    HW226766   0.771   0.076   9.087 -1.1126  1.2996  0.7149
 5103SOL     OW26767   4.343   2.112   6.954 -0.3896 -0.4676 -0.0222
 5103SOL    HW126768   4.364   2.052   7.026 -0.7625 -0.9553 -0.3162
 5103SOL    HW226769   4.330   2.199   6.992 -3.3003 -0.3982 -1.1949
 5104SOL     OW26770   2.605   1.713  17.623  0.0692  0.1111  0.3205
 5104SOL    HW126771   2.656   1.675  17.551 -0.4840  1.5396 -0.8285
 5104SOL    HW226772   2.524   1.748  17.585 -0.1570 -1.4861 -0.7131
 5105SOL     OW26773   4.221   0.330   2.050 -0.3689  0.4951 -0.0852
 5105SOL    HW126774   4.246   0.395   1.984  0.7898 -0.9966 -1.1281
 5105SOL    HW226775   4.282   0.262   2.020 -2.2929  0.1396 -3.2903
 5106SOL     OW26776   2.756   2.522   7.284  0.2137 -0.0295  0.2351
 5106SOL    HW126777   2.823   2.473   7.332  0.3960  0.8604  0.8812
 5106SOL    HW226778   2.676   2.498   7.330  0.0384  2.6861  1.3296
 5107SOL     OW26779   4.458   4.633   4.958  0.0560 -0.3674 -0.2645
 5107SOL    HW126780   4.488   4.601   5.044 -1.3350  0.5366  0.5555
 5107SOL    HW226781   4.522   4.593   4.899  0.9248 -1.0964  1.1689
 5108SOL     OW26782   4.690   2.052  16.777  0.6863 -0.3361  0.1656
 5108SOL    HW126783   4.600   2.071  16.806 -0.1884 -0.3543 -2.5016
 5108SOL    HW226784   0.020   2.093  16.846  1.3492 -0.9705  0.0302
 5109SOL     OW26785   2.260   0.487   8.037  0.5658 -0.6791 -0.3490
 5109SOL    HW126786   2.259   0.579   8.066 -1.6036 -1.8595  3.2871
 5109SOL    HW226787   2.348   0.459   8.059  0.1952  0.3371  2.4588
 5110SOL     OW26788   3.284   4.685   9.164 -0.0040 -0.7253  0.8610
 5110SOL    HW126789   3.247   0.019   9.233 -2.8723 -0.4184 -0.9076
 5110SOL    HW226790   3.353   4.638   9.210 -0.6202 -1.9779  0.4864
 5111SOL     OW26791   1.234   4.008   6.961  0.1001 -0.4765  0.5128
 5111SOL    HW126792   1.299   3.938   6.962 -0.9917 -1.5144 -2.4290
 5111SOL    HW226793   1.224   4.019   7.056 -1.8646  0.1585  0.2256
 5112SOL     OW26794   2.644   2.594   8.547  0.3482 -0.4880 -0.1852
 5112SOL    HW126795   2.709   2.648   8.591 -1.6495  0.7824  1.2145
 5112SOL    HW226796   2.607   2.533   8.611  2.6391  0.0805  1.7207
 5113SOL     OW26797   0.939   0.816   5.852 -0.0701 -0.0811 -0.2880
 5113SOL    HW126798   0.854   0.836   5.891 -1.3027 -1.6880 -2.1495
 5113SOL    HW226799   0.927   0.811   5.757 -0.8094 -1.9658 -0.0894
 5114SOL     OW26800   1.941   2.912   5.074  0.1115  0.7973  0.8119
 5114SOL    HW126801   1.956   2.987   5.131  1.9700  1.0434 -0.0062
 5114SOL    HW226802   1.909   2.846   5.136  1.1350  0.6308  1.1708
 5115SOL     OW26803   4.225   1.008  15.062  0.1421  0.5021 -0.0542
 5115SOL    HW126804   4.301   0.951  15.075 -0.6169 -1.1645 -2.7281
 5115SOL    HW226805   4.179   0.961  14.992  0.2049  1.3682 -0.6660
 5116SOL     OW26806   4.108   3.088   4.451 -0.2958 -0.4946 -0.1661
 5116SOL    HW126807   4.129   3.031   4.377 -0.3856 -0.6032 -0.1070
 5116SOL    HW226808   4.014   3.075   4.462 -0.3376 -0.5077 -0.5702
 5117SOL     OW26809   0.941   4.403   0.902 -0.0311  0.3710 -0.5514
 5117SOL    HW126810   0.884   4.480   0.895 -0.6051 -0.2333 -2.4318
 5117SOL    HW226811   1.006   4.441   0.961 -2.5871  2.3925  0.9728
 5118SOL     OW26812   3.525   2.167  14.357  0.3515 -0.1654 -0.2540
 5118SOL    HW126813   3.571   2.148  14.275 -0.0027 -0.3461 -0.4140
 5118SOL    HW226814   3.591   2.149  14.424  3.2124  1.1350 -2.7377
 5119SOL     OW26815   2.308   3.097   5.046  0.5864  0.2174 -0.2800
 5119SOL    HW126816   2.388   3.137   5.012  1.8759 -0.8554  1.5262
 5119SOL    HW226817   2.264   3.097   4.961  1.2495  0.9522 -0.6335
 5120SOL     OW26818   2.908   3.588   3.600  0.5580 -0.2709  0.4795
 5120SOL    HW126819   2.929   3.495   3.587  0.8421 -0.6895  3.8292
 5120SOL    HW226820   2.903   3.629   3.514  2.6559 -0.1973  0.3914
 5121SOL     OW26821   3.326   3.449   7.815  0.2044 -0.1394  0.8979
 5121SOL    HW126822   3.296   3.513   7.880 -0.9329 -0.8990  1.1370
 5121SOL    HW226823   3.410   3.424   7.853  0.9708 -0.8672 -1.2868
 5122SOL     OW26824   3.626   2.548   9.036 -0.3933  0.8223  0.0867
 5122SOL    HW126825   3.547   2.500   9.060  0.6811 -1.5590 -1.0762
 5122SOL    HW226826   3.692   2.487   9.068 -2.4465 -1.2431  0.3960
 5123SOL     OW26827   0.091   0.972  15.302 -0.5713 -0.0850 -0.0170
 5123SOL    HW126828   0.148   1.045  15.327  0.2621 -0.7342 -0.0437
 5123SOL    HW226829   0.109   0.963  15.209 -0.0848 -0.3313  0.0968
 5124SOL     OW26830   4.388   4.493   2.385 -0.3353 -0.7150  0.6997
 5124SOL    HW126831   4.446   4.513   2.459 -0.4461 -0.8159  0.8139
 5124SOL    HW226832   4.437   4.422   2.344  0.1545 -0.5927  1.0799
 5125SOL     OW26833   1.654   0.361   5.918  0.6454  0.1440 -0.3577
 5125SOL    HW126834   1.569   0.372   5.875  0.3576  2.4834  0.8098
 5125SOL    HW226835   1.667   0.269   5.894 -0.4463 -0.2216  0.4605
 5126SOL     OW26836   2.285   2.976   3.319  0.3840  0.3054  0.0426
 5126SOL    HW126837   2.193   3.004   3.325  0.0356 -0.6058 -1.2186
 5126SOL    HW226838   2.309   3.023   3.239 -1.0793 -0.6398 -0.9491
 5127SOL     OW26839   3.156   3.269  11.993 -0.1987 -0.2645 -0.0395
 5127SOL    HW126840   3.084   3.261  12.055  0.9300  0.4712  1.3693
 5127SOL    HW226841   3.174   3.181  11.959  0.7282 -0.4202  0.8799
 5128SOL     OW26842   0.972   1.212   1.889  0.2347  0.0524 -0.1465
 5128SOL    HW126843   0.887   1.167   1.891 -0.1843  0.9261  1.6783
 5128SOL    HW226844   1.002   1.210   1.980 -0.3529  1.5912  0.0869
 5129SOL     OW26845   0.447   1.790  12.711 -0.1377  0.8799  0.2123
 5129SOL    HW126846   0.499   1.865  12.683  1.0685  0.4029  1.1917
 5129SOL    HW226847   0.491   1.767  12.793  1.3997  1.4492 -0.4572
 5130SOL     OW26848   0.214   3.003  11.493 -0.2041  0.1209 -0.8352
 5130SOL    HW126849   0.132   3.053  11.487 -0.7649 -0.9234 -1.8264
 5130SOL    HW226850   0.267   3.076  11.526  0.2425  0.0643 -1.4273
 5131SOL     OW26851   3.688   3.240  17.226  0.0041 -0.1050 -0.0422
 5131SOL    HW126852   3.607   3.199  17.256  0.3860 -1.4256 -0.8017
 5131SOL    HW226853   3.658   3.297  17.155 -2.8373  0.6276  1.7713
 5132SOL     OW26854   0.570   4.115   5.271 -0.2804  0.2308 -0.7242
 5132SOL    HW126855   0.479   4.107   5.243  0.4694 -0.8585 -2.8361
 5132SOL    HW226856   0.609   4.037   5.230  1.0862  2.3889 -3.5286
 5133SOL     OW26857   1.290   0.242   8.666  0.1265  0.1511 -0.3135
 5133SOL    HW126858   1.373   0.266   8.627  0.5593  0.8118  1.0205
 5133SOL    HW226859   1.231   0.230   8.591 -0.1149  0.9120 -0.2378
 5134SOL     OW26860   3.096   4.607   7.640  0.7682  0.2219 -0.0783
 5134SOL    HW126861   3.054   4.549   7.704 -3.2053  1.5884 -1.4680
 5134SOL    HW226862   3.158   4.663   7.687 -0.7402  2.2728 -0.5741
 5135SOL     OW26863   0.978   2.940   4.882  0.1416 -0.3559 -0.2818
 5135SOL    HW126864   0.914   3.005   4.912 -0.6844 -0.4416 -1.8425
 5135SOL    HW226865   1.047   2.949   4.947 -1.1732 -0.0377  1.0617
 5136SOL     OW26866   4.349   4.684   5.739 -0.9122 -0.3281  0.3934
 5136SOL    HW126867   4.418   4.618   5.745 -0.2805  0.3651  0.8409
 5136SOL    HW226868   4.287   4.645   5.800 -1.0020  1.6584  1.6034
 5137SOL     OW26869   0.820   2.209  10.711  0.1781  0.1720  0.0936
 5137SOL    HW126870   0.915   2.204  10.726  0.5045 -0.2721 -2.1308
 5137SOL    HW226871   0.801   2.152  10.785 -0.1138  0.4839  0.2611
 5138SOL     OW26872   3.975   2.694  16.320 -0.1046  0.4066  0.3076
 5138SOL    HW126873   3.938   2.636  16.253  1.4919 -0.2763  0.0231
 5138SOL    HW226874   4.043   2.735  16.266  0.9228 -0.7305  0.7424
 5139SOL     OW26875   0.576   2.861  16.854  0.4054  0.0789  0.4900
 5139SOL    HW126876   0.611   2.783  16.896  1.4980  0.3188  0.0256
 5139SOL    HW226877   0.481   2.850  16.848  0.4632 -0.5590  0.7915
 5140SOL     OW26878   3.046   0.196   2.728 -0.4599  0.5951  0.4371
 5140SOL    HW126879   2.951   0.181   2.734 -0.1677 -1.6689 -0.9196
 5140SOL    HW226880   3.050   0.282   2.687  1.0666  0.0919 -0.4534
 5141SOL     OW26881   4.064   2.257   6.779  0.3988  0.0705  0.3995
 5141SOL    HW126882   4.017   2.177   6.754 -1.0309  1.3545 -0.9675
 5141SOL    HW226883   4.155   2.226   6.789  0.9185  1.3902 -0.2654
 5142SOL     OW26884   1.009   3.724   5.943  0.1259  0.1390  0.3471
 5142SOL    HW126885   1.032   3.807   5.984  1.7730  0.5470 -1.4071
 5142SOL    HW226886   0.956   3.750   5.867 -0.8918  2.0718  1.7234
 5143SOL     OW26887   3.919   1.878   3.841 -0.3935  0.4496  0.1692
 5143SOL    HW126888   3.906   1.880   3.936  0.4967  1.3837  0.2689
 5143SOL    HW226889   4.005   1.919   3.847 -0.5657  0.7386  0.6513
 5144SOL     OW26890   4.714   4.535   4.018  0.0036 -0.2969 -0.5296
 5144SOL    HW126891   0.044   4.584   4.081 -0.4254 -1.7901  1.0249
 5144SOL    HW226892   4.621   4.543   4.041  0.3620 -0.1364  0.9181
 5145SOL     OW26893   0.571   1.769   1.215 -0.7200  0.1114 -0.2268
 5145SOL    HW126894   0.633   1.787   1.286 -0.6757 -0.0281 -0.2306
 5145SOL    HW226895   0.582   1.850   1.165  1.1047  1.1481  1.8267
 5146SOL     OW26896   4.376   3.262  11.029 -0.1448 -0.6446 -0.2579
 5146SOL    HW126897   4.281   3.251  11.022  0.3451 -3.9697 -1.6095
 5146SOL    HW226898   4.406   3.171  11.030  1.5298 -0.1143 -2.0933
 5147SOL     OW26899   2.757   2.141  17.547 -0.5944  0.2008 -0.4417
 5147SOL    HW126900   2.786   2.081  17.478 -0.5340 -1.7005  1.2519
 5147SOL    HW226901   2.838   2.148  17.597 -1.4192 -1.2215  1.0811
 5148SOL     OW26902   1.489   1.097   5.401 -1.2845 -0.3712 -0.2021
 5148SOL    HW126903   1.544   1.033   5.354  1.9410  2.3384 -0.0648
 5148SOL    HW226904   1.530   1.085   5.486  0.0453  2.0410 -0.5228
 5149SOL     OW26905   3.473   2.780  17.420  0.1509 -0.0260 -0.3134
 5149SOL    HW126906   3.516   2.864  17.435  2.6360 -1.2688 -0.4282
 5149SOL    HW226907   3.468   2.757  17.513  1.2981 -0.6383 -0.3951
 5150SOL     OW26908   0.921   4.433   7.671  0.6921  0.0021 -0.3844
 5150SOL    HW126909   0.983   4.380   7.621 -0.9620 -1.5558 -0.7434
 5150SOL    HW226910   0.883   4.493   7.607  0.1733  0.6967  0.5710
 5151SOL     OW26911   4.058   3.645   7.384 -0.1543 -0.5076  0.3478
 5151SOL    HW126912   4.081   3.712   7.321  0.4257 -0.4112  0.6628
 5151SOL    HW226913   4.004   3.577   7.343 -0.4856 -0.4328  0.6537
 5152SOL     OW26914   4.284   1.415   9.428  0.7285  0.4548  0.1938
 5152SOL    HW126915   4.369   1.419   9.383  0.4271 -1.3301 -0.5697
 5152SOL    HW226916   4.275   1.321   9.410 -1.6880  0.6060  0.6778
 5153SOL     OW26917   0.151   2.593  11.401  0.0778  0.3029  0.0463
 5153SOL    HW126918   0.221   2.531  11.422 -0.2194 -0.3462 -0.9034
 5153SOL    HW226919   0.150   2.578  11.307  1.5713 -0.2147  0.1114
 5154SOL     OW26920   1.587   2.892   7.356 -0.0385  0.1686 -0.5649
 5154SOL    HW126921   1.554   2.848   7.434 -2.3058  1.0470 -1.0503
 5154SOL    HW226922   1.665   2.932   7.395 -0.8991  0.1386  1.2198
 5155SOL     OW26923   3.017   3.360  11.199  0.0679  0.5304  0.3867
 5155SOL    HW126924   3.101   3.318  11.215 -0.2970 -0.5281 -0.5536
 5155SOL    HW226925   2.969   3.278  11.192  1.3399 -0.1183 -0.7606
 5156SOL     OW26926   0.667   0.870   7.606  0.2217 -0.2038  0.2447
 5156SOL    HW126927   0.572   0.864   7.616  0.0978  1.0717 -0.2158
 5156SOL    HW226928   0.683   0.942   7.667 -1.9529  0.6497 -0.2011
 5157SOL     OW26929   1.816   2.404   2.563 -0.2994 -0.2777  0.3088
 5157SOL    HW126930   1.824   2.444   2.650  1.7825 -1.5921  0.7165
 5157SOL    HW226931   1.724   2.378   2.552 -0.5067  0.9312 -0.7842
 5158SOL     OW26932   2.993   0.111   9.655  0.3193  0.1882  0.3787
 5158SOL    HW126933   3.082   0.081   9.676  0.1314  0.8423  2.1584
 5158SOL    HW226934   2.974   0.160   9.736 -1.6273  1.9886 -1.1620
 5159SOL     OW26935   0.159   1.948   2.446  0.4156 -0.3555 -0.1394
 5159SOL    HW126936   0.212   2.022   2.476  1.0733 -1.2748  0.9451
 5159SOL    HW226937   0.225   1.890   2.408 -0.1330 -0.7424 -0.5028
 5160SOL     OW26938   3.088   1.994  10.264 -0.2340  0.0543  0.2379
 5160SOL    HW126939   3.069   1.901  10.270 -1.2055  0.3571  1.7556
 5160SOL    HW226940   3.148   2.001  10.338 -2.4814 -1.0907  2.1556
 5161SOL     OW26941   3.982   0.366  11.257 -0.2797 -0.0740 -0.0824
 5161SOL    HW126942   3.892   0.365  11.290  0.6544  1.2518  2.5193
 5161SOL    HW226943   4.022   0.427  11.321  0.4139 -2.4554  1.7574
 5162SOL     OW26944   1.299   0.796  15.846 -0.1866 -0.0617 -0.0937
 5162SOL    HW126945   1.300   0.701  15.840  1.5389  0.0375 -1.3240
 5162SOL    HW226946   1.277   0.811  15.939 -0.1838 -0.4580 -0.0311
 5163SOL     OW26947   1.415   0.195   5.422 -0.5089  0.5776  0.2716
 5163SOL    HW126948   1.495   0.204   5.371 -0.2889 -1.4307  0.2623
 5163SOL    HW226949   1.354   0.257   5.381 -0.3126  0.7424  0.2270
 5164SOL     OW26950   2.082   4.418  13.811  0.0725  0.0825 -0.1210
 5164SOL    HW126951   2.176   4.418  13.829 -0.2087 -0.8467  1.3619
 5164SOL    HW226952   2.060   4.369  13.890 -1.5145  2.5758  0.9558
 5165SOL     OW26953   0.267   0.514   2.156  0.1039  0.6464 -0.3332
 5165SOL    HW126954   0.342   0.493   2.100  0.5620 -0.6521  0.7796
 5165SOL    HW226955   0.239   0.424   2.174 -0.7656  1.0690  0.4334
 5166SOL     OW26956   2.742   2.517   9.062  0.5299  0.0499  0.6989
 5166SOL    HW126957   2.788   2.599   9.044 -0.4450 -0.4881 -4.3162
 5166SOL    HW226958   2.785   2.490   9.144 -1.3623 -2.3906  0.8907
 5167SOL     OW26959   2.172   1.993   2.363 -0.0204  0.2200  0.0081
 5167SOL    HW126960   2.265   1.981   2.345  0.1552 -0.7705  1.5332
 5167SOL    HW226961   2.173   2.081   2.401 -1.2530  0.4930 -0.5740
 5168SOL     OW26962   0.210   3.005   3.275  0.1095 -0.3086 -0.1580
 5168SOL    HW126963   0.127   3.001   3.228  0.8913 -2.2166 -1.3589
 5168SOL    HW226964   0.226   2.914   3.300 -0.3672 -0.4222 -0.2737
 5169SOL     OW26965   0.639   0.814   2.080 -0.2747 -0.0755  0.4537
 5169SOL    HW126966   0.616   0.753   2.151 -2.7642  0.8742  0.4842
 5169SOL    HW226967   0.617   0.900   2.116 -2.6263 -1.0345  1.3470
 5170SOL     OW26968   2.885   4.423   5.768  0.6001  0.1219 -0.7691
 5170SOL    HW126969   2.909   4.507   5.808 -1.6578  0.8258 -0.8396
 5170SOL    HW226970   2.792   4.420   5.792  0.8403 -0.1275  0.1028
 5171SOL     OW26971   0.854   1.651   8.572 -0.8861 -0.2877  0.4113
 5171SOL    HW126972   0.866   1.615   8.660 -1.8400  3.9873  2.2934
 5171SOL    HW226973   0.761   1.670   8.566 -0.7750  0.1146 -0.1055
 5172SOL     OW26974   2.253   0.408   9.665  0.5634 -0.2575  0.4570
 5172SOL    HW126975   2.197   0.333   9.643 -0.5009  0.5893  0.3203
 5172SOL    HW226976   2.317   0.408   9.593  1.3058  0.9955  1.1185
 5173SOL     OW26977   0.005   3.147   0.259  0.7016 -0.0076 -0.0777
 5173SOL    HW126978   0.006   3.105   0.173 -2.4955  0.5996 -0.4188
 5173SOL    HW226979   4.711   3.235   0.224  0.6569  0.1780  0.4113
 5174SOL     OW26980   2.684   4.107  17.381 -0.2644  0.0602  0.3167
 5174SOL    HW126981   2.740   4.172  17.423  1.9666 -1.6890  0.0425
 5174SOL    HW226982   2.728   4.109  17.296  0.5297  0.3942  0.7346
 5175SOL     OW26983   0.664   2.974   9.010 -0.5178 -0.5815  0.2770
 5175SOL    HW126984   0.644   2.961   9.102 -0.9540 -0.7779  0.1551
 5175SOL    HW226985   0.667   3.069   8.999  2.3281 -0.4984  1.6952
 5176SOL     OW26986   0.085   3.748   8.339  0.0743  0.7586 -1.0624
 5176SOL    HW126987   0.126   3.662   8.332 -1.3225 -0.0996  1.3803
 5176SOL    HW226988   4.721   3.736   8.378  0.2971  0.6363 -0.5984
 5177SOL     OW26989   3.455   0.281  16.717 -0.0648 -0.4456 -0.0442
 5177SOL    HW126990   3.514   0.214  16.750  2.9238  0.9435 -2.4673
 5177SOL    HW226991   3.527   0.337  16.686 -1.5191  1.2335 -0.4379
 5178SOL     OW26992   1.673   1.945   5.521  0.0963  0.0833 -0.3961
 5178SOL    HW126993   1.767   1.931   5.535 -0.1302  0.8819  1.9056
 5178SOL    HW226994   1.641   1.976   5.606  1.1777 -1.3378  0.5337
 5179SOL     OW26995   1.606   1.273   5.181  0.3947 -0.5000  0.5650
 5179SOL    HW126996   1.682   1.239   5.134  0.5334  0.3619  0.1680
 5179SOL    HW226997   1.570   1.191   5.217 -0.0063 -0.2254  0.7931
 5180SOL     OW26998   3.558   1.525   5.885 -0.4079  0.1152 -0.7628
 5180SOL    HW126999   3.613   1.549   5.959 -0.8025  0.2882 -0.5254
 5180SOL    HW227000   3.623   1.485   5.827  1.2536 -0.0897  1.2535
 5181SOL     OW27001   2.177   3.014   5.728 -0.4493 -0.2096  0.3095
 5181SOL    HW127002   2.252   3.041   5.781  1.0841 -1.4781 -1.2214
 5181SOL    HW227003   2.208   3.018   5.638  0.9774 -1.5182  0.7545
 5182SOL     OW27004   4.563   2.838   7.802  0.3612 -0.2890 -0.2865
 5182SOL    HW127005   4.552   2.930   7.776 -1.1916 -0.1473  0.8887
 5182SOL    HW227006   4.622   2.852   7.876  2.3236  0.1041 -1.9092
 5183SOL     OW27007   2.475   2.678  16.053 -0.3024 -0.7785 -0.0639
 5183SOL    HW127008   2.381   2.674  16.074  0.2300 -2.3093  2.0178
 5183SOL    HW227009   2.495   2.768  16.075 -3.0935  0.6786 -3.4951
 5184SOL     OW27010   2.229   2.406   9.097  0.2302 -0.2803 -0.5704
 5184SOL    HW127011   2.323   2.404   9.080  0.4228  3.2369  0.2088
 5184SOL    HW227012   2.231   2.406   9.192  0.8151 -0.5586 -0.5802
 5185SOL     OW27013   2.550   1.561  11.356 -0.3642 -1.2235 -0.0843
 5185SOL    HW127014   2.643   1.561  11.378  0.3058  0.9191 -2.8668
 5185SOL    HW227015   2.524   1.643  11.398 -2.4740 -0.7794 -2.2708
 5186SOL     OW27016   4.148   2.947   0.638 -0.2459 -0.0112  0.1200
 5186SOL    HW127017   4.069   2.999   0.658 -0.5561  0.6624 -2.8423
 5186SOL    HW227018   4.197   2.940   0.720  0.1201 -2.9985 -0.3576
 5187SOL     OW27019   0.479   1.171  11.292 -0.0495 -0.2445 -0.5537
 5187SOL    HW127020   0.567   1.138  11.272 -0.1657 -0.8096 -0.1547
 5187SOL    HW227021   0.424   1.114  11.238  0.6417 -1.1738 -0.2831
 5188SOL     OW27022   3.187   1.908   7.624 -0.0388  0.3015  0.3261
 5188SOL    HW127023   3.258   1.968   7.647 -1.3163  2.7119 -1.8694
 5188SOL    HW227024   3.177   1.860   7.706  0.2104  0.6325  0.5528
 5189SOL     OW27025   3.990   2.549   9.986  0.2045  0.5794 -0.1515
 5189SOL    HW127026   3.899   2.576   9.999 -0.9877 -4.2662  1.4528
 5189SOL    HW227027   3.978   2.454   9.983 -0.8915  0.8057 -2.5739
 5190SOL     OW27028   4.202   1.623   9.554 -0.0544  0.0839  0.3291
 5190SOL    HW127029   4.248   1.694   9.508  0.0004 -0.1974 -0.0557
 5190SOL    HW227030   4.226   1.548   9.499  0.0744  0.0002  0.4981
 5191SOL     OW27031   4.385   1.323   6.076  0.2935 -0.0344  0.6178
 5191SOL    HW127032   4.472   1.304   6.042 -0.1914 -4.8955  1.9448
 5191SOL    HW227033   4.324   1.259   6.038  1.3572 -0.6404 -0.0669
 5192SOL     OW27034   1.488   0.718   5.186 -0.2583 -0.0178  0.5476
 5192SOL    HW127035   1.494   0.684   5.275 -0.3910 -1.0035  0.1830
 5192SOL    HW227036   1.410   0.774   5.189  0.2667  0.7090  0.6251
 5193SOL     OW27037   4.267   1.413  15.653  0.4771  0.1037 -0.5316
 5193SOL    HW127038   4.215   1.388  15.577 -0.9095  1.0650  0.1039
 5193SOL    HW227039   4.283   1.507  15.640 -2.0694  0.8578  1.7351
 5194SOL     OW27040   1.590   2.230  15.434 -0.4172  0.2638  0.3639
 5194SOL    HW127041   1.542   2.288  15.376  0.4745  1.5576  0.9196
 5194SOL    HW227042   1.560   2.146  15.398  1.7086 -0.1840 -0.3625
 5195SOL     OW27043   0.030   2.276  10.866  0.7576 -0.0975 -0.0589
 5195SOL    HW127044   4.671   2.325  10.863 -0.5369 -2.1958  1.7978
 5195SOL    HW227045   0.091   2.338  10.906  1.7686 -1.5351  0.6042
 5196SOL     OW27046   0.442   0.798   7.723 -0.0492 -0.4257  0.1531
 5196SOL    HW127047   0.351   0.789   7.695 -0.7680  0.6576  2.1771
 5196SOL    HW227048   0.434   0.858   7.797  0.1178  1.6220 -1.4852
 5197SOL     OW27049   0.453   2.748   8.735 -0.4552  0.1227 -0.4546
 5197SOL    HW127050   0.446   2.746   8.831 -2.0357 -1.5489 -0.5877
 5197SOL    HW227051   0.362   2.771   8.714 -0.5193  0.6505  0.3844
 5198SOL     OW27052   2.209   0.045  11.129 -0.1019  0.0735  0.3238
 5198SOL    HW127053   2.151   0.118  11.150 -0.2206 -0.0565  0.4475
 5198SOL    HW227054   2.243   0.072  11.043 -1.9510 -0.9546 -0.7236
 5199SOL     OW27055   2.403   2.545   4.065  0.5065 -0.3270 -0.0433
 5199SOL    HW127056   2.310   2.530   4.082  0.3054 -0.3257 -1.1631
 5199SOL    HW227057   2.440   2.515   4.148  0.3102  1.9013  0.8563
 5200SOL     OW27058   0.653   2.636  16.979  0.2823 -0.4818  0.0735
 5200SOL    HW127059   0.743   2.634  17.011  1.0787  0.8606 -2.0714
 5200SOL    HW227060   0.635   2.544  16.998 -2.3571  0.4541  2.0960
 5201SOL     OW27061   2.552   0.267   9.986 -0.1969  0.4596 -0.0622
 5201SOL    HW127062   2.536   0.197  10.048  1.3114 -0.0247 -0.2143
 5201SOL    HW227063   2.555   0.345  10.042 -1.1778  1.9660 -2.0819
 5202SOL     OW27064   4.531   0.136   5.274  0.0650 -0.0810  0.1771
 5202SOL    HW127065   4.603   0.199   5.272  0.3175 -0.3550  0.5409
 5202SOL    HW227066   4.561   0.050   5.243  1.2105  0.5940 -0.5877
 5203SOL     OW27067   4.719   1.430   3.601  0.4871 -0.0335 -0.0710
 5203SOL    HW127068   0.022   1.338   3.609 -1.7576 -0.6242  0.5558
 5203SOL    HW227069   4.657   1.444   3.673  0.4608 -0.1559 -0.0695
 5204SOL     OW27070   3.294   3.589   8.435 -0.3343 -0.7586 -0.0992
 5204SOL    HW127071   3.358   3.565   8.502  0.8854  1.0209 -0.6072
 5204SOL    HW227072   3.331   3.678   8.431 -1.1205 -0.6247 -4.1324
 5205SOL     OW27073   1.902   1.567   9.091  0.6464 -0.4993 -0.1281
 5205SOL    HW127074   1.916   1.476   9.065  0.0131 -0.7133  0.2841
 5205SOL    HW227075   1.926   1.612   9.010  1.0763 -0.7112 -0.1162
 5206SOL     OW27076   3.302   2.414   3.773 -0.0380  0.3248  0.2666
 5206SOL    HW127077   3.283   2.408   3.867 -1.0017 -0.1862  0.0421
 5206SOL    HW227078   3.240   2.484   3.751  0.8227  1.1213  0.3429
 5207SOL     OW27079   3.206   4.626   6.986 -0.3876  0.1689 -1.0021
 5207SOL    HW127080   3.118   4.659   7.004  0.1450  1.3574 -0.5561
 5207SOL    HW227081   3.193   4.591   6.898 -1.8867 -3.1199  0.5394
 5208SOL     OW27082   1.303   0.191   9.067  0.0915  0.0079  0.0072
 5208SOL    HW127083   1.213   0.164   9.088  0.0839  0.8063  0.9581
 5208SOL    HW227084   1.340   0.104   9.083  0.7859 -0.3517 -3.6328
 5209SOL     OW27085   3.802   2.438   1.763  0.0709 -0.1074  0.7448
 5209SOL    HW127086   3.794   2.373   1.693  2.2564 -0.9385  1.2523
 5209SOL    HW227087   3.894   2.463   1.756  0.6398 -2.9917 -2.1598
 5210SOL     OW27088   2.690   3.880  17.557  0.2897 -0.2392 -0.0761
 5210SOL    HW127089   2.743   3.910  17.631 -0.1360 -2.5019  1.1491
 5210SOL    HW227090   2.698   3.967  17.519  1.5792 -0.8458 -1.1785
 5211SOL     OW27091   0.727   4.085   9.224  0.7320 -0.4019  0.1027
 5211SOL    HW127092   0.757   4.126   9.143 -0.5384 -0.5193 -0.4216
 5211SOL    HW227093   0.810   4.083   9.272 -1.0295  1.3053  3.1848
 5212SOL     OW27094   3.669   4.691   8.435  0.1114  0.3899 -0.0509
 5212SOL    HW127095   3.756   4.671   8.399  0.4318  1.2487  0.2420
 5212SOL    HW227096   3.658   4.612   8.488  0.2281  0.6317  0.3344
 5213SOL     OW27097   1.603   2.286  14.493 -1.0540  0.2253 -0.2884
 5213SOL    HW127098   1.544   2.261  14.564  0.9653  1.9636  1.9745
 5213SOL    HW227099   1.588   2.209  14.438  1.2903  0.1624 -0.8329
 5214SOL     OW27100   4.142   4.457   8.344  0.1510  0.5029  0.0316
 5214SOL    HW127101   4.236   4.443   8.352 -0.2130 -1.0672  1.5526
 5214SOL    HW227102   4.099   4.408   8.414  1.5885 -1.0974 -0.2001
 5215SOL     OW27103   2.375   1.090  14.655 -0.0719  0.2001 -0.5712
 5215SOL    HW127104   2.340   1.177  14.634 -3.1354 -0.4061  2.0086
 5215SOL    HW227105   2.321   1.031  14.603 -2.3044  1.6549  0.0917
 5216SOL     OW27106   1.477   3.239  14.215 -0.5415  0.5267 -0.0380
 5216SOL    HW127107   1.475   3.166  14.153 -0.7373 -0.4641  1.1234
 5216SOL    HW227108   1.468   3.320  14.165 -0.7614 -0.1084 -1.0279
 5217SOL     OW27109   0.814   4.001  16.522 -0.3204 -0.7363  0.5667
 5217SOL    HW127110   0.772   3.915  16.530  0.7964 -1.3144  0.1428
 5217SOL    HW227111   0.900   3.991  16.562 -0.1908  0.3588  0.5484
 5218SOL     OW27112   1.497   4.111   2.922  0.3129 -0.0909  0.1423
 5218SOL    HW127113   1.412   4.149   2.898  0.0585  0.0511  1.2768
 5218SOL    HW227114   1.528   4.197   2.950 -1.6303  1.5168 -2.6239
 5219SOL     OW27115   2.142   4.576   5.857 -0.5159 -0.4198 -0.2332
 5219SOL    HW127116   2.117   4.658   5.814 -0.5610 -1.1315 -1.5716
 5219SOL    HW227117   2.198   4.609   5.928 -1.7528 -0.2053  0.6374
 5220SOL     OW27118   3.773   0.535   2.918 -0.3868 -0.4961  0.3837
 5220SOL    HW127119   3.688   0.504   2.949  0.3972 -1.1369  1.9036
 5220SOL    HW227120   3.822   0.509   2.996  0.5244  0.4384  0.1301
 5221SOL     OW27121   1.336   0.448   1.340 -0.0725  0.6605  0.1327
 5221SOL    HW127122   1.363   0.494   1.261  1.3795 -1.5258 -0.6305
 5221SOL    HW227123   1.368   0.506   1.409 -1.0170  0.3734  0.8273
 5222SOL     OW27124   4.357   1.337  16.260 -0.5501  0.4511 -0.2618
 5222SOL    HW127125   4.427   1.327  16.195 -0.1996 -4.0630  0.8347
 5222SOL    HW227126   4.292   1.274  16.227  0.6823 -0.5632 -0.7590
 5223SOL     OW27127   1.856   3.471   8.180  0.4407  0.2793 -0.0911
 5223SOL    HW127128   1.830   3.561   8.200  2.5120  0.6780  0.8574
 5223SOL    HW227129   1.794   3.415   8.226  1.6178 -0.2278  0.8728
 5224SOL     OW27130   4.719   3.812   2.686  0.9591 -0.2265 -0.1112
 5224SOL    HW127131   0.047   3.862   2.623  1.6983 -1.3457 -0.4135
 5224SOL    HW227132   4.630   3.836   2.660  0.6418 -0.2944  0.9225
 5225SOL     OW27133   1.831   2.601   7.129 -0.1639 -0.4318  0.5687
 5225SOL    HW127134   1.842   2.619   7.222 -0.7984 -2.0205  0.9500
 5225SOL    HW227135   1.801   2.683   7.090  0.0488 -0.6895 -0.1230
 5226SOL     OW27136   3.897   0.601  11.584  0.1605 -0.0710  0.5809
 5226SOL    HW127137   3.932   0.670  11.640 -0.8843  0.1163  1.0052
 5226SOL    HW227138   3.968   0.589  11.521  0.0545 -1.2845  0.6832
 5227SOL     OW27139   2.473   0.615   9.237  0.1346  0.4329  0.2876
 5227SOL    HW127140   2.439   0.529   9.264  0.7484  0.4450  1.0937
 5227SOL    HW227141   2.427   0.627   9.154  0.6516 -1.7514 -0.3178
 5228SOL     OW27142   2.463   3.351   3.346 -0.2129  0.2115 -0.0115
 5228SOL    HW127143   2.396   3.404   3.303 -0.6067 -0.4869 -0.2540
 5228SOL    HW227144   2.468   3.270   3.295  0.7934 -0.0423  0.4992
 5229SOL     OW27145   1.623   1.953  15.139  0.2898  0.2402  0.4333
 5229SOL    HW127146   1.631   2.025  15.077 -0.1543  1.3454  1.6730
 5229SOL    HW227147   1.666   1.880  15.094  0.8513  0.9079 -0.1087
 5230SOL     OW27148   0.188   2.427  12.443 -0.3234  0.8093  0.3016
 5230SOL    HW127149   0.135   2.372  12.386  0.5527  0.5680 -0.2786
 5230SOL    HW227150   0.216   2.365  12.510  2.7166  1.7715 -0.0537
 5231SOL     OW27151   0.333   3.833   0.571 -0.1151  0.4996  0.2600
 5231SOL    HW127152   0.349   3.928   0.577  0.7769  0.5012 -2.1821
 5231SOL    HW227153   0.245   3.832   0.534 -0.3193 -2.4721  0.8533
 5232SOL     OW27154   4.564   0.994   4.509 -0.1973 -0.3900 -0.4543
 5232SOL    HW127155   4.594   0.947   4.431  0.6653 -2.0612  0.8848
 5232SOL    HW227156   4.600   0.945   4.583 -0.8102 -0.7468 -0.3909
 5233SOL     OW27157   0.464   0.604  11.723 -0.2461 -0.0313 -0.2126
 5233SOL    HW127158   0.424   0.547  11.788 -2.6453 -0.0010 -1.6940
 5233SOL    HW227159   0.556   0.575  11.729  0.3921  2.0892  0.1800
 5234SOL     OW27160   1.731   3.245   7.317  0.1334 -0.3736  0.5438
 5234SOL    HW127161   1.773   3.257   7.232 -0.3408  0.6659  0.4522
 5234SOL    HW227162   1.651   3.205   7.284 -1.7730  1.7534  2.5193
 5235SOL     OW27163   4.534   1.498  13.510  0.4316 -0.5709  0.3956
 5235SOL    HW127164   4.518   1.423  13.568 -0.5537 -1.3084 -0.7916
 5235SOL    HW227165   4.460   1.556  13.526  1.0664 -0.1067  1.5617
 5236SOL     OW27166   1.301   0.360   7.364  0.0568  0.4617 -0.1749
 5236SOL    HW127167   1.220   0.363   7.414  0.1239 -0.8526  0.0150
 5236SOL    HW227168   1.330   0.446   7.333 -0.5755  0.6699 -0.1767
 5237SOL     OW27169   3.269   2.433  14.288  0.0688  0.3960 -0.7655
 5237SOL    HW127170   3.359   2.457  14.266  0.0414  0.0684 -1.2217
 5237SOL    HW227171   3.225   2.501  14.237  0.5648  2.0936  1.0561
 5238SOL     OW27172   1.148   3.430   6.894  0.2413 -0.1078 -0.1056
 5238SOL    HW127173   1.220   3.368   6.879  0.7512  0.5823 -0.5438
 5238SOL    HW227174   1.081   3.362   6.888  1.4976 -1.4288  0.8028
 5239SOL     OW27175   4.504   1.246   4.534  0.3706  0.3277  0.0267
 5239SOL    HW127176   4.587   1.259   4.580 -0.4189 -1.2284  1.8612
 5239SOL    HW227177   4.519   1.152   4.534  0.4179  0.3355  0.2786
 5240SOL     OW27178   1.122   3.211   8.702 -0.1780  0.1061 -0.1944
 5240SOL    HW127179   1.177   3.271   8.651 -0.9865  0.0585 -1.1269
 5240SOL    HW227180   1.121   3.244   8.792 -0.6467  0.1200 -0.2019
 5241SOL     OW27181   3.230   0.013   3.139 -0.6475  0.0755  0.2705
 5241SOL    HW127182   3.241   0.068   3.061 -0.9007 -0.1459  0.0765
 5241SOL    HW227183   3.287   0.055   3.204  0.3500 -0.7723 -0.0588
 5242SOL     OW27184   3.411   3.489   6.437 -0.2162 -0.1126  0.1892
 5242SOL    HW127185   3.344   3.428   6.468 -0.2580 -0.1535  0.0179
 5242SOL    HW227186   3.394   3.487   6.343 -0.5193 -1.0543  0.2623
 5243SOL     OW27187   3.795   4.422   9.875 -0.1565 -0.1812 -0.2478
 5243SOL    HW127188   3.881   4.405   9.913  0.1855  1.7517 -0.1445
 5243SOL    HW227189   3.776   4.349   9.817  0.0189  0.9816 -1.7685
 5244SOL     OW27190   0.943   3.265  12.820  0.3573 -0.4181  0.4504
 5244SOL    HW127191   1.027   3.230  12.791 -0.5222 -1.9858 -0.2443
 5244SOL    HW227192   0.900   3.185  12.850  0.9651 -0.2013  1.9197
 5245SOL     OW27193   3.964   1.826   0.502 -0.0562 -0.2596 -0.0964
 5245SOL    HW127194   3.969   1.762   0.431  0.1598  0.2870 -0.5752
 5245SOL    HW227195   4.054   1.827   0.533  0.3696  2.2886 -1.4413
 5246SOL     OW27196   0.164   2.048   5.787  0.1186  0.2230  0.0183
 5246SOL    HW127197   0.248   2.054   5.742  0.4338  2.0534  0.8719
 5246SOL    HW227198   0.127   2.131   5.759  0.7707  0.0693 -1.3291
 5247SOL     OW27199   1.473   0.315   5.717 -0.1277 -0.1366  0.4939
 5247SOL    HW127200   1.504   0.296   5.628  2.9897  0.2670  1.4959
 5247SOL    HW227201   1.378   0.312   5.705 -0.1134 -0.2493  0.4084
 5248SOL     OW27202   2.112   3.406   4.966 -0.2617  0.2555  0.7973
 5248SOL    HW127203   2.127   3.437   5.055 -1.6232  0.3159  1.0090
 5248SOL    HW227204   2.032   3.355   4.981 -0.9005  0.3917 -2.0984
 5249SOL     OW27205   3.718   2.126   6.104  0.4899  0.7235  0.2873
 5249SOL    HW127206   3.671   2.166   6.177  1.7141 -1.0009  2.0519
 5249SOL    HW227207   3.768   2.197   6.064  0.5258 -0.7623 -2.3490
 5250SOL     OW27208   3.571   0.832   3.558 -0.5689 -0.0590 -0.0076
 5250SOL    HW127209   3.631   0.867   3.493  0.2978 -0.4089  0.6114
 5250SOL    HW227210   3.542   0.912   3.602 -1.4241  0.2586 -1.1366
 5251SOL     OW27211   1.154   3.133   5.063 -0.2426  0.2393 -0.3289
 5251SOL    HW127212   1.130   3.066   5.127 -0.4740 -1.3471 -2.0577
 5251SOL    HW227213   1.190   3.202   5.118  0.0611  0.0471 -0.2862
 5252SOL     OW27214   2.469   1.707   6.767 -0.1084 -0.2213 -0.9544
 5252SOL    HW127215   2.529   1.758   6.822 -2.4733  0.4278  1.0115
 5252SOL    HW227216   2.384   1.733   6.803  0.3305 -0.9240  0.6020
 5253SOL     OW27217   3.747   0.834   7.294 -0.4163 -0.2897  0.1550
 5253SOL    HW127218   3.734   0.928   7.307  0.2644 -0.6063  3.1316
 5253SOL    HW227219   3.663   0.800   7.266 -1.2888  0.3812  1.9620
 5254SOL     OW27220   3.731   1.371   3.706  0.0035 -0.1662 -0.0658
 5254SOL    HW127221   3.818   1.339   3.680  0.1122 -0.4938  0.6872
 5254SOL    HW227222   3.763   1.458   3.730  1.2045 -0.4491 -0.6079
 5255SOL     OW27223   1.624   0.759   1.447  0.2455 -0.2884  0.1769
 5255SOL    HW127224   1.570   0.690   1.486  0.3675 -1.1282 -1.1164
 5255SOL    HW227225   1.599   0.754   1.355 -0.7892 -1.8680  0.5585
 5256SOL     OW27226   2.388   2.209   1.536 -0.6543  0.0561  0.1044
 5256SOL    HW127227   2.452   2.199   1.466 -0.0618 -0.9810  0.7834
 5256SOL    HW227228   2.381   2.304   1.532  0.5660  0.1817  0.9356
 5257SOL     OW27229   0.926   0.834   2.451  0.5274 -0.4634  0.2828
 5257SOL    HW127230   0.849   0.877   2.488  0.9120  0.6391 -0.2023
 5257SOL    HW227231   0.894   0.744   2.446 -0.6228 -0.2776  3.8708
 5258SOL     OW27232   2.689   2.024   1.807  0.1019  0.4673 -0.5222
 5258SOL    HW127233   2.742   1.951   1.773 -0.1034  0.4341 -0.7717
 5258SOL    HW227234   2.645   1.980   1.880 -1.3543  1.9359 -0.5391
 5259SOL     OW27235   1.749   1.882   6.590  0.3302  0.2544  0.1209
 5259SOL    HW127236   1.738   1.963   6.541  2.1680  0.2933 -0.2650
 5259SOL    HW227237   1.742   1.923   6.676  1.1476 -0.4406  0.5240
 5260SOL     OW27238   3.463   2.715  10.298 -0.2282  0.6263  0.8286
 5260SOL    HW127239   3.472   2.796  10.349  0.6076 -0.3383  2.1842
 5260SOL    HW227240   3.387   2.675  10.340 -0.0917 -1.3165 -0.7987
 5261SOL     OW27241   2.514   3.725   4.445 -0.1830 -0.1097  0.0271
 5261SOL    HW127242   2.430   3.697   4.483  0.9393  0.0834  2.6622
 5261SOL    HW227243   2.546   3.781   4.516 -1.2707  1.8352 -1.0141
 5262SOL     OW27244   3.711   1.258   2.108 -0.3886  0.1182  0.0743
 5262SOL    HW127245   3.643   1.318   2.140 -2.8350 -2.3748 -0.4145
 5262SOL    HW227246   3.678   1.271   2.019  0.3867  0.4977 -0.1579
 5263SOL     OW27247   3.585   2.628   5.474  0.2671 -0.5989 -0.0653
 5263SOL    HW127248   3.666   2.622   5.525  1.8048  2.0319 -2.1621
 5263SOL    HW227249   3.547   2.546   5.505  0.7593 -0.9123 -0.2824
 5264SOL     OW27250   3.446   0.962   7.565  0.1474  0.5847 -0.3329
 5264SOL    HW127251   3.428   0.932   7.476 -0.0711  0.0483 -0.1086
 5264SOL    HW227252   3.359   0.985   7.596 -0.2992 -0.5306 -0.7524
 5265SOL     OW27253   4.030   1.576  10.897 -0.0778 -0.3095  0.3189
 5265SOL    HW127254   4.123   1.553  10.892 -0.2722 -1.1098  0.4274
 5265SOL    HW227255   4.031   1.615  10.985 -0.2569 -0.0278  0.1974
 5266SOL     OW27256   1.531   1.041   2.929 -0.4362  0.2456 -0.1141
 5266SOL    HW127257   1.571   1.029   2.844  1.5157  2.4266  0.4906
 5266SOL    HW227258   1.558   1.132   2.940  3.2421 -0.6471 -1.8410
 5267SOL     OW27259   2.730   1.676   4.326 -0.5860  0.1052 -0.4427
 5267SOL    HW127260   2.813   1.633   4.346  0.0840  1.6581  0.1280
 5267SOL    HW227261   2.755   1.758   4.284  1.9298 -1.4218 -1.9469
 5268SOL     OW27262   0.421   0.529   7.620 -0.0866 -0.4004  0.7637
 5268SOL    HW127263   0.486   0.482   7.673  0.7035 -0.7250 -0.5072
 5268SOL    HW227264   0.438   0.623   7.634 -1.4653 -0.2076  1.1524
 5269SOL     OW27265   0.399   2.435   3.592 -0.0951  0.6922 -0.6819
 5269SOL    HW127266   0.311   2.455   3.625 -0.0591 -1.6015  0.7708
 5269SOL    HW227267   0.439   2.413   3.676 -0.5379  0.1686 -0.6092
 5270SOL     OW27268   4.034   2.646   9.663 -0.0182  0.4330 -0.1269
 5270SOL    HW127269   3.964   2.584   9.686  0.6582 -0.0337  0.6761
 5270SOL    HW227270   4.049   2.632   9.570 -2.3063  1.9198 -0.7149
 5271SOL     OW27271   3.961   3.239   2.154  0.1574  0.1268 -0.3008
 5271SOL    HW127272   4.037   3.199   2.195 -0.2794 -1.7535 -1.3187
 5271SOL    HW227273   3.898   3.168   2.144  0.1904 -0.1808  1.5796
 5272SOL     OW27274   0.263   3.294  13.099 -0.4694 -0.4354  0.3484
 5272SOL    HW127275   0.345   3.343  13.088 -1.7161  1.2905 -1.1277
 5272SOL    HW227276   0.274   3.250  13.183  1.4735  0.0267  0.3325
 5273SOL     OW27277   1.067   4.652   0.684 -0.2617 -0.3327  0.2024
 5273SOL    HW127278   1.144   4.701   0.713  0.5473 -0.6183 -1.4779
 5273SOL    HW227279   1.006   0.001   0.701  0.8034  0.3036  1.3642
 5274SOL     OW27280   4.360   1.972   0.847 -0.5684 -0.4143  0.4141
 5274SOL    HW127281   4.434   2.024   0.880 -0.2904 -1.1990  1.0444
 5274SOL    HW227282   4.398   1.885   0.863 -1.2553 -0.9078 -0.6459
 5275SOL     OW27283   3.776   1.440   5.307 -0.4770  0.3580 -0.4011
 5275SOL    HW127284   3.845   1.405   5.364 -0.9477  1.0241  0.5703
 5275SOL    HW227285   3.827   1.420   5.229  1.9748  0.4949  1.1520
 5276SOL     OW27286   2.753   3.602   2.178  0.3227  0.7308  0.1532
 5276SOL    HW127287   2.679   3.546   2.201  0.2854  1.3721  1.5946
 5276SOL    HW227288   2.731   3.617   2.086  1.6095  2.5152  0.1384
 5277SOL     OW27289   0.959   1.262   6.783 -0.2549  0.2615 -0.5686
 5277SOL    HW127290   1.013   1.325   6.736 -0.0998 -0.4594 -1.3650
 5277SOL    HW227291   1.011   1.181   6.777 -1.4781 -0.8419  3.4061
 5278SOL     OW27292   4.646   1.203   7.658  0.2798  0.4208 -0.1604
 5278SOL    HW127293   4.684   1.122   7.690  0.9743  0.7557 -0.1284
 5278SOL    HW227294   4.577   1.213   7.723  0.4862 -2.6637  0.5147
 5279SOL     OW27295   3.223   2.338  11.301  0.5144  0.1259 -0.5479
 5279SOL    HW127296   3.284   2.403  11.335  1.7040 -1.5569  0.5380
 5279SOL    HW227297   3.276   2.258  11.293 -0.8115 -0.8961  0.8332
 5280SOL     OW27298   2.883   0.788   8.816 -0.7720  0.0155 -0.4760
 5280SOL    HW127299   2.973   0.763   8.795  0.3644  1.8161  2.3085
 5280SOL    HW227300   2.890   0.883   8.807  3.3159 -0.3863 -1.9207
 5281SOL     OW27301   1.241   2.123  15.809 -0.2346 -0.7019 -0.1879
 5281SOL    HW127302   1.232   2.098  15.717 -1.5205 -0.9208 -0.0059
 5281SOL    HW227303   1.296   2.200  15.794  1.2628 -1.7937 -0.3673
 5282SOL     OW27304   4.711   0.394   8.386  0.3530  0.4689 -0.0863
 5282SOL    HW127305   4.687   0.454   8.457  1.6227 -0.7930  1.3796
 5282SOL    HW227306   0.066   0.436   8.350  0.4119 -0.5230 -1.1285
 5283SOL     OW27307   0.903   2.832  16.066  0.4395 -0.3116 -0.3437
 5283SOL    HW127308   0.963   2.793  16.002  1.9463 -0.3527  1.0731
 5283SOL    HW227309   0.928   2.774  16.138  1.5882  1.0350  0.3616
 5284SOL     OW27310   4.697   3.245   6.134 -0.1687  0.1360 -0.0464
 5284SOL    HW127311   0.006   3.157   6.156  0.1090  0.4204  0.6923
 5284SOL    HW227312   4.654   3.273   6.215  0.8887  1.3857  0.0847
 5285SOL     OW27313   3.534   2.732  15.018 -0.1935  0.9201  0.3503
 5285SOL    HW127314   3.475   2.673  15.066 -1.3175  0.0500 -2.1147
 5285SOL    HW227315   3.520   2.708  14.927 -2.7622 -2.3073  1.6068
 5286SOL     OW27316   0.697   1.983   7.237  0.0945 -0.9180 -0.4197
 5286SOL    HW127317   0.771   2.000   7.179  0.2484  0.7015  0.2458
 5286SOL    HW227318   0.633   2.048   7.207  0.5256  1.0320  2.9176
 5287SOL     OW27319   4.025   0.286   7.320  0.8449 -0.0013 -0.0172
 5287SOL    HW127320   3.971   0.208   7.309  0.8777 -0.3197  2.0329
 5287SOL    HW227321   3.982   0.332   7.392 -1.3729 -1.6781 -0.2832
 5288SOL     OW27322   4.511   2.378  15.693 -0.5126  0.4385 -0.6029
 5288SOL    HW127323   4.530   2.288  15.667 -2.1660 -0.4663  1.3355
 5288SOL    HW227324   4.416   2.385  15.692 -0.6517 -1.2959 -0.1576
 5289SOL     OW27325   4.249   2.130  13.137 -0.1131  0.1907 -0.2376
 5289SOL    HW127326   4.321   2.092  13.086  0.4261 -1.1159  1.4893
 5289SOL    HW227327   4.207   2.059  13.184  0.3252 -0.4192 -0.7532
 5290SOL     OW27328   1.352   0.604   7.224  0.2068 -0.1090 -0.0858
 5290SOL    HW127329   1.260   0.629   7.222  0.1855 -0.1418  0.5906
 5290SOL    HW227330   1.380   0.694   7.206  0.3603 -0.4057 -1.3288
 5291SOL     OW27331   0.525   4.044   6.469 -0.1068 -0.3074 -0.2104
 5291SOL    HW127332   0.520   3.981   6.397 -1.8252 -0.9614  0.5034
 5291SOL    HW227333   0.521   4.130   6.428  0.9835  1.0393  2.5594
 5292SOL     OW27334   2.987   1.546  12.813 -0.0534  0.6140  0.1511
 5292SOL    HW127335   2.938   1.594  12.880  0.6210 -0.6528  1.5604
 5292SOL    HW227336   2.938   1.468  12.787  2.9062 -0.8018 -1.0945
 5293SOL     OW27337   1.924   3.794   2.665 -0.2881  0.6458 -0.0134
 5293SOL    HW127338   1.846   3.790   2.719  0.3133  1.7619  0.9294
 5293SOL    HW227339   1.961   3.714   2.702 -1.3655  1.0652  1.9850
 5294SOL     OW27340   0.967   0.253   4.442  0.1183 -0.1848  0.1204
 5294SOL    HW127341   0.875   0.275   4.454  0.8686  3.6593 -1.2026
 5294SOL    HW227342   0.968   0.158   4.432 -4.1211 -0.2294  0.1637
 5295SOL     OW27343   4.141   3.291  12.846  0.4335  0.6897 -0.2916
 5295SOL    HW127344   4.140   3.314  12.939  1.1370 -0.3290 -0.0333
 5295SOL    HW227345   4.209   3.225  12.831  0.0723  0.3377 -0.3924
 5296SOL     OW27346   2.146   1.668   6.795 -0.2329  0.2542 -0.0770
 5296SOL    HW127347   2.094   1.714   6.729 -1.3475 -1.7690 -0.5960
 5296SOL    HW227348   2.192   1.737   6.843 -0.0465  0.0215  0.0806
 5297SOL     OW27349   0.133   2.276   2.031 -0.6204 -0.0156  0.1565
 5297SOL    HW127350   0.153   2.195   2.077  0.6156 -0.6574 -1.4856
 5297SOL    HW227351   0.215   2.326   2.034 -1.1838  0.7996  1.8460
 5298SOL     OW27352   1.679   0.082   6.141 -0.7441 -0.2047  0.3220
 5298SOL    HW127353   1.766   0.119   6.125 -0.8178 -0.3383 -0.3906
 5298SOL    HW227354   1.632   0.159   6.172  1.5010  0.9476  0.8321
 5299SOL     OW27355   1.499   1.541   8.038 -0.4738 -0.4550 -0.0429
 5299SOL    HW127356   1.497   1.621   8.090 -3.1363 -0.4431 -0.1550
 5299SOL    HW227357   1.406   1.546   8.015 -0.3365 -1.4421 -0.8120
 5300SOL     OW27358   0.842   1.449   7.037  0.0958  0.1792 -0.6247
 5300SOL    HW127359   0.861   1.357   7.022  0.2056 -0.2088  1.9208
 5300SOL    HW227360   0.919   1.462   7.092  0.2125  1.3243 -1.0464
 5301SOL     OW27361   0.656   1.483   7.601  0.0739 -0.1331 -0.2747
 5301SOL    HW127362   0.651   1.418   7.531  0.3569  0.2364 -0.6362
 5301SOL    HW227363   0.572   1.465   7.643  0.4412 -1.6503 -0.1896
 5302SOL     OW27364   3.760   1.385   9.432  0.0546  0.0784  0.1499
 5302SOL    HW127365   3.845   1.379   9.474  0.5978 -1.3481 -1.1282
 5302SOL    HW227366   3.698   1.363   9.501  0.7607  1.9451  1.3690
 5303SOL     OW27367   3.444   0.961   9.196  0.1489  0.2842  0.2136
 5303SOL    HW127368   3.473   0.989   9.109  1.2325 -1.7095 -0.0753
 5303SOL    HW227369   3.519   0.994   9.245  3.3345 -3.0588 -2.3155
 5304SOL     OW27370   2.138   4.496   2.046  0.1525 -0.1988  0.0102
 5304SOL    HW127371   2.198   4.495   1.971  0.5370 -2.1458  0.3427
 5304SOL    HW227372   2.061   4.464   1.998 -0.7907  1.2172  0.5854
 5305SOL     OW27373   3.413   3.861   5.270 -0.2241  0.3830 -0.1328
 5305SOL    HW127374   3.365   3.942   5.256 -0.1795  0.6730  1.3594
 5305SOL    HW227375   3.339   3.808   5.298 -0.3140  1.9257  2.5639
 5306SOL     OW27376   1.815   3.009   7.459  0.2422 -0.0903  0.2272
 5306SOL    HW127377   1.824   2.988   7.552 -0.2031  0.3545  0.3704
 5306SOL    HW227378   1.821   3.104   7.452 -1.5371 -0.0748 -0.9375
 5307SOL     OW27379   3.838   4.709   6.963 -0.3325 -0.6850  0.2180
 5307SOL    HW127380   3.898   4.668   6.901 -0.6756 -0.7941 -0.0474
 5307SOL    HW227381   3.754   4.677   6.928  0.6066 -2.9753  0.0488
 5308SOL     OW27382   3.355   3.087   5.543 -0.2111 -0.0909 -0.3645
 5308SOL    HW127383   3.261   3.073   5.547 -0.1347 -0.6449 -0.6337
 5308SOL    HW227384   3.373   3.134   5.462  1.9886 -1.0440 -0.4452
 5309SOL     OW27385   2.758   1.063   4.561  0.1193  0.4391  0.1952
 5309SOL    HW127386   2.804   1.025   4.486 -0.6142  3.1079 -1.6111
 5309SOL    HW227387   2.802   1.148   4.563  0.9363 -0.0514  2.2848
 5310SOL     OW27388   1.977   2.948   4.795  0.0536  0.3755  0.2830
 5310SOL    HW127389   1.971   2.939   4.890 -0.8776 -0.5206  0.1482
 5310SOL    HW227390   2.038   3.021   4.795 -0.1106  0.5061 -0.5858
 5311SOL     OW27391   3.672   3.923   8.884 -0.7116  0.6557 -0.4075
 5311SOL    HW127392   3.712   3.875   8.811 -0.4319 -0.8392  0.7332
 5311SOL    HW227393   3.578   3.909   8.872 -0.5538 -0.8775  0.0924
 5312SOL     OW27394   4.120   4.448   2.508 -0.3498 -0.3224  0.9883
 5312SOL    HW127395   4.121   4.499   2.589  1.0902  1.0114  0.1198
 5312SOL    HW227396   4.192   4.484   2.457 -0.6964 -0.0104  0.7173
 5313SOL     OW27397   0.779   2.439   7.716  0.5950  0.4528 -0.5478
 5313SOL    HW127398   0.871   2.412   7.718  0.6176  0.5974  0.5034
 5313SOL    HW227399   0.735   2.362   7.751 -0.8416  0.5429 -2.1921
 5314SOL     OW27400   2.558   0.070  10.179  0.2697  0.1854  0.2321
 5314SOL    HW127401   2.564   4.698  10.176  0.9157  0.3537 -3.1399
 5314SOL    HW227402   2.549   0.078  10.274 -0.4619  1.5379  0.0491
 5315SOL     OW27403   1.955   2.642  12.122 -0.5560 -0.0327  0.0485
 5315SOL    HW127404   2.032   2.687  12.087  0.8812 -1.6078  1.1797
 5315SOL    HW227405   1.988   2.555  12.143 -1.3927 -0.8676 -2.1611
 5316SOL     OW27406   2.636   3.038   1.853  0.3423 -0.4406  0.7595
 5316SOL    HW127407   2.694   3.075   1.919 -0.7297  0.0229  1.4490
 5316SOL    HW227408   2.697   3.004   1.788 -0.1486  0.7887 -0.3584
 5317SOL     OW27409   0.758   4.310  15.209  0.2646 -0.1059 -0.7848
 5317SOL    HW127410   0.742   4.402  15.186  0.5148 -0.5540 -2.8093
 5317SOL    HW227411   0.712   4.303  15.292  0.9933  3.4000 -0.0500
 5318SOL     OW27412   0.324   3.477   6.657 -0.5814 -0.6195  0.5688
 5318SOL    HW127413   0.230   3.474   6.670 -0.6287  2.3927  0.8726
 5318SOL    HW227414   0.344   3.565   6.624 -1.2403 -0.0515  1.6963
 5319SOL     OW27415   3.112   1.148   8.920 -0.3631 -0.1718  0.4572
 5319SOL    HW127416   3.162   1.199   8.984  4.0178 -0.7909 -2.4352
 5319SOL    HW227417   3.038   1.121   8.974 -0.8405 -2.6676 -1.4679
 5320SOL     OW27418   4.711   3.077   3.472  0.2618 -0.2899 -0.4709
 5320SOL    HW127419   0.065   3.104   3.421  1.1646  0.0541  1.0682
 5320SOL    HW227420   4.676   3.163   3.495  2.0491  0.5591 -0.8569
 5321SOL     OW27421   1.167   4.138   1.592  0.0245  0.2524 -0.0362
 5321SOL    HW127422   1.114   4.084   1.533  2.5753 -1.2175 -0.9876
 5321SOL    HW227423   1.226   4.065   1.612 -0.6751  0.2208  1.8978
 5322SOL     OW27424   3.343   3.804   4.517  0.0481 -0.6275 -0.0494
 5322SOL    HW127425   3.350   3.820   4.423 -3.6203 -0.2783 -0.2640
 5322SOL    HW227426   3.433   3.828   4.537 -0.2251 -0.1937  0.6667
 5323SOL     OW27427   3.860   1.385  14.962  0.4969  0.1541 -0.1375
 5323SOL    HW127428   3.846   1.439  14.884 -2.8958  0.9270  0.9878
 5323SOL    HW227429   3.775   1.384  15.006 -0.2019 -0.4121 -1.5300
 5324SOL     OW27430   1.899   3.714   5.311 -0.1913  0.3931 -0.2269
 5324SOL    HW127431   1.906   3.639   5.370  1.5754 -0.1429 -1.1144
 5324SOL    HW227432   1.929   3.677   5.227  2.6813  0.3695  0.8135
 5325SOL     OW27433   4.562   3.001  16.675 -0.4080  0.1110  0.7083
 5325SOL    HW127434   4.587   3.085  16.637 -1.2946 -0.0019 -0.1164
 5325SOL    HW227435   4.468   2.996  16.661 -0.3914  1.5221  0.0709
 5326SOL     OW27436   3.674   1.401  12.612 -0.4516 -0.0340  0.0999
 5326SOL    HW127437   3.616   1.417  12.537  1.2604 -1.1884 -1.4846
 5326SOL    HW227438   3.750   1.455  12.590 -0.4466 -0.9260 -2.0690
 5327SOL     OW27439   2.818   0.913   3.845 -0.7658  0.3160 -0.9855
 5327SOL    HW127440   2.771   0.891   3.925  0.9253  1.4524  0.3298
 5327SOL    HW227441   2.858   0.834   3.808 -4.1744 -2.3399  0.9769
 5328SOL     OW27442   2.858   3.887  10.088  0.3198  0.2410  0.1978
 5328SOL    HW127443   2.770   3.922  10.100  0.3662  0.5887 -0.4699
 5328SOL    HW227444   2.886   3.938  10.012  0.5910 -1.5075 -0.8961
 5329SOL     OW27445   2.451   2.372   9.653 -0.2989 -0.0556  0.5358
 5329SOL    HW127446   2.391   2.298   9.654 -2.1975  1.4670 -0.4834
 5329SOL    HW227447   2.467   2.377   9.747 -0.2117  0.6641  0.4881
 5330SOL     OW27448   1.992   3.717   7.353 -0.5309 -0.0581  0.7654
 5330SOL    HW127449   2.017   3.791   7.408 -2.0741  0.7499  0.3741
 5330SOL    HW227450   2.063   3.658   7.378  1.2885  1.0265 -1.7558
 5331SOL     OW27451   2.286   0.119   1.440 -0.1769  0.1134 -0.3496
 5331SOL    HW127452   2.294   0.039   1.388  0.8208  0.2237 -0.3754
 5331SOL    HW227453   2.367   0.123   1.491 -0.7320  2.3875  0.3141
 5332SOL     OW27454   1.194   0.370   5.714 -0.4655  0.3571  0.1349
 5332SOL    HW127455   1.156   0.445   5.761 -1.5939 -0.8949  1.2351
 5332SOL    HW227456   1.125   0.365   5.648  2.1030 -0.8539 -2.4345
 5333SOL     OW27457   1.459   2.772   6.701  0.5432 -0.3197 -0.3144
 5333SOL    HW127458   1.395   2.706   6.673 -0.1802  0.1839  0.1446
 5333SOL    HW227459   1.483   2.800   6.612 -2.1914  0.8383 -0.6811
 5334SOL     OW27460   3.479   1.393  12.869 -0.0925  0.0756  0.1830
 5334SOL    HW127461   3.384   1.397  12.865 -0.2060 -2.0997  0.6923
 5334SOL    HW227462   3.494   1.404  12.963  0.5484  1.0206 -0.0241
 5335SOL     OW27463   4.373   4.160   4.990  0.0554 -0.4508 -0.4621
 5335SOL    HW127464   4.316   4.170   5.066  1.1484  0.5075  0.2335
 5335SOL    HW227465   4.336   4.226   4.931  0.7010 -0.1138 -0.4987
 5336SOL     OW27466   2.217   1.755   5.649 -0.1448 -0.0870  0.5327
 5336SOL    HW127467   2.199   1.739   5.742 -0.0618 -1.0197  0.3871
 5336SOL    HW227468   2.240   1.847   5.663  0.3198 -0.1731  0.3269
 5337SOL     OW27469   3.452   1.277   5.199 -0.0774 -0.1601 -0.6609
 5337SOL    HW127470   3.456   1.358   5.250 -3.3292  0.5094 -1.5071
 5337SOL    HW227471   3.381   1.290   5.136 -3.3900 -3.1072  2.5146
 5338SOL     OW27472   3.197   4.524   4.518 -0.2273  0.2404  0.0377
 5338SOL    HW127473   3.196   4.431   4.495 -1.4612  0.2175  0.2042
 5338SOL    HW227474   3.104   4.543   4.512 -0.1770 -0.4408 -2.6569
 5339SOL     OW27475   1.551   3.603  12.739  0.1855  0.0317  0.3284
 5339SOL    HW127476   1.531   3.580  12.830 -1.4906  1.8390  0.4179
 5339SOL    HW227477   1.586   3.523  12.701 -0.9328 -1.3116  2.1363
 5340SOL     OW27478   2.536   2.944  16.080  0.3251 -0.5811 -0.5212
 5340SOL    HW127479   2.529   3.037  16.100  2.8353 -0.5358  0.1256
 5340SOL    HW227480   2.562   2.951  15.988  1.2749 -2.0439 -0.3658
 5341SOL     OW27481   0.931   3.293   2.478  0.0393  0.0767  0.3470
 5341SOL    HW127482   0.862   3.259   2.420 -0.2296  0.2066  0.5893
 5341SOL    HW227483   0.890   3.278   2.563  4.4918  1.6872  2.7533
 5342SOL     OW27484   3.158   0.111   3.509 -0.0577  0.7721  0.4291
 5342SOL    HW127485   3.110   0.029   3.498 -0.6333  1.0461  0.9077
 5342SOL    HW227486   3.242   0.086   3.547  0.0163 -1.5001 -1.2023
 5343SOL     OW27487   3.436   1.749  17.551 -0.2817 -0.0918 -0.7682
 5343SOL    HW127488   3.478   1.674  17.507  2.4832  1.7014 -1.1806
 5343SOL    HW227489   3.457   1.821  17.492 -1.1666 -0.7152 -1.8382
 5344SOL     OW27490   2.594   4.385  15.944 -0.0173 -0.6534 -0.3119
 5344SOL    HW127491   2.647   4.412  16.019 -0.1016  0.8099 -0.7698
 5344SOL    HW227492   2.509   4.380  15.987 -0.3916 -3.2468 -1.3380
 5345SOL     OW27493   2.729   3.826   5.088  0.7127 -0.0520 -0.3323
 5345SOL    HW127494   2.704   3.831   4.996  0.8580  0.5090 -0.3389
 5345SOL    HW227495   2.676   3.749   5.109 -0.2542  0.1667 -1.9945
 5346SOL     OW27496   4.653   3.734   9.515  0.0415 -0.2122  0.1283
 5346SOL    HW127497   0.018   3.700   9.496  0.1866 -0.3531  1.0819
 5346SOL    HW227498   4.610   3.649   9.519  0.5406 -0.5071 -0.7744
 5347SOL     OW27499   3.613   3.678  15.083 -0.4064 -0.0120 -0.6616
 5347SOL    HW127500   3.542   3.741  15.075  0.3382  0.7501 -1.2148
 5347SOL    HW227501   3.615   3.652  14.991  0.1994 -1.8044 -0.1457
 5348SOL     OW27502   1.784   4.408  13.820 -1.0852 -0.9983 -0.4605
 5348SOL    HW127503   1.823   4.323  13.841 -1.3162 -0.5802  1.6744
 5348SOL    HW227504   1.717   4.420  13.887 -1.9408  1.4954 -1.7448
 5349SOL     OW27505   0.343   3.291   8.202  0.1850 -0.0834  0.1604
 5349SOL    HW127506   0.405   3.219   8.208  0.2818 -0.2167 -2.3754
 5349SOL    HW227507   0.389   3.374   8.209  0.3582 -0.3090  1.6365
 5350SOL     OW27508   3.785   3.519  16.277 -0.9006 -0.1505  0.4360
 5350SOL    HW127509   3.695   3.550  16.283 -1.6942 -2.7689  1.6630
 5350SOL    HW227510   3.824   3.584  16.218  2.6899  0.0357  2.9791
 5351SOL     OW27511   3.485   2.159   4.702 -0.1917 -0.0100  0.0533
 5351SOL    HW127512   3.490   2.075   4.655 -0.4678 -1.1582  2.0530
 5351SOL    HW227513   3.527   2.209   4.633 -1.3270 -0.6780 -1.1218
 5352SOL     OW27514   0.977   3.965   1.411 -0.3190 -0.1117 -1.0846
 5352SOL    HW127515   1.031   3.900   1.455 -0.5814  1.3613  1.3833
 5352SOL    HW227516   0.891   3.946   1.449 -0.0902 -0.8916 -0.9567
 5353SOL     OW27517   4.497   3.549   6.174 -0.1175 -0.0097 -0.4647
 5353SOL    HW127518   4.514   3.470   6.122 -0.4230 -1.7673  2.1286
 5353SOL    HW227519   4.584   3.566   6.209 -0.4408  1.2360 -0.2614
 5354SOL     OW27520   4.557   3.184   4.558  0.1895 -0.4742  0.1948
 5354SOL    HW127521   4.607   3.259   4.524 -0.1031 -0.2463  0.2668
 5354SOL    HW227522   4.599   3.163   4.641 -0.6235 -3.3265 -0.1155
 5355SOL     OW27523   4.714   2.535   3.492 -0.2025  0.0541 -0.4984
 5355SOL    HW127524   0.024   2.564   3.577  1.5471  0.3247 -1.2757
 5355SOL    HW227525   0.055   2.536   3.422  0.0239 -3.0852 -0.3753
 5356SOL     OW27526   1.152   3.255   4.295  0.4724 -0.2194 -0.2100
 5356SOL    HW127527   1.162   3.325   4.360 -1.0033 -0.1673 -0.0539
 5356SOL    HW227528   1.135   3.296   4.210  0.0093 -0.7918 -0.3875
 5357SOL     OW27529   2.768   0.958   8.193 -0.1941 -0.1281  0.3372
 5357SOL    HW127530   2.765   0.937   8.286 -0.7593  0.0553  0.3600
 5357SOL    HW227531   2.828   0.895   8.153 -1.7154  0.0392 -2.2333
 5358SOL     OW27532   1.710   1.267   8.316 -0.3114 -0.2260  0.3427
 5358SOL    HW127533   1.642   1.240   8.378 -0.4030 -0.0559  0.3180
 5358SOL    HW227534   1.760   1.186   8.307 -0.2236 -0.1371  0.0476
 5359SOL     OW27535   1.137   0.766   9.352  0.5309  0.0079  0.1280
 5359SOL    HW127536   1.227   0.735   9.356  1.4010  2.2348 -2.6245
 5359SOL    HW227537   1.126   0.793   9.443 -0.1480  0.3133 -0.0422
 5360SOL     OW27538   0.619   3.400   6.804  0.4234 -0.2086  0.4398
 5360SOL    HW127539   0.529   3.418   6.832  0.0843 -0.5261 -0.4629
 5360SOL    HW227540   0.609   3.311   6.771  1.0649  0.3372 -1.2069
 5361SOL     OW27541   1.323   4.544  15.922  0.1395 -0.3367 -0.1762
 5361SOL    HW127542   1.377   4.610  15.878 -0.0199 -0.5157 -0.6461
 5361SOL    HW227543   1.258   4.524  15.854  0.0645  3.0739 -1.0877
 5362SOL     OW27544   4.022   2.282   9.478 -0.2734 -0.0606 -0.3433
 5362SOL    HW127545   4.004   2.368   9.441 -1.5265 -1.2664 -2.5413
 5362SOL    HW227546   3.959   2.286   9.550 -1.1887  0.2379 -1.1748
 5363SOL     OW27547   3.401   3.539  16.143  0.7279 -0.3804 -0.4780
 5363SOL    HW127548   3.324   3.596  16.135  1.3378  0.3521 -1.1012
 5363SOL    HW227549   3.435   3.552  16.055 -1.2837 -1.5605 -1.4585
 5364SOL     OW27550   1.404   3.624   1.187  0.1871 -0.2592 -0.0315
 5364SOL    HW127551   1.493   3.591   1.171  0.2187 -0.1387 -0.1058
 5364SOL    HW227552   1.366   3.547   1.144  1.1928 -0.1310 -1.1475
 5365SOL     OW27553   2.112   2.006   4.317  0.1670 -0.0840 -0.0948
 5365SOL    HW127554   2.107   2.098   4.291 -2.1248  0.2031  1.3122
 5365SOL    HW227555   2.198   1.982   4.349  0.3010 -2.4249 -2.2027
 5366SOL     OW27556   1.291   1.618   8.763 -0.3764  0.0859 -0.6332
 5366SOL    HW127557   1.254   1.633   8.850 -0.0402  0.6858 -0.5899
 5366SOL    HW227558   1.227   1.658   8.704 -1.0942  1.5789  1.1287
 5367SOL     OW27559   0.781   0.368   6.135  0.1563 -0.0110  0.1077
 5367SOL    HW127560   0.839   0.292   6.149  1.8804  1.4106  0.7566
 5367SOL    HW227561   0.774   0.404   6.224 -1.2700 -0.4409  0.1625
 5368SOL     OW27562   0.501   3.563   6.212 -0.0835 -0.1709  0.3104
 5368SOL    HW127563   0.506   3.467   6.221 -2.1584 -0.3126 -0.1053
 5368SOL    HW227564   0.407   3.577   6.204 -0.0495 -0.8902 -1.3919
 5369SOL     OW27565   4.484   3.822   3.891  0.2132 -0.7770 -0.4047
 5369SOL    HW127566   4.471   3.837   3.797 -1.7062  1.4883  0.2367
 5369SOL    HW227567   4.579   3.825   3.895  0.1167  0.4307  0.8035
 5370SOL     OW27568   3.462   4.133  15.690  0.0204  0.6056 -0.9009
 5370SOL    HW127569   3.474   4.221  15.726  0.8741 -0.8358  2.2588
 5370SOL    HW227570   3.367   4.122  15.683 -0.1966  2.7915 -1.6424
 5371SOL     OW27571   4.703   1.372   9.153 -0.1170  0.0294  0.4279
 5371SOL    HW127572   0.056   1.337   9.106 -0.3681  1.1377 -0.8308
 5371SOL    HW227573   0.015   1.460   9.166  1.3000 -0.0363 -2.7395
 5372SOL     OW27574   2.420   3.717   7.046 -0.1195  0.5934  0.3542
 5372SOL    HW127575   2.418   3.648   7.112  0.7505 -0.4179 -0.6767
 5372SOL    HW227576   2.355   3.783   7.071  1.0435  1.1699  1.9312
 5373SOL     OW27577   1.544   2.988   8.186  0.3804 -0.8150  0.1180
 5373SOL    HW127578   1.479   2.918   8.181 -0.8510  0.3538 -0.4226
 5373SOL    HW227579   1.560   2.992   8.280 -4.4233  0.9568  0.8763
 5374SOL     OW27580   3.955   1.840   6.435  0.1082 -0.4605 -0.3058
 5374SOL    HW127581   4.029   1.792   6.472  0.3173 -0.4857 -0.7560
 5374SOL    HW227582   3.956   1.810   6.344  1.5904 -0.1864 -0.3809
 5375SOL     OW27583   4.256   1.650   2.163  0.3140 -0.3392  0.2980
 5375SOL    HW127584   4.193   1.607   2.221  1.4368 -1.2288  0.8489
 5375SOL    HW227585   4.276   1.579   2.103 -1.0359  1.0642 -1.8126
 5376SOL     OW27586   3.762   0.007   4.260  0.2646  1.1204 -0.1938
 5376SOL    HW127587   3.771   4.693   4.348  1.2522  2.8466  0.4295
 5376SOL    HW227588   3.831   0.074   4.263  2.1300 -0.8398  0.4803
 5377SOL     OW27589   2.520   2.177   3.803  0.9167 -0.3170 -0.0704
 5377SOL    HW127590   2.591   2.133   3.756  1.5398  1.7257 -1.0209
 5377SOL    HW227591   2.564   2.206   3.883  0.3519 -1.9555  0.8299
 5378SOL     OW27592   3.585   2.885   2.216  0.4452 -0.1787 -0.3863
 5378SOL    HW127593   3.640   2.817   2.253  0.0860  0.3381  1.0998
 5378SOL    HW227594   3.514   2.834   2.176  0.9125  0.4885 -2.0638
 5379SOL     OW27595   2.172   1.025   8.964 -0.0623 -0.2507 -0.0037
 5379SOL    HW127596   2.128   0.946   8.933 -2.2569  1.2856 -0.8564
 5379SOL    HW227597   2.186   1.065   8.878  0.5548 -3.6554 -1.4882
 5380SOL     OW27598   2.353   0.474   9.905  0.2200  0.0213 -0.0918
 5380SOL    HW127599   2.441   0.507   9.887  0.3124 -0.2008 -0.0493
 5380SOL    HW227600   2.326   0.454   9.816 -0.9652 -0.7078  0.4343
 5381SOL     OW27601   4.449   0.300   3.369  0.3604 -0.7618 -0.2928
 5381SOL    HW127602   4.464   0.278   3.277 -0.6645 -1.3803 -0.3227
 5381SOL    HW227603   4.488   0.387   3.377 -2.3008  0.5101 -0.7900
 5382SOL     OW27604   2.307   3.852   7.330 -0.7889  0.5273 -0.1084
 5382SOL    HW127605   2.244   3.877   7.397  0.8558  2.9356  0.5368
 5382SOL    HW227606   2.258   3.878   7.251  0.0543  0.2407 -0.7231
 5383SOL     OW27607   1.439   2.371  12.677  0.3465  0.1537  0.5457
 5383SOL    HW127608   1.391   2.430  12.735 -0.5667  0.9254 -0.9850
 5383SOL    HW227609   1.457   2.433  12.606 -0.2302  0.3027  0.5297
 5384SOL     OW27610   1.807   0.531  15.678 -0.0148  0.9687  0.3959
 5384SOL    HW127611   1.845   0.512  15.592  1.4344  1.0661  1.0252
 5384SOL    HW227612   1.782   0.622  15.662 -2.6782  0.6851  3.0304
 5385SOL     OW27613   2.154   0.060   2.003  0.3908 -0.6012 -0.4508
 5385SOL    HW127614   2.061   0.052   1.980  0.1985  1.7344 -0.5303
 5385SOL    HW227615   2.169   4.689   2.012  1.8281 -0.3741 -0.4485
 5386SOL     OW27616   1.340   0.853   9.978  0.2626 -0.1142 -0.6670
 5386SOL    HW127617   1.311   0.845  10.069 -1.2358  2.7662 -0.9018
 5386SOL    HW227618   1.419   0.905   9.994  0.1358 -0.3430  0.7366
 5387SOL     OW27619   0.921   2.311   8.185 -0.1839  0.2768  0.0782
 5387SOL    HW127620   0.888   2.401   8.189 -1.3560 -0.1304 -0.7029
 5387SOL    HW227621   0.897   2.284   8.097  0.2507  2.2638 -0.6547
 5388SOL     OW27622   2.848   2.372   5.950 -0.0895  0.2104 -0.2033
 5388SOL    HW127623   2.874   2.289   5.910  1.2307  0.0380  1.0152
 5388SOL    HW227624   2.757   2.384   5.924 -0.9937 -0.5067  2.5795
 5389SOL     OW27625   2.334   4.531   3.668 -0.1100 -0.1747  0.2949
 5389SOL    HW127626   2.421   4.562   3.695 -0.7570  0.6603  1.3979
 5389SOL    HW227627   2.361   4.440   3.683 -1.7554 -0.5658  0.8850
 5390SOL     OW27628   2.636   2.753   4.353  0.1802 -0.0547 -0.2291
 5390SOL    HW127629   2.622   2.677   4.409 -1.2097  2.1451  2.4016
 5390SOL    HW227630   2.552   2.797   4.364  0.2379 -0.0396  0.1512
 5391SOL     OW27631   2.427   2.656   2.598 -0.1903 -0.0176 -0.1044
 5391SOL    HW127632   2.470   2.582   2.642  0.0742  0.1002 -0.1652
 5391SOL    HW227633   2.382   2.618   2.523  0.1059  0.1087 -0.3440
 5392SOL     OW27634   3.363   1.613  13.058 -0.1677 -0.0276  0.4490
 5392SOL    HW127635   3.370   1.694  13.008  0.7772 -0.0212  0.5903
 5392SOL    HW227636   3.312   1.556  13.000 -0.0061 -0.2375  0.5132
 5393SOL     OW27637   0.486   0.042   6.110 -0.2752 -0.1071  0.3465
 5393SOL    HW127638   0.410   0.086   6.148 -0.0540 -0.1970  0.9001
 5393SOL    HW227639   0.539   0.062   6.187  0.6839  0.7963 -0.5606
 5394SOL     OW27640   1.551   1.721   4.169  0.7182 -0.2788  0.3844
 5394SOL    HW127641   1.529   1.758   4.083 -1.4850  0.9689  1.4906
 5394SOL    HW227642   1.593   1.798   4.205  1.4798 -0.6656  0.3209
 5395SOL     OW27643   1.605   2.670   8.776  0.3516  0.1570  0.1418
 5395SOL    HW127644   1.573   2.586   8.809  0.5580 -0.0467 -0.1734
 5395SOL    HW227645   1.526   2.699   8.730 -0.1768 -0.2687  0.7739
 5396SOL     OW27646   2.488   4.711   3.843  0.4311 -0.1727  0.2587
 5396SOL    HW127647   2.529   0.034   3.915  1.0829 -1.0884  0.4760
 5396SOL    HW227648   2.423   0.051   3.811 -2.3940 -2.7606  0.7973
 5397SOL     OW27649   0.290   3.962   6.031 -0.2782  0.4994 -0.9770
 5397SOL    HW127650   0.197   3.959   6.055  0.5971 -0.2568  2.3310
 5397SOL    HW227651   0.304   3.883   5.978  0.1322  0.1080 -0.2923
 5398SOL     OW27652   4.559   0.992  13.042  0.0481 -0.1719  0.0355
 5398SOL    HW127653   4.613   0.987  12.963 -0.7598 -1.7215 -0.4079
 5398SOL    HW227654   4.480   0.945  13.017 -0.1784  0.3989 -0.3311
 5399SOL     OW27655   4.360   0.230   4.383 -0.2978 -0.3190  0.3421
 5399SOL    HW127656   4.288   0.263   4.437 -0.8434  0.5149 -0.8817
 5399SOL    HW227657   4.328   0.194   4.301 -4.3033  1.3212  1.1704
 5400SOL     OW27658   2.852   2.154  12.361  0.7157  0.0249 -0.6848
 5400SOL    HW127659   2.875   2.215  12.431 -0.6927  1.2509 -1.3070
 5400SOL    HW227660   2.921   2.092  12.386 -0.0377 -1.1440 -1.4595
 5401SOL     OW27661   4.538   4.008   5.715 -0.0296  0.3781  0.5079
 5401SOL    HW127662   4.456   3.996   5.763 -1.0288 -2.3580 -1.9242
 5401SOL    HW227663   4.589   3.939   5.756 -2.3484 -0.6671  1.6318
 5402SOL     OW27664   2.231   0.927   6.073 -0.2378  0.3602  0.2414
 5402SOL    HW127665   2.178   0.901   5.998 -0.5150  1.7708 -0.0380
 5402SOL    HW227666   2.178   0.982   6.130 -0.3934  2.4531 -1.9412
 5403SOL     OW27667   1.658   3.514   1.074 -0.4288 -0.1026 -0.1101
 5403SOL    HW127668   1.747   3.533   1.043 -1.0186 -0.8615 -2.2725
 5403SOL    HW227669   1.658   3.439   1.134  1.2664 -0.1052 -0.0918
 5404SOL     OW27670   1.461   0.711   6.222  0.0248 -0.4701 -0.7681
 5404SOL    HW127671   1.524   0.651   6.261 -0.3513  0.0219  0.6153
 5404SOL    HW227672   1.499   0.799   6.229  1.7310 -1.2237 -0.4262
 5405SOL     OW27673   1.543   2.885  13.491  0.3959 -0.4398 -0.3386
 5405SOL    HW127674   1.515   2.818  13.554 -1.6308  0.7707  0.0418
 5405SOL    HW227675   1.456   2.926  13.489  0.4961 -0.2584 -0.7984
 5406SOL     OW27676   3.415   2.166   9.051 -0.1667  0.2918  0.1042
 5406SOL    HW127677   3.494   2.151   9.000 -0.4161 -1.6227  0.2634
 5406SOL    HW227678   3.409   2.259   9.072 -1.9180  0.2066  0.0105
 5407SOL     OW27679   4.463   0.960   4.982  0.2704 -0.1757  0.1766
 5407SOL    HW127680   4.400   0.894   5.011  1.6965 -1.6452 -0.0720
 5407SOL    HW227681   4.496   0.986   5.068  1.2046  2.3650 -0.9466
 5408SOL     OW27682   1.740   4.313   3.772 -0.6581 -0.2490 -0.2238
 5408SOL    HW127683   1.745   4.305   3.868 -1.4616 -0.0711 -0.1668
 5408SOL    HW227684   1.781   4.400   3.766 -1.0343  0.1936  3.4808
 5409SOL     OW27685   4.691   3.728   1.574 -0.0262  0.6025 -0.1844
 5409SOL    HW127686   4.683   3.810   1.624 -1.6972  1.9121 -2.6415
 5409SOL    HW227687   4.664   3.755   1.487 -2.6372 -1.7615 -0.1287
 5410SOL     OW27688   2.135   1.554  11.008 -0.4439  0.1345 -0.3289
 5410SOL    HW127689   2.153   1.459  11.007  0.6505  0.3442 -2.4302
 5410SOL    HW227690   2.087   1.559  10.925  0.3961  2.1394 -0.6850
 5411SOL     OW27691   1.116   1.027   2.355 -0.5031  0.2912  0.3363
 5411SOL    HW127692   1.069   0.959   2.403 -0.9233 -0.7792 -1.5872
 5411SOL    HW227693   1.190   0.972   2.329 -2.1196 -1.6507 -0.1950
 5412SOL     OW27694   1.494   2.363   1.368  0.6512 -0.2632  0.4650
 5412SOL    HW127695   1.550   2.353   1.445  2.0103 -2.4056 -0.8221
 5412SOL    HW227696   1.555   2.360   1.295  1.4092 -1.4249  1.1422
 5413SOL     OW27697   1.784   0.965   4.384  0.5953  0.4756  0.5712
 5413SOL    HW127698   1.839   0.948   4.460  2.6216  1.3983 -0.7127
 5413SOL    HW227699   1.728   1.037   4.413 -1.6635 -0.9928 -0.1290
 5414SOL     OW27700   3.517   1.699  10.271 -0.1219  0.4297 -0.2903
 5414SOL    HW127701   3.559   1.662  10.194  0.1428 -0.4936  0.3072
 5414SOL    HW227702   3.428   1.665  10.264  0.1348  0.3538 -3.2822
 5415SOL     OW27703   2.228   2.026   7.752 -0.0218 -0.3106  0.6207
 5415SOL    HW127704   2.316   2.021   7.716 -0.6606 -2.4785 -0.6133
 5415SOL    HW227705   2.188   2.072   7.678 -1.9687 -0.5183  1.5334
 5416SOL     OW27706   3.478   0.889   9.634  0.0197  0.2957 -0.0062
 5416SOL    HW127707   3.550   0.943   9.600 -0.4022 -0.7935 -2.5690
 5416SOL    HW227708   3.494   0.915   9.725 -1.8381  0.3165  0.3105
 5417SOL     OW27709   1.164   1.043  16.936  0.0995  0.1702 -0.1539
 5417SOL    HW127710   1.126   1.057  17.022  0.3537  0.4488 -0.0864
 5417SOL    HW227711   1.229   1.113  16.944 -0.8716  0.9974  0.3265
 5418SOL     OW27712   2.628   1.087  16.549  0.0688 -0.0502 -0.4967
 5418SOL    HW127713   2.674   1.028  16.489  1.9818  2.0744 -1.1318
 5418SOL    HW227714   2.674   1.170  16.535  0.5178 -0.0618  0.9622
 5419SOL     OW27715   3.978   2.042  15.968  0.4265  0.1956  0.2054
 5419SOL    HW127716   3.985   1.954  15.932  1.0699 -0.1859  1.2441
 5419SOL    HW227717   4.036   2.037  16.044  1.1733 -0.8904 -0.4402
 5420SOL     OW27718   0.436   2.893   5.622  0.3096  0.2246  0.4978
 5420SOL    HW127719   0.511   2.850   5.581 -2.2261 -3.0122 -0.7257
 5420SOL    HW227720   0.372   2.823   5.633  1.0895 -0.5942 -0.1261
 5421SOL     OW27721   2.694   0.353   7.109 -0.1074 -0.0691 -0.1659
 5421SOL    HW127722   2.722   0.261   7.115  0.2221 -0.0033 -0.7082
 5421SOL    HW227723   2.734   0.374   7.025  1.2504  1.4076  0.8619
 5422SOL     OW27724   3.432   0.001   3.512 -0.4956 -0.2114  0.1549
 5422SOL    HW127725   3.510   4.673   3.534 -0.4887 -0.1642  0.2444
 5422SOL    HW227726   3.462   0.092   3.525 -0.4658 -0.2423  0.3093
 5423SOL     OW27727   2.192   1.023   8.678  0.0125 -0.5938 -0.6016
 5423SOL    HW127728   2.114   1.053   8.630 -1.1676  0.5898  2.0369
 5423SOL    HW227729   2.262   1.073   8.636 -0.6816  0.3876 -0.5940
 5424SOL     OW27730   0.635   1.916   3.415 -0.4544  0.0862  0.0851
 5424SOL    HW127731   0.702   1.965   3.367  0.3543  0.2587  1.3995
 5424SOL    HW227732   0.687   1.859   3.471  0.4639  1.2609  0.4253
 5425SOL     OW27733   4.400   1.040   8.056 -0.3962 -0.8646  0.3251
 5425SOL    HW127734   4.400   1.109   7.989  2.7744 -0.7147  0.4914
 5425SOL    HW227735   4.476   0.986   8.039  0.2728  0.0740  0.3446
 5426SOL     OW27736   2.115   3.445   5.911 -0.0119 -0.2789 -0.1285
 5426SOL    HW127737   2.154   3.377   5.967  1.8027  0.2248 -0.7570
 5426SOL    HW227738   2.174   3.520   5.927  1.3594 -1.1792 -0.9166
 5427SOL     OW27739   0.618   4.465   4.777 -0.2021  0.5995  0.2451
 5427SOL    HW127740   0.554   4.425   4.836 -2.5736  3.0245 -0.6914
 5427SOL    HW227741   0.589   4.438   4.690  1.1708  0.3552 -0.1246
 5428SOL     OW27742   0.935   4.088   2.805  0.0213 -0.6620  1.2597
 5428SOL    HW127743   0.991   4.052   2.874  0.3390 -0.5232  1.0749
 5428SOL    HW227744   0.853   4.040   2.817 -0.7282  0.5369  0.9210
 5429SOL     OW27745   3.198   4.646   6.356 -0.2772  0.1021  0.3801
 5429SOL    HW127746   3.222   4.680   6.270 -2.4859 -1.2535 -0.7921
 5429SOL    HW227747   3.121   4.696   6.383 -0.3611  0.1419  0.0775
 5430SOL     OW27748   3.270   2.755  10.594  0.3471 -0.2185  0.1152
 5430SOL    HW127749   3.262   2.694  10.521  0.2910 -0.2575  0.1537
 5430SOL    HW227750   3.325   2.826  10.560 -0.4174  0.9507  1.3367
 5431SOL     OW27751   3.563   3.727   2.982 -0.4423 -0.2876 -0.1479
 5431SOL    HW127752   3.622   3.685   3.046 -0.5790  0.3087  0.3652
 5431SOL    HW227753   3.618   3.798   2.949  1.5719 -0.2772  3.1435
 5432SOL     OW27754   3.629   3.802   2.639  0.4877  0.1895  0.7810
 5432SOL    HW127755   3.603   3.870   2.700 -2.7386 -0.4768  0.1590
 5432SOL    HW227756   3.552   3.745   2.649  0.0602  0.6520  0.1104
 5433SOL     OW27757   2.925   3.304   7.846 -0.1024  0.6249 -0.2182
 5433SOL    HW127758   2.940   3.391   7.807 -0.2044  0.6314 -0.2421
 5433SOL    HW227759   2.832   3.299   7.865 -0.2878  0.9758 -1.0336
 5434SOL     OW27760   2.970   4.637   3.213 -0.0603 -0.2043  0.4836
 5434SOL    HW127761   2.932   4.706   3.159 -3.4108 -2.1526  0.3092
 5434SOL    HW227762   3.062   4.660   3.205  0.1983 -1.3126  0.2410
 5435SOL     OW27763   2.337   2.393  10.534 -0.0314 -0.3759 -0.0537
 5435SOL    HW127764   2.410   2.335  10.553 -1.7670 -2.3203  0.6765
 5435SOL    HW227765   2.299   2.347  10.460 -0.9065 -0.2220  0.2956
 5436SOL     OW27766   2.737   0.625   7.996  0.0336  0.1806 -0.6888
 5436SOL    HW127767   2.809   0.616   7.932  0.9103  1.0874  0.1738
 5436SOL    HW227768   2.774   0.574   8.068 -1.3960 -0.0611 -0.1312
 5437SOL     OW27769   3.960   3.538   6.688 -0.7441 -0.0210  0.2187
 5437SOL    HW127770   4.029   3.593   6.725  0.7309 -2.2694  0.8524
 5437SOL    HW227771   4.021   3.471   6.657 -0.2431  0.0418  1.0697
 5438SOL     OW27772   1.392   2.257  14.733 -0.0393  0.2064  0.3172
 5438SOL    HW127773   1.341   2.330  14.769 -1.4475 -0.9871  0.6968
 5438SOL    HW227774   1.334   2.189  14.702  1.1380  0.6631 -2.8896
 5439SOL     OW27775   4.485   4.706   2.583 -0.4899 -0.1463  0.1415
 5439SOL    HW127776   4.459   0.068   2.547 -0.6282 -0.4879 -0.5491
 5439SOL    HW227777   4.572   4.693   2.546 -0.0639  1.3024  0.6244
 5440SOL     OW27778   3.540   4.197   5.951  0.1126  0.3996  0.4204
 5440SOL    HW127779   3.467   4.252   5.978 -1.1530  1.3283 -4.8483
 5440SOL    HW227780   3.504   4.115   5.983 -0.2875  0.4243  0.0335
 5441SOL     OW27781   4.701   0.545   9.540  0.8409 -0.3881 -0.1687
 5441SOL    HW127782   4.665   0.483   9.603 -0.0076 -0.3827 -0.6609
 5441SOL    HW227783   0.014   0.483   9.477  0.3298  0.3774 -1.2077
 5442SOL     OW27784   1.115   0.573   1.173  0.3297  0.0296  0.5799
 5442SOL    HW127785   1.100   0.492   1.220 -2.2878  1.7969  2.7950
 5442SOL    HW227786   1.088   0.637   1.239 -1.6562  0.7403 -0.8920
 5443SOL     OW27787   0.696   0.904   5.971  0.2243  0.1739 -0.2844
 5443SOL    HW127788   0.613   0.865   5.944 -1.1797  2.3728  0.9517
 5443SOL    HW227789   0.666   0.943   6.053  2.1417  1.9910 -0.4499
 5444SOL     OW27790   3.655   3.026  17.486  0.3158 -0.8708  0.4539
 5444SOL    HW127791   3.637   3.082  17.561 -0.3134 -2.9610  1.8630
 5444SOL    HW227792   3.613   3.075  17.415  2.5707 -1.0355 -1.0126
 5445SOL     OW27793   0.813   1.285  15.884  0.2469  0.4699  0.0781
 5445SOL    HW127794   0.906   1.269  15.874  0.1621 -0.4023  0.6662
 5445SOL    HW227795   0.794   1.257  15.974  0.4523 -0.5837 -0.2038
 5446SOL     OW27796   3.855   3.003   1.414  0.4969  0.2468 -0.4407
 5446SOL    HW127797   3.942   2.970   1.434  0.2093  0.5118  1.2871
 5446SOL    HW227798   3.876   3.087   1.373  1.4262  1.0689  1.7358
 5447SOL     OW27799   3.665   4.315   9.615 -0.0175  0.3512 -0.3307
 5447SOL    HW127800   3.645   4.402   9.583 -1.9692 -0.3053 -0.9349
 5447SOL    HW227801   3.596   4.313   9.682 -0.6181 -0.0981 -0.9537
 5448SOL     OW27802   3.036   0.739  16.630 -0.3855  0.1493 -0.1972
 5448SOL    HW127803   3.023   0.831  16.608  2.0886  0.4824 -0.2236
 5448SOL    HW227804   3.036   0.700  16.542 -2.4158 -1.0741  0.3289
 5449SOL     OW27805   2.746   0.468   5.532 -0.1009 -0.6984  0.3878
 5449SOL    HW127806   2.742   0.486   5.438 -0.7949  1.0598  0.7584
 5449SOL    HW227807   2.830   0.509   5.553  0.2039 -2.3651  2.4482
 5450SOL     OW27808   0.004   4.564   2.752  0.5132  0.7085  0.1171
 5450SOL    HW127809   0.027   4.630   2.687 -3.7655  2.1963  0.1193
 5450SOL    HW227810   0.084   4.523   2.784  1.5522 -0.2305 -3.7243
 5451SOL     OW27811   1.262   2.995   8.502 -0.5974  0.0152  0.1190
 5451SOL    HW127812   1.212   3.071   8.475 -1.8986 -0.3909  1.3466
 5451SOL    HW227813   1.204   2.920   8.485 -1.3701  0.6979 -0.2062
 5452SOL     OW27814   0.908   2.526   8.579  0.1335  1.1063  0.3565
 5452SOL    HW127815   0.874   2.534   8.490 -0.1132 -1.6996  0.1911
 5452SOL    HW227816   0.832   2.524   8.637 -0.5437 -1.5252 -0.6220
 5453SOL     OW27817   3.542   2.202  17.345 -0.1133 -0.8015  0.2381
 5453SOL    HW127818   3.616   2.251  17.381 -1.6236  0.3845  1.7396
 5453SOL    HW227819   3.523   2.269  17.279 -1.0695 -0.8875  0.4280
 5454SOL     OW27820   2.991   3.196   4.827  0.2213 -0.2291 -0.0168
 5454SOL    HW127821   2.970   3.195   4.733  0.0072  2.4811 -0.0257
 5454SOL    HW227822   3.065   3.136   4.828  1.8158  1.7210  0.7724
 5455SOL     OW27823   3.616   2.989   3.980  0.0647  1.2431 -0.2631
 5455SOL    HW127824   3.691   2.930   3.986 -0.0717  1.0486 -0.4429
 5455SOL    HW227825   3.590   2.997   4.072 -0.0142  0.6498 -0.2337
 5456SOL     OW27826   4.080   0.992   7.660  0.3995  0.6880 -0.4032
 5456SOL    HW127827   3.988   0.969   7.649  0.7759  0.3646 -3.0319
 5456SOL    HW227828   4.062   1.075   7.704 -3.3039 -0.8850  1.0231
 5457SOL     OW27829   3.872   4.437   5.233  0.2291  0.2123  0.2418
 5457SOL    HW127830   3.901   4.511   5.286 -0.2529  1.1241 -0.7585
 5457SOL    HW227831   3.869   4.364   5.295 -0.6781 -0.1188 -0.1888
 5458SOL     OW27832   2.429   1.919   0.925  0.2582  0.1249 -0.5326
 5458SOL    HW127833   2.411   1.924   0.831 -0.8623 -0.8056 -0.3649
 5458SOL    HW227834   2.413   2.009   0.956 -0.9555  0.4615 -2.1599
 5459SOL     OW27835   4.124   1.667  17.201  0.2254  0.1428  0.6558
 5459SOL    HW127836   4.065   1.624  17.261 -0.2140  0.1956  0.2606
 5459SOL    HW227837   4.198   1.630  17.250  0.6600 -1.7495 -1.4302
 5460SOL     OW27838   2.313   2.963  14.190 -0.4564  0.0238  0.0438
 5460SOL    HW127839   2.364   3.014  14.252  0.5003 -0.4894 -0.3291
 5460SOL    HW227840   2.220   2.984  14.201 -0.3202  0.4479  0.3825
 5461SOL     OW27841   0.797   4.198   8.265 -0.1871 -0.0682 -0.4814
 5461SOL    HW127842   0.843   4.201   8.348 -1.1725 -1.9080  0.1309
 5461SOL    HW227843   0.854   4.144   8.210  0.9244 -0.8919  1.4996
 5462SOL     OW27844   4.642   3.747   2.952  0.2074  0.1677 -0.3057
 5462SOL    HW127845   0.003   3.778   2.986  1.3813 -0.9628 -2.1841
 5462SOL    HW227846   4.656   3.772   2.860 -1.2798  0.5520 -0.4265
 5463SOL     OW27847   0.091   3.827   1.922 -0.5053  0.5194 -0.4885
 5463SOL    HW127848   4.722   3.855   1.923 -1.1715 -1.6474 -3.2663
 5463SOL    HW227849   0.143   3.906   1.907  0.1711 -0.0339 -1.0172
 5464SOL     OW27850   3.805   3.516   4.246  0.4840  0.1378 -0.0514
 5464SOL    HW127851   3.871   3.556   4.189  2.0286 -2.7492 -0.2817
 5464SOL    HW227852   3.807   3.582   4.316 -2.5598 -3.0309  3.0120
 5465SOL     OW27853   4.650   0.165   8.586  0.4539  0.1713  0.2606
 5465SOL    HW127854   4.568   0.213   8.595  0.8355  0.7383  0.6671
 5465SOL    HW227855   4.698   0.222   8.526 -1.5894  0.3553 -1.2168
 5466SOL     OW27856   3.949   2.869   8.627 -0.1647  0.0040 -0.5221
 5466SOL    HW127857   4.005   2.945   8.613  0.6232 -0.1312  1.9873
 5466SOL    HW227858   3.862   2.905   8.642  0.0805  0.8599 -1.1477
 5467SOL     OW27859   0.402   2.039   5.678 -0.8543  0.0098  0.1574
 5467SOL    HW127860   0.439   1.978   5.614 -1.4811 -0.6227  0.4007
 5467SOL    HW227861   0.465   2.112   5.672 -2.1288  1.0969 -0.0531
 5468SOL     OW27862   3.305   0.977  12.520 -0.1630 -0.1833 -0.8783
 5468SOL    HW127863   3.228   0.985  12.576  0.5337 -1.5191  0.2649
 5468SOL    HW227864   3.261   1.031  12.454  0.9129 -0.4852 -1.8487
 5469SOL     OW27865   0.363   3.111  15.510  0.4919 -0.5478  0.0798
 5469SOL    HW127866   0.362   3.017  15.525  1.6058 -0.5185  0.3230
 5469SOL    HW227867   0.270   3.123  15.493  0.9618  1.8952 -0.8043
 5470SOL     OW27868   3.841   2.619  12.110 -0.0659 -0.4322 -0.3498
 5470SOL    HW127869   3.894   2.593  12.035  0.9172  2.4803 -0.6660
 5470SOL    HW227870   3.814   2.706  12.080  3.3010  0.4754 -0.8080
 5471SOL     OW27871   1.122   3.669   2.233 -0.9494  0.1292 -0.1657
 5471SOL    HW127872   1.119   3.615   2.312  0.0563 -1.6206 -1.3049
 5471SOL    HW227873   1.029   3.679   2.212 -0.7021  1.7074 -0.5136
 5472SOL     OW27874   1.615   2.458   3.526  0.2430  0.4853  0.3719
 5472SOL    HW127875   1.540   2.507   3.493  0.9763  0.9816 -0.5429
 5472SOL    HW227876   1.613   2.394   3.455  0.1802  1.0341 -0.1161
 5473SOL     OW27877   3.341   1.022   5.752  0.2925 -0.2977 -0.2418
 5473SOL    HW127878   3.257   0.988   5.722  0.4780 -1.6338  0.7326
 5473SOL    HW227879   3.407   0.979   5.697 -0.1841 -0.1448 -0.9311
 5474SOL     OW27880   1.164   4.604   7.429 -0.2821 -0.1341  0.1993
 5474SOL    HW127881   1.258   4.585   7.421 -0.5560 -1.5180  0.1806
 5474SOL    HW227882   1.143   4.628   7.339 -1.9122 -1.0470  0.3384
 5475SOL     OW27883   0.125   0.963   1.120  0.4907 -0.8114 -0.6780
 5475SOL    HW127884   0.218   0.983   1.136  0.3786 -0.6469 -0.2188
 5475SOL    HW227885   0.105   1.031   1.057  0.8510  0.5898  0.7281
 5476SOL     OW27886   4.515   2.270   6.347  0.0754  0.0169  0.0738
 5476SOL    HW127887   4.603   2.235   6.360 -0.2199 -1.4978 -2.0716
 5476SOL    HW227888   4.537   2.321   6.268 -2.6350  1.6164  0.3526
 5477SOL     OW27889   4.390   2.830  15.732 -0.0267  0.4292  0.1743
 5477SOL    HW127890   4.416   2.797  15.818 -1.7647 -2.9899 -0.6005
 5477SOL    HW227891   4.477   2.830  15.690 -0.1196 -3.0472 -0.0082
 5478SOL     OW27892   2.582   0.293   4.259  0.4989 -0.2032  0.3728
 5478SOL    HW127893   2.497   0.336   4.269 -1.1141 -2.5896 -3.0121
 5478SOL    HW227894   2.642   0.366   4.250 -0.7600  0.6928 -0.7019
 5479SOL     OW27895   3.650   1.997   4.858 -0.6336  0.8473 -0.1354
 5479SOL    HW127896   3.602   2.067   4.814 -1.6474  0.0707 -0.2617
 5479SOL    HW227897   3.575   1.952   4.898  1.9321 -2.0687  1.4083
 5480SOL     OW27898   1.270   1.101   5.211 -0.0224  0.5919  0.2358
 5480SOL    HW127899   1.311   1.081   5.126 -1.2216  1.0655 -0.4542
 5480SOL    HW227900   1.342   1.114   5.272 -0.7043 -0.3920  1.2603
 5481SOL     OW27901   2.430   4.506  10.919  0.5936 -0.0337  0.7424
 5481SOL    HW127902   2.491   4.508  10.846 -0.2965  1.5006  0.0319
 5481SOL    HW227903   2.442   4.426  10.969 -0.4145  0.4314  1.7443
 5482SOL     OW27904   2.741   1.592   3.788  0.2685  0.0133 -0.2878
 5482SOL    HW127905   2.777   1.513   3.748  2.9188  0.8793  0.4444
 5482SOL    HW227906   2.654   1.598   3.748 -0.3779  0.2307  1.1174
 5483SOL     OW27907   1.100   0.044   7.642 -0.0403 -0.2008  0.2100
 5483SOL    HW127908   1.120   4.716   7.564  1.6590 -0.5139  0.8363
 5483SOL    HW227909   1.171   0.109   7.644  0.6704 -0.9351 -1.5491
 5484SOL     OW27910   1.065   4.248  16.125 -0.2495 -0.2384 -0.2739
 5484SOL    HW127911   1.117   4.168  16.132 -0.2106 -0.1059  0.9714
 5484SOL    HW227912   1.023   4.253  16.211  0.9978 -0.4223  0.3390
 5485SOL     OW27913   0.243   2.488   8.804 -0.3005  0.5660 -0.0283
 5485SOL    HW127914   0.161   2.441   8.822  0.1947 -0.8004 -1.3794
 5485SOL    HW227915   0.204   2.562   8.758  0.5586  0.5727 -0.7323
 5486SOL     OW27916   0.185   1.558  15.638 -0.0563  0.0101  0.3452
 5486SOL    HW127917   0.092   1.566  15.620  0.5092  1.0115 -2.1023
 5486SOL    HW227918   0.191   1.623  15.708  0.2148  0.6527 -0.2727
 5487SOL     OW27919   3.173   1.427   5.337 -0.3882  0.0035 -0.0210
 5487SOL    HW127920   3.266   1.441   5.318 -1.0182 -1.0287 -3.8726
 5487SOL    HW227921   3.180   1.408   5.430  1.0306  1.3939  0.1596
 5488SOL     OW27922   3.364   2.041   8.515 -0.5523  0.5698 -0.2464
 5488SOL    HW127923   3.326   1.953   8.510  0.5928 -0.1092  2.8794
 5488SOL    HW227924   3.454   2.014   8.496  0.4436  3.3234  0.5253
 5489SOL     OW27925   1.483   3.621   7.494  0.2939  0.0520  0.0809
 5489SOL    HW127926   1.573   3.588   7.496  0.5458  0.8803  1.9590
 5489SOL    HW227927   1.492   3.710   7.527  0.2818  0.1027 -0.0510
 5490SOL     OW27928   1.746   3.033   8.692  0.1640 -0.4718 -0.2831
 5490SOL    HW127929   1.808   3.090   8.737 -0.7845  1.3557 -1.2851
 5490SOL    HW227930   1.773   2.951   8.734 -0.5471 -0.3360  0.4370
 5491SOL     OW27931   3.637   0.011   3.209 -0.5360 -0.5267  0.5634
 5491SOL    HW127932   3.560   0.058   3.179 -0.7622 -0.9300  0.5137
 5491SOL    HW227933   3.671   0.070   3.276 -0.7372 -1.9556  1.9106
 5492SOL     OW27934   0.231   1.799   0.971 -0.3075  0.2644  0.2614
 5492SOL    HW127935   0.293   1.734   0.938 -1.3551  0.3601 -1.8857
 5492SOL    HW227936   0.166   1.797   0.901  0.1166 -0.3165 -0.1181
 5493SOL     OW27937   0.674   4.246  16.470 -1.0030 -0.7503 -0.5595
 5493SOL    HW127938   0.583   4.224  16.493 -0.4862 -0.9609  1.2664
 5493SOL    HW227939   0.719   4.178  16.521 -1.0293  0.0703  0.5732
 5494SOL     OW27940   0.006   1.922   7.979  0.0406  0.1767  0.0582
 5494SOL    HW127941   0.023   2.001   7.927 -0.6531  1.2953  1.5336
 5494SOL    HW227942   0.056   1.940   8.058 -0.4590  0.1281  0.3848
 5495SOL     OW27943   0.101   3.353  13.621 -0.4483 -0.5664  0.0824
 5495SOL    HW127944   0.032   3.414  13.648 -1.4265 -1.6701  0.1110
 5495SOL    HW227945   0.057   3.293  13.560 -1.3974  1.5429 -1.3109
 5496SOL     OW27946   2.587   4.193   7.982  0.0918 -0.0393 -0.1061
 5496SOL    HW127947   2.574   4.280   7.945  4.6327  0.4893 -0.4692
 5496SOL    HW227948   2.621   4.211   8.070  1.0445 -2.3581  0.0229
 5497SOL     OW27949   0.102   3.148   6.970  0.4184  0.4865 -0.3127
 5497SOL    HW127950   0.007   3.144   6.956  0.4135  0.8714 -0.3742
 5497SOL    HW227951   0.121   3.054   6.979 -0.0024  0.7577  3.5197
 5498SOL     OW27952   2.427   0.098   0.733 -0.3595 -0.0272 -0.1233
 5498SOL    HW127953   2.491   0.068   0.798 -0.8083 -0.9788 -0.1294
 5498SOL    HW227954   2.428   0.022   0.675  0.2930 -0.6469  0.7020
 5499SOL     OW27955   4.172   4.365  16.504 -0.4496 -0.2589  0.3159
 5499SOL    HW127956   4.083   4.384  16.475 -1.4862 -1.9899  2.3497
 5499SOL    HW227957   4.209   4.301  16.443  1.3010 -0.9268  2.0653
 5500SOL     OW27958   1.064   0.804   9.913 -0.2754  0.4283  0.4084
 5500SOL    HW127959   1.052   0.718   9.954  0.7916 -1.5837 -3.5540
 5500SOL    HW227960   1.152   0.826   9.944  1.2824 -2.4708 -1.9553
 5501SOL     OW27961   3.805   3.105   1.022  0.2651  0.4132  0.2026
 5501SOL    HW127962   3.752   3.185   1.016  2.8832  2.0637 -0.8732
 5501SOL    HW227963   3.733   3.052   1.056  1.3490 -1.2853 -0.1742
 5502SOL     OW27964   3.041   0.759   6.556 -0.1400 -0.3199 -0.1102
 5502SOL    HW127965   2.992   0.838   6.535 -0.8917 -0.4611  1.1027
 5502SOL    HW227966   3.062   0.776   6.648 -0.7421 -2.6977  0.4778
 5503SOL     OW27967   4.642   1.653   5.906 -0.2951  0.3042  0.1426
 5503SOL    HW127968   4.552   1.687   5.906 -0.1975  0.5745 -1.0535
 5503SOL    HW227969   4.639   1.611   5.991  2.2632 -0.1084  0.0045
 5504SOL     OW27970   3.738   1.182  16.265  0.3165  0.1727 -0.5986
 5504SOL    HW127971   3.809   1.120  16.250  1.6068  1.7465 -0.9825
 5504SOL    HW227972   3.768   1.247  16.202  2.0614 -1.5437 -1.5194
 5505SOL     OW27973   3.369   4.234   6.331  0.1235 -0.3513  0.2854
 5505SOL    HW127974   3.301   4.166   6.336 -1.8350  1.5985  0.3602
 5505SOL    HW227975   3.447   4.185   6.356  0.8625 -0.2609 -1.8125
 5506SOL     OW27976   4.127   4.620   1.815 -0.1986 -0.0705  0.1312
 5506SOL    HW127977   4.048   4.568   1.797  1.2732 -1.3289 -2.7843
 5506SOL    HW227978   4.175   4.600   1.734  0.2801 -1.7141  0.8315
 5507SOL     OW27979   4.024   0.320   5.548  0.4346 -0.6443 -0.1147
 5507SOL    HW127980   4.005   0.300   5.640 -0.9296 -0.7416 -0.4273
 5507SOL    HW227981   3.933   0.327   5.522  0.6642 -0.2037 -0.7818
 5508SOL     OW27982   1.767   4.439   8.224 -0.7542  0.1190 -0.5945
 5508SOL    HW127983   1.695   4.476   8.173  0.2870  0.4107 -1.8387
 5508SOL    HW227984   1.761   4.484   8.308  0.8381 -0.8927  0.0517
 5509SOL     OW27985   3.613   0.771   1.269  0.4472 -0.4197  0.7787
 5509SOL    HW127986   3.538   0.819   1.234 -0.3719 -0.4294  2.4930
 5509SOL    HW227987   3.608   0.790   1.363  0.6505  0.8386  0.5413
 5510SOL     OW27988   4.172   2.241   6.486 -0.0997  0.4506  0.4277
 5510SOL    HW127989   4.218   2.197   6.558  0.5524  1.0310  0.3738
 5510SOL    HW227990   4.138   2.317   6.533 -0.8725  0.2081  0.2535
 5511SOL     OW27991   3.379   4.585   5.829 -0.3382  0.2148 -0.1022
 5511SOL    HW127992   3.354   4.661   5.776  1.4639  1.8359  1.3477
 5511SOL    HW227993   3.397   4.628   5.913 -0.9618  0.2994 -0.0053
 5512SOL     OW27994   3.120   3.134   2.407  0.1428 -0.2883 -0.8305
 5512SOL    HW127995   3.102   3.079   2.331 -2.3237 -1.0917  0.3420
 5512SOL    HW227996   3.195   3.090   2.446 -1.2307 -1.1518  0.8388
 5513SOL     OW27997   3.871   4.467   8.142  0.0427  0.0287  0.2985
 5513SOL    HW127998   3.843   4.379   8.170 -2.5028  0.4263 -1.0074
 5513SOL    HW227999   3.964   4.457   8.122 -0.3280 -0.3703 -1.1847
 5514SOL     OW28000   1.921   2.839   4.536  0.6366 -0.3260 -0.5301
 5514SOL    HW128001   1.921   2.873   4.625  0.2610 -0.0806 -0.6233
 5514SOL    HW228002   1.904   2.912   4.476 -1.3303 -0.6629 -0.3857
 5515SOL     OW28003   4.149   2.426   8.969 -0.2578  0.1387  0.0654
 5515SOL    HW128004   4.070   2.373   8.973 -1.5336  1.9654 -0.5029
 5515SOL    HW228005   4.114   2.516   8.971  0.1261  0.3133 -1.1111
 5516SOL     OW28006   2.299   4.690   2.660 -0.3723 -0.1426  0.3733
 5516SOL    HW128007   2.330   4.659   2.745 -1.3981 -0.7900  0.5133
 5516SOL    HW228008   2.328   4.626   2.594  2.0909 -0.3378  1.6506
 5517SOL     OW28009   1.718   0.100   7.853  0.4699 -0.1086 -0.3118
 5517SOL    HW128010   1.632   0.136   7.832  0.2916  0.5664  1.5953
 5517SOL    HW228011   1.762   0.117   7.770  1.2630 -1.5940 -0.1941
 5518SOL     OW28012   4.222   1.331   7.894  0.3879 -0.7569  0.0689
 5518SOL    HW128013   4.208   1.400   7.959  0.0377  0.5280 -1.3710
 5518SOL    HW228014   4.139   1.283   7.889 -0.8868  1.3657  0.9570
 5519SOL     OW28015   3.345   2.069  16.412  0.1065  0.0695  0.1192
 5519SOL    HW128016   3.266   2.087  16.463 -0.9570  0.0567 -1.5263
 5519SOL    HW228017   3.318   2.009  16.342  0.6727 -1.5421  1.2810
 5520SOL     OW28018   4.683   0.764  10.298 -0.2214 -0.0691  0.6696
 5520SOL    HW128019   0.020   0.834  10.272  0.1489 -0.1548  1.3123
 5520SOL    HW228020   0.026   0.702  10.329 -0.0270 -0.0957  0.2026
 5521SOL     OW28021   0.641   4.702   2.916 -0.3774  0.3391  0.6820
 5521SOL    HW128022   0.681   0.017   2.838  0.7113  0.5572  1.3548
 5521SOL    HW228023   0.665   0.042   2.984  0.1290 -0.2057  1.0029
 5522SOL     OW28024   3.510   3.093   9.228  0.4612  0.3485 -0.2292
 5522SOL    HW128025   3.490   3.183   9.203  1.3419  0.1031 -1.8410
 5522SOL    HW228026   3.543   3.066   9.142 -2.1192  2.5174 -1.8904
 5523SOL     OW28027   0.838   4.399  10.496  0.5620  0.6472 -0.1456
 5523SOL    HW128028   0.897   4.466  10.461 -0.2018  1.3531 -0.0915
 5523SOL    HW228029   0.780   4.380  10.423 -0.4564  2.1174  0.2700
 5524SOL     OW28030   3.830   2.004   1.707  0.1372  0.1219  0.5515
 5524SOL    HW128031   3.925   2.014   1.714 -0.1035  1.7341  1.4804
 5524SOL    HW228032   3.792   2.057   1.778  1.0359  0.5905  0.6829
 5525SOL     OW28033   3.866   3.758   2.234  0.2650 -0.1897 -0.0730
 5525SOL    HW128034   3.864   3.767   2.330 -0.1636  1.8477 -0.2712
 5525SOL    HW228035   3.891   3.668   2.214 -0.2571 -0.3082 -0.1811
 5526SOL     OW28036   2.161   4.036  10.137  0.5839  0.3777 -0.4319
 5526SOL    HW128037   2.229   4.048  10.203  0.8404 -0.3538 -0.5601
 5526SOL    HW228038   2.208   4.082  10.068 -0.1876 -0.0404 -1.2429
 5527SOL     OW28039   0.987   3.991   6.082 -0.0638 -0.6483  0.4837
 5527SOL    HW128040   0.895   4.016   6.077  0.6832  2.0472  0.3993
 5527SOL    HW228041   1.019   3.996   5.992  0.3042 -0.1842  0.6358
 5528SOL     OW28042   0.644   2.837   4.116  0.0031 -0.5088 -0.4169
 5528SOL    HW128043   0.682   2.824   4.203 -3.1804 -1.3927  0.8358
 5528SOL    HW228044   0.680   2.766   4.062 -0.2094 -1.1326  0.2552
 5529SOL     OW28045   2.089   4.319  17.425  0.8104 -0.2646 -0.6165
 5529SOL    HW128046   2.160   4.290  17.369 -0.8736 -1.4078 -2.1591
 5529SOL    HW228047   2.073   4.409  17.396  1.3601  0.9241  2.7899
 5530SOL     OW28048   3.925   0.148   5.110  0.2311 -0.1075 -0.2757
 5530SOL    HW128049   3.948   0.188   5.194  2.4092 -1.4435 -0.2429
 5530SOL    HW228050   4.008   0.105   5.091 -0.5543 -0.9121 -1.8658
 5531SOL     OW28051   4.073   4.081  16.844  0.4829  0.3330  0.1072
 5531SOL    HW128052   4.031   4.043  16.922 -2.4848  0.7826 -1.2771
 5531SOL    HW228053   4.063   4.006  16.785 -3.3748  1.3864 -0.5612
 5532SOL     OW28054   1.457   3.542   0.797 -0.6035 -0.2826  0.1586
 5532SOL    HW128055   1.501   3.582   0.722 -1.1712 -0.3985 -0.2325
 5532SOL    HW228056   1.405   3.620   0.816 -2.0828 -0.8005 -1.7876
 5533SOL     OW28057   0.968   3.885  16.193  0.9080  0.4663  0.6904
 5533SOL    HW128058   0.926   3.967  16.220 -1.1038 -0.9401  1.7728
 5533SOL    HW228059   1.046   3.918  16.148  1.3722  0.1310  1.2385
 5534SOL     OW28060   3.000   2.655   2.238  0.0142  0.0011  0.2157
 5534SOL    HW128061   2.925   2.623   2.187  0.7878  0.6295 -1.3135
 5534SOL    HW228062   2.957   2.707   2.306 -1.1203 -0.5238 -0.0868
 5535SOL     OW28063   1.761   2.137   6.499 -0.0031 -0.2241  0.0562
 5535SOL    HW128064   1.674   2.175   6.507  1.2554  2.6507 -0.2049
 5535SOL    HW228065   1.810   2.198   6.444 -0.1505  1.5865  1.9497
 5536SOL     OW28066   3.679   2.087   2.632 -0.2851  0.4218 -0.2632
 5536SOL    HW128067   3.726   2.072   2.550  0.7173 -0.4881  0.4699
 5536SOL    HW228068   3.720   2.166   2.667 -0.1594 -0.4519  1.6076
 5537SOL     OW28069   1.676   3.127   1.788  0.0700  0.5914  0.0253
 5537SOL    HW128070   1.593   3.152   1.748 -0.7967 -0.4980  1.1477
 5537SOL    HW228071   1.734   3.197   1.758  1.0976  0.1543  1.0087
 5538SOL     OW28072   0.122   3.407   2.863 -0.0980  0.4814  0.1493
 5538SOL    HW128073   0.088   3.323   2.894  0.3378 -0.5692 -2.2285
 5538SOL    HW228074   0.052   3.463   2.896 -1.8807 -1.2945 -0.5760
 5539SOL     OW28075   4.181   1.390   2.320  0.5601 -0.3217 -0.4336
 5539SOL    HW128076   4.158   1.379   2.228  0.4948 -0.7252 -0.3692
 5539SOL    HW228077   4.106   1.346   2.359  0.9706 -0.2931  0.3894
 5540SOL     OW28078   3.289   3.886   2.677 -0.3443 -0.3908 -0.9639
 5540SOL    HW128079   3.357   3.918   2.618 -0.9653  1.0574 -0.8984
 5540SOL    HW228080   3.211   3.875   2.624 -0.7787  0.5197 -0.5189
 5541SOL     OW28081   1.697   1.584   7.350  0.6582 -0.0446 -0.3324
 5541SOL    HW128082   1.630   1.535   7.396 -0.9715 -0.5478 -3.2494
 5541SOL    HW228083   1.748   1.598   7.430  2.2483  1.9288 -1.6570
 5542SOL     OW28084   1.375   2.036   5.115  0.1310 -0.5676 -0.9593
 5542SOL    HW128085   1.284   2.066   5.109  0.0818 -0.5011  0.1320
 5542SOL    HW228086   1.395   2.034   5.209 -1.5867  3.2027 -0.5075
 5543SOL     OW28087   0.666   0.524   8.055 -0.4965  0.1069 -0.6500
 5543SOL    HW128088   0.719   0.454   8.016  0.5828  1.4660 -1.6133
 5543SOL    HW228089   0.693   0.594   7.995 -1.2431 -0.6563 -1.8924
 5544SOL     OW28090   0.942   2.127   7.734  0.3997 -0.1896  0.2650
 5544SOL    HW128091   0.977   2.096   7.818 -0.0762 -1.6574 -0.0701
 5544SOL    HW228092   0.941   2.045   7.685 -2.2295 -0.4989  0.8561
 5545SOL     OW28093   2.707   0.404   8.458 -0.1884  0.0069  0.1851
 5545SOL    HW128094   2.746   0.420   8.544  0.5104 -0.2790 -0.0807
 5545SOL    HW228095   2.779   0.379   8.401  0.7024 -1.6018  2.0130
 5546SOL     OW28096   3.691   2.718   4.859 -0.2140  0.0054  0.1152
 5546SOL    HW128097   3.660   2.630   4.835  0.5944  0.0503 -1.1226
 5546SOL    HW228098   3.711   2.702   4.951 -0.1800 -0.5159  0.0178
 5547SOL     OW28099   3.617   3.485   0.667  0.3770  0.2755 -0.7542
 5547SOL    HW128100   3.605   3.391   0.650  1.6300 -0.1862  0.8953
 5547SOL    HW228101   3.589   3.510   0.579 -1.9353 -1.2124 -0.4320
 5548SOL     OW28102   3.806   1.128  12.688  0.3316 -0.3246  0.0557
 5548SOL    HW128103   3.900   1.115  12.703  0.5056  0.0999 -0.6933
 5548SOL    HW228104   3.767   1.040  12.682  1.3430 -0.6729 -1.3248
 5549SOL     OW28105   2.710   0.899   4.114 -0.2419 -0.8484  0.6058
 5549SOL    HW128106   2.720   0.959   4.188  0.7093 -1.1940  0.7650
 5549SOL    HW228107   2.620   0.924   4.092  0.1755  0.7320  0.6919
 5550SOL     OW28108   0.766   3.564   4.370  0.5297 -0.1038 -0.0488
 5550SOL    HW128109   0.757   3.490   4.431 -1.1691  0.2181  0.0992
 5550SOL    HW228110   0.832   3.527   4.312  1.0541 -2.0934  1.7957
 5551SOL     OW28111   4.050   0.046   8.481  0.5478 -0.8493  0.0745
 5551SOL    HW128112   4.104   4.696   8.450  2.2509  0.0945  0.8385
 5551SOL    HW228113   3.972   0.032   8.428 -0.4855  0.5645  1.2282
 5552SOL     OW28114   1.548   1.711   6.264  0.5437 -0.6011  0.6756
 5552SOL    HW128115   1.615   1.665   6.314 -0.0360 -3.1875 -0.9509
 5552SOL    HW228116   1.471   1.663   6.294 -0.1583 -0.5633 -1.0651
 5553SOL     OW28117   4.325   4.352   2.817 -0.6360 -0.3524  0.9332
 5553SOL    HW128118   4.255   4.395   2.767  1.8030 -0.1524 -2.3302
 5553SOL    HW228119   4.401   4.360   2.760 -1.2561 -0.5672  0.0683
 5554SOL     OW28120   3.185   2.066   9.480 -0.2913  0.0637 -0.3815
 5554SOL    HW128121   3.205   2.079   9.573 -1.4692 -0.6638 -0.0281
 5554SOL    HW228122   3.122   2.133   9.455  0.8691  0.7100 -1.6252
 5555SOL     OW28123   1.148   1.615  12.661  0.1584 -0.5690 -0.3347
 5555SOL    HW128124   1.119   1.648  12.746  0.9405  2.6062 -1.3059
 5555SOL    HW228125   1.236   1.587  12.685  0.2507 -0.1415 -0.1618
 5556SOL     OW28126   3.651   2.550  17.434 -0.3483 -0.6691  0.4721
 5556SOL    HW128127   3.612   2.631  17.399  1.9342 -0.7317 -2.2022
 5556SOL    HW228128   3.669   2.582  17.522  2.2341  0.0739 -0.3252
 5557SOL     OW28129   3.481   1.273  16.080 -0.7890  0.0556  0.5172
 5557SOL    HW128130   3.452   1.364  16.079 -0.1982  0.2381 -1.0049
 5557SOL    HW228131   3.545   1.270  16.008 -2.9847  0.9278 -1.4795
 5558SOL     OW28132   1.199   4.200  13.865  0.3136  0.8324 -0.3009
 5558SOL    HW128133   1.169   4.241  13.784 -0.0838  1.7386  0.3062
 5558SOL    HW228134   1.262   4.269  13.886  0.7686  0.6627 -1.0866
 5559SOL     OW28135   2.641   1.783   8.149 -0.1301  0.5916 -0.1982
 5559SOL    HW128136   2.681   1.790   8.062 -1.9730  1.8605 -0.9464
 5559SOL    HW228137   2.673   1.697   8.179  1.1045  0.0321 -3.0703
 5560SOL     OW28138   2.413   0.596   0.938 -0.4250 -0.7718 -0.1515
 5560SOL    HW128139   2.380   0.673   0.983 -0.1786  0.3786 -1.9381
 5560SOL    HW228140   2.352   0.527   0.962 -1.5790 -0.1938 -1.4268
 5561SOL     OW28141   4.629   2.909  14.504 -0.1814  0.3673 -0.0044
 5561SOL    HW128142   4.625   3.004  14.519 -0.8836  0.0693  1.7061
 5561SOL    HW228143   4.723   2.895  14.489 -0.1943  0.0350  0.2251
 5562SOL     OW28144   2.763   4.046  15.297 -0.2903 -0.4935  0.0007
 5562SOL    HW128145   2.756   4.107  15.370 -0.7863 -1.7981  1.0518
 5562SOL    HW228146   2.781   4.107  15.226  0.4236 -2.9205 -1.9166
 5563SOL     OW28147   3.598   2.112   3.165 -0.2385 -0.2004 -0.0286
 5563SOL    HW128148   3.528   2.110   3.100 -1.9081 -1.5579  1.8050
 5563SOL    HW228149   3.570   2.170   3.236 -1.1046 -1.8637  0.9881
 5564SOL     OW28150   2.711   3.185   4.129 -0.1507 -0.5954  0.1764
 5564SOL    HW128151   2.682   3.275   4.110  0.0649 -0.2837  1.3329
 5564SOL    HW228152   2.805   3.197   4.114 -0.3285  1.1361  0.4458
 5565SOL     OW28153   2.710   0.416   9.174 -0.6274 -0.1256 -0.5047
 5565SOL    HW128154   2.664   0.493   9.141  0.7577  0.6387 -0.6796
 5565SOL    HW228155   2.730   0.457   9.258 -2.7703 -0.0900 -0.0271
 5566SOL     OW28156   0.543   4.326   2.218  0.7542  0.7400  0.1617
 5566SOL    HW128157   0.635   4.350   2.209  1.3851 -1.1234  1.8025
 5566SOL    HW228158   0.554   4.270   2.294  1.3776  1.7336  0.7975
 5567SOL     OW28159   2.192   2.539   5.913  0.5847 -0.4108  0.4830
 5567SOL    HW128160   2.276   2.542   5.868 -0.4727  0.3052 -1.4222
 5567SOL    HW228161   2.141   2.610   5.874  0.7638 -1.1077 -1.0171
 5568SOL     OW28162   3.630   3.236   6.141  0.0214 -0.1416 -0.4351
 5568SOL    HW128163   3.564   3.184   6.186  0.9088  0.0576  1.0751
 5568SOL    HW228164   3.650   3.286   6.220 -1.6396 -0.0654 -0.0647
 5569SOL     OW28165   0.802   3.640   6.945 -0.4310  0.2464 -0.0387
 5569SOL    HW128166   0.766   3.551   6.941  0.4567 -0.1121 -0.1218
 5569SOL    HW228167   0.861   3.638   7.020 -1.6971 -0.6708  0.9498
 5570SOL     OW28168   4.617   2.251   0.627 -0.2480  0.4959  0.5021
 5570SOL    HW128169   4.590   2.280   0.540  0.2478 -2.8724 -0.7846
 5570SOL    HW228170   4.532   2.258   0.669  0.5960  2.1316  1.9570
 5571SOL     OW28171   0.969   0.259   7.159  0.4827  0.0113  0.6087
 5571SOL    HW128172   1.064   0.259   7.165  0.4269  1.7235  1.5617
 5571SOL    HW228173   0.961   0.275   7.065  1.2536  0.5430  0.6328
 5572SOL     OW28174   2.385   1.379   0.295  0.8012 -0.0510  0.6690
 5572SOL    HW128175   2.332   1.314   0.249  0.3448  0.6331  0.2232
 5572SOL    HW228176   2.337   1.389   0.378  2.2452 -0.5866  1.5619
 5573SOL     OW28177   0.974   4.303   9.723  0.7897  1.0514 -0.4472
 5573SOL    HW128178   1.050   4.249   9.743 -0.3896  0.4473  2.3058
 5573SOL    HW228179   0.989   4.351   9.641  2.3245 -0.7695 -1.2477
 5574SOL     OW28180   4.158   4.398  14.092  0.5018 -0.0917 -0.2486
 5574SOL    HW128181   4.247   4.427  14.110  0.0059 -0.6828  3.1855
 5574SOL    HW228182   4.160   4.311  14.133 -2.4810  0.1170  0.3745
 5575SOL     OW28183   1.089   4.296   4.526 -0.1201  0.0722  0.4897
 5575SOL    HW128184   1.000   4.302   4.493 -0.6738  0.6041  2.0997
 5575SOL    HW228185   1.100   4.204   4.553  3.3231  0.3223 -0.0743
 5576SOL     OW28186   2.049   3.713  11.916 -0.0199  0.0701  0.4207
 5576SOL    HW128187   2.018   3.680  11.831 -0.0117 -0.7828  0.7475
 5576SOL    HW228188   2.145   3.721  11.907  0.2093 -0.6509  2.3258
 5577SOL     OW28189   1.978   4.686   8.466 -0.2274  0.0248 -0.1764
 5577SOL    HW128190   2.063   4.649   8.443 -0.8466 -1.3928 -0.1573
 5577SOL    HW228191   1.968   0.006   8.381  0.0627  0.0282 -0.2073
 5578SOL     OW28192   2.771   0.203   2.732  0.0619  0.0209 -0.4492
 5578SOL    HW128193   2.729   0.143   2.670  2.5931 -1.3721 -0.8179
 5578SOL    HW228194   2.777   0.288   2.688  0.0746  0.4148  0.3161
 5579SOL     OW28195   3.265   1.320   9.677  0.1648  0.4450  0.3260
 5579SOL    HW128196   3.201   1.361   9.735 -0.1648  1.2707 -0.6334
 5579SOL    HW228197   3.206   1.276   9.616 -0.4721  0.3524  1.0155
 5580SOL     OW28198   1.836   2.512   3.895 -0.2439  0.4989 -0.1995
 5580SOL    HW128199   1.817   2.592   3.945  3.2134  0.0502  1.8312
 5580SOL    HW228200   1.908   2.546   3.841  0.0267  0.3492  0.0677
 5581SOL     OW28201   1.455   3.109   5.268  0.2955  0.4661  0.4107
 5581SOL    HW128202   1.468   3.204   5.271  1.2672  0.3423  0.2345
 5581SOL    HW228203   1.393   3.104   5.341 -0.2608 -2.8112 -0.2980
 5582SOL     OW28204   3.373   3.517   3.945 -0.2696 -0.2759 -0.1392
 5582SOL    HW128205   3.444   3.533   3.884  0.8208  1.8068  1.6923
 5582SOL    HW228206   3.303   3.576   3.917 -0.3812 -0.3908 -0.1031
 5583SOL     OW28207   1.659   3.208  11.188  0.3698 -0.1987 -0.1424
 5583SOL    HW128208   1.646   3.124  11.231  1.1631  0.3430  1.1691
 5583SOL    HW228209   1.607   3.194  11.109 -1.8003  0.6199  1.1325
 5584SOL     OW28210   1.833   3.282   3.580  0.0647  0.1627  0.1242
 5584SOL    HW128211   1.809   3.271   3.672  1.2230  1.4919  0.5776
 5584SOL    HW228212   1.927   3.296   3.587  0.1822 -1.7568  2.4048
 5585SOL     OW28213   1.349   2.889   2.682 -0.2256  0.1543  0.1145
 5585SOL    HW128214   1.384   2.965   2.728 -1.2788  1.5015 -1.3198
 5585SOL    HW228215   1.301   2.928   2.609 -1.5177 -1.6947 -0.0220
 5586SOL     OW28216   1.502   1.510   8.548  0.8618 -0.1345 -0.3356
 5586SOL    HW128217   1.592   1.531   8.525  0.6537  1.8244  0.6337
 5586SOL    HW228218   1.468   1.599   8.560  0.9206 -0.1224 -0.2590
 5587SOL     OW28219   4.699   4.105   2.664  0.4319  0.3052 -0.0362
 5587SOL    HW128220   0.001   4.080   2.575  1.4042  2.2690 -0.3105
 5587SOL    HW228221   0.050   4.161   2.686  2.8649 -3.4475  1.2207
 5588SOL     OW28222   3.395   1.047  13.020 -0.3985 -0.3181 -0.1057
 5588SOL    HW128223   3.398   0.965  13.068 -1.3626 -0.2661  0.0438
 5588SOL    HW228224   3.483   1.045  12.983 -0.2426  0.7536  0.2043
 5589SOL     OW28225   0.699   1.265  15.209  0.1650 -0.3238  0.4764
 5589SOL    HW128226   0.634   1.195  15.199  0.1623 -0.1022 -0.9639
 5589SOL    HW228227   0.647   1.346  15.203 -0.3443 -0.7186 -0.4224
 5590SOL     OW28228   1.449   0.661  10.965 -0.0505 -0.0226  0.3179
 5590SOL    HW128229   1.360   0.697  10.964  0.7401  1.9409  0.7307
 5590SOL    HW228230   1.471   0.645  10.873 -4.0041 -0.7768 -0.5142
 5591SOL     OW28231   2.108   3.949   7.500  0.3082 -0.0252  0.1759
 5591SOL    HW128232   2.156   4.025   7.533  0.3044 -0.3631  0.9720
 5591SOL    HW228233   2.029   3.968   7.550  0.6833  2.6085 -0.2341
 5592SOL     OW28234   0.755   4.372   0.330 -0.1269 -0.6283  0.2307
 5592SOL    HW128235   0.807   4.297   0.302 -0.1046 -0.8575  0.8778
 5592SOL    HW228236   0.665   4.339   0.334 -0.3764 -0.1228 -1.3941
 5593SOL     OW28237   0.090   0.979   9.741  0.6063  0.5141 -0.0065
 5593SOL    HW128238   0.078   1.072   9.726  0.5432  0.5596  0.3238
 5593SOL    HW228239   0.002   0.943   9.749  0.2903  1.3904  0.4320
 5594SOL     OW28240   3.116   1.006  12.969  0.5293  0.0401  0.9658
 5594SOL    HW128241   3.195   1.059  12.983  0.0711  1.8195 -3.3334
 5594SOL    HW228242   3.079   1.031  12.884  1.1533 -1.1630  0.3370
 5595SOL     OW28243   0.676   1.957  17.134 -0.2336  0.0938  0.3302
 5595SOL    HW128244   0.601   2.014  17.115  0.3827  0.6613 -0.4408
 5595SOL    HW228245   0.629   1.887  17.179 -1.6223 -0.0289 -1.3151
 5596SOL     OW28246   2.511   2.408   6.151  0.1711  0.8456 -0.1903
 5596SOL    HW128247   2.471   2.441   6.232 -1.0329 -2.6997  0.6707
 5596SOL    HW228248   2.550   2.328   6.188 -0.3358 -0.1590 -1.7978
 5597SOL     OW28249   0.651   3.158   6.288 -0.1147 -0.0135 -0.0048
 5597SOL    HW128250   0.598   3.223   6.333 -0.3369 -0.4045  0.2938
 5597SOL    HW228251   0.577   3.098   6.277  0.6073 -0.8454 -0.3754
 5598SOL     OW28252   0.856   3.735   3.181  0.8113 -0.1694  0.6632
 5598SOL    HW128253   0.856   3.705   3.272  2.7054 -0.9599  0.4170
 5598SOL    HW228254   0.921   3.677   3.140 -1.5200 -2.0016 -0.4210
 5599SOL     OW28255   0.388   2.774   5.231  0.6408  0.2239 -0.0658
 5599SOL    HW128256   0.475   2.777   5.272 -0.7101 -0.7108  2.8335
 5599SOL    HW228257   0.350   2.842   5.287  2.3739  0.4618  0.8191
 5600SOL     OW28258   4.073   1.356   3.069 -0.0167  0.3004 -0.2779
 5600SOL    HW128259   4.036   1.444   3.071  1.6286  0.9855  0.5545
 5600SOL    HW228260   4.088   1.341   2.975  1.9221 -0.7909  0.2065
 5601SOL     OW28261   2.788   2.093   5.390 -0.0744  0.9214  0.3310
 5601SOL    HW128262   2.858   2.144   5.349  1.2758 -0.7252  0.6108
 5601SOL    HW228263   2.836   2.012   5.409  0.8207  1.5137  0.5994
 5602SOL     OW28264   2.527   0.175  12.781  0.0465  0.6316  0.1216
 5602SOL    HW128265   2.501   0.236  12.712  3.7166  1.3597 -0.6531
 5602SOL    HW228266   2.620   0.166  12.758  0.2005 -0.2628  1.0759
 5603SOL     OW28267   0.802   4.395   2.212  0.5330 -0.4148 -0.0858
 5603SOL    HW128268   0.843   4.426   2.132 -0.7089  2.4261  0.3666
 5603SOL    HW228269   0.843   4.309   2.222  1.2651 -0.1259 -0.6328
 5604SOL     OW28270   3.535   3.315   7.569  0.6551 -0.4491 -0.3792
 5604SOL    HW128271   3.571   3.397   7.603  1.0894 -0.1317 -1.6016
 5604SOL    HW228272   3.576   3.259   7.635  1.0839  0.0465 -0.2293
 5605SOL     OW28273   1.889   0.926   3.572  0.1762  0.2244  0.2920
 5605SOL    HW128274   1.952   0.854   3.561 -1.0871 -0.7480 -0.6713
 5605SOL    HW228275   1.868   0.945   3.481 -0.1786 -1.8168 -0.0527
 5606SOL     OW28276   4.700   0.586   4.832 -0.0708  0.3462  0.1582
 5606SOL    HW128277   0.007   0.627   4.913  0.8200  0.7460 -0.3721
 5606SOL    HW228278   4.683   0.666   4.782 -0.1321  0.2757  0.0660
 5607SOL     OW28279   3.019   2.641   6.155 -0.6688 -0.3210 -0.2381
 5607SOL    HW128280   3.002   2.669   6.245  0.2190  2.3752 -0.9176
 5607SOL    HW228281   2.940   2.598   6.123 -0.5744 -1.0278  0.4666
 5608SOL     OW28282   3.026   1.968   5.464  0.5311  0.1774 -0.1056
 5608SOL    HW128283   3.095   2.023   5.428 -0.2148 -1.2002 -3.6383
 5608SOL    HW228284   3.073   1.906   5.519 -1.5464  0.5821  2.1687
 5609SOL     OW28285   4.339   0.564   8.464 -0.0353 -0.6568  0.1873
 5609SOL    HW128286   4.329   0.607   8.379  4.4160 -0.8233 -0.4062
 5609SOL    HW228287   4.301   0.480   8.438  0.1943 -0.8526  0.4911
 5610SOL     OW28288   4.400   4.549   6.550  0.0989  0.0172  0.5421
 5610SOL    HW128289   4.475   4.531   6.607  0.2465 -0.8846  0.0702
 5610SOL    HW228290   4.449   4.605   6.491  1.3976 -0.5400  1.0884
 5611SOL     OW28291   4.016   2.601   4.732  0.3429  0.3951 -0.8841
 5611SOL    HW128292   4.090   2.541   4.725  0.2760  0.2981 -0.7506
 5611SOL    HW228293   3.957   2.560   4.668 -1.0197  0.7298  0.1595
 5612SOL     OW28294   1.645   4.615   8.047 -0.0998 -0.9310 -0.3484
 5612SOL    HW128295   1.681   4.644   7.964 -0.4688  0.7127  0.0700
 5612SOL    HW228296   1.587   4.551   8.006  2.1861 -2.6530 -0.8833
 5613SOL     OW28297   0.588   2.379   6.048  0.2902  0.0002  0.2134
 5613SOL    HW128298   0.515   2.324   6.019  0.2199  0.6529 -0.8379
 5613SOL    HW228299   0.537   2.446   6.094 -1.1084 -0.5477 -0.5271
 5614SOL     OW28300   4.191   0.675  10.739 -0.0895 -0.1141  0.0786
 5614SOL    HW128301   4.136   0.631  10.804 -0.5985  1.0889  0.4563
 5614SOL    HW228302   4.128   0.713  10.678 -0.1702  2.6083  1.8867
 5615SOL     OW28303   3.632   1.110  11.404 -0.1323 -0.0528  0.2063
 5615SOL    HW128304   3.685   1.132  11.481 -1.6021 -1.6727  1.6683
 5615SOL    HW228305   3.649   1.017  11.391  1.9836  0.4480 -0.5323
 5616SOL     OW28306   0.026   2.372   1.816 -0.3155  0.3409  0.0980
 5616SOL    HW128307   0.067   2.312   1.754 -1.6062 -1.6649  1.2003
 5616SOL    HW228308   0.064   2.341   1.898 -1.2035  0.7726  0.6725
 5617SOL     OW28309   2.559   0.699   7.293 -0.1056  0.1963 -0.1373
 5617SOL    HW128310   2.574   0.605   7.284 -2.7982 -0.2633 -0.0848
 5617SOL    HW228311   2.552   0.708   7.388 -0.9207 -1.6453 -0.0191
 5618SOL     OW28312   2.109   0.360  14.822  0.3598  0.0513  0.1952
 5618SOL    HW128313   2.134   0.440  14.868  0.1062 -0.4733  1.2563
 5618SOL    HW228314   2.078   0.398  14.740  1.0343 -1.8354 -0.9291
 5619SOL     OW28315   2.076   0.864   4.511  0.3416  0.4558 -0.4030
 5619SOL    HW128316   2.105   0.811   4.436  1.9274  1.5183 -0.5442
 5619SOL    HW228317   2.024   0.798   4.556  0.3354 -1.1944 -2.8607
 5620SOL     OW28318   3.316   3.523  15.210  0.0608  0.2012 -0.0203
 5620SOL    HW128319   3.343   3.603  15.256 -2.0443  0.9971 -0.1849
 5620SOL    HW228320   3.336   3.559  15.123  0.6909  0.2931  0.1639
 5621SOL     OW28321   4.287   0.776   5.092 -0.2407  0.2823  0.3151
 5621SOL    HW128322   4.356   0.726   5.135 -0.5673  0.3894  0.9646
 5621SOL    HW228323   4.241   0.710   5.041  0.6918  1.6586 -2.3016
 5622SOL     OW28324   3.975   0.679  12.288 -0.2384 -0.1672 -0.4628
 5622SOL    HW128325   4.016   0.649  12.369  0.8818  0.2106 -0.8886
 5622SOL    HW228326   4.056   0.721  12.258  0.9110 -2.2792 -0.3319
 5623SOL     OW28327   0.576   3.963   4.685 -0.1084  0.1560 -0.1893
 5623SOL    HW128328   0.536   3.876   4.699  1.1172 -0.6539 -1.6790
 5623SOL    HW228329   0.492   4.009   4.676 -0.7433 -1.2524 -1.5582
 5624SOL     OW28330   3.752   2.662   0.014 -0.4723 -0.5925 -0.3659
 5624SOL    HW128331   3.746   2.668   0.109 -2.0675 -0.2927 -0.5004
 5624SOL    HW228332   3.848   2.668   0.012 -0.5936  0.6414 -3.5306
 5625SOL     OW28333   0.967   0.109   3.251 -0.1187  0.1394 -0.8196
 5625SOL    HW128334   1.014   0.186   3.220 -0.5506  1.7975  2.6364
 5625SOL    HW228335   0.983   0.120   3.345  0.8894  1.5433 -1.1573
 5626SOL     OW28336   0.778   2.740   0.557  0.0548  0.0712  0.4688
 5626SOL    HW128337   0.862   2.779   0.581 -0.6765  1.9126  0.0595
 5626SOL    HW228338   0.810   2.689   0.484 -1.0953  2.1205 -1.4697
 5627SOL     OW28339   1.247   4.140   7.567 -0.4457  0.0567 -0.0900
 5627SOL    HW128340   1.185   4.199   7.526  0.6131 -0.1923 -2.0591
 5627SOL    HW228341   1.276   4.195   7.640  0.0798  0.4166 -0.5681
 5628SOL     OW28342   4.686   1.753   6.904 -0.2871  0.3262 -0.6227
 5628SOL    HW128343   4.704   1.670   6.946  3.0225  1.1004 -0.5350
 5628SOL    HW228344   0.008   1.734   6.822  3.4342  1.3401  1.1623
 5629SOL     OW28345   2.359   1.358  10.873 -0.0767 -0.6979 -0.4404
 5629SOL    HW128346   2.399   1.443  10.889  1.5909 -1.5409 -0.0799
 5629SOL    HW228347   2.424   1.324  10.811  1.4162 -2.2543  1.9737
 5630SOL     OW28348   4.058   0.653   6.397 -0.4269  0.0599 -0.6270
 5630SOL    HW128349   4.116   0.672   6.324  1.7940  1.9467  1.6226
 5630SOL    HW228350   4.034   0.562   6.377  0.7957 -0.1546 -1.0966
 5631SOL     OW28351   3.528   1.879  10.498  0.2818  0.3708  0.1724
 5631SOL    HW128352   3.439   1.915  10.496 -0.1298 -0.6232  0.7484
 5631SOL    HW228353   3.514   1.801  10.445 -0.0756 -1.3049  2.7304
 5632SOL     OW28354   3.740   0.848   5.876 -0.0946 -0.7826 -0.6087
 5632SOL    HW128355   3.713   0.934   5.845  1.1629 -0.1838 -0.0310
 5632SOL    HW228356   3.809   0.828   5.812  1.1753  0.4942  0.3640
 5633SOL     OW28357   1.472   1.196   8.509  0.4589 -0.6222 -0.1049
 5633SOL    HW128358   1.518   1.164   8.586  1.6366 -0.9673 -0.9456
 5633SOL    HW228359   1.430   1.117   8.475  0.1270 -0.2339 -0.5771
 5634SOL     OW28360   0.315   3.370   5.746  0.4337  0.1004 -0.2970
 5634SOL    HW128361   0.310   3.275   5.745  1.6231  0.0434  1.2039
 5634SOL    HW228362   0.270   3.377   5.830 -1.9973 -0.0145 -1.5839
 5635SOL     OW28363   0.640   2.252   2.728 -0.3053 -0.2231 -0.0977
 5635SOL    HW128364   0.638   2.287   2.640  4.2733  1.4363  0.5005
 5635SOL    HW228365   0.579   2.177   2.723 -1.4921  0.8411 -1.3366
 5636SOL     OW28366   2.229   4.666   9.993 -0.6038  0.3911  0.2215
 5636SOL    HW128367   2.162   4.691  10.056 -0.5335  0.6055  0.2143
 5636SOL    HW228368   2.275   0.026   9.976  0.5624 -0.0076  1.4715
 5637SOL     OW28369   1.844   1.922  11.888 -0.0775 -0.0020  0.1828
 5637SOL    HW128370   1.821   2.011  11.863  1.6503  0.7645  1.3735
 5637SOL    HW228371   1.909   1.934  11.957 -0.3189  1.2372  0.1912
 5638SOL     OW28372   3.301   1.716   1.363  0.1261  0.0904 -0.0995
 5638SOL    HW128373   3.279   1.748   1.276  0.4238  0.1384 -0.1569
 5638SOL    HW228374   3.386   1.758   1.375 -0.1730  0.0340  2.2209
 5639SOL     OW28375   1.330   1.325   7.773  0.4116  0.5039  0.7217
 5639SOL    HW128376   1.257   1.343   7.832  0.0239  0.9309  0.1087
 5639SOL    HW228377   1.289   1.287   7.695  2.0420  2.3817 -1.0474
 5640SOL     OW28378   4.603   1.420   6.587  0.6811  0.0101  0.0499
 5640SOL    HW128379   4.661   1.414   6.511  2.4268  0.3595  1.3487
 5640SOL    HW228380   4.537   1.353   6.569  0.2507 -0.3773  3.2083
 5641SOL     OW28381   1.400   2.709   8.618 -0.6322  1.1396  0.1177
 5641SOL    HW128382   1.362   2.783   8.665 -2.8771 -0.5717  1.0234
 5641SOL    HW228383   1.330   2.662   8.572 -0.3448  0.3160  0.5306
 5642SOL     OW28384   4.432   1.469  11.094 -0.4290 -0.1984  0.0353
 5642SOL    HW128385   4.412   1.425  11.176 -0.0650 -2.1422 -0.9226
 5642SOL    HW228386   4.405   1.560  11.108 -2.2382 -0.3637 -2.3842
 5643SOL     OW28387   0.710   1.223   3.794 -0.3012  0.6234  0.4122
 5643SOL    HW128388   0.676   1.219   3.883 -3.4309  1.7451 -0.7261
 5643SOL    HW228389   0.645   1.178   3.739 -0.9744 -1.6197  3.0688
 5644SOL     OW28390   1.220   1.462   2.001  0.1623  0.1669  0.5877
 5644SOL    HW128391   1.253   1.408   2.073  0.5219  3.1835  2.6717
 5644SOL    HW228392   1.256   1.549   2.016  2.0410 -0.4263 -0.3551
 5645SOL     OW28393   3.878   3.850   5.910 -0.2477  0.1474  0.3927
 5645SOL    HW128394   3.844   3.762   5.928  0.6527 -0.2913  0.0067
 5645SOL    HW228395   3.837   3.866   5.825 -1.2165  2.0946  1.2526
 5646SOL     OW28396   3.668   0.548   6.264  0.8407  0.5402  0.4177
 5646SOL    HW128397   3.597   0.558   6.327  0.4590  0.6317 -0.0206
 5646SOL    HW228398   3.675   0.635   6.224 -0.6236  0.3450 -0.2638
 5647SOL     OW28399   2.606   4.658   7.231 -0.5166 -0.6884  0.1259
 5647SOL    HW128400   2.601   4.632   7.324  3.8757 -1.7950  0.0458
 5647SOL    HW228401   2.598   4.573   7.188  0.4297 -0.2783 -0.8403
 5648SOL     OW28402   3.414   3.497   8.946  0.2074  0.4537  0.0116
 5648SOL    HW128403   3.479   3.461   9.007  0.1265  0.0217 -0.1626
 5648SOL    HW228404   3.362   3.418   8.930  0.9981  0.3436 -1.9172
 5649SOL     OW28405   4.352   4.022   6.627 -0.3168 -0.1257 -0.0837
 5649SOL    HW128406   4.386   3.932   6.625 -0.8441 -0.3050 -1.1526
 5649SOL    HW228407   4.260   4.005   6.644  0.0589 -1.8159  0.2927
 5650SOL     OW28408   3.970   3.065   5.471 -0.0794  0.4965 -0.3360
 5650SOL    HW128409   3.891   3.116   5.457  0.4023  1.2995 -0.1602
 5650SOL    HW228410   3.922   2.984   5.484 -1.3035  1.1604 -0.7462
 5651SOL     OW28411   2.836   2.654   5.742  0.0069  0.2289  0.4795
 5651SOL    HW128412   2.916   2.654   5.690 -1.1983  1.7699 -1.3890
 5651SOL    HW228413   2.804   2.571   5.706  1.6709  0.0768 -0.6745
 5652SOL     OW28414   3.131   1.644   1.843  0.1161  0.8922 -0.3937
 5652SOL    HW128415   3.137   1.735   1.874  1.5600  1.5530 -2.5714
 5652SOL    HW228416   3.215   1.615   1.877  1.2588  1.8557 -2.3752
 5653SOL     OW28417   4.582   3.383   3.780 -0.1049  0.0204  0.2214
 5653SOL    HW128418   4.495   3.379   3.742  0.0323 -1.2227  0.0347
 5653SOL    HW228419   4.558   3.419   3.865 -0.5129 -0.8939  0.4854
 5654SOL     OW28420   0.162   4.129   0.981 -0.2798 -0.4427  0.4782
 5654SOL    HW128421   0.122   4.184   1.049 -1.2936  0.6237 -0.9851
 5654SOL    HW228422   0.255   4.122   1.003 -0.4992 -1.8666  0.9654
 5655SOL     OW28423   2.537   3.323   6.729  0.0900  0.1417  0.2001
 5655SOL    HW128424   2.467   3.389   6.727  1.0676  1.2720  3.0276
 5655SOL    HW228425   2.587   3.355   6.804 -1.3695 -2.1278  2.1367
 5656SOL     OW28426   0.031   4.521   7.604 -0.0252 -0.9310 -0.5632
 5656SOL    HW128427   0.033   4.517   7.700  2.4672 -0.8120 -0.6258
 5656SOL    HW228428   4.662   4.495   7.602 -0.0390 -0.8462 -0.8934
 5657SOL     OW28429   0.867   2.010   6.543 -0.4411 -0.2353 -0.1787
 5657SOL    HW128430   0.798   1.970   6.489 -0.1672  0.5733 -1.1282
 5657SOL    HW228431   0.862   1.953   6.620  0.4936 -1.7649 -1.2477
 5658SOL     OW28432   2.393   3.025   1.501 -0.1180  0.0546 -0.1703
 5658SOL    HW128433   2.453   3.096   1.525 -0.3910 -0.4331  1.9076
 5658SOL    HW228434   2.423   3.004   1.412  0.6010 -0.4973  0.1995
 5659SOL     OW28435   4.520   4.205   7.612 -0.6286 -0.1164 -0.0259
 5659SOL    HW128436   4.561   4.158   7.540 -0.0790 -0.9632  0.8375
 5659SOL    HW228437   4.532   4.147   7.687 -0.0036  2.5535  1.9344
 5660SOL     OW28438   1.737   2.650  15.712 -0.0773 -0.4330  0.4672
 5660SOL    HW128439   1.653   2.696  15.710  0.4624  0.4022 -2.0460
 5660SOL    HW228440   1.762   2.640  15.620  0.3406 -0.9458  0.6370
 5661SOL     OW28441   3.541   3.612  16.381 -0.2422  0.1265 -0.4826
 5661SOL    HW128442   3.505   3.608  16.292 -1.6820  2.4453 -0.0071
 5661SOL    HW228443   3.464   3.599  16.435  1.3558 -0.6649  1.5947
 5662SOL     OW28444   4.658   2.900   6.875 -0.2302  0.3712  0.0475
 5662SOL    HW128445   0.009   2.860   6.920  0.3312 -0.5716 -1.7145
 5662SOL    HW228446   4.598   2.826   6.865  0.2684  0.2303 -1.9657
 5663SOL     OW28447   4.062   1.515   6.233 -0.5970 -0.4655  0.7142
 5663SOL    HW128448   4.097   1.567   6.305  0.1304  1.4865 -1.0320
 5663SOL    HW228449   4.106   1.565   6.164  0.0337 -2.0567 -0.0517
 5664SOL     OW28450   0.398   1.727   1.667  0.6499 -0.7500 -0.3107
 5664SOL    HW128451   0.347   1.646   1.669  0.3863 -0.6094 -1.4443
 5664SOL    HW228452   0.411   1.748   1.575  1.0312  0.6690  0.0647
 5665SOL     OW28453   3.817   4.426   6.266 -0.3751 -0.6011 -0.0565
 5665SOL    HW128454   3.736   4.431   6.318  0.0968 -0.9914  0.7132
 5665SOL    HW228455   3.779   4.462   6.186  2.8302 -0.6904 -1.6170
 5666SOL     OW28456   4.112   2.938   6.550  0.1412 -0.1633 -0.4314
 5666SOL    HW128457   4.095   2.856   6.503  1.1047 -0.1160 -0.8479
 5666SOL    HW228458   4.041   2.995   6.521 -1.3925 -0.4512  2.6655
 5667SOL     OW28459   3.943   3.114   3.642  0.2355  0.1761 -0.3254
 5667SOL    HW128460   3.977   3.184   3.586  1.0572 -0.9116 -1.1809
 5667SOL    HW228461   3.941   3.168   3.721  0.9971 -1.3553  0.7557
 5668SOL     OW28462   3.701   2.137   7.255  0.2838 -0.5063  0.0531
 5668SOL    HW128463   3.676   2.063   7.310 -1.2841 -0.2018 -0.2664
 5668SOL    HW228464   3.645   2.200   7.299 -0.9566 -2.5090  1.3379
 5669SOL     OW28465   2.466   2.426   1.191  0.4338  0.2812 -0.2851
 5669SOL    HW128466   2.544   2.448   1.139 -0.1138  0.8255 -0.8766
 5669SOL    HW228467   2.446   2.507   1.238  1.5118 -0.0950  0.8243
 5670SOL     OW28468   2.189   3.788   9.238 -0.3832  0.3900  0.2729
 5670SOL    HW128469   2.255   3.856   9.252 -0.0112 -0.4132  2.4838
 5670SOL    HW228470   2.241   3.708   9.247  1.7900  1.3567 -3.9147
 5671SOL     OW28471   1.600   4.341   3.278  0.0263 -0.2876 -0.5204
 5671SOL    HW128472   1.560   4.415   3.324 -1.9084 -0.0770 -2.5067
 5671SOL    HW228473   1.691   4.369   3.266 -0.3835  1.1221 -0.2199
 5672SOL     OW28474   0.138   2.194   4.756 -0.1185 -0.1622 -0.5252
 5672SOL    HW128475   0.197   2.154   4.820 -3.6219 -2.0361  1.5564
 5672SOL    HW228476   0.091   2.257   4.811  0.0053 -1.0527  0.6202
 5673SOL     OW28477   2.605   4.106   9.564  0.2017  0.5026 -0.3644
 5673SOL    HW128478   2.609   4.121   9.469 -0.8246  1.8850 -0.2017
 5673SOL    HW228479   2.701   4.104   9.566  0.1450 -1.4301 -0.0370
 5674SOL     OW28480   2.198   4.451  16.537  0.5339  0.1811 -0.6230
 5674SOL    HW128481   2.169   4.433  16.626  2.1603 -3.0844 -0.7536
 5674SOL    HW228482   2.260   4.379  16.536  0.2229 -0.0850 -0.8971
 5675SOL     OW28483   0.428   4.575   9.585 -0.0198 -0.3328 -0.4018
 5675SOL    HW128484   0.519   4.579   9.613 -0.8631 -1.7295  2.5638
 5675SOL    HW228485   0.418   4.587   9.491  2.9586  1.5579 -0.4624
 5676SOL     OW28486   2.547   2.167   5.305  0.2367 -0.2352 -0.2895
 5676SOL    HW128487   2.485   2.166   5.377  0.5537  0.5571 -0.0046
 5676SOL    HW228488   2.627   2.134   5.346  1.3412  2.5818 -0.1744
 5677SOL     OW28489   2.533   1.383   7.274 -0.1063 -0.2710 -0.1068
 5677SOL    HW128490   2.519   1.288   7.269  0.4157 -0.2664 -1.6764
 5677SOL    HW228491   2.447   1.418   7.297  0.0813  0.7611 -1.0023
 5678SOL     OW28492   3.531   2.745   2.611  0.0192  0.5506  0.1775
 5678SOL    HW128493   3.625   2.736   2.625 -0.6548 -2.6828  2.8556
 5678SOL    HW228494   3.522   2.819   2.551  1.9281 -0.7973 -1.7571
 5679SOL     OW28495   4.254   4.496   5.214  0.5371 -0.6484 -0.6230
 5679SOL    HW128496   4.325   4.449   5.258  2.1766 -0.8058 -3.4515
 5679SOL    HW228497   4.185   4.486   5.280 -0.1445  0.1970 -1.2087
 5680SOL     OW28498   3.977   4.204   5.727  0.0115 -1.0386 -0.6322
 5680SOL    HW128499   3.943   4.202   5.816 -1.7114  0.8701 -1.2511
 5680SOL    HW228500   3.924   4.274   5.689  0.6964 -0.3967 -0.3809
 5681SOL     OW28501   3.148   3.666  14.223 -0.4556 -0.5147  0.2007
 5681SOL    HW128502   3.155   3.667  14.319  1.3158 -0.2462  0.0692
 5681SOL    HW228503   3.227   3.620  14.193  1.2335  0.3319  3.3466
 5682SOL     OW28504   4.041   3.009  16.693  0.5118  0.3069 -0.6054
 5682SOL    HW128505   4.041   3.001  16.788  1.0882 -2.0153 -0.7854
 5682SOL    HW228506   3.990   3.089  16.679  0.4516  0.5781  1.2649
 5683SOL     OW28507   3.221   2.810   3.125 -0.0009 -0.2311  0.5892
 5683SOL    HW128508   3.265   2.880   3.174 -0.0704 -0.3301  0.7887
 5683SOL    HW228509   3.289   2.743   3.128 -1.3001 -1.4664  1.9958
 5684SOL     OW28510   1.352   2.162  16.562 -0.3800 -0.2945 -0.0068
 5684SOL    HW128511   1.331   2.175  16.654 -0.9233  0.9871 -0.3022
 5684SOL    HW228512   1.267   2.132  16.530  0.4700 -1.2228 -1.4077
 5685SOL     OW28513   1.586   1.640  15.372 -0.1176 -0.3833  0.4555
 5685SOL    HW128514   1.647   1.566  15.372  0.7776  0.3670 -2.0097
 5685SOL    HW228515   1.514   1.594  15.415 -1.1640  0.8088 -0.0267
 5686SOL     OW28516   0.323   2.694   3.459  0.2732 -0.3304  0.4823
 5686SOL    HW128517   0.265   2.747   3.514 -1.2838  0.6461 -2.1138
 5686SOL    HW228518   0.404   2.707   3.509  0.3803 -1.3170  0.5556
 5687SOL     OW28519   4.364   3.244   7.015 -0.0104 -0.3143 -0.4567
 5687SOL    HW128520   4.274   3.228   7.044 -0.0033  1.1974  0.4106
 5687SOL    HW228521   4.416   3.180   7.063  0.1630  0.2432  0.1064
 5688SOL     OW28522   3.927   3.431   4.632  0.5737 -0.1659  0.2442
 5688SOL    HW128523   3.963   3.350   4.668  0.9072 -0.1306 -0.0047
 5688SOL    HW228524   3.855   3.398   4.578  0.3178  0.1318  0.4001
 5689SOL     OW28525   3.444   2.206   1.619  0.0692  0.1168 -0.4895
 5689SOL    HW128526   3.487   2.131   1.661 -0.7149 -0.1266 -0.1364
 5689SOL    HW228527   3.354   2.176   1.618 -0.1115  0.6651 -0.7426
 5690SOL     OW28528   0.351   0.703   8.730 -0.1463 -0.1472 -0.3176
 5690SOL    HW128529   0.372   0.762   8.803  1.1962  0.3913 -1.1288
 5690SOL    HW228530   0.352   0.617   8.772  1.9031 -0.4969 -1.0695
 5691SOL     OW28531   0.826   0.934   9.802  0.4953 -0.4610  0.1134
 5691SOL    HW128532   0.744   0.886   9.803 -0.4469  1.1530  0.2573
 5691SOL    HW228533   0.892   0.877   9.842  1.2182 -0.8242 -1.6004
 5692SOL     OW28534   0.990   1.027   1.581  0.2868 -0.2641 -0.1473
 5692SOL    HW128535   0.926   1.003   1.647  0.7573  0.3761  0.5452
 5692SOL    HW228536   0.948   0.982   1.508 -0.6405  0.2233  0.0822
 5693SOL     OW28537   1.081   1.786   2.749  0.0206  0.1905 -0.9048
 5693SOL    HW128538   0.999   1.802   2.795  0.0646  1.3535 -1.2476
 5693SOL    HW228539   1.098   1.859   2.689  0.2897  1.6810  1.0032
 5694SOL     OW28540   2.034   0.791   9.474  0.7180  0.1165  0.2299
 5694SOL    HW128541   2.105   0.728   9.467  1.1038  0.5202  0.5290
 5694SOL    HW228542   1.954   0.738   9.471  0.0532  1.2514 -2.3900
 5695SOL     OW28543   4.035   1.702  14.912  0.2599  0.1126 -0.1474
 5695SOL    HW128544   3.992   1.653  14.843 -1.6861  0.8584  0.5464
 5695SOL    HW228545   4.126   1.710  14.882  0.2580 -0.9466 -0.4160
 5696SOL     OW28546   3.878   2.800   5.759 -0.2218  0.0230 -0.5323
 5696SOL    HW128547   3.804   2.795   5.820 -0.0753 -1.1148 -0.4526
 5696SOL    HW228548   3.858   2.719   5.713 -1.6108 -0.0444  0.1860
 5697SOL     OW28549   1.906   3.200   2.912 -0.3087  0.8991 -0.3434
 5697SOL    HW128550   1.923   3.142   2.986  3.6304 -1.5903 -3.2307
 5697SOL    HW228551   1.991   3.197   2.869 -0.1335  3.6956 -0.2080
 5698SOL     OW28552   4.590   1.368   7.426  0.4622 -0.1157 -0.6364
 5698SOL    HW128553   4.505   1.330   7.407  0.0464  0.9278 -0.8392
 5698SOL    HW228554   4.610   1.308   7.498  0.9619  2.9279  1.7869
 5699SOL     OW28555   0.972   3.918   8.687  0.0115  0.1724 -0.0655
 5699SOL    HW128556   0.896   3.962   8.725  0.0648  0.8019 -0.6913
 5699SOL    HW228557   0.999   3.867   8.764  0.7802 -1.8541 -1.6611
 5700SOL     OW28558   0.113   0.529   3.190 -0.3206  0.6318  0.2696
 5700SOL    HW128559   0.085   0.617   3.217 -0.0004  0.7230  0.3084
 5700SOL    HW228560   0.128   0.502   3.281  0.8959 -1.7791 -0.6524
 5701SOL     OW28561   1.359   0.521   6.054  0.8805  0.6294  0.1693
 5701SOL    HW128562   1.382   0.581   6.125  1.2009  0.5529  0.1292
 5701SOL    HW228563   1.417   0.449   6.080  1.1876  1.1707  0.9769
 5702SOL     OW28564   1.505   3.189   5.003 -0.3037  0.0615  0.1392
 5702SOL    HW128565   1.504   3.151   5.091 -0.0089 -4.3876 -1.7660
 5702SOL    HW228566   1.574   3.143   4.955 -0.8974  1.1051 -1.7059
 5703SOL     OW28567   2.026   0.757   8.994 -0.5572  0.2534  0.0239
 5703SOL    HW128568   2.070   0.719   9.071  0.9001 -1.1949 -1.5239
 5703SOL    HW228569   1.939   0.720   9.009 -0.9416  1.2051  0.1362
 5704SOL     OW28570   3.542   0.103   4.661  0.8799  0.3317 -0.0846
 5704SOL    HW128571   3.522   0.102   4.754 -2.0910  0.2481 -0.7348
 5704SOL    HW228572   3.456   0.090   4.622  0.8765  0.6935 -0.2033
 5705SOL     OW28573   4.114   4.131   7.550  0.3571 -0.1249  0.0552
 5705SOL    HW128574   4.032   4.156   7.592 -0.9448 -2.2226 -1.2958
 5705SOL    HW228575   4.173   4.136   7.626  1.0697  0.9580 -0.5611
 5706SOL     OW28576   4.674   4.150   5.955 -0.3289 -0.1254 -0.4003
 5706SOL    HW128577   4.590   4.191   5.938 -0.4817 -0.4211 -0.3690
 5706SOL    HW228578   4.690   4.179   6.045  0.2329  1.2994 -0.9612
 5707SOL     OW28579   2.943   0.646   1.958  0.0794 -0.4047  0.1355
 5707SOL    HW128580   2.847   0.645   1.960  0.1186  0.0918  3.0776
 5707SOL    HW228581   2.957   0.692   1.876  1.5877  0.5891  0.9560
 5708SOL     OW28582   3.010   1.619   8.622 -0.1099 -0.3238 -0.1467
 5708SOL    HW128583   3.064   1.559   8.572 -0.5014 -1.0603  0.3191
 5708SOL    HW228584   2.953   1.560   8.671 -1.5472  0.6598 -0.6108
 5709SOL     OW28585   2.464   3.531   2.892  0.9791 -0.2067 -0.4236
 5709SOL    HW128586   2.504   3.616   2.913  0.7478 -0.7133  2.1197
 5709SOL    HW228587   2.472   3.524   2.797 -0.2117 -0.3585 -0.5120
 5710SOL     OW28588   3.855   4.362   4.457 -0.3896  0.0685 -0.3004
 5710SOL    HW128589   3.809   4.435   4.500 -0.4213 -1.5218  2.3879
 5710SOL    HW228590   3.880   4.298   4.523  0.1026 -0.0937 -0.6440
 5711SOL     OW28591   2.559   1.169   3.270  0.2368 -0.6191  0.4495
 5711SOL    HW128592   2.476   1.211   3.250  0.7670  1.1140  1.8967
 5711SOL    HW228593   2.617   1.192   3.197 -1.9127  1.9862 -0.3860
 5712SOL     OW28594   3.445   2.415   0.664 -0.4305  0.5762  0.2323
 5712SOL    HW128595   3.413   2.467   0.737 -0.1757 -1.4852  1.8152
 5712SOL    HW228596   3.424   2.331   0.705  0.2274  0.2410 -0.1104
 5713SOL     OW28597   0.329   1.118   6.664  0.2139 -0.1657 -0.3175
 5713SOL    HW128598   0.336   1.049   6.729  1.2572 -0.5501 -0.8326
 5713SOL    HW228599   0.251   1.150   6.708  0.1137 -0.7833 -0.0500
 5714SOL     OW28600   1.251   2.607   5.102 -0.2750 -0.3054  0.2827
 5714SOL    HW128601   1.163   2.643   5.107  0.3112  1.3757 -1.2065
 5714SOL    HW228602   1.260   2.558   5.183  1.0737 -2.0603 -0.9259
 5715SOL     OW28603   1.770   2.191  11.834  0.7460  0.5747  0.3335
 5715SOL    HW128604   1.710   2.256  11.870  0.3765 -0.3996  1.4653
 5715SOL    HW228605   1.789   2.226  11.747 -0.6084  0.7347  0.1085
 5716SOL     OW28606   1.643   0.109   3.172 -0.0870 -0.0208 -0.3673
 5716SOL    HW128607   1.561   0.131   3.218  0.1685  1.0359 -0.4156
 5716SOL    HW228608   1.706   0.159   3.225  0.5897  1.7006 -2.8015
 5717SOL     OW28609   1.678   4.537   9.489 -0.2374 -0.1815 -0.1914
 5717SOL    HW128610   1.587   4.504   9.492  0.6127 -2.3603  1.9498
 5717SOL    HW228611   1.672   4.622   9.532  0.8800  1.0614 -2.5107
 5718SOL     OW28612   0.740   0.093   0.162 -0.0865 -0.1320 -0.7262
 5718SOL    HW128613   0.784   0.153   0.101  0.8427  0.6786  0.7506
 5718SOL    HW228614   0.784   0.096   0.246 -0.0491  1.2122 -0.7812
 5719SOL     OW28615   2.683   4.204   2.521  0.3635  0.5646  0.3388
 5719SOL    HW128616   2.601   4.249   2.541 -1.4009 -2.0260 -1.0411
 5719SOL    HW228617   2.652   4.150   2.448  4.1632 -2.1306  0.7111
 5720SOL     OW28618   4.318   2.399   2.160  0.1005 -0.3735 -0.4085
 5720SOL    HW128619   4.288   2.434   2.244 -2.2088  0.5153 -1.5971
 5720SOL    HW228620   4.412   2.412   2.174 -0.0078 -1.4534  1.3356
 5721SOL     OW28621   0.633   4.159  10.151 -0.1809 -0.4623 -0.0800
 5721SOL    HW128622   0.592   4.191  10.070  0.7857  0.3481 -0.2537
 5721SOL    HW228623   0.704   4.223  10.159 -0.1192 -0.5786  0.2932
 5722SOL     OW28624   3.068   1.664  11.527 -0.2770 -0.1694  0.7336
 5722SOL    HW128625   3.134   1.600  11.555 -1.8375 -1.5087  1.3049
 5722SOL    HW228626   3.116   1.746  11.538  0.1872 -0.4023  0.4340
 5723SOL     OW28627   1.714   4.195   8.062 -0.0523 -0.1572 -0.9017
 5723SOL    HW128628   1.774   4.239   8.123  1.8254 -0.6355 -2.4080
 5723SOL    HW228629   1.734   4.102   8.072 -1.6040 -0.5453 -1.4674
 5724SOL     OW28630   0.576   1.936   8.791 -0.0516  0.7055 -0.6198
 5724SOL    HW128631   0.628   1.879   8.847  1.0663  2.1315 -0.2103
 5724SOL    HW228632   0.610   2.022   8.814  1.1611  0.2231 -0.6148
 5725SOL     OW28633   4.241   1.956   2.468 -0.1211  0.0269  0.3232
 5725SOL    HW128634   4.309   1.907   2.421  0.8205 -0.5388  2.2546
 5725SOL    HW228635   4.296   2.018   2.516 -0.8005  0.6353  0.3192
 5726SOL     OW28636   1.867   1.646   5.284  0.3840 -0.1581  0.0165
 5726SOL    HW128637   1.852   1.561   5.243  0.6717 -0.2065  0.0066
 5726SOL    HW228638   1.909   1.699   5.216 -0.8259 -0.6434 -1.1105
 5727SOL     OW28639   1.732   1.817   8.619 -0.1348  0.5455  0.0799
 5727SOL    HW128640   1.693   1.900   8.645  2.7725  1.8555  0.1734
 5727SOL    HW228641   1.743   1.840   8.526 -2.8248  0.2823 -0.3125
 5728SOL     OW28642   4.016   3.210   4.784 -0.6760  0.1692  0.2357
 5728SOL    HW128643   3.928   3.173   4.795 -1.0043  0.2638 -2.0276
 5728SOL    HW228644   4.070   3.131   4.778  1.2784  1.3526  2.4165
 5729SOL     OW28645   3.924   3.783   2.771  1.1152 -0.3155 -0.0137
 5729SOL    HW128646   3.877   3.784   2.687  0.5722 -1.9084  0.2765
 5729SOL    HW228647   3.907   3.695   2.805  0.0173 -0.9097 -2.1220
 5730SOL     OW28648   1.978   0.037   4.129 -0.2593  0.0710 -0.1666
 5730SOL    HW128649   1.906   4.700   4.111 -1.4082  1.6953 -0.8729
 5730SOL    HW228650   1.953   0.062   4.218 -1.3377 -1.2126 -0.1077
 5731SOL     OW28651   3.348   0.932   7.311 -0.1987 -0.2831 -0.2359
 5731SOL    HW128652   3.257   0.921   7.338  0.0140 -0.4363  0.4115
 5731SOL    HW228653   3.326   1.006   7.254 -0.6254  0.5785  1.0492
 5732SOL     OW28654   3.775   4.328   3.845  0.0967  0.3930 -0.1966
 5732SOL    HW128655   3.687   4.359   3.828  1.0689  2.1555 -2.0013
 5732SOL    HW228656   3.818   4.406   3.881  1.5185  0.9498 -3.1064
 5733SOL     OW28657   3.648   1.043   4.237  0.0486  0.2361  0.0263
 5733SOL    HW128658   3.562   1.042   4.195  0.2680 -2.2165 -0.3261
 5733SOL    HW228659   3.620   0.991   4.312  0.7727 -0.6903 -0.3578
 5734SOL     OW28660   0.033   3.188  13.957  0.3159 -0.0060  0.1047
 5734SOL    HW128661   4.704   3.183  13.878  0.7101 -1.5359 -0.0675
 5734SOL    HW228662   4.714   3.265  13.996 -0.6284  0.2563 -1.4704
 5735SOL     OW28663   1.624   1.132  12.832  0.4458 -0.5118 -0.5208
 5735SOL    HW128664   1.627   1.227  12.820  2.4453 -0.7799 -2.2621
 5735SOL    HW228665   1.543   1.121  12.781 -0.2224 -2.8162  1.0610
 5736SOL     OW28666   4.706   3.662   0.052  0.0697 -0.0513 -0.3029
 5736SOL    HW128667   4.651   3.663  17.667  0.7073  0.5409 -0.7329
 5736SOL    HW228668   0.028   3.746   0.048  0.0176  0.0460  1.1951
 5737SOL     OW28669   2.903   2.416  12.482  0.1707  0.5707 -0.0572
 5737SOL    HW128670   2.977   2.420  12.541  1.1373  2.2022 -1.3925
 5737SOL    HW228671   2.836   2.456  12.538  0.0034 -0.6725  0.6285
 5738SOL     OW28672   1.121   0.607   3.990 -0.3048 -0.1763 -0.4677
 5738SOL    HW128673   1.137   0.698   4.013 -1.4280 -0.2557  0.6059
 5738SOL    HW228674   1.214   0.581   3.989 -0.2776 -0.1007 -0.0012
 5739SOL     OW28675   1.964   2.270  16.225  0.5777  0.1607 -0.4518
 5739SOL    HW128676   1.995   2.205  16.163  1.2368 -0.1049  0.1495
 5739SOL    HW228677   1.961   2.343  16.164  0.5079 -1.4880 -2.3961
 5740SOL     OW28678   1.700   2.343  11.351  0.5607  0.1359  0.1175
 5740SOL    HW128679   1.697   2.301  11.265  2.3465  1.0270 -0.3732
 5740SOL    HW228680   1.740   2.427  11.329 -0.5321  0.1499 -1.7511
 5741SOL     OW28681   4.020   4.422  16.777  0.2320 -0.0470 -0.4246
 5741SOL    HW128682   4.044   4.442  16.868 -0.7664 -2.4299  0.3604
 5741SOL    HW228683   3.926   4.439  16.789  0.4115  0.8981 -0.4043
 5742SOL     OW28684   2.145   1.892   1.328  0.4824 -0.3357  0.2992
 5742SOL    HW128685   2.210   1.919   1.393 -0.1400 -2.3214  1.7502
 5742SOL    HW228686   2.082   1.856   1.390  0.5195 -2.3429 -0.8077
 5743SOL     OW28687   3.666   0.526  12.974  0.2711 -0.2496  0.1521
 5743SOL    HW128688   3.752   0.492  12.949  0.4230  0.7001 -0.6165
 5743SOL    HW228689   3.686   0.620  12.981 -0.9583  0.2432 -2.8946
 5744SOL     OW28690   4.372   2.821   1.704  0.1109  0.7283 -0.0453
 5744SOL    HW128691   4.413   2.890   1.757  4.2624 -0.1166 -2.1432
 5744SOL    HW228692   4.378   2.752   1.769  0.2251 -0.2061 -1.0494
 5745SOL     OW28693   4.025   0.579   7.151 -0.1898  0.6298 -0.1773
 5745SOL    HW128694   4.012   0.610   7.240  0.1332 -1.8283  0.7142
 5745SOL    HW228695   4.105   0.627   7.128 -1.0515  1.7129 -0.9114
 5746SOL     OW28696   1.048   1.796   5.457  0.3050 -0.3518  0.0623
 5746SOL    HW128697   0.982   1.864   5.445  1.2893  0.7736  1.0675
 5746SOL    HW228698   1.026   1.729   5.392 -3.6036  1.1857 -0.1995
 5747SOL     OW28699   1.506   2.447   4.213 -0.0211  0.8903 -0.1406
 5747SOL    HW128700   1.473   2.468   4.126 -0.4899 -3.4526 -1.0266
 5747SOL    HW228701   1.475   2.357   4.226  1.8922  0.0906 -1.0111
 5748SOL     OW28702   1.151   2.776   6.287  0.5562 -0.0539 -0.6714
 5748SOL    HW128703   1.200   2.801   6.208 -1.2233  3.6713 -0.6395
 5748SOL    HW228704   1.135   2.684   6.270  0.7043 -0.5036  1.6947
 5749SOL     OW28705   1.234   1.083  10.141 -0.2553 -0.1356 -0.0548
 5749SOL    HW128706   1.322   1.047  10.148  0.0832  0.9325  1.0774
 5749SOL    HW228707   1.193   1.016  10.196 -2.8579 -0.5243 -2.4198
 5750SOL     OW28708   4.360   3.939   4.754  0.7820  0.1013  0.2381
 5750SOL    HW128709   4.312   3.945   4.836 -1.8493  1.3075 -1.3907
 5750SOL    HW228710   4.333   4.019   4.707  1.0112 -1.5134 -2.6503
 5751SOL     OW28711   3.332   1.627   0.336 -0.0813  0.0535 -0.3025
 5751SOL    HW128712   3.253   1.653   0.290  0.8379  2.2409 -0.6577
 5751SOL    HW228713   3.377   1.566   0.277  0.1603  0.2779 -0.3526
 5752SOL     OW28714   2.667   0.604   7.565 -0.4400 -0.3160 -0.2565
 5752SOL    HW128715   2.661   0.524   7.512  0.5760 -0.4840 -0.1088
 5752SOL    HW228716   2.761   0.596   7.583 -0.6122 -3.3294 -0.7815
 5753SOL     OW28717   4.223   3.020  11.416 -0.3914 -0.7627 -1.1489
 5753SOL    HW128718   4.146   3.010  11.473 -1.5710 -0.3598 -2.6687
 5753SOL    HW228719   4.177   3.043  11.335 -3.2933  2.9547  1.4986
 5754SOL     OW28720   0.755   3.614   8.055 -0.4044 -0.4370  0.0854
 5754SOL    HW128721   0.833   3.660   8.022  0.4569 -0.8432  1.5692
 5754SOL    HW228722   0.779   3.608   8.147 -0.8766 -4.5584 -0.0792
 5755SOL     OW28723   1.412   1.182  12.647  0.3983 -0.1784 -0.2640
 5755SOL    HW128724   1.334   1.224  12.684  0.5489 -1.3681  1.3986
 5755SOL    HW228725   1.419   1.235  12.568  0.9198 -0.4598 -0.4033
 5756SOL     OW28726   3.084   4.110   0.380 -0.2725 -0.0361  0.4531
 5756SOL    HW128727   3.068   4.030   0.329 -0.9458 -0.5394  1.4561
 5756SOL    HW228728   3.171   4.091   0.416 -0.1391 -0.0721  0.1096
 5757SOL     OW28729   1.290   3.842   6.052 -0.6213 -0.5074 -0.3369
 5757SOL    HW128730   1.344   3.799   5.986  0.1048  0.1477 -0.1835
 5757SOL    HW228731   1.317   3.934   6.052  1.2028 -1.0443  1.1485
 5758SOL     OW28732   4.088   1.686   5.740  0.4526  0.6525 -0.1897
 5758SOL    HW128733   4.062   1.595   5.754 -3.7851  1.9517  0.4792
 5758SOL    HW228734   4.010   1.731   5.706 -1.3890 -2.4189 -0.0451
 5759SOL     OW28735   1.812   2.723   7.927  0.1996 -0.0552 -0.5428
 5759SOL    HW128736   1.798   2.773   8.007 -1.8480 -1.0812 -0.2527
 5759SOL    HW228737   1.899   2.693   7.954 -0.1510 -0.0895  0.5523
 5760SOL     OW28738   0.537   3.450  13.173 -0.2760  0.8305  0.5721
 5760SOL    HW128739   0.540   3.445  13.268  1.9800 -1.3200  0.4071
 5760SOL    HW228740   0.585   3.532  13.162  1.5227 -0.6078 -2.6454
 5761SOL     OW28741   2.998   4.348   7.443 -0.7991  0.1817 -0.3569
 5761SOL    HW128742   3.087   4.355   7.407 -0.4636 -0.6854  0.2892
 5761SOL    HW228743   3.019   4.328   7.535  3.8014 -0.2885 -1.4998
 5762SOL     OW28744   2.653   1.899   4.527 -0.2536 -0.0004 -0.6316
 5762SOL    HW128745   2.569   1.913   4.484  0.7444  0.4411 -2.4305
 5762SOL    HW228746   2.644   1.948   4.608 -1.9392 -1.0948 -0.1574
 5763SOL     OW28747   2.554   4.212   3.259  0.1020 -0.0692  0.1337
 5763SOL    HW128748   2.574   4.161   3.338  0.8307 -0.0519 -0.0414
 5763SOL    HW228749   2.563   4.151   3.186 -0.9612  0.3770 -0.3667
 5764SOL     OW28750   1.806   4.485   3.457  0.2214  0.1553 -0.3361
 5764SOL    HW128751   1.875   4.493   3.523  0.8696  2.6677 -1.2988
 5764SOL    HW228752   1.843   4.415   3.405 -1.6149 -1.9062  1.1489
 5765SOL     OW28753   1.095   3.571   8.643 -0.2672 -0.2446  0.3024
 5765SOL    HW128754   1.076   3.602   8.732 -0.9895  0.7362 -0.1994
 5765SOL    HW228755   1.082   3.648   8.588 -2.1344 -1.6591 -1.2358
 5766SOL     OW28756   1.108   3.471   9.714 -0.2484  0.6023  0.0718
 5766SOL    HW128757   1.190   3.498   9.756  1.0484 -1.8108 -0.9427
 5766SOL    HW228758   1.060   3.551   9.694  1.2899  1.0659 -1.7783
 5767SOL     OW28759   1.235   0.676   6.346  0.3957  0.0828 -0.1041
 5767SOL    HW128760   1.182   0.675   6.267 -0.5092 -3.0148  0.5494
 5767SOL    HW228761   1.318   0.712   6.312  0.9283 -0.8566  0.1966
 5768SOL     OW28762   2.341   3.761  14.397  0.2988 -0.6471 -0.1137
 5768SOL    HW128763   2.344   3.748  14.303 -0.0476 -4.6196  0.4142
 5768SOL    HW228764   2.419   3.718  14.432  0.9924 -0.7738 -1.8512
 5769SOL     OW28765   2.032   3.079   3.324 -0.1192  0.9407 -0.4323
 5769SOL    HW128766   1.974   3.041   3.257 -0.4207 -0.4417  0.5959
 5769SOL    HW228767   2.019   3.173   3.318  1.2332  1.0470 -1.5538
 5770SOL     OW28768   1.508   4.614   1.219  0.2434 -0.1709  0.3572
 5770SOL    HW128769   1.576   4.680   1.206  0.0679  0.2953  1.7032
 5770SOL    HW228770   1.460   4.607   1.137 -0.0720  0.7085  0.4655
 5771SOL     OW28771   2.764   0.055   0.980 -0.1681  0.4685  0.2279
 5771SOL    HW128772   2.767   4.683   0.966 -2.8469  0.6048 -1.3188
 5771SOL    HW228773   2.672   0.073   1.002 -0.8385  0.1330 -2.2865
 5772SOL     OW28774   1.967   2.491   8.304 -0.0352  0.1945  0.0580
 5772SOL    HW128775   1.875   2.489   8.276 -0.3031 -1.1198  1.0779
 5772SOL    HW228776   2.004   2.412   8.266  1.4594  1.9607 -2.1813
 5773SOL     OW28777   1.855   2.014  10.002  0.0262 -0.1350  0.4456
 5773SOL    HW128778   1.858   2.050   9.913 -0.3882 -1.8368 -0.2535
 5773SOL    HW228779   1.860   1.921   9.982  1.5391  0.1913 -0.7816
 5774SOL     OW28780   2.239   4.650  17.386  0.1674 -0.1325  0.2956
 5774SOL    HW128781   2.207   4.708  17.316 -0.1635 -1.2764 -0.5022
 5774SOL    HW228782   2.175   4.656  17.457 -0.0077 -1.0425  0.2125
 5775SOL     OW28783   4.400   0.943   9.216  0.0670  0.6939  0.7908
 5775SOL    HW128784   4.439   0.966   9.131 -0.3636  1.7316  0.8824
 5775SOL    HW228785   4.325   0.898   9.178  1.9556 -0.7500 -1.2215
 5776SOL     OW28786   4.624   0.845   4.271 -0.0210 -0.0869  0.4889
 5776SOL    HW128787   4.578   0.862   4.188  0.4676  1.1370  0.4630
 5776SOL    HW228788   4.570   0.772   4.302 -0.8598  1.0260  1.6330
 5777SOL     OW28789   4.508   1.267   0.244 -0.6654  0.7285 -0.0098
 5777SOL    HW128790   4.478   1.286   0.156  0.6961  0.3210 -0.5708
 5777SOL    HW228791   4.580   1.210   0.217 -0.4903  0.7400  0.4244
 5778SOL     OW28792   3.554   2.592   3.405  0.2161 -0.5229  0.3878
 5778SOL    HW128793   3.623   2.654   3.381 -0.1419 -1.3887 -2.9047
 5778SOL    HW228794   3.530   2.634   3.487 -0.8073  2.7066 -1.5784
 5779SOL     OW28795   1.785   1.524   7.097 -0.0838  0.6452  0.0914
 5779SOL    HW128796   1.764   1.536   7.190  1.1171  0.0310  0.4388
 5779SOL    HW228797   1.764   1.432   7.081 -1.2531  1.2330 -1.7017
 5780SOL     OW28798   3.471   0.406   8.252  0.0825 -0.0112 -0.7693
 5780SOL    HW128799   3.499   0.402   8.343  1.9356  2.2424 -1.2421
 5780SOL    HW228800   3.524   0.339   8.210  1.6446 -0.0922  1.3397
 5781SOL     OW28801   1.031   0.983  13.517 -0.5877  0.3551  0.1047
 5781SOL    HW128802   1.082   1.059  13.491 -0.0622 -1.0911 -3.0894
 5781SOL    HW228803   1.092   0.920  13.555  0.5639  0.3416 -1.7537
 5782SOL     OW28804   1.854   0.296   4.087 -0.2228 -0.3075  0.0109
 5782SOL    HW128805   1.774   0.280   4.138 -1.4273  5.2952 -0.0954
 5782SOL    HW228806   1.912   0.230   4.124 -0.0139  0.2230  0.6240
 5783SOL     OW28807   1.321   0.451  13.125 -0.4457 -0.1166  0.4941
 5783SOL    HW128808   1.301   0.357  13.122 -1.6118  0.1042  1.4403
 5783SOL    HW228809   1.416   0.465  13.120 -0.6924  1.2439 -0.2742
 5784SOL     OW28810   4.696   3.477   7.877  0.4162  0.2684  0.2490
 5784SOL    HW128811   4.606   3.472   7.844  0.4002 -0.6647  0.4580
 5784SOL    HW228812   0.026   3.500   7.801 -0.5646  0.2040 -0.4600
 5785SOL     OW28813   1.618   1.051   6.439  0.0221 -0.0504 -0.1988
 5785SOL    HW128814   1.636   0.993   6.364  0.5597 -1.2214  0.8384
 5785SOL    HW228815   1.646   1.009   6.520 -2.1894 -0.0671  0.5474
 5786SOL     OW28816   4.101   1.938   6.749  0.2773  0.1877 -0.3299
 5786SOL    HW128817   4.181   1.979   6.716 -0.6969 -1.0010 -4.1205
 5786SOL    HW228818   4.136   1.858   6.789  3.1811  1.4491 -0.3316
 5787SOL     OW28819   0.212   2.988   5.068  0.1223 -0.2395  0.3701
 5787SOL    HW128820   0.245   2.989   5.158 -1.1622 -1.1999  0.8523
 5787SOL    HW228821   0.135   2.933   5.086 -2.4701  2.3757 -2.6000
 5788SOL     OW28822   0.519   0.779   3.958 -0.1337  0.0794 -0.5378
 5788SOL    HW128823   0.569   0.829   3.893  4.7409  0.5721  3.6020
 5788SOL    HW228824   0.448   0.739   3.908 -0.7316  1.2435 -0.6205
 5789SOL     OW28825   0.614   3.108   1.078 -0.1340 -0.8692 -0.1967
 5789SOL    HW128826   0.577   3.061   1.153 -0.2587  1.4073  1.1684
 5789SOL    HW228827   0.542   3.158   1.041  0.9785  0.9398  0.1133
 5790SOL     OW28828   2.792   4.372  10.262 -0.0719 -0.1052  0.8285
 5790SOL    HW128829   2.876   4.406  10.232  0.4514 -1.6630  0.5258
 5790SOL    HW228830   2.764   4.325  10.183  3.2843 -1.0653  0.2102
 5791SOL     OW28831   2.345   0.299  16.922  0.2141 -0.6249 -0.2339
 5791SOL    HW128832   2.274   0.362  16.913 -0.7965 -1.4177  2.2129
 5791SOL    HW228833   2.388   0.321  17.004  0.8893  0.0004 -0.7598
 5792SOL     OW28834   1.952   2.523  15.847 -0.8545 -0.3977  0.6093
 5792SOL    HW128835   1.904   2.578  15.785  1.4951  1.7554  0.7089
 5792SOL    HW228836   1.998   2.459  15.794 -1.3897  0.9961 -1.5365
 5793SOL     OW28837   4.249   4.645   2.224 -0.5038 -0.1807 -0.2890
 5793SOL    HW128838   4.219   0.012   2.238 -2.1426 -0.5767 -1.2316
 5793SOL    HW228839   4.319   4.626   2.287  0.7756 -0.2281 -1.7481
 5794SOL     OW28840   2.214   2.231  13.585 -0.5923  0.0791 -0.2910
 5794SOL    HW128841   2.141   2.276  13.626 -1.1324 -0.1919 -0.9558
 5794SOL    HW228842   2.263   2.309  13.559 -1.4516  1.0279  0.9530
 5795SOL     OW28843   1.757   4.702   6.792 -0.0382  0.0021  0.0247
 5795SOL    HW128844   1.705   4.675   6.716 -0.7635  2.3999 -0.3488
 5795SOL    HW228845   1.706   4.694   6.872 -1.5299  0.1484 -0.9166
 5796SOL     OW28846   1.421   2.779   0.725  0.0728  0.2973 -0.6076
 5796SOL    HW128847   1.332   2.804   0.751  0.3433  0.5540  0.0799
 5796SOL    HW228848   1.443   2.844   0.658  1.8234  1.3798  1.0236
 5797SOL     OW28849   4.545   3.486   9.457  0.5522 -0.3872  0.5167
 5797SOL    HW128850   4.614   3.455   9.516  0.9294 -2.3056 -0.8950
 5797SOL    HW228851   4.538   3.417   9.391  1.2302 -0.3051  0.3617
 5798SOL     OW28852   0.896   3.282  12.514  0.5839  0.2739 -0.2664
 5798SOL    HW128853   0.953   3.227  12.568 -1.7280 -3.3941 -1.5378
 5798SOL    HW228854   0.812   3.282  12.561  1.0692 -1.0489  0.6085
 5799SOL     OW28855   4.397   3.184  10.513  0.3025 -0.5734  0.7631
 5799SOL    HW128856   4.311   3.224  10.501  0.3936 -0.7652 -0.5729
 5799SOL    HW228857   4.404   3.170  10.607 -2.5039  1.0378  1.2010
 5800SOL     OW28858   2.833   3.465   4.707 -0.5629  0.3353 -0.6210
 5800SOL    HW128859   2.905   3.435   4.652  0.6348 -0.0473  1.1718
 5800SOL    HW228860   2.764   3.444   4.643 -0.0586 -1.8256 -0.4789
 5801SOL     OW28861   3.030   3.486   3.918  0.3875 -0.0766 -0.3385
 5801SOL    HW128862   2.969   3.509   3.848 -1.0914  1.5096  1.4506
 5801SOL    HW228863   3.080   3.567   3.928  0.6478 -0.4641  1.4608
 5802SOL     OW28864   2.040   0.604   4.664  0.3008  0.4012 -0.3256
 5802SOL    HW128865   2.089   0.618   4.745 -1.4979  0.5612  0.7230
 5802SOL    HW228866   2.064   0.515   4.639  2.2377  0.2464  2.1654
 5803SOL     OW28867   4.030   2.103   2.020 -0.2236 -0.2856  0.7746
 5803SOL    HW128868   4.054   2.097   2.113  2.1227 -0.1161  0.1729
 5803SOL    HW228869   4.079   2.176   1.983 -1.2052  0.4355  0.8934
 5804SOL     OW28870   3.160   1.680   9.719 -0.1957  0.8657 -0.8939
 5804SOL    HW128871   3.235   1.738   9.727  0.2144 -0.0158  1.5177
 5804SOL    HW228872   3.144   1.699   9.627  1.0961  1.2717 -1.0299
 5805SOL     OW28873   1.145   1.976   4.564 -0.3289  0.4377  0.6277
 5805SOL    HW128874   1.139   1.930   4.479  0.1218 -1.1544  1.4531
 5805SOL    HW228875   1.156   2.064   4.529  0.9441  0.1262  0.2450
 5806SOL     OW28876   2.748   1.246   5.364  0.1830 -0.0195 -0.2728
 5806SOL    HW128877   2.766   1.185   5.292 -0.6817 -1.0207  0.3597
 5806SOL    HW228878   2.714   1.187   5.431 -0.1477  0.6318  0.1307
 5807SOL     OW28879   2.973   1.176   2.213 -0.1913  0.0744  0.6629
 5807SOL    HW128880   3.035   1.144   2.279  0.0956 -0.0421  0.3384
 5807SOL    HW228881   2.967   1.097   2.160 -1.4692 -0.4423  1.5830
 5808SOL     OW28882   4.183   3.662  15.624 -0.0313  0.1537 -0.0750
 5808SOL    HW128883   4.102   3.639  15.577  0.2157  0.7594 -0.7910
 5808SOL    HW228884   4.174   3.756  15.612 -1.7545  0.3034  2.4590
 5809SOL     OW28885   3.543   1.001   2.681 -0.5759 -0.1597 -0.3475
 5809SOL    HW128886   3.596   1.060   2.735 -1.4185 -1.7310  2.1994
 5809SOL    HW228887   3.616   0.966   2.628  0.2006  0.8802  0.0412
 5810SOL     OW28888   2.838   0.807   5.907 -0.6050 -0.6608  0.3236
 5810SOL    HW128889   2.871   0.850   5.828 -0.0464 -1.9462 -0.1346
 5810SOL    HW228890   2.919   0.791   5.955  0.1637  1.9894 -0.1049
 5811SOL     OW28891   3.676   4.636  15.136  0.1768  0.2888  0.0890
 5811SOL    HW128892   3.614   4.580  15.090  2.7089 -2.4784  0.0588
 5811SOL    HW228893   3.630   4.720  15.135  0.4197  0.4271  0.7583
 5812SOL     OW28894   3.038   4.639   2.222  0.1482 -0.1290  0.0492
 5812SOL    HW128895   3.065   4.549   2.241 -0.2784  0.1112  1.7702
 5812SOL    HW228896   3.122   4.683   2.207 -0.0784  0.1411 -0.4339
 5813SOL     OW28897   3.535   3.106   4.225  0.1372 -0.3392 -0.4511
 5813SOL    HW128898   3.541   3.199   4.203 -0.5204  0.0895  1.1570
 5813SOL    HW228899   3.542   3.091   4.319  0.6147 -0.6333 -0.5356
 5814SOL     OW28900   3.024   3.949   6.599  0.6264 -0.2680 -0.0264
 5814SOL    HW128901   3.065   3.947   6.685  1.0486 -0.2496 -0.2262
 5814SOL    HW228902   2.944   4.000   6.607  0.4227 -1.0317  2.9068
 5815SOL     OW28903   2.404   2.672   8.406  0.2086  0.4690 -0.4397
 5815SOL    HW128904   2.468   2.624   8.458  0.5637 -1.2312 -2.4803
 5815SOL    HW228905   2.435   2.762   8.404  1.6034 -0.0024  0.4369
 5816SOL     OW28906   1.886   4.119   9.888 -0.3093  0.0650 -0.0719
 5816SOL    HW128907   1.953   4.187   9.895 -0.9995  0.5958  1.3357
 5816SOL    HW228908   1.818   4.148   9.828 -2.2803 -2.2725  1.0181
 5817SOL     OW28909   2.080   3.901   4.470 -0.4961  0.6869 -0.0308
 5817SOL    HW128910   2.021   3.952   4.526 -0.9781  0.7203 -0.5686
 5817SOL    HW228911   2.045   3.814   4.491 -1.1013  0.8598 -0.3174
 5818SOL     OW28912   3.195   2.946   9.587  0.0553  0.0584 -0.0529
 5818SOL    HW128913   3.183   2.946   9.682  1.9019  3.4919  0.1773
 5818SOL    HW228914   3.277   2.987   9.562  0.4102 -0.1914  0.7138
 5819SOL     OW28915   4.337   1.378   3.093  0.3956  0.0140 -0.1223
 5819SOL    HW128916   4.379   1.299   3.061 -0.7055  0.2482 -2.0957
 5819SOL    HW228917   4.244   1.356   3.098  0.4333 -0.2564 -0.7074
 5820SOL     OW28918   4.056   2.806  10.783 -0.1590  0.4899  0.1530
 5820SOL    HW128919   4.132   2.816  10.840 -0.5736 -0.0679  0.8024
 5820SOL    HW228920   4.049   2.711  10.789 -1.5132  0.3268 -3.6661
 5821SOL     OW28921   3.807   0.836   5.461 -0.3579 -0.3363  0.3585
 5821SOL    HW128922   3.749   0.904   5.428  0.2671  0.1713  0.2987
 5821SOL    HW228923   3.850   0.804   5.382  4.6521 -0.2982  3.0535
 5822SOL     OW28924   1.392   0.385  14.889  0.2382  0.0125 -0.2733
 5822SOL    HW128925   1.298   0.372  14.903 -0.0704  0.4420 -1.9887
 5822SOL    HW228926   1.418   0.445  14.960  0.4186  1.0953 -1.2545
 5823SOL     OW28927   3.762   4.005   5.709 -0.2396 -0.2312 -0.2709
 5823SOL    HW128928   3.818   4.052   5.770 -2.2858  0.1615  1.2841
 5823SOL    HW228929   3.822   3.990   5.635 -0.7593  1.3769 -1.0211
 5824SOL     OW28930   4.642   2.575   5.335  0.6625 -0.4173 -0.2597
 5824SOL    HW128931   4.641   2.536   5.248 -2.0788  2.6696 -1.6485
 5824SOL    HW228932   4.668   2.502   5.391  0.0738 -1.2455 -1.0738
 5825SOL     OW28933   2.779   3.430   5.417  0.7013  0.2938  0.1168
 5825SOL    HW128934   2.819   3.484   5.349  0.8003  1.7253  1.2880
 5825SOL    HW228935   2.844   3.436   5.487 -0.8772  0.3588  1.5659
 5826SOL     OW28936   2.546   2.758   5.453 -0.5004 -0.5887 -0.0334
 5826SOL    HW128937   2.625   2.707   5.469  1.2824  2.8460  2.2523
 5826SOL    HW228938   2.570   2.789   5.366 -0.2199 -1.2464 -0.1854
 5827SOL     OW28939   3.197   4.505   5.402 -0.4451 -0.1498 -0.4198
 5827SOL    HW128940   3.289   4.513   5.379 -0.1816 -1.6007  0.0857
 5827SOL    HW228941   3.199   4.524   5.496 -2.1468  1.5564 -0.7335
 5828SOL     OW28942   2.361   3.460   5.231  0.8050 -0.4076  0.0024
 5828SOL    HW128943   2.317   3.376   5.248  0.8056  0.2613  3.3619
 5828SOL    HW228944   2.436   3.443   5.288  0.8177  3.2380  1.0481
 5829SOL     OW28945   3.801   1.791   2.942 -0.4656  0.1995  0.1994
 5829SOL    HW128946   3.805   1.753   3.029  1.4617  0.3561  0.1829
 5829SOL    HW228947   3.748   1.717   2.914  1.9966 -0.9959 -1.2250
 5830SOL     OW28948   0.548   0.602  16.847 -0.1238  0.0037 -0.7641
 5830SOL    HW128949   0.503   0.571  16.768  0.1185 -1.0753 -0.4682
 5830SOL    HW228950   0.564   0.515  16.884 -1.9945  0.2854  0.6907
 5831SOL     OW28951   2.842   3.582  11.070 -0.0203  0.0718 -0.0542
 5831SOL    HW128952   2.906   3.544  11.009  1.4755  1.3784  0.6764
 5831SOL    HW228953   2.808   3.660  11.025 -1.3041 -0.1071  0.6197
 5832SOL     OW28954   3.648   1.638  14.912  0.0973  0.0175 -0.2099
 5832SOL    HW128955   3.615   1.711  14.859 -1.3633 -1.4941 -1.3913
 5832SOL    HW228956   3.712   1.595  14.855 -0.0938 -0.8721  0.2562
 5833SOL     OW28957   1.801   2.430   4.303 -0.3848 -0.4671 -0.0185
 5833SOL    HW128958   1.784   2.502   4.364  0.0718  1.3997 -2.0821
 5833SOL    HW228959   1.715   2.390   4.293 -1.4959  2.1458 -1.1467
 5834SOL     OW28960   0.453   0.138  14.266 -0.1037  0.2271  0.3030
 5834SOL    HW128961   0.461   0.230  14.240 -0.3749  0.0402 -0.4358
 5834SOL    HW228962   0.368   0.128  14.309 -0.5392  1.7829 -0.1822
 5835SOL     OW28963   3.791   2.711   5.109 -0.1379 -0.1001  0.5215
 5835SOL    HW128964   3.841   2.632   5.091  0.9773  0.6736  0.1772
 5835SOL    HW228965   3.841   2.771   5.053 -1.8435 -0.2972 -1.1928
 5836SOL     OW28966   1.988   3.351  15.535  0.5839  0.3084  0.4170
 5836SOL    HW128967   2.071   3.310  15.509  0.1417  0.3169 -0.9988
 5836SOL    HW228968   2.003   3.431  15.484  1.9065 -0.4042 -0.3173
 5837SOL     OW28969   2.085   1.352   6.443 -0.2492  0.0384  0.4525
 5837SOL    HW128970   1.994   1.327   6.424 -0.2959  1.0431 -0.6117
 5837SOL    HW228971   2.084   1.357   6.538 -0.9387 -2.3850  0.5909
 5838SOL     OW28972   2.651   1.358   0.293 -0.1896 -0.7044  0.1188
 5838SOL    HW128973   2.690   1.445   0.293  2.7832 -2.0146 -1.0575
 5838SOL    HW228974   2.557   1.367   0.305  0.3913  3.0989  1.6105
 5839SOL     OW28975   1.935   2.354  13.635  0.1935  0.8205 -0.3521
 5839SOL    HW128976   1.878   2.351  13.558  1.7515 -1.4514 -1.4078
 5839SOL    HW228977   1.884   2.357  13.716  2.0450 -0.4370  0.8690
 5840SOL     OW28978   1.992   4.382   2.702  0.0032 -0.0580 -0.3163
 5840SOL    HW128979   2.013   4.383   2.608  0.9181  0.3702 -0.1042
 5840SOL    HW228980   1.903   4.415   2.709  0.2010  0.0288  1.6314
 5841SOL     OW28981   3.283   3.026  15.091 -0.3316  0.4264 -0.3325
 5841SOL    HW128982   3.274   3.120  15.079  0.8643  0.5258 -0.4314
 5841SOL    HW228983   3.214   2.996  15.032  1.0383 -3.0162 -0.1906
 5842SOL     OW28984   4.406   1.646  15.561 -0.4947 -0.7337 -0.5672
 5842SOL    HW128985   4.392   1.661  15.467  0.8926 -4.0548 -1.2949
 5842SOL    HW228986   4.357   1.719  15.600  2.6095  1.5934 -0.9913
 5843SOL     OW28987   3.694   3.044   1.767  0.0847 -0.6613 -0.2422
 5843SOL    HW128988   3.692   2.949   1.780 -2.8650 -0.5834 -0.1005
 5843SOL    HW228989   3.787   3.051   1.747  0.4678 -0.1106  1.7357
 5844SOL     OW28990   3.844   0.814   8.483  0.0001  0.1150 -0.0859
 5844SOL    HW128991   3.919   0.840   8.537 -0.3724  0.3100  0.3347
 5844SOL    HW228992   3.883   0.786   8.400 -2.7309 -0.3063 -1.2399
 5845SOL     OW28993   1.243   4.508   6.482  0.0212  0.0815  0.0665
 5845SOL    HW128994   1.163   4.457   6.469 -0.4126  0.6960  0.3006
 5845SOL    HW228995   1.227   4.549   6.567 -1.2801 -0.8634  0.2782
 5846SOL     OW28996   1.777   0.684   9.418 -0.5697 -0.1002  0.0214
 5846SOL    HW128997   1.741   0.657   9.503 -1.3270 -1.4495 -0.7322
 5846SOL    HW228998   1.761   0.777   9.433  0.5521 -0.1895  1.8753
 5847SOL     OW28999   1.452   0.874   9.584  0.1842 -0.1568 -0.1171
 5847SOL    HW129000   1.543   0.896   9.564 -0.1036  1.0064 -0.1512
 5847SOL    HW229001   1.412   0.959   9.564  0.7029  0.3061  0.8196
 5848SOL     OW29002   1.108   0.833   8.344  0.2899  0.2081 -0.0623
 5848SOL    HW129003   1.144   0.789   8.267  0.2519 -0.3897  0.2625
 5848SOL    HW229004   1.093   0.920   8.307 -0.6695 -0.7692 -1.9809
 5849SOL     OW29005   1.485   0.261   1.042  0.1682 -0.0643  0.0457
 5849SOL    HW129006   1.559   0.241   0.984  0.2551  1.7859 -0.5062
 5849SOL    HW229007   1.418   0.221   0.986 -0.8081  2.1104 -0.3667
 5850SOL     OW29008   2.103   0.687   5.543 -0.2498  0.0882  0.1805
 5850SOL    HW129009   2.180   0.696   5.488 -0.0542 -0.6246  0.3378
 5850SOL    HW229010   2.061   0.773   5.533 -0.4802 -0.1434 -0.8083
 5851SOL     OW29011   0.600   4.559   3.608  0.0174 -0.4488 -0.5803
 5851SOL    HW129012   0.652   4.530   3.683  0.5850 -1.3566 -1.3184
 5851SOL    HW229013   0.653   4.638   3.596  0.4165 -0.9695 -2.3811
 5852SOL     OW29014   2.937   0.295   8.341  0.0729 -0.3914  0.3883
 5852SOL    HW129015   3.022   0.333   8.318  0.6890 -2.6946 -1.1206
 5852SOL    HW229016   2.971   0.206   8.355 -0.8798 -0.5398  1.8148
 5853SOL     OW29017   0.148   1.298  15.800 -0.6826  0.4322  0.1879
 5853SOL    HW129018   0.161   1.360  15.728 -2.0352 -1.3304 -1.5486
 5853SOL    HW229019   0.085   1.233  15.771 -0.7818  2.0362 -3.2170
 5854SOL     OW29020   4.272   1.357  11.750 -0.3779 -0.7373  0.3792
 5854SOL    HW129021   4.341   1.337  11.686 -1.7201 -1.5076 -0.8357
 5854SOL    HW229022   4.298   1.307  11.826  0.5193  0.5698  0.9294
 5855SOL     OW29023   2.888   2.973   8.412  0.2226 -0.2561 -0.4325
 5855SOL    HW129024   2.965   2.918   8.400  1.7016  2.2656 -2.5144
 5855SOL    HW229025   2.823   2.907   8.439 -1.8051 -0.0096 -4.5849
 5856SOL     OW29026   2.404   0.659   5.465  0.2071 -0.1273  0.0793
 5856SOL    HW129027   2.399   0.568   5.494  0.7062  0.1527  1.0661
 5856SOL    HW229028   2.462   0.688   5.535  1.9647 -1.3607 -0.8774
 5857SOL     OW29029   0.675   0.945   2.519  0.4353  0.0792 -1.0094
 5857SOL    HW129030   0.661   1.010   2.587  2.2285 -0.1284 -0.4187
 5857SOL    HW229031   0.633   0.868   2.557  0.0615 -0.3391 -2.2572
 5858SOL     OW29032   3.733   2.511   4.347  0.2126 -0.8048  0.6491
 5858SOL    HW129033   3.694   2.598   4.340 -1.2434 -1.5126  0.2059
 5858SOL    HW229034   3.674   2.457   4.296  1.6054 -3.1979  1.5232
 5859SOL     OW29035   2.734   2.630   6.092  0.1198  0.3875  0.4115
 5859SOL    HW129036   2.699   2.561   6.148  1.3072  0.1904  0.9176
 5859SOL    HW229037   2.654   2.681   6.083  0.4433  0.8207 -0.0199
 5860SOL     OW29038   3.003   0.495   7.125 -0.7576  0.4961 -0.3510
 5860SOL    HW129039   3.000   0.402   7.151  0.5364  0.3818 -0.6130
 5860SOL    HW229040   3.034   0.473   7.037  0.4198  1.1708 -0.0956
 5861SOL     OW29041   4.224   1.871  10.114  0.2867 -0.1185 -0.4435
 5861SOL    HW129042   4.225   1.967  10.110 -0.3126 -0.0428  1.2054
 5861SOL    HW229043   4.132   1.847  10.113  0.6293 -1.6049  3.5281
 5862SOL     OW29044   3.987   2.117   9.875  0.8830 -0.1445  0.5954
 5862SOL    HW129045   4.040   2.107   9.796 -1.9488 -1.6095 -1.1185
 5862SOL    HW229046   3.968   2.026   9.899  1.6592 -0.1837  1.0697
 5863SOL     OW29047   3.540   3.840   5.737 -0.9113 -0.0295 -0.2598
 5863SOL    HW129048   3.605   3.909   5.722 -1.4258  0.4256 -0.4084
 5863SOL    HW229049   3.535   3.809   5.646 -4.6893  0.0738 -0.0848
 5864SOL     OW29050   0.050   2.590   4.566 -0.1069 -0.2718 -0.7269
 5864SOL    HW129051   0.096   2.668   4.598 -2.1389 -0.5757  2.9038
 5864SOL    HW229052   0.113   2.519   4.583  1.2683  0.8021 -1.3384
 5865SOL     OW29053   1.373   3.858   5.311  0.4559 -0.6616  0.3073
 5865SOL    HW129054   1.279   3.847   5.320  0.6376 -1.8104  0.8083
 5865SOL    HW229055   1.400   3.914   5.384  2.9254 -0.2332 -0.9125
 5866SOL     OW29056   2.749   1.433   4.784  0.0567  0.2416 -0.5802
 5866SOL    HW129057   2.762   1.522   4.751  2.5822  0.2356  0.3736
 5866SOL    HW229058   2.683   1.447   4.851 -0.9792 -1.3243 -1.2696
 5867SOL     OW29059   1.495   0.169   6.957 -0.5906 -0.2050 -0.2382
 5867SOL    HW129060   1.426   0.152   6.891 -2.0798  1.7470  0.8295
 5867SOL    HW229061   1.542   0.089   6.980 -0.5050 -0.3943 -1.0449
 5868SOL     OW29062   0.313   0.140   5.698 -0.7477 -0.2622  0.2295
 5868SOL    HW129063   0.387   0.086   5.725  1.8733  3.1841  0.0171
 5868SOL    HW229064   0.289   0.094   5.618  1.2240 -0.2001 -0.4190
 5869SOL     OW29065   4.175   0.122   7.640  0.1144 -0.0156 -0.1446
 5869SOL    HW129066   4.152   0.034   7.611 -1.3100 -0.1987  1.5446
 5869SOL    HW229067   4.256   0.148   7.595 -0.9875  2.8107 -0.4784
 5870SOL     OW29068   0.692   3.771   9.004 -0.2666  0.2797  0.2101
 5870SOL    HW129069   0.644   3.717   9.066  1.0220 -2.0979 -0.8504
 5870SOL    HW229070   0.630   3.843   8.992 -2.0044 -1.3098 -0.3685
 5871SOL     OW29071   4.015   2.986  11.593  0.1169 -0.0494 -0.0441
 5871SOL    HW129072   4.002   3.040  11.671  0.0871 -0.3448  0.1557
 5871SOL    HW229073   3.967   2.908  11.620  3.0163 -2.8504 -2.8541
 5872SOL     OW29074   3.295   2.380   6.855 -0.2200  0.6362  0.0188
 5872SOL    HW129075   3.329   2.364   6.943  2.6909  0.1098 -1.2013
 5872SOL    HW229076   3.372   2.422   6.816  1.1446 -0.8596  1.0562
 5873SOL     OW29077   4.132   1.649   1.566 -0.3129 -0.1700 -0.6618
 5873SOL    HW129078   4.194   1.656   1.493 -0.3873 -2.3673 -0.9385
 5873SOL    HW229079   4.049   1.613   1.534 -0.4358  0.3760 -0.9590
 5874SOL     OW29080   1.270   3.151   0.845  0.0027  0.5800 -0.2733
 5874SOL    HW129081   1.195   3.181   0.895  1.3226  0.7793  1.5629
 5874SOL    HW229082   1.239   3.075   0.794  0.2667  1.0368 -1.1125
 5875SOL     OW29083   4.532   1.893   8.227  0.2988 -0.4027  0.3345
 5875SOL    HW129084   4.483   1.947   8.289 -0.1807 -0.0232 -0.3830
 5875SOL    HW229085   4.611   1.947   8.226  0.0932 -0.1186 -0.1899
 5876SOL     OW29086   1.999   2.344   6.633 -0.4157 -0.1100 -0.8676
 5876SOL    HW129087   2.049   2.381   6.705 -1.6263 -0.5736  0.2082
 5876SOL    HW229088   1.911   2.372   6.658  0.8675  1.7932  1.4172
 5877SOL     OW29089   3.126   3.041  10.470 -0.0390 -0.3350  0.0203
 5877SOL    HW129090   3.196   3.106  10.473 -0.0807 -0.3336  0.7875
 5877SOL    HW229091   3.097   3.023  10.559  1.8994 -0.0371  0.7156
 5878SOL     OW29092   1.071   2.727  10.079  0.1010 -0.0819 -0.8144
 5878SOL    HW129093   1.082   2.703  10.171 -0.3849  2.0588 -0.2017
 5878SOL    HW229094   0.986   2.691  10.055 -1.7561  2.6208  1.7377
 5879SOL     OW29095   2.263   0.800   6.854 -0.0360 -0.5363  0.8580
 5879SOL    HW129096   2.275   0.754   6.938  0.4871 -0.1406  0.9971
 5879SOL    HW229097   2.170   0.817   6.867 -0.1706  0.3525 -1.3836
 5880SOL     OW29098   2.726   1.896   2.397  0.5819 -0.6224  0.2759
 5880SOL    HW129099   2.742   1.969   2.338 -1.5299  0.6528  1.2572
 5880SOL    HW229100   2.811   1.862   2.423 -0.0832 -0.9163  2.1042
 5881SOL     OW29101   4.375   3.269  13.887  0.0700  0.0666  0.0721
 5881SOL    HW129102   4.405   3.331  13.821  1.4752 -0.8331 -0.1332
 5881SOL    HW229103   4.433   3.294  13.959  1.1924  0.3163 -0.9198
 5882SOL     OW29104   1.051   1.971   3.122  0.2518  0.0066 -0.2910
 5882SOL    HW129105   1.026   2.061   3.142 -1.7628 -0.3268 -1.3293
 5882SOL    HW229106   1.145   1.969   3.141  0.0004  1.4819  1.1042
 5883SOL     OW29107   3.234   0.288   4.965 -0.0280  0.1832  0.5147
 5883SOL    HW129108   3.147   0.304   5.002  0.2291  0.1726  1.1223
 5883SOL    HW229109   3.230   0.198   4.997 -0.5209  0.0942  0.2120
 5884SOL     OW29110   3.066   1.050  11.710  0.3364  0.1956  0.1507
 5884SOL    HW129111   3.126   0.976  11.722 -1.0504 -0.9402  0.0170
 5884SOL    HW229112   2.995   1.009  11.661  0.5641 -0.4796  0.3761
 5885SOL     OW29113   0.848   0.895  16.118  0.9798  0.0275 -0.3545
 5885SOL    HW129114   0.823   0.914  16.027  1.2003  1.6073 -0.0821
 5885SOL    HW229115   0.899   0.974  16.136  0.5183  0.4284 -0.8063
 5886SOL     OW29116   2.829   0.188   1.770  0.1272  0.0873 -0.2729
 5886SOL    HW129117   2.772   0.160   1.841 -0.1728  1.3346 -0.0301
 5886SOL    HW229118   2.908   0.138   1.790 -1.1394 -0.9218  2.1663
 5887SOL     OW29119   1.190   0.044  15.541 -0.0916  0.5365 -0.4324
 5887SOL    HW129120   1.275   0.037  15.497 -0.0867 -1.0188 -0.1977
 5887SOL    HW229121   1.226   0.083  15.620 -4.1249  0.8236  1.2342
 5888SOL     OW29122   3.633   0.229   2.951 -0.4088  0.0188 -0.0887
 5888SOL    HW129123   3.585   0.160   2.904 -2.4563 -0.0700  2.1677
 5888SOL    HW229124   3.722   0.212   2.922 -0.5214  0.1361 -0.4976
 5889SOL     OW29125   2.311   2.167  15.551 -0.1639  0.3615 -0.2230
 5889SOL    HW129126   2.259   2.190  15.474  0.1051  1.0382 -0.1999
 5889SOL    HW229127   2.240   2.148  15.612  0.5419  0.2701  0.5600
 5890SOL     OW29128   4.521   4.667   4.290 -0.2359  0.3353  0.2060
 5890SOL    HW129129   4.540   4.593   4.347  2.0210 -1.2976 -2.6772
 5890SOL    HW229130   4.433   4.641   4.263  0.5867 -1.7095 -0.4898
 5891SOL     OW29131   1.818   3.616  10.891 -0.0517 -0.7770  0.0228
 5891SOL    HW129132   1.899   3.627  10.940  0.5661  0.2725 -1.2115
 5891SOL    HW229133   1.857   3.598  10.805 -1.6185  0.1094 -0.8854
 5892SOL     OW29134   0.412   1.255  16.684 -0.3679  0.2347  0.1040
 5892SOL    HW129135   0.499   1.275  16.648 -0.5428  0.6113 -0.1018
 5892SOL    HW229136   0.359   1.259  16.605 -0.7791  0.8982  0.4161
 5893SOL     OW29137   3.976   0.730   8.762  0.2017 -0.0524 -0.0306
 5893SOL    HW129138   4.062   0.768   8.780  1.8830 -3.1556 -1.4533
 5893SOL    HW229139   3.952   0.709   8.852 -0.1873  0.4524 -0.0217
 5894SOL     OW29140   1.339   1.725   3.794 -0.0048  0.0200 -0.5985
 5894SOL    HW129141   1.358   1.780   3.719 -0.0315  0.3943 -0.3290
 5894SOL    HW229142   1.244   1.721   3.786  0.0354 -0.5393 -0.8203
 5895SOL     OW29143   2.834   0.555   2.964 -0.3165 -0.2512 -0.1538
 5895SOL    HW129144   2.922   0.562   2.928  0.0782  0.5618  0.9652
 5895SOL    HW229145   2.847   0.485   3.028 -0.2661 -0.6623 -0.6153
 5896SOL     OW29146   0.515   4.530   0.549 -0.0088  0.4660 -0.2953
 5896SOL    HW129147   0.476   4.563   0.630 -1.5667 -0.8797 -0.5003
 5896SOL    HW229148   0.609   4.538   0.563  0.3401 -1.1567 -1.6552
 5897SOL     OW29149   0.679   1.962   8.060 -0.4149 -0.0116  0.0918
 5897SOL    HW129150   0.650   1.921   8.141 -1.0247 -1.7526 -1.0143
 5897SOL    HW229151   0.619   2.037   8.061 -1.3129 -0.6836 -2.9634
 5898SOL     OW29152   2.872   4.647  16.008 -0.4009  0.2807 -0.9348
 5898SOL    HW129153   2.816   4.722  15.987 -1.4819 -0.6466 -1.3879
 5898SOL    HW229154   2.814   4.588  16.058  1.2166  0.3196  0.9990
 5899SOL     OW29155   2.566   2.219   1.328 -0.3394  0.3227 -0.5777
 5899SOL    HW129156   2.592   2.142   1.277  1.5056  0.8753 -0.4678
 5899SOL    HW229157   2.526   2.281   1.266 -0.2851 -0.2640 -1.1930
 5900SOL     OW29158   2.877   2.748   7.189 -0.2917  0.0371 -0.3051
 5900SOL    HW129159   2.825   2.675   7.224 -0.2887  1.1206  1.9352
 5900SOL    HW229160   2.921   2.788   7.264  1.4734  0.3397 -1.4960
 5901SOL     OW29161   3.531   0.421   3.827  0.0019 -0.1923 -0.1254
 5901SOL    HW129162   3.548   0.515   3.820 -0.4644 -0.0459  0.7336
 5901SOL    HW229163   3.564   0.400   3.914  1.0833  0.1182 -0.4633
 5902SOL     OW29164   3.260   2.610   0.169  0.0913 -0.6969  0.5588
 5902SOL    HW129165   3.269   2.567   0.254  1.8080  0.1477  0.8085
 5902SOL    HW229166   3.311   2.559   0.107 -0.8157  0.6334 -1.3012
 5903SOL     OW29167   0.731   2.997   0.872 -0.1502  0.0004 -0.8651
 5903SOL    HW129168   0.685   3.024   0.952 -1.4516 -0.8167 -1.3378
 5903SOL    HW229169   0.674   2.928   0.838 -2.7370  1.7456 -0.0171
 5904SOL     OW29170   3.827   3.697   0.032 -0.5748 -0.4470 -0.3363
 5904SOL    HW129171   3.906   3.642   0.032 -1.1577 -1.2998 -1.7073
 5904SOL    HW229172   3.837   3.763  17.657 -1.6775 -0.4274 -0.4820
 5905SOL     OW29173   3.548   0.809   8.550 -0.1042  0.0938  0.0757
 5905SOL    HW129174   3.632   0.765   8.557  0.8015  1.5973 -1.3222
 5905SOL    HW229175   3.496   0.750   8.605  1.6521 -1.0016  0.5624
 5906SOL     OW29176   4.638   3.491   9.859 -0.2022  0.2889  0.0080
 5906SOL    HW129177   4.623   3.559   9.924 -0.5821  1.4594 -1.3150
 5906SOL    HW229178   4.610   3.411   9.904 -1.0047  0.4755 -0.1523
 5907SOL     OW29179   1.422   2.310   9.167  0.3756 -0.2116 -0.0722
 5907SOL    HW129180   1.454   2.396   9.140  1.2814 -0.2417  0.8793
 5907SOL    HW229181   1.368   2.332   9.243 -0.6963  0.6052 -1.0871
 5908SOL     OW29182   3.635   4.473   8.589 -0.0568  0.1431  0.6484
 5908SOL    HW129183   3.710   4.414   8.598  0.3429  0.4569 -0.6182
 5908SOL    HW229184   3.556   4.419   8.598 -0.5959  0.8247 -0.0282
 5909SOL     OW29185   3.065   2.434   8.915 -0.6167 -0.3681 -0.2558
 5909SOL    HW129186   3.074   2.357   8.972 -3.0112  0.3134  1.0555
 5909SOL    HW229187   3.157   2.459   8.909 -0.6654 -0.2654 -0.5672
 5910SOL     OW29188   2.686   2.832   6.957 -0.1392  0.1323 -0.0913
 5910SOL    HW129189   2.616   2.783   6.913 -2.0846  1.6226  1.3565
 5910SOL    HW229190   2.690   2.812   7.050 -1.1198 -0.8373 -0.2528
 5911SOL     OW29191   3.089   4.507   3.897  0.3529  0.3936  0.5976
 5911SOL    HW129192   3.139   4.482   3.819 -1.6731 -0.0169 -0.5810
 5911SOL    HW229193   3.088   4.602   3.901 -1.2379  0.3648  0.8346
 5912SOL     OW29194   0.089   0.719  14.933 -0.2609  0.4072  0.1762
 5912SOL    HW129195   0.105   0.626  14.950 -1.4548  0.1893  0.0950
 5912SOL    HW229196   4.718   0.728  14.942 -0.1398  0.8898  1.0104
 5913SOL     OW29197   0.408   1.812   5.371 -0.5290  0.5853  0.2611
 5913SOL    HW129198   0.472   1.814   5.443  1.9155  2.3261 -1.9869
 5913SOL    HW229199   0.444   1.732   5.333  0.2497  1.5570 -1.0273
 5914SOL     OW29200   2.900   0.899   2.100 -0.2234  0.8521  0.3736
 5914SOL    HW129201   2.862   0.894   2.012 -0.0418  1.3629  0.2614
 5914SOL    HW229202   2.939   0.812   2.101  1.7339  1.7540  2.1073
 5915SOL     OW29203   0.065   0.064  14.666  0.3513  0.3080  0.4105
 5915SOL    HW129204   0.012   0.142  14.682 -0.0550  0.5805 -2.2495
 5915SOL    HW229205   0.007   4.713  14.649 -1.4615  1.5870  1.0102
 5916SOL     OW29206   0.912   0.218  14.862 -0.0603  0.2962  0.4941
 5916SOL    HW129207   0.915   0.133  14.817 -1.4329  0.4271  0.1817
 5916SOL    HW229208   0.837   0.265  14.827  0.2349  0.1179 -0.3750
 5917SOL     OW29209   2.102   4.698   6.655 -0.2096  0.1431 -0.7504
 5917SOL    HW129210   2.109   0.059   6.610  0.4421 -0.2888 -1.4627
 5917SOL    HW229211   2.052   4.654   6.586 -0.0093  0.4758 -1.1094
 5918SOL     OW29212   4.473   2.500   7.621 -0.3072  0.3285 -0.2871
 5918SOL    HW129213   4.439   2.411   7.627 -0.4263  0.3756 -0.2567
 5918SOL    HW229214   4.438   2.536   7.540 -2.1105  0.6740  0.6321
 5919SOL     OW29215   1.467   4.209  12.736 -0.3601 -0.6474  0.4359
 5919SOL    HW129216   1.545   4.181  12.784 -1.1007 -0.7517  1.5747
 5919SOL    HW229217   1.511   4.250  12.661  0.2063 -0.1565  1.0391
 5920SOL     OW29218   1.195   3.362  13.994  0.2293 -0.2796 -0.1666
 5920SOL    HW129219   1.232   3.280  13.962  0.4748  0.4406 -1.7155
 5920SOL    HW229220   1.278   3.398  14.027 -0.3151  1.7295 -1.0073
 5921SOL     OW29221   3.812   2.082   2.979 -0.0278  0.8775 -0.0197
 5921SOL    HW129222   3.817   1.987   2.970 -1.4187  0.8444 -0.3937
 5921SOL    HW229223   3.751   2.079   3.053 -1.0040 -1.0090 -0.8938
 5922SOL     OW29224   1.493   2.357   5.209  0.1647 -0.0002  0.0645
 5922SOL    HW129225   1.574   2.326   5.169 -0.0855  0.3253 -0.7112
 5922SOL    HW229226   1.437   2.351   5.131  1.7346  0.5507 -1.1058
 5923SOL     OW29227   1.478   3.538   9.391 -0.7645  0.2825 -0.2324
 5923SOL    HW129228   1.574   3.529   9.394 -0.8697 -0.8823 -0.2123
 5923SOL    HW229229   1.448   3.487   9.316 -0.0797 -0.8514  0.2606
 5924SOL     OW29230   1.893   0.450   6.037  0.0008  0.3803 -0.9751
 5924SOL    HW129231   1.814   0.415   5.996  0.1773 -0.7194 -0.3610
 5924SOL    HW229232   1.908   0.392   6.111 -0.3846 -1.4734 -2.3428
 5925SOL     OW29233   2.273   0.688   7.730  0.7217  0.4118 -0.5767
 5925SOL    HW129234   2.351   0.743   7.735  0.7939  0.5024 -2.9714
 5925SOL    HW229235   2.312   0.614   7.684 -1.1131 -0.7988 -0.1719
 5926SOL     OW29236   2.655   3.421   6.290  0.6378 -0.2316  0.1280
 5926SOL    HW129237   2.630   3.385   6.204  1.8923  0.2954 -0.4629
 5926SOL    HW229238   2.586   3.487   6.296  0.6310 -0.3158  0.8719
 5927SOL     OW29239   1.960   2.688  11.064 -0.6539  0.3693  0.1331
 5927SOL    HW129240   2.015   2.764  11.044 -0.2962  0.3234  0.9436
 5927SOL    HW229241   1.877   2.712  11.022 -1.2377 -0.6005  0.7240
 5928SOL     OW29242   2.919   0.871  15.018  0.2640 -0.2954  0.2641
 5928SOL    HW129243   2.878   0.957  15.007  0.4372 -0.1204  1.0180
 5928SOL    HW229244   2.851   0.827  15.070  1.1314 -2.5590 -0.5159
 5929SOL     OW29245   1.506   2.772   4.497 -0.3828  0.3563  0.5658
 5929SOL    HW129246   1.415   2.743   4.501  0.1225 -1.5485 -2.2584
 5929SOL    HW229247   1.533   2.755   4.407  1.0136 -1.2505  1.2897
 5930SOL     OW29248   2.858   0.456   8.666 -0.1250 -0.0351 -0.6757
 5930SOL    HW129249   2.939   0.507   8.667 -1.1865  1.6486 -1.6630
 5930SOL    HW229250   2.877   0.389   8.731 -0.4284  0.1965 -0.3457
 5931SOL     OW29251   0.278   3.588  13.206 -0.4356  0.4792  0.5980
 5931SOL    HW129252   0.260   3.495  13.193 -1.8557  1.1028 -1.9635
 5931SOL    HW229253   0.291   3.595  13.300  0.1762 -1.3177  0.6429
 5932SOL     OW29254   4.674   4.173  17.060  0.2996  0.1813  0.2221
 5932SOL    HW129255   4.651   4.113  16.989  0.5916 -1.0645  1.1877
 5932SOL    HW229256   4.611   4.153  17.129  0.6659 -1.9789 -0.0712
 5933SOL     OW29257   1.909   0.077   0.702 -0.0921 -0.0970 -0.0497
 5933SOL    HW129258   1.991   0.111   0.738 -0.2835 -0.2977  0.5827
 5933SOL    HW229259   1.932   4.707   0.712 -3.7621 -1.0494 -0.4573
 5934SOL     OW29260   1.900   2.123   1.586 -0.2612 -0.4122  0.0999
 5934SOL    HW129261   1.943   2.174   1.654  0.1796  1.2071 -1.4110
 5934SOL    HW229262   1.814   2.164   1.580 -0.6234 -0.6228  3.9718
 5935SOL     OW29263   3.034   0.775   2.650  0.4044 -0.0627 -0.0311
 5935SOL    HW129264   2.948   0.782   2.610 -1.1561 -2.1253  2.9453
 5935SOL    HW229265   3.078   0.709   2.597 -1.6760 -1.9161  0.5322
 5936SOL     OW29266   3.622   1.836   3.245 -0.0886 -0.6257 -0.1455
 5936SOL    HW129267   3.687   1.865   3.309  2.5936 -2.4224 -2.0606
 5936SOL    HW229268   3.608   1.921   3.203  2.2457 -0.3587 -0.3422
 5937SOL     OW29269   0.406   0.989   3.218  0.2954 -0.3672  0.0432
 5937SOL    HW129270   0.498   1.003   3.193  0.5288 -0.5360  0.8020
 5937SOL    HW229271   0.384   0.970   3.127  1.0860  3.0405 -0.8588
 5938SOL     OW29272   4.204   0.924   8.840  0.3895  0.3752  0.2601
 5938SOL    HW129273   4.264   0.884   8.778  0.1764 -0.0527  0.3289
 5938SOL    HW229274   4.242   1.012   8.835  1.4510 -0.1308 -0.5110
 5939SOL     OW29275   2.248   2.446  13.889  0.5070  0.1218 -0.4584
 5939SOL    HW129276   2.299   2.367  13.906 -0.8770 -1.2444 -2.6234
 5939SOL    HW229277   2.214   2.440  13.800  2.2496  0.6526 -1.1511
 5940SOL     OW29278   3.400   1.595   8.306 -0.5803 -0.4582 -0.2989
 5940SOL    HW129279   3.344   1.544   8.248  0.5460  1.0653 -2.6917
 5940SOL    HW229280   3.454   1.646   8.246  1.3442 -1.0689  0.8762
 5941SOL     OW29281   2.164   1.543   1.305  0.2267 -0.0572  0.0462
 5941SOL    HW129282   2.087   1.569   1.355  0.1671 -1.1139  0.5065
 5941SOL    HW229283   2.201   1.485   1.372  0.3828 -0.2717 -0.2236
 5942SOL     OW29284   4.354   3.581   1.594 -0.4291 -0.2925  0.1320
 5942SOL    HW129285   4.336   3.487   1.590 -1.8120 -0.1130  1.9454
 5942SOL    HW229286   4.377   3.584   1.687  0.2701 -0.9951 -0.0179
 5943SOL     OW29287   4.657   3.152  13.504 -0.8093 -0.0370  0.6405
 5943SOL    HW129288   4.643   3.110  13.588 -0.1704  0.4907  1.0076
 5943SOL    HW229289   4.577   3.202  13.485 -0.1943  0.6352 -0.1696
 5944SOL     OW29290   2.859   1.327  11.234  0.0572  0.1960 -1.0136
 5944SOL    HW129291   2.786   1.346  11.176 -0.5833 -0.6114 -0.4718
 5944SOL    HW229292   2.863   1.404  11.290  0.6596 -1.0581  0.6849
 5945SOL     OW29293   1.398   2.246   3.669  0.1130 -0.0064 -0.0932
 5945SOL    HW129294   1.443   2.330   3.658 -0.1146 -0.1768 -2.3222
 5945SOL    HW229295   1.305   2.269   3.674  0.6053  2.0396 -0.2472
 5946SOL     OW29296   3.177   3.767   5.334 -0.4413 -0.3568  0.1516
 5946SOL    HW129297   3.141   3.773   5.422  2.0179  0.3879  1.0961
 5946SOL    HW229298   3.106   3.810   5.287 -0.5995 -0.5099  0.2537
 5947SOL     OW29299   0.332   3.332   2.072  0.1998 -0.4309 -0.5049
 5947SOL    HW129300   0.365   3.266   2.134  0.2558  2.4272  2.4702
 5947SOL    HW229301   0.396   3.313   2.003  1.7186 -1.3650  1.1304
 5948SOL     OW29302   3.860   0.385   0.317  0.3381 -0.0576  0.2172
 5948SOL    HW129303   3.898   0.369   0.403  0.1398  0.2232  0.3555
 5948SOL    HW229304   3.786   0.437   0.348  0.8055  0.7059  0.0262
 5949SOL     OW29305   4.309   2.718   8.370 -0.0596 -0.1442  0.1519
 5949SOL    HW129306   4.357   2.801   8.367 -0.1941  0.0105  2.3728
 5949SOL    HW229307   4.351   2.679   8.293 -2.1897 -1.8682 -0.1063
 5950SOL     OW29308   3.966   1.695   1.784 -0.0102 -0.2748  0.2755
 5950SOL    HW129309   3.997   1.737   1.864  1.3870 -2.6797  1.0178
 5950SOL    HW229310   4.043   1.699   1.727 -2.0365  0.5305 -2.3831
 5951SOL     OW29311   0.957   4.346   6.799  0.1718 -0.0740 -0.1399
 5951SOL    HW129312   1.034   4.308   6.757  0.7307 -0.1666  0.9759
 5951SOL    HW229313   0.926   4.266   6.842  0.1159 -0.0307 -0.1010
 5952SOL     OW29314   1.365   4.413  12.403 -0.3977 -0.1961 -0.3133
 5952SOL    HW129315   1.331   4.496  12.370  0.4357 -0.3425 -1.5440
 5952SOL    HW229316   1.285   4.361  12.402 -0.7442  0.3391 -0.4889
 5953SOL     OW29317   2.219   4.649   4.425  0.2499 -0.2313 -0.2659
 5953SOL    HW129318   2.249   4.708   4.356 -0.8167 -0.9072 -1.2970
 5953SOL    HW229319   2.129   4.629   4.399  0.6633  0.2471 -2.0787
 5954SOL     OW29320   3.097   3.057   5.272 -0.0224  0.1593  0.2175
 5954SOL    HW129321   3.180   3.100   5.254 -0.0605  0.6166  1.1425
 5954SOL    HW229322   3.093   3.044   5.367  1.4900 -2.1338 -0.0447
 5955SOL     OW29323   1.091   4.495   9.482  0.3538 -0.1711 -0.4228
 5955SOL    HW129324   0.996   4.500   9.485  0.2784 -0.8388 -1.7444
 5955SOL    HW229325   1.101   4.589   9.498  0.0957 -0.5336  1.8227
 5956SOL     OW29326   2.985   4.357  10.036 -0.1071  0.2524  0.3136
 5956SOL    HW129327   2.972   4.325   9.946  1.4921 -0.9888  0.5229
 5956SOL    HW229328   2.942   4.442  10.029 -1.6479 -0.6854 -1.8471
 5957SOL     OW29329   2.936   2.415  13.112  0.2649 -0.3137 -0.4374
 5957SOL    HW129330   2.986   2.335  13.127  1.8170  0.7114 -0.0577
 5957SOL    HW229331   3.009   2.470  13.081 -0.0368 -1.4323 -3.1150
 5958SOL     OW29332   2.543   0.430   6.137 -0.2732 -0.2045  0.3116
 5958SOL    HW129333   2.580   0.494   6.076  1.0462 -2.6514 -1.4380
 5958SOL    HW229334   2.533   0.478   6.220 -0.4352 -0.8847  0.6873
 5959SOL     OW29335   1.164   3.201  10.901 -0.3174  0.5665  0.2246
 5959SOL    HW129336   1.144   3.187  10.808  0.7397 -2.4295  0.4291
 5959SOL    HW229337   1.101   3.139  10.938 -0.9522  1.8654  1.3223
 5960SOL     OW29338   2.101   2.731   5.734 -0.0252 -0.1019  0.2110
 5960SOL    HW129339   2.142   2.693   5.656  2.0648  3.0114 -0.2004
 5960SOL    HW229340   2.114   2.825   5.722  0.8030  0.1525  3.0573
 5961SOL     OW29341   2.811   4.354   4.433 -0.1814 -0.2981 -0.3142
 5961SOL    HW129342   2.785   4.280   4.379  1.0457 -0.1766 -1.0533
 5961SOL    HW229343   2.728   4.402   4.429  0.8364  1.7397  2.7323
 5962SOL     OW29344   2.148   2.933   1.511  0.2996  0.7674 -0.1314
 5962SOL    HW129345   2.235   2.960   1.483  0.3415  2.2464  1.4108
 5962SOL    HW229346   2.089   3.007   1.498 -2.2681 -1.2467  0.1638
 5963SOL     OW29347   1.573   0.887  12.396 -0.5272  0.4713 -0.3185
 5963SOL    HW129348   1.523   0.946  12.340 -0.5208 -0.2276 -1.0636
 5963SOL    HW229349   1.617   0.835  12.327 -1.6379 -0.4018 -0.3680
 5964SOL     OW29350   0.524   2.742   4.618 -0.1597  0.6173  0.2188
 5964SOL    HW129351   0.543   2.820   4.566  0.6983 -0.2589 -0.7899
 5964SOL    HW229352   0.603   2.729   4.671  0.6928  0.5281 -1.0620
 5965SOL     OW29353   2.154   3.888   0.965 -0.0423 -0.0313  0.3204
 5965SOL    HW129354   2.083   3.826   0.952  1.0344 -1.3195  0.5004
 5965SOL    HW229355   2.109   3.971   0.951 -1.0545 -0.0589  3.4781
 5966SOL     OW29356   3.312   2.174   0.469 -0.1025  0.0132 -0.1187
 5966SOL    HW129357   3.245   2.175   0.538  0.4632  1.8371  0.4132
 5966SOL    HW229358   3.318   2.081   0.447  2.1425  0.0796  0.2292
 5967SOL     OW29359   1.955   0.427   9.835  0.1658 -0.0525  0.1378
 5967SOL    HW129360   1.963   0.519   9.862 -0.8610  0.2786 -0.6703
 5967SOL    HW229361   1.886   0.394   9.893 -0.0042 -0.1591 -0.1243
 5968SOL     OW29362   0.482   2.185   4.848  0.1542  0.0801  0.5295
 5968SOL    HW129363   0.483   2.181   4.752  1.8690 -1.3218  0.6033
 5968SOL    HW229364   0.484   2.090   4.856 -1.0261 -0.0965 -1.2109
 5969SOL     OW29365   1.168   0.877   5.416 -0.1142 -0.2719  0.0363
 5969SOL    HW129366   1.157   0.966   5.384  0.3701 -0.9058 -1.9376
 5969SOL    HW229367   1.165   0.884   5.511 -0.1876 -1.1403  0.1059
 5970SOL     OW29368   0.974   3.254   6.721 -0.1317 -0.4832  0.3231
 5970SOL    HW129369   0.960   3.211   6.636  1.7369  2.9509 -1.7234
 5970SOL    HW229370   0.991   3.182   6.781 -0.8259 -1.4572 -0.6494
 5971SOL     OW29371   0.428   4.199   5.484 -0.2834  0.3332  0.2571
 5971SOL    HW129372   0.411   4.132   5.550  1.5105  0.5937  0.9687
 5971SOL    HW229373   0.494   4.155   5.431  1.3008 -0.0129  2.5361
 5972SOL     OW29374   0.997   0.893   7.052 -0.2126 -0.2181 -0.7151
 5972SOL    HW129375   0.908   0.919   7.074  0.8478  2.0802  0.8574
 5972SOL    HW229376   0.982   0.834   6.978 -1.8340 -0.2008 -0.3946
 5973SOL     OW29377   1.717   3.310  17.462  0.4655  0.1654  0.0992
 5973SOL    HW129378   1.787   3.343  17.520 -1.0031 -0.8207  2.4163
 5973SOL    HW229379   1.757   3.342  17.381  0.1050 -0.6780 -0.4027
 5974SOL     OW29380   2.627   4.531   2.109 -0.1950 -0.2717  0.1308
 5974SOL    HW129381   2.629   4.613   2.059  1.7907 -0.2088  0.3269
 5974SOL    HW229382   2.602   4.554   2.198 -1.8844  0.0643 -0.4193
 5975SOL     OW29383   4.064   0.542   8.540  0.3954  0.0565 -0.4121
 5975SOL    HW129384   4.144   0.594   8.539 -0.6356  1.6468 -0.5619
 5975SOL    HW229385   4.099   0.464   8.498 -2.2884 -0.4609 -1.6924
 5976SOL     OW29386   2.419   3.301   7.646 -0.1954  0.3625  0.3965
 5976SOL    HW129387   2.360   3.342   7.710 -1.2646 -1.6305  0.6602
 5976SOL    HW229388   2.366   3.243   7.592 -0.4530  0.7477  0.2267
 5977SOL     OW29389   2.881   0.294  13.455 -0.0864 -0.0748  0.0577
 5977SOL    HW129390   2.890   0.278  13.361  0.1700 -3.0909  0.6128
 5977SOL    HW229391   2.934   0.228  13.500 -0.0636 -0.0258  0.1022
 5978SOL     OW29392   4.053   4.609   3.939  0.6297  0.5757  0.2187
 5978SOL    HW129393   3.970   4.570   3.967 -0.0653  1.6036 -0.4527
 5978SOL    HW229394   4.033   4.702   3.932 -1.3894  0.3423  3.1070
 5979SOL     OW29395   2.296   2.096   7.297  0.3059  0.0303 -0.5246
 5979SOL    HW129396   2.217   2.097   7.243  0.8360 -2.9267 -1.3277
 5979SOL    HW229397   2.289   2.004   7.319 -0.3244  0.4612  1.0847
 5980SOL     OW29398   1.820   2.587   3.276  0.4558  0.1151 -0.0229
 5980SOL    HW129399   1.839   2.563   3.367  3.4549 -2.0197 -1.2112
 5980SOL    HW229400   1.789   2.677   3.281 -0.5797 -0.2316 -0.0722
 5981SOL     OW29401   2.475   1.909   5.130  0.3086 -0.1901 -0.5783
 5981SOL    HW129402   2.517   1.827   5.107  0.8935 -1.6892  5.7305
 5981SOL    HW229403   2.428   1.889   5.211 -0.5213  0.8601 -0.7979
 5982SOL     OW29404   3.428   1.389   7.691  0.1796 -0.5514 -0.8067
 5982SOL    HW129405   3.452   1.416   7.603 -0.0765  1.5296 -0.2384
 5982SOL    HW229406   3.338   1.419   7.687 -0.1568 -1.2424  1.5324
 5983SOL     OW29407   2.600   1.543   9.853 -0.0364 -0.3437 -0.0036
 5983SOL    HW129408   2.519   1.498   9.829  0.9614 -2.1220 -0.0341
 5983SOL    HW229409   2.595   1.619   9.795 -0.2234  0.5523  1.1958
 5984SOL     OW29410   2.695   0.678  15.157  0.7394 -0.2589 -0.6621
 5984SOL    HW129411   2.630   0.745  15.177  1.1998  0.4596 -1.5916
 5984SOL    HW229412   2.639   0.608  15.123 -0.0181 -0.2897  0.6521
 5985SOL     OW29413   2.088   2.744   0.328 -0.8399 -0.3565 -0.2635
 5985SOL    HW129414   2.109   2.808   0.395  0.5121  1.3035 -2.2759
 5985SOL    HW229415   2.156   2.679   0.344 -0.9072 -0.6692 -1.2139
 5986SOL     OW29416   3.495   1.606   3.190 -0.1398 -0.2383 -0.2519
 5986SOL    HW129417   3.554   1.678   3.210 -0.9749  0.7306 -1.3262
 5986SOL    HW229418   3.410   1.636   3.222  0.2424 -0.3924  0.9175
 5987SOL     OW29419   1.191   3.065  13.917  0.0791 -0.5995 -0.4535
 5987SOL    HW129420   1.242   3.008  13.974  0.6196 -2.1827 -2.4845
 5987SOL    HW229421   1.137   3.003  13.869  1.9796 -1.6059 -1.2898
 5988SOL     OW29422   4.591   2.029   0.015 -0.2505 -0.3249 -0.4855
 5988SOL    HW129423   4.534   2.064  17.640  0.2759  1.4678 -0.0076
 5988SOL    HW229424   4.551   2.071   0.090  0.5479 -0.0992 -0.1894
 5989SOL     OW29425   4.110   0.874  14.172  0.3182  0.5042  0.0010
 5989SOL    HW129426   4.097   0.863  14.266 -1.0083  2.0409  0.0134
 5989SOL    HW229427   4.180   0.811  14.156  1.7212  1.9584  0.3557
 5990SOL     OW29428   1.688   4.525  10.447 -0.6719  0.3014 -0.2842
 5990SOL    HW129429   1.661   4.471  10.520 -1.0539 -2.3612 -2.3845
 5990SOL    HW229430   1.736   4.598  10.487  1.3350 -2.3217  2.1000
 5991SOL     OW29431   3.069   3.420  16.465 -0.1135 -0.4759  0.3587
 5991SOL    HW129432   3.050   3.351  16.401  0.7643 -0.3006 -0.0928
 5991SOL    HW229433   3.034   3.497  16.420 -2.4103 -2.4157 -1.2155
 5992SOL     OW29434   3.353   4.308   5.108 -0.4816 -0.4966  0.3989
 5992SOL    HW129435   3.406   4.274   5.180  0.8698  0.3310 -0.2143
 5992SOL    HW229436   3.314   4.227   5.074  1.4231 -0.9074 -0.7795
 5993SOL     OW29437   3.441   1.948  17.384  0.2946 -0.2724 -0.2287
 5993SOL    HW129438   3.498   2.024  17.369 -1.8169  1.7659  2.1509
 5993SOL    HW229439   3.434   1.902  17.300 -0.4614  1.6813 -1.2397
 5994SOL     OW29440   0.328   2.790   4.894 -0.9658 -0.5376 -0.8976
 5994SOL    HW129441   0.293   2.838   4.969  1.7469 -1.0079  0.7032
 5994SOL    HW229442   0.419   2.821   4.893 -0.7951 -0.9471  2.1064
 5995SOL     OW29443   3.277   2.642   7.460  0.0585 -0.2134  0.1841
 5995SOL    HW129444   3.314   2.600   7.383  1.2081 -2.8925  2.2129
 5995SOL    HW229445   3.344   2.706   7.485  1.3144 -1.1178 -0.8832
 5996SOL     OW29446   2.583   2.163   6.259 -0.0461 -0.4366  0.4191
 5996SOL    HW129447   2.618   2.082   6.296  0.4096 -1.4501 -2.2811
 5996SOL    HW229448   2.502   2.156   6.310 -0.2840 -2.4633 -0.2536
 5997SOL     OW29449   1.111   0.763   8.842 -0.2124 -0.3132 -0.7743
 5997SOL    HW129450   1.199   0.797   8.855 -0.6232 -0.4725  2.5308
 5997SOL    HW229451   1.070   0.755   8.928  0.4237  2.5833 -0.1903
 5998SOL     OW29452   1.688   3.804  15.568  0.4931  0.6331 -0.4055
 5998SOL    HW129453   1.638   3.789  15.488  0.0043 -2.6692  0.5142
 5998SOL    HW229454   1.691   3.899  15.562  0.7941  0.6304 -0.3255
 5999SOL     OW29455   0.037   3.924   6.121  0.6312 -0.1758  0.4200
 5999SOL    HW129456   4.713   3.938   6.039 -0.0315 -1.0335  0.6592
 5999SOL    HW229457   0.030   4.004   6.173  2.4850  0.2974 -0.0532
 6000SOL     OW29458   1.611   2.365   5.647  0.5438 -0.3731  0.3403
 6000SOL    HW129459   1.642   2.365   5.557 -0.0895 -0.4161  0.1222
 6000SOL    HW229460   1.686   2.395   5.698 -0.0034  0.8127  0.4425
 6001SOL     OW29461   1.511   3.371   3.167 -0.1371 -0.4391 -0.7790
 6001SOL    HW129462   1.539   3.439   3.106 -0.5457  2.0947  1.8343
 6001SOL    HW229463   1.557   3.296   3.130  0.6710 -0.3142 -0.0339
 6002SOL     OW29464   0.243   3.535   2.218 -0.4221 -0.6274  0.3667
 6002SOL    HW129465   0.330   3.572   2.229 -1.1962  0.5916  2.3327
 6002SOL    HW229466   0.252   3.459   2.161  0.1004 -1.0558  1.0251
 6003SOL     OW29467   1.512   2.188   8.090  0.5682  0.4557  0.0546
 6003SOL    HW129468   1.434   2.156   8.045 -0.9383  1.6308  1.8196
 6003SOL    HW229469   1.525   2.114   8.149 -0.6173  0.6359  0.5463
 6004SOL     OW29470   3.904   3.935   3.667  0.2153 -0.2373  0.0770
 6004SOL    HW129471   3.882   3.949   3.575  0.3048 -1.7551 -0.1634
 6004SOL    HW229472   3.998   3.951   3.663  0.2377 -0.0440  1.3723
 6005SOL     OW29473   2.564   3.676   4.161  0.2349 -0.6967 -0.8476
 6005SOL    HW129474   2.513   3.692   4.081 -0.1279 -0.7145 -0.6221
 6005SOL    HW229475   2.549   3.753   4.216  1.7531  0.1556 -1.6204
 6006SOL     OW29476   0.759   4.683  16.067 -0.4393 -0.3116  0.0314
 6006SOL    HW129477   0.688   4.667  16.005  0.0353 -0.8151 -0.3977
 6006SOL    HW229478   0.809   4.601  16.062 -0.3466 -0.2213 -0.5509
 6007SOL     OW29479   1.767   4.215   1.000 -0.3347 -0.4346 -0.1223
 6007SOL    HW129480   1.753   4.132   1.046 -2.0082 -1.0356 -1.7543
 6007SOL    HW229481   1.704   4.270   1.046  1.1626 -0.5696  2.0769
 6008SOL     OW29482   1.568   2.705   4.241 -0.1992  0.3716  0.4250
 6008SOL    HW129483   1.540   2.614   4.235  0.8437  0.0966 -0.2219
 6008SOL    HW229484   1.654   2.702   4.199 -1.3636 -0.8925 -1.8398
 6009SOL     OW29485   3.778   0.928   8.754 -0.1711  0.6988  0.3541
 6009SOL    HW129486   3.808   1.006   8.708  0.1321 -0.3099 -1.1255
 6009SOL    HW229487   3.806   0.863   8.690 -0.6013 -0.0649  0.9286
 6010SOL     OW29488   2.092   3.410   7.888 -0.0480  0.6713  0.6259
 6010SOL    HW129489   2.001   3.385   7.872  0.6092 -0.6950 -1.1067
 6010SOL    HW229490   2.109   3.351   7.961  1.5069 -0.4439 -0.6098
 6011SOL     OW29491   4.559   2.340  16.571 -0.6410  0.1521  0.1021
 6011SOL    HW129492   4.645   2.358  16.609  0.1957  0.4799 -1.9582
 6011SOL    HW229493   4.497   2.319  16.641 -2.3281 -3.4048 -2.4567
 6012SOL     OW29494   0.680   0.173   8.340  0.0838  0.3397  0.4900
 6012SOL    HW129495   0.605   0.195   8.286 -0.1404 -0.7911  0.3413
 6012SOL    HW229496   0.675   0.232   8.415 -1.3691 -0.7921  1.2862
 6013SOL     OW29497   4.608   3.294   6.392  0.2778 -0.3854 -0.7699
 6013SOL    HW129498   4.674   3.252   6.447 -0.3810 -0.3005  0.0848
 6013SOL    HW229499   4.554   3.330   6.463  0.7397  0.4182 -0.8262
 6014SOL     OW29500   1.818   0.485   6.777  0.1349  0.1788  0.2312
 6014SOL    HW129501   1.875   0.409   6.786  0.3273  0.1531 -1.2759
 6014SOL    HW229502   1.746   0.448   6.829 -0.5366  1.0314 -0.0922
 6015SOL     OW29503   1.375   1.312  12.173  0.2227  0.0795  0.0734
 6015SOL    HW129504   1.449   1.253  12.188  1.9108  1.8712 -1.0578
 6015SOL    HW229505   1.406   1.354  12.092 -0.0970  2.5078  1.2205
 6016SOL     OW29506   3.396   0.457  16.163 -0.3435 -0.0615  0.0193
 6016SOL    HW129507   3.482   0.422  16.138  0.1111  0.2938  1.0774
 6016SOL    HW229508   3.340   0.384  16.139 -0.8753  0.8708 -1.5941
 6017SOL     OW29509   0.366   0.708   5.026  0.2349 -0.3813  0.3591
 6017SOL    HW129510   0.384   0.684   5.117  1.5092 -0.7523  0.0125
 6017SOL    HW229511   0.293   0.652   4.999  0.9788 -1.4568  0.5807
 6018SOL     OW29512   2.686   1.068   3.017 -0.1990 -0.4363  0.3335
 6018SOL    HW129513   2.599   1.071   2.978 -0.2062  0.7344  0.4377
 6018SOL    HW229514   2.733   0.999   2.971  2.5406  0.0958  2.3323
 6019SOL     OW29515   1.764   1.612  13.021  0.3029 -0.0046  0.5118
 6019SOL    HW129516   1.775   1.572  13.107 -2.1819 -0.4547  0.6053
 6019SOL    HW229517   1.738   1.702  13.040  0.2980  0.0661  0.1746
 6020SOL     OW29518   0.890   2.470   3.765  0.0270 -0.2560 -0.0063
 6020SOL    HW129519   0.839   2.390   3.776 -1.9703  0.8214 -1.4039
 6020SOL    HW229520   0.870   2.528   3.839 -2.5236 -1.0800 -0.0487
 6021SOL     OW29521   3.539   1.878   3.660 -0.2866 -0.1666 -0.3003
 6021SOL    HW129522   3.628   1.907   3.638 -0.1450 -1.6189 -1.6271
 6021SOL    HW229523   3.552   1.784   3.649  0.1975 -0.3808  2.0621
 6022SOL     OW29524   0.280   1.424   1.203 -0.2872  1.2660  0.7986
 6022SOL    HW129525   0.354   1.455   1.150 -0.6215  1.3337  0.3714
 6022SOL    HW229526   0.246   1.512   1.214 -1.5261  1.0817 -1.4403
 6023SOL     OW29527   0.216   0.334  11.043  0.3876 -1.0506 -0.5083
 6023SOL    HW129528   0.253   0.404  10.988 -0.6594  1.9881  2.6597
 6023SOL    HW229529   0.216   0.378  11.128  1.9461 -2.3471  0.1652
 6024SOL     OW29530   1.819   4.656   1.889  0.3776 -0.7149  0.1005
 6024SOL    HW129531   1.743   4.675   1.835  0.2235 -2.6649 -0.3552
 6024SOL    HW229532   1.794   4.685   1.977  1.5378 -0.3331  0.3075
 6025SOL     OW29533   3.781   2.997   2.683  0.0743 -0.1425  0.4183
 6025SOL    HW129534   3.815   2.911   2.657 -0.0810 -0.0995  0.0777
 6025SOL    HW229535   3.778   3.042   2.599 -2.0334 -2.2609 -0.6705
 6026SOL     OW29536   3.751   1.493   5.670 -0.0942 -0.2996 -0.3275
 6026SOL    HW129537   3.697   1.414   5.678 -1.3623  0.4801 -1.2696
 6026SOL    HW229538   3.837   1.456   5.693 -0.6589 -1.1598  0.4161
 6027SOL     OW29539   0.154   1.098   5.421 -0.3415 -0.0205 -0.6588
 6027SOL    HW129540   0.247   1.106   5.442 -0.6985  1.1539  0.4939
 6027SOL    HW229541   0.117   1.186   5.418 -0.7629 -0.1875 -0.4080
 6028SOL     OW29542   0.918   2.016  11.106 -0.1763 -0.5953 -0.5792
 6028SOL    HW129543   0.904   2.052  11.194  1.4519  0.3655 -0.7198
 6028SOL    HW229544   1.002   2.059  11.091  0.6700 -2.4791 -1.2309
 6029SOL     OW29545   1.292   4.122  10.012 -0.4607 -0.1931  0.0929
 6029SOL    HW129546   1.345   4.197   9.986  0.1341  0.0046  1.9080
 6029SOL    HW229547   1.346   4.095  10.086  0.2353 -0.6393 -0.5811
 6030SOL     OW29548   3.444   0.666  11.518 -0.3958 -0.1568  0.2258
 6030SOL    HW129549   3.393   0.636  11.593 -1.5349 -0.8915 -0.8368
 6030SOL    HW229550   3.385   0.620  11.458 -0.0317  1.2184 -1.1928
 6031SOL     OW29551   1.688   3.439   3.767 -0.3582 -0.6790  0.4806
 6031SOL    HW129552   1.659   3.478   3.850  1.3875  1.6381  0.0035
 6031SOL    HW229553   1.720   3.513   3.715  0.4672 -0.8644  0.7290
 6032SOL     OW29554   0.639   1.243   4.086 -0.0722  0.1258 -0.0344
 6032SOL    HW129555   0.605   1.169   4.136  1.6029 -0.9576 -0.5252
 6032SOL    HW229556   0.720   1.240   4.136 -1.2166 -0.0558  1.8011
 6033SOL     OW29557   3.405   2.498  11.384 -0.3822  0.4042 -0.0177
 6033SOL    HW129558   3.471   2.484  11.451  1.1882  0.7097 -1.5225
 6033SOL    HW229559   3.418   2.593  11.373  2.0503  0.1233  0.5956
 6034SOL     OW29560   2.306   0.195   3.710 -0.1598  0.0294  0.4317
 6034SOL    HW129561   2.240   0.251   3.750 -1.2974  0.3516 -1.8724
 6034SOL    HW229562   2.381   0.255   3.713  0.7470 -1.1064  0.4501
 6035SOL     OW29563   4.175   0.573   2.938 -0.1361  0.1307 -0.6918
 6035SOL    HW129564   4.152   0.509   2.871 -0.4773 -1.8155  1.2992
 6035SOL    HW229565   4.137   0.528   3.014 -1.7875 -0.6692 -1.9840
 6036SOL     OW29566   0.802   0.636   1.481  0.3504  0.2777  0.0432
 6036SOL    HW129567   0.743   0.563   1.462 -2.0796  2.3269 -0.2688
 6036SOL    HW229568   0.739   0.681   1.537  0.8741  1.1489 -0.0780
 6037SOL     OW29569   3.977   1.171   7.856  0.1678 -0.3127 -0.1602
 6037SOL    HW129570   3.922   1.249   7.848 -0.3024 -0.9761 -3.2239
 6037SOL    HW229571   3.936   1.127   7.931  0.4696 -1.5204 -0.7030
 6038SOL     OW29572   2.707   3.453   4.157 -0.6423  0.4199 -0.4531
 6038SOL    HW129573   2.801   3.471   4.149 -0.7742  1.1937 -0.2484
 6038SOL    HW229574   2.669   3.540   4.149 -0.8104  0.1446 -2.6257
 6039SOL     OW29575   3.771   3.817   4.182  0.2765 -0.5042 -0.2672
 6039SOL    HW129576   3.865   3.824   4.196 -0.3691  3.2783  2.1229
 6039SOL    HW229577   3.772   3.814   4.086 -3.1271  1.5502 -0.3391
 6040SOL     OW29578   1.144   0.320  10.797  0.1206  0.5285 -0.2122
 6040SOL    HW129579   1.073   0.342  10.736 -0.7138 -1.1025  0.1824
 6040SOL    HW229580   1.106   0.239  10.831  1.2030  0.5265  0.9823
 6041SOL     OW29581   0.512   1.244   2.575  0.3387  0.1155 -0.6346
 6041SOL    HW129582   0.439   1.299   2.603  1.0229  0.4779  0.4201
 6041SOL    HW229583   0.541   1.275   2.489  1.6543  0.7142  0.0345
 6042SOL     OW29584   3.046   2.052  12.576 -0.2107  0.4205  0.7503
 6042SOL    HW129585   3.107   2.003  12.631  1.2378 -0.0099 -1.2347
 6042SOL    HW229586   3.080   2.021  12.492  0.2428  1.7597  0.4353
 6043SOL     OW29587   2.343   1.968  12.196  0.0525  0.2171  0.3081
 6043SOL    HW129588   2.376   2.048  12.237  0.4385  0.2085  0.0188
 6043SOL    HW229589   2.296   1.936  12.273 -0.4780 -1.1717 -0.5932
 6044SOL     OW29590   0.743   1.008   7.108 -0.0492 -0.6449 -0.3322
 6044SOL    HW129591   0.723   1.015   7.015 -0.2489  1.0847 -0.1734
 6044SOL    HW229592   0.661   0.978   7.146  0.1974 -2.1744 -1.0507
 6045SOL     OW29593   1.041   0.692   9.095 -0.1773  0.0570  0.1965
 6045SOL    HW129594   1.066   0.714   9.185 -1.5935 -0.3289  0.6841
 6045SOL    HW229595   1.013   0.601   9.107  2.1491 -0.5534  1.0537
 6046SOL     OW29596   0.119   4.516  15.736 -0.0604  0.7345 -0.1507
 6046SOL    HW129597   0.055   4.539  15.668  1.4000  1.4897 -1.2717
 6046SOL    HW229598   0.057   4.530  15.808 -1.2619 -2.1391 -0.6554
 6047SOL     OW29599   3.814   3.865   7.065 -0.0826 -0.0344 -0.4456
 6047SOL    HW129600   3.763   3.787   7.044 -1.2622  0.4384  0.6878
 6047SOL    HW229601   3.781   3.874   7.155 -3.9135  0.8967 -1.9756
 6048SOL     OW29602   2.222   1.786  13.372  0.1283  0.3560 -0.3032
 6048SOL    HW129603   2.129   1.772  13.387  0.1841  1.4003  0.9735
 6048SOL    HW229604   2.233   1.861  13.431 -0.0233 -0.8335  1.2321
 6049SOL     OW29605   0.413   1.435  11.334 -0.1216 -0.0105  0.8269
 6049SOL    HW129606   0.444   1.344  11.333  2.0163  0.7212  0.1081
 6049SOL    HW229607   0.387   1.448  11.243 -0.8781  1.8272  1.3042
 6050SOL     OW29608   2.253   3.204   6.757 -0.1374  0.3827  0.2340
 6050SOL    HW129609   2.317   3.138   6.781 -1.5501 -0.4258  1.7446
 6050SOL    HW229610   2.298   3.287   6.775 -0.7822  0.8318 -0.2183
 6051SOL     OW29611   2.552   4.329   7.505  0.4914  0.4526 -0.3863
 6051SOL    HW129612   2.560   4.233   7.502  3.0015  0.6796 -0.7957
 6051SOL    HW229613   2.476   4.340   7.448  0.9771  0.4034 -1.0469
 6052SOL     OW29614   3.531   2.367   7.650  0.7104 -0.1026  0.2132
 6052SOL    HW129615   3.508   2.440   7.708 -0.8675 -0.4127 -0.0245
 6052SOL    HW229616   3.614   2.334   7.685  0.2330  1.0132  2.3879
 6053SOL     OW29617   2.219   2.543   4.383  0.3442  0.1427 -0.8325
 6053SOL    HW129618   2.293   2.513   4.437  0.8715 -0.2814 -1.7867
 6053SOL    HW229619   2.154   2.528   4.452  1.0598  3.2149  0.4934
 6054SOL     OW29620   4.305   0.826  15.911  0.0822  0.4626  0.4262
 6054SOL    HW129621   4.351   0.905  15.940  3.9520 -0.9718 -1.8173
 6054SOL    HW229622   4.254   0.858  15.836  2.9633 -0.3616 -1.9119
 6055SOL     OW29623   2.492   2.587   3.216  0.0725 -0.1690 -0.4018
 6055SOL    HW129624   2.538   2.519   3.263 -2.5225 -0.1108  2.2434
 6055SOL    HW229625   2.416   2.542   3.179 -1.3912  0.6155  1.6593
 6056SOL     OW29626   0.841   3.969  12.584  0.0904  0.4832 -0.3932
 6056SOL    HW129627   0.823   3.882  12.618  1.0057  0.2531 -0.4862
 6056SOL    HW229628   0.788   4.013  12.651  0.9727 -0.5942  1.0032
 6057SOL     OW29629   3.381   3.583   0.360 -0.0227  0.0395 -0.3352
 6057SOL    HW129630   3.467   3.616   0.385 -0.7071  1.2328  0.4539
 6057SOL    HW229631   3.419   3.504   0.321  0.0002  0.6807 -1.6016
 6058SOL     OW29632   1.154   3.530   5.829  0.3958  0.1823 -0.4317
 6058SOL    HW129633   1.121   3.518   5.740 -1.4546 -1.5423  0.4820
 6058SOL    HW229634   1.101   3.600   5.867 -1.0235 -1.0011 -0.2537
 6059SOL     OW29635   3.906   0.529   6.023  0.4857  0.2814  0.4119
 6059SOL    HW129636   3.852   0.455   5.994 -1.8195  1.7913  0.8651
 6059SOL    HW229637   3.920   0.512   6.116  1.4740 -0.6815  0.0880
 6060SOL     OW29638   4.445   0.139   7.093 -0.6122 -0.5998  0.5382
 6060SOL    HW129639   4.455   0.081   7.168  1.6837 -0.6740  0.1695
 6060SOL    HW229640   4.350   0.134   7.080 -0.8015  0.2410  1.6172
 6061SOL     OW29641   0.727   3.774   6.694 -0.5806  0.3027  0.0056
 6061SOL    HW129642   0.691   3.709   6.755 -0.4324 -0.3519 -0.6061
 6061SOL    HW229643   0.816   3.782   6.728 -0.5893  0.6513 -0.0530
 6062SOL     OW29644   4.423   3.214   1.753 -0.1270 -0.5902 -0.1719
 6062SOL    HW129645   4.455   3.230   1.664 -0.3711  0.7738 -0.0187
 6062SOL    HW229646   4.335   3.179   1.743 -0.5318 -0.3932  2.7697
 6063SOL     OW29647   1.270   0.222   7.118  1.0845 -0.0570  0.4764
 6063SOL    HW129648   1.314   0.253   7.197 -0.0305 -1.9494  1.8332
 6063SOL    HW229649   1.350   0.223   7.066  1.8467  0.6789  1.6587
 6064SOL     OW29650   4.174   1.364   6.530 -0.1838  0.2600 -0.1584
 6064SOL    HW129651   4.264   1.359   6.563 -0.0021  1.3413 -0.4913
 6064SOL    HW229652   4.195   1.326   6.445 -1.3344 -0.9175  0.0854
 6065SOL     OW29653   3.737   2.651   0.277 -0.2455  0.1011 -0.0589
 6065SOL    HW129654   3.690   2.607   0.348 -0.3194 -2.7357 -1.8690
 6065SOL    HW229655   3.801   2.582   0.260 -0.0911  0.0131  0.8856
 6066SOL     OW29656   0.561   2.767   6.088 -0.1793 -0.1324  0.7011
 6066SOL    HW129657   0.653   2.762   6.061 -0.0354  1.7696  0.8245
 6066SOL    HW229658   0.567   2.809   6.174  0.5675 -0.4636  0.8100
 6067SOL     OW29659   3.588   2.327   2.344  0.2650 -0.2379  0.3175
 6067SOL    HW129660   3.542   2.318   2.260  1.7773 -1.4386 -0.3695
 6067SOL    HW229661   3.678   2.311   2.319 -0.0388 -0.0205 -0.9101
 6068SOL     OW29662   3.479   0.400   7.119  0.1405  0.2331  0.2536
 6068SOL    HW129663   3.434   0.362   7.195 -0.8240  1.8687  0.4824
 6068SOL    HW229664   3.499   0.491   7.142  1.9839  0.1895 -1.2205
 6069SOL     OW29665   1.297   2.006   7.352 -0.1130  0.6789  0.1831
 6069SOL    HW129666   1.328   1.960   7.430  1.8397  2.4640  0.4576
 6069SOL    HW229667   1.207   1.974   7.357  0.2649 -0.3738  0.2126
 6070SOL     OW29668   4.673   2.484  15.488 -0.6347 -0.4420 -0.2905
 6070SOL    HW129669   4.632   2.448  15.567  1.5221 -0.5633  0.7818
 6070SOL    HW229670   4.641   2.434  15.414 -0.0611  0.3389 -1.0589
 6071SOL     OW29671   3.750   1.868   1.495 -0.2981  0.7571  0.4333
 6071SOL    HW129672   3.785   1.932   1.557  0.6299 -0.3471  1.0448
 6071SOL    HW229673   3.815   1.870   1.425  2.4824  1.1218  3.0523
 6072SOL     OW29674   0.889   2.279   6.713  0.7302 -0.5166 -0.0087
 6072SOL    HW129675   0.960   2.227   6.748  1.4570  0.8749  0.5866
 6072SOL    HW229676   0.855   2.223   6.643 -1.1714  0.4708  0.1211
 6073SOL     OW29677   0.193   0.998  16.410  0.4892 -0.5195  0.1645
 6073SOL    HW129678   0.235   1.084  16.418  0.4877 -0.4432 -0.6973
 6073SOL    HW229679   0.117   1.018  16.356  0.9096  1.8075  0.4237
 6074SOL     OW29680   3.366   1.688   7.028 -0.2966 -0.7535  0.0107
 6074SOL    HW129681   3.343   1.740   6.950 -2.5556 -3.7092 -1.2970
 6074SOL    HW229682   3.303   1.616   7.027 -2.2107  0.9241  2.7609
 6075SOL     OW29683   1.719   4.574   7.286 -0.0923 -0.2182  0.1884
 6075SOL    HW129684   1.757   4.486   7.290 -1.9093 -0.9658  1.3558
 6075SOL    HW229685   1.673   4.585   7.203  2.3213  1.1775 -0.9343
 6076SOL     OW29686   3.330   3.303   0.848 -0.3445  0.0390  0.2126
 6076SOL    HW129687   3.295   3.364   0.913  2.2196  0.7272  0.9738
 6076SOL    HW229688   3.253   3.302   0.791 -0.3059  1.7802  0.1160
 6077SOL     OW29689   3.853   3.942  12.059  0.0319 -0.6837  0.4495
 6077SOL    HW129690   3.825   3.963  12.148 -0.0634  1.0005  0.0167
 6077SOL    HW229691   3.765   3.961  12.025  0.1420  1.5894  1.4618
 6078SOL     OW29692   1.342   2.835  14.467  0.2876 -0.1244 -0.7040
 6078SOL    HW129693   1.364   2.900  14.533  0.7633 -0.4288 -0.5664
 6078SOL    HW229694   1.264   2.871  14.424  1.1774  1.0208 -1.3888
 6079SOL     OW29695   4.224   4.266  12.053 -0.3156 -0.1002 -0.4192
 6079SOL    HW129696   4.286   4.327  12.092 -1.6919 -0.3855  2.2139
 6079SOL    HW229697   4.248   4.182  12.092  0.4349  0.3074 -0.0202
 6080SOL     OW29698   1.645   4.458   4.446  0.0365  0.1993  0.4767
 6080SOL    HW129699   1.572   4.449   4.385  0.2375  0.1603  0.2434
 6080SOL    HW229700   1.607   4.517   4.511 -0.2671  0.0198  0.4635
 6081SOL     OW29701   1.765   2.451   7.844 -0.4124  0.4048  0.8836
 6081SOL    HW129702   1.849   2.419   7.877  1.1266  1.7522 -1.6916
 6081SOL    HW229703   1.741   2.493   7.927  0.5974  1.7321  0.4999
 6082SOL     OW29704   4.584   1.326   5.322 -0.3650  0.1705  0.0574
 6082SOL    HW129705   4.640   1.333   5.399  0.5874 -4.7188 -0.2035
 6082SOL    HW229706   4.604   1.404   5.270 -0.9834  0.4709  0.2668
 6083SOL     OW29707   2.110   1.595   3.725  0.2095  0.3444  0.0376
 6083SOL    HW129708   2.044   1.623   3.661 -0.2964 -0.1374  0.3514
 6083SOL    HW229709   2.141   1.681   3.752  1.3804  0.4817 -1.6819
 6084SOL     OW29710   1.612   2.304   8.582  0.2503  0.5163 -0.1174
 6084SOL    HW129711   1.612   2.357   8.662 -0.3915  1.1365 -0.5335
 6084SOL    HW229712   1.687   2.249   8.603  1.5701  1.6276 -1.9040
 6085SOL     OW29713   1.187   0.249   8.422  0.4154 -0.0477 -0.2519
 6085SOL    HW129714   1.096   0.222   8.412 -0.5551  2.5551  1.5927
 6085SOL    HW229715   1.183   0.330   8.372  2.0893  0.0076 -0.3126
 6086SOL     OW29716   0.390   3.195   0.945  0.4219 -0.6291  0.2931
 6086SOL    HW129717   0.369   3.163   0.857  2.7533 -1.3049 -0.0122
 6086SOL    HW229718   0.397   3.288   0.921 -1.0895  0.3460  3.6318
 6087SOL     OW29719   1.460   4.430   8.315 -0.1289  0.1352  0.1855
 6087SOL    HW129720   1.487   4.423   8.224 -0.1407 -0.7842  0.2587
 6087SOL    HW229721   1.375   4.471   8.299 -0.5218 -1.1617 -1.0150
 6088SOL     OW29722   0.710   3.290  11.740 -0.3528  0.0738  0.4884
 6088SOL    HW129723   0.701   3.342  11.661  0.9940 -1.3204 -0.5868
 6088SOL    HW229724   0.772   3.226  11.705  1.2788  1.3692  1.0190
 6089SOL     OW29725   4.013   1.180   8.192 -0.4676 -0.1352 -0.3983
 6089SOL    HW129726   3.933   1.136   8.164 -1.0386 -0.1135  1.2348
 6089SOL    HW229727   3.986   1.271   8.182 -0.1501  0.1224  1.1187
 6090SOL     OW29728   4.564   1.043   5.236  0.7835  0.2317 -0.0431
 6090SOL    HW129729   4.633   1.109   5.225  0.7410 -0.1202 -2.3106
 6090SOL    HW229730   4.538   1.069   5.324 -1.2907  0.4857 -0.7251
 6091SOL     OW29731   4.297   1.208   7.162 -0.3705 -0.4501  0.1748
 6091SOL    HW129732   4.308   1.151   7.086  1.8095  1.0619 -0.6406
 6091SOL    HW229733   4.216   1.256   7.143 -0.9636 -1.9143 -1.0017
 6092SOL     OW29734   1.526   3.053   2.795  0.0088 -0.7432  0.4870
 6092SOL    HW129735   1.570   3.107   2.860 -0.6441 -1.2393  1.3419
 6092SOL    HW229736   1.592   2.991   2.763 -0.9369 -0.8704 -1.2570
 6093SOL     OW29737   1.543   1.609  15.090  0.1077  0.0218 -0.2818
 6093SOL    HW129738   1.576   1.520  15.080  1.0389  0.2963  0.3159
 6093SOL    HW229739   1.571   1.620  15.181  0.1395  1.2492 -0.4351
 6094SOL     OW29740   0.046   3.398   6.713 -0.2636  0.3147 -0.2834
 6094SOL    HW129741   0.070   3.348   6.791 -0.8359  0.9804  0.3239
 6094SOL    HW229742   0.044   3.330   6.646  0.7097  1.1602 -1.1573
 6095SOL     OW29743   4.401   0.365   8.828 -0.2313  0.1040 -0.5358
 6095SOL    HW129744   4.307   0.349   8.825 -0.0238 -1.5635  1.6437
 6095SOL    HW229745   4.429   0.325   8.746 -0.0439  0.4729 -0.6525
 6096SOL     OW29746   0.650   4.188   0.677 -0.0387  0.0969 -0.1499
 6096SOL    HW129747   0.670   4.281   0.685 -1.5767  0.3362  0.8410
 6096SOL    HW229748   0.690   4.153   0.757 -0.3419 -0.2549 -0.1478
 6097SOL     OW29749   3.692   0.543   0.495  0.2883 -0.1518  0.0360
 6097SOL    HW129750   3.776   0.578   0.524  0.2612  0.3088 -0.4414
 6097SOL    HW229751   3.626   0.595   0.540  0.3870  0.8663 -0.9929
 6098SOL     OW29752   4.606   1.290   8.166 -0.2298 -0.3108 -0.3178
 6098SOL    HW129753   4.514   1.278   8.190 -0.0285  0.2673  0.7290
 6098SOL    HW229754   4.636   1.209   8.125 -0.0401 -0.8408  0.8590
 6099SOL     OW29755   0.949   2.952   6.023  0.2270 -0.8328 -0.0561
 6099SOL    HW129756   0.903   3.022   5.976  0.0749  0.3278  1.8413
 6099SOL    HW229757   1.028   2.999   6.050 -1.2718  0.9376  1.2178
 6100SOL     OW29758   3.453   1.563   4.914 -0.6315 -0.0485 -0.3719
 6100SOL    HW129759   3.537   1.519   4.910 -0.4361  0.3630 -0.8602
 6100SOL    HW229760   3.390   1.509   4.962 -0.4608 -0.1670 -0.2839
 6101SOL     OW29761   2.941   3.150   1.262  0.1697  0.2778 -0.7531
 6101SOL    HW129762   2.860   3.158   1.212 -0.2609 -1.5793 -0.3443
 6101SOL    HW229763   2.926   3.202   1.342  0.4597  0.0718 -0.5642
 6102SOL     OW29764   1.786   0.443   8.971  0.2902 -0.7877  0.2622
 6102SOL    HW129765   1.843   0.381   9.016  2.6573  0.6988 -0.7332
 6102SOL    HW229766   1.786   0.510   9.039 -1.1536 -0.1858 -0.3210
 6103SOL     OW29767   4.393   2.678   5.461  0.3922 -0.0403  0.1830
 6103SOL    HW129768   4.459   2.745   5.481 -0.1765  0.5842 -0.0457
 6103SOL    HW229769   4.462   2.612   5.461  1.8438  1.4720 -0.8262
 6104SOL     OW29770   0.444   2.617  11.322 -0.2493 -0.5446  0.0010
 6104SOL    HW129771   0.424   2.638  11.231 -0.4598  0.2450  0.2308
 6104SOL    HW229772   0.402   2.689  11.369 -0.1096 -0.5143  0.0787
 6105SOL     OW29773   1.781   1.846   9.271 -0.5315 -0.3223 -0.3185
 6105SOL    HW129774   1.738   1.804   9.196 -0.7780 -0.8777  0.1340
 6105SOL    HW229775   1.702   1.846   9.325 -0.0479  0.8171  0.3785
 6106SOL     OW29776   0.061   2.516   1.318  0.7821 -0.0848 -0.0369
 6106SOL    HW129777   0.101   2.517   1.230  5.6135  0.1349  2.1560
 6106SOL    HW229778   0.100   2.598   1.347 -0.0494 -0.0177  0.8604
 6107SOL     OW29779   1.014   1.897  16.873  0.1298 -0.0674 -0.1586
 6107SOL    HW129780   1.029   1.911  16.966  0.6277  2.0848 -0.5510
 6107SOL    HW229781   0.985   1.806  16.875  2.6079 -0.9031 -1.3013
 6108SOL     OW29782   3.760   2.307   6.479 -0.3875 -0.1917  0.3180
 6108SOL    HW129783   3.756   2.233   6.540  2.9574  0.4048  1.2594
 6108SOL    HW229784   3.806   2.254   6.414  0.6285 -0.7521  1.4948
 6109SOL     OW29785   2.614   3.436   4.401 -0.5022 -0.0565 -0.0425
 6109SOL    HW129786   2.546   3.503   4.399  0.2141  0.6749 -0.3127
 6109SOL    HW229787   2.667   3.461   4.325 -3.1198 -1.2593 -2.2430
 6110SOL     OW29788   1.525   4.022   3.767 -0.0976 -0.3633  0.4462
 6110SOL    HW129789   1.435   4.052   3.774 -0.6638 -1.4405 -2.3070
 6110SOL    HW229790   1.522   4.000   3.674 -0.2418 -0.8069  0.5560
 6111SOL     OW29791   3.323   4.348   6.565  0.7402 -0.2858 -0.4303
 6111SOL    HW129792   3.339   4.256   6.587  2.5660 -0.2030 -1.4201
 6111SOL    HW229793   3.353   4.344   6.475 -0.1429  0.7840 -0.7722
 6112SOL     OW29794   3.186   0.355   8.271  0.5403 -0.1482 -0.3730
 6112SOL    HW129795   3.281   0.358   8.279  0.5456 -1.6250  0.1255
 6112SOL    HW229796   3.174   0.321   8.183  0.9408  0.6197 -0.7289
 6113SOL     OW29797   0.066   1.458  16.039  0.4683  0.2495 -0.3444
 6113SOL    HW129798   0.118   1.394  15.991  0.4652  0.3529 -0.4890
 6113SOL    HW229799   0.067   1.526  15.971  0.8220 -0.6149 -1.2009
 6114SOL     OW29800   0.497   1.050  15.190  0.2569  0.3302  0.5635
 6114SOL    HW129801   0.426   1.096  15.233  0.1106  0.6885 -0.0616
 6114SOL    HW229802   0.453   1.030  15.107  2.2246 -1.0905 -0.1404
 6115SOL     OW29803   3.423   4.286   8.657  0.2545 -0.3103  0.2874
 6115SOL    HW129804   3.341   4.318   8.620  0.5918  0.1277 -0.0886
 6115SOL    HW229805   3.410   4.302   8.751 -3.2047  0.6185 -0.3430
 6116SOL     OW29806   3.841   3.467   6.399  0.1962 -0.0459  0.2568
 6116SOL    HW129807   3.761   3.427   6.432  0.2927  1.6831  2.5595
 6116SOL    HW229808   3.890   3.471   6.481 -2.2419 -0.2592  1.7293
 6117SOL     OW29809   4.561   1.298   2.698  0.9676 -0.4158 -0.3050
 6117SOL    HW129810   4.579   1.392   2.689  2.0459 -0.4486  1.4778
 6117SOL    HW229811   4.551   1.271   2.607  1.0831  1.9539 -1.0448
 6118SOL     OW29812   0.609   2.128   4.033  0.1033  0.3638 -0.1302
 6118SOL    HW129813   0.571   2.042   4.012  0.6183  0.0948  0.0382
 6118SOL    HW229814   0.539   2.192   4.046  1.3426  1.6652 -0.0199
 6119SOL     OW29815   1.389   0.887   7.170 -0.5441 -0.7060 -0.2810
 6119SOL    HW129816   1.349   0.944   7.104  0.8657 -0.0466 -0.5696
 6119SOL    HW229817   1.423   0.959   7.223 -0.4593 -0.1914 -1.0268
 6120SOL     OW29818   1.414   0.745   8.547  0.1594 -0.0623  0.6140
 6120SOL    HW129819   1.503   0.717   8.524  0.1387  2.0362 -2.0358
 6120SOL    HW229820   1.407   0.701   8.632 -0.6662  0.4906  0.8289
 6121SOL     OW29821   4.541   2.825   7.341  0.7131 -0.5476  0.1337
 6121SOL    HW129822   4.600   2.799   7.412  1.4808  2.0016  0.4189
 6121SOL    HW229823   4.609   2.865   7.288 -0.3250  1.6722  0.4743
 6122SOL     OW29824   2.045   3.676  11.018  0.2686  0.2470  0.0921
 6122SOL    HW129825   2.141   3.681  11.010  0.2324 -0.9777 -1.0769
 6122SOL    HW229826   2.034   3.654  11.111  1.3518  1.1547  0.4359
 6123SOL     OW29827   1.386   4.322   5.485  0.5892  0.0749  0.2079
 6123SOL    HW129828   1.389   4.379   5.408 -0.5095 -0.8987 -0.5370
 6123SOL    HW229829   1.464   4.350   5.534 -0.0552  0.0638  1.2468
 6124SOL     OW29830   4.138   1.214   5.112 -0.5040  0.0706  0.1750
 6124SOL    HW129831   4.217   1.227   5.164  0.2209 -0.9470 -0.6681
 6124SOL    HW229832   4.097   1.143   5.163 -1.4200  0.2974 -0.2461
 6125SOL     OW29833   3.514   0.149  15.134 -0.5479  0.6191  0.6294
 6125SOL    HW129834   3.450   0.218  15.116 -1.5646 -0.3288  0.6152
 6125SOL    HW229835   3.467   0.100  15.202 -1.1115 -0.1031 -0.2817
 6126SOL     OW29836   2.930   2.376   2.570  0.0282  0.3715 -0.4411
 6126SOL    HW129837   2.851   2.364   2.517  1.3299  0.0946 -2.3568
 6126SOL    HW229838   2.897   2.345   2.654  0.1766 -1.2962 -1.0125
 6127SOL     OW29839   1.645   3.387  12.647 -0.0143 -0.3866 -0.0227
 6127SOL    HW129840   1.735   3.357  12.637 -0.1540 -0.5753 -0.6796
 6127SOL    HW229841   1.604   3.339  12.575  0.3164 -0.4117 -0.1896
 6128SOL     OW29842   1.524   0.258   8.480  0.0137 -0.1406  0.0791
 6128SOL    HW129843   1.578   0.332   8.507 -2.2650  1.7219 -0.4822
 6128SOL    HW229844   1.476   0.306   8.412 -2.0114 -0.4377  1.3240
 6129SOL     OW29845   1.138   3.234  11.790  0.1227 -0.3143 -0.4143
 6129SOL    HW129846   1.224   3.193  11.799 -0.9950 -2.1349  1.9396
 6129SOL    HW229847   1.112   3.248  11.881 -1.8980  1.8296 -1.3309
 6130SOL     OW29848   3.985   1.169   2.150 -0.0717 -0.7327 -0.6444
 6130SOL    HW129849   4.009   1.255   2.116  0.7775 -0.1443  1.4140
 6130SOL    HW229850   3.891   1.178   2.165 -0.1747 -0.3623 -1.5302
 6131SOL     OW29851   2.127   3.518  12.111  0.3896 -0.1361 -0.0108
 6131SOL    HW129852   2.110   3.452  12.043 -0.5226  0.5073 -0.4121
 6131SOL    HW229853   2.163   3.584  12.054  1.4024  1.8003  2.8736
 6132SOL     OW29854   3.511   2.991   4.489 -0.5813 -0.3708 -0.2955
 6132SOL    HW129855   3.447   3.047   4.532  1.1848  1.1071  0.3978
 6132SOL    HW229856   3.515   2.920   4.552 -0.1723 -2.8045 -3.0632
 6133SOL     OW29857   3.671   1.077   7.447 -0.3477 -0.4002  0.4520
 6133SOL    HW129858   3.680   1.170   7.429  0.3031 -0.1861  1.9000
 6133SOL    HW229859   3.576   1.064   7.456 -0.5517  0.9683  0.1447
 6134SOL     OW29860   0.953   0.366   4.782  0.3754  1.0401  0.1736
 6134SOL    HW129861   0.917   0.455   4.778  0.8959  1.2363 -0.2481
 6134SOL    HW229862   1.041   0.383   4.747 -0.3593 -1.0031 -2.7423
 6135SOL     OW29863   2.697   2.312  13.230 -0.2415  0.0111 -0.3315
 6135SOL    HW129864   2.754   2.236  13.214 -0.7402 -0.7984  1.7332
 6135SOL    HW229865   2.756   2.386  13.218  1.2079 -0.9666  0.6912
 6136SOL     OW29866   4.381   4.093   3.409 -0.0203 -0.4732  0.1759
 6136SOL    HW129867   4.424   4.111   3.493  1.3776  1.8758 -1.0389
 6136SOL    HW229868   4.291   4.099   3.440  1.4130 -0.1604  4.2143
 6137SOL     OW29869   2.213   4.569   8.398 -0.0372 -0.3575 -0.5186
 6137SOL    HW129870   2.281   4.588   8.463 -1.1173 -1.5133  0.9536
 6137SOL    HW229871   2.272   4.553   8.325  0.3129 -1.5061  0.0182
 6138SOL     OW29872   3.212   0.188  16.697  0.7515 -0.7572 -0.9355
 6138SOL    HW129873   3.151   0.242  16.647 -1.0777 -0.8353  1.1719
 6138SOL    HW229874   3.298   0.228  16.695  0.3172  0.2441  0.3464
 6139SOL     OW29875   1.936   4.457   7.840 -0.1519 -0.2427 -0.2091
 6139SOL    HW129876   1.896   4.494   7.761  0.5551  0.4601 -0.2304
 6139SOL    HW229877   1.869   4.474   7.906  0.3412 -0.4317  0.3446
 6140SOL     OW29878   4.570   3.402   4.943  0.5548  0.8153  0.1393
 6140SOL    HW129879   4.565   3.495   4.962 -0.6666  1.0010 -1.0829
 6140SOL    HW229880   4.486   3.393   4.897  0.7688 -1.2146  0.1414
 6141SOL     OW29881   1.995   1.214  14.563 -0.5320 -0.3560 -0.2797
 6141SOL    HW129882   1.910   1.257  14.548  1.2344  2.6479 -1.6377
 6141SOL    HW229883   1.974   1.177  14.649 -0.0042 -0.6465 -0.2735
 6142SOL     OW29884   2.663   2.277   4.016  0.0767 -0.2957  0.4335
 6142SOL    HW129885   2.746   2.303   3.975 -0.2786 -0.5882 -0.4785
 6142SOL    HW229886   2.680   2.291   4.109  0.1506  2.3095  0.0243
 6143SOL     OW29887   0.056   3.674   5.209  0.5355 -0.2286  0.1794
 6143SOL    HW129888   4.718   3.668   5.136 -0.6894  0.1418  1.1723
 6143SOL    HW229889   4.721   3.718   5.271 -1.5286 -1.4158 -0.9072
 6144SOL     OW29890   4.106   4.445   8.638  0.2393 -0.3827 -0.3902
 6144SOL    HW129891   4.074   4.399   8.716  2.0337  0.2740  0.7249
 6144SOL    HW229892   4.123   4.530   8.678 -2.6852  0.1787 -0.2946
 6145SOL     OW29893   0.888   1.615   7.752  0.0545  0.3243 -0.6811
 6145SOL    HW129894   0.801   1.596   7.714  0.6159  0.3994 -2.0149
 6145SOL    HW229895   0.909   1.524   7.775  1.1227  1.1746  1.6707
 6146SOL     OW29896   3.678   3.328   7.325 -0.3469 -0.6322  0.2171
 6146SOL    HW129897   3.633   3.306   7.243  1.2777 -0.4763 -0.7058
 6146SOL    HW229898   3.625   3.286   7.394 -0.3476  0.6344  0.9818
 6147SOL     OW29899   3.022   3.158   6.872 -0.4182  0.4386  0.2584
 6147SOL    HW129900   2.990   3.240   6.834  2.1645  0.4947 -1.8104
 6147SOL    HW229901   2.934   3.122   6.880  0.0108 -0.7006 -0.2577
 6148SOL     OW29902   3.755   0.831   2.895 -0.0902 -0.6328 -0.3397
 6148SOL    HW129903   3.765   0.736   2.896  0.2929 -0.5831  0.9106
 6148SOL    HW229904   3.664   0.835   2.865  0.2362  2.5723 -0.8913
 6149SOL     OW29905   0.117   3.549   0.755  0.2268  0.1345 -0.0378
 6149SOL    HW129906   0.076   3.517   0.675 -0.4139 -0.5961  0.5844
 6149SOL    HW229907   0.108   3.473   0.813  3.4459 -0.5504 -0.4412
 6150SOL     OW29908   1.940   3.590  17.438 -0.4823 -0.3008  0.0275
 6150SOL    HW129909   1.977   3.678  17.434 -4.0803  1.1981 -0.5399
 6150SOL    HW229910   1.871   3.614  17.501 -0.8092 -1.0073 -0.0550
 6151SOL     OW29911   3.599   2.239   7.013 -0.5640  0.2165 -0.2035
 6151SOL    HW129912   3.650   2.204   7.086 -0.5880 -0.7830 -0.6610
 6151SOL    HW229913   3.525   2.287   7.052 -1.4245 -1.4703  0.2316
 6152SOL     OW29914   0.907   4.187   0.218 -0.1718 -0.1856  0.1208
 6152SOL    HW129915   0.841   4.118   0.229  0.5891 -0.5610  2.2987
 6152SOL    HW229916   0.973   4.141   0.165  0.4645  0.4297  0.3679
 6153SOL     OW29917   4.274   1.744   8.368 -0.7624  0.3769  0.0914
 6153SOL    HW129918   4.303   1.829   8.401 -0.1221 -0.3108  1.2959
 6153SOL    HW229919   4.327   1.748   8.289 -1.5992 -0.8906 -0.5300
 6154SOL     OW29920   3.915   0.762  16.092  0.3172 -0.3269 -0.5823
 6154SOL    HW129921   3.936   0.668  16.094  1.0975 -0.1301  0.6206
 6154SOL    HW229922   3.819   0.761  16.094  0.2799  1.7976 -1.7728
 6155SOL     OW29923   3.902   1.688   7.933 -0.0893 -0.5163  0.1600
 6155SOL    HW129924   3.809   1.688   7.954 -0.1963 -1.1538 -0.3092
 6155SOL    HW229925   3.932   1.741   8.006  3.9221 -0.3943 -1.5369
 6156SOL     OW29926   4.664   2.296  14.885  0.4000 -0.2846 -0.0242
 6156SOL    HW129927   4.641   2.345  14.806 -0.5152  0.6943  0.8541
 6156SOL    HW229928   4.577   2.258  14.898  0.2764 -0.4826 -1.3918
 6157SOL     OW29929   4.075   3.825   7.189 -0.6997 -0.7649  0.7746
 6157SOL    HW129930   4.005   3.877   7.149  1.0004  1.8638  1.1787
 6157SOL    HW229931   4.136   3.896   7.212  0.3557 -1.2230 -0.6082
 6158SOL     OW29932   1.323   0.140   5.046 -0.2336 -0.4076  0.6819
 6158SOL    HW129933   1.233   0.170   5.053 -0.7077 -1.8292  0.5991
 6158SOL    HW229934   1.348   0.187   4.967  1.0147  0.7545  1.7668
 6159SOL     OW29935   4.607   0.369   9.026  0.4070  0.0043  0.2753
 6159SOL    HW129936   4.527   0.356   8.975  0.4392 -2.7209  0.9037
 6159SOL    HW229937   4.627   0.278   9.050 -2.6428 -0.9483 -0.7136
 6160SOL     OW29938   4.436   2.752   8.788  0.1196 -0.0166  0.0580
 6160SOL    HW129939   4.487   2.680   8.824 -0.4977 -1.7071 -2.4626
 6160SOL    HW229940   4.363   2.704   8.749  1.5668 -1.4837 -0.8626
 6161SOL     OW29941   0.946   0.014   4.203 -0.6069 -0.3198 -0.2251
 6161SOL    HW129942   0.976   0.008   4.294 -1.7948  0.8815  0.2487
 6161SOL    HW229943   0.851   0.003   4.214 -0.4075 -1.3935  0.5209
 6162SOL     OW29944   2.195   1.156  13.479  0.3474  0.3825  0.1075
 6162SOL    HW129945   2.247   1.076  13.472 -1.6316 -0.5802 -3.9301
 6162SOL    HW229946   2.109   1.122  13.504  1.4024 -0.2229  2.8262
 6163SOL     OW29947   1.209   0.172   0.206  0.2717 -0.4223 -0.4946
 6163SOL    HW129948   1.136   0.234   0.216  1.4375  1.0163 -0.9452
 6163SOL    HW229949   1.274   0.227   0.162  1.5113 -1.2755  0.2827
 6164SOL     OW29950   0.421   1.320   4.476 -0.2575  0.1763 -0.0465
 6164SOL    HW129951   0.422   1.249   4.539  0.5593  1.5408  1.4614
 6164SOL    HW229952   0.375   1.389   4.524  1.7422  1.2285  0.3760
 6165SOL     OW29953   0.629   0.216   9.889 -0.8480 -0.6212  0.2284
 6165SOL    HW129954   0.687   0.173   9.952  0.6872  1.4118  0.1819
 6165SOL    HW229955   0.543   0.225   9.931 -0.6289 -0.0289  0.5519
 6166SOL     OW29956   2.667   4.033   3.069  0.4449 -0.3912 -0.1924
 6166SOL    HW129957   2.664   3.952   3.019 -0.1111 -1.2644  1.2689
 6166SOL    HW229958   2.654   4.100   3.002  1.8040 -1.0745 -1.1399
 6167SOL     OW29959   3.920   2.386  17.102  0.4258  0.1586  0.2241
 6167SOL    HW129960   3.860   2.312  17.088 -0.1839  0.9538 -1.4250
 6167SOL    HW229961   3.967   2.361  17.182  1.2233  0.6554 -0.0978
 6168SOL     OW29962   1.953   2.933   2.546  0.4112  0.5734  0.1207
 6168SOL    HW129963   1.971   3.015   2.591  0.7231  0.9521 -0.6888
 6168SOL    HW229964   1.932   2.971   2.460 -0.8890 -0.8180 -0.1931
 6169SOL     OW29965   0.336   0.242   4.938 -0.4184  0.0570  0.3524
 6169SOL    HW129966   0.388   0.318   4.912  0.8423  0.1446  3.2065
 6169SOL    HW229967   0.397   0.170   4.924 -0.2128  0.1154  0.9553
 6170SOL     OW29968   2.945   3.108  10.272  0.4699 -0.2799 -0.6278
 6170SOL    HW129969   2.869   3.121  10.328  1.3452 -0.6823  0.6686
 6170SOL    HW229970   3.010   3.086  10.339  0.3491 -1.3216 -0.8480
 6171SOL     OW29971   3.505   2.293   3.628  0.0683  0.1375  0.2891
 6171SOL    HW129972   3.525   2.226   3.694 -0.3897 -1.1208 -0.8545
 6171SOL    HW229973   3.431   2.339   3.666  1.0897 -0.3460  2.8787
 6172SOL     OW29974   2.122   4.376   1.658 -0.2427  0.4660  0.5257
 6172SOL    HW129975   2.070   4.430   1.599 -1.7097  1.5793  2.8157
 6172SOL    HW229976   2.059   4.376   1.730 -2.7870  0.8951 -1.7353
 6173SOL     OW29977   0.445   3.430   3.944 -0.3311 -0.1822  0.1562
 6173SOL    HW129978   0.434   3.520   3.914 -0.8516  0.0799  1.1344
 6173SOL    HW229979   0.494   3.450   4.023  0.1012  0.4126 -0.2645
 6174SOL     OW29980   2.366   0.379   9.372  0.1463  0.0074 -0.6590
 6174SOL    HW129981   2.279   0.354   9.340 -0.0664 -0.8097  0.5616
 6174SOL    HW229982   2.405   0.293   9.386  4.6581  2.2393  0.3147
 6175SOL     OW29983   2.814   3.591   2.551 -0.1584 -0.0419 -0.2564
 6175SOL    HW129984   2.731   3.590   2.504  0.8168 -1.1882 -1.9267
 6175SOL    HW229985   2.864   3.652   2.498  0.6749  0.3776  1.0142
 6176SOL     OW29986   2.451   2.028   6.860  0.1429  0.4610  0.2116
 6176SOL    HW129987   2.547   2.024   6.866  0.1382  0.3054  0.1881
 6176SOL    HW229988   2.441   2.092   6.789  1.3026 -0.3030 -0.6465
 6177SOL     OW29989   3.449   0.977  11.261  0.2865  0.1118 -0.5554
 6177SOL    HW129990   3.364   1.015  11.281  0.7994  0.7177  0.4533
 6177SOL    HW229991   3.499   1.033  11.320 -1.2315  0.8764 -0.0246
 6178SOL     OW29992   3.298   1.780   5.972 -0.2820 -0.3523  0.3141
 6178SOL    HW129993   3.283   1.837   6.047  0.5908  1.0294 -0.5588
 6178SOL    HW229994   3.211   1.741   5.962  0.1224 -1.0126 -0.7183
 6179SOL     OW29995   3.101   3.883   8.182 -0.0401 -0.8745 -0.1625
 6179SOL    HW129996   3.077   3.972   8.208 -0.8616 -1.0997 -0.1420
 6179SOL    HW229997   3.021   3.833   8.197 -1.5118  2.2341  2.4388
 6180SOL     OW29998   2.094   1.288   5.936 -0.3583 -0.2114 -0.0210
 6180SOL    HW129999   2.051   1.293   6.021 -1.0621 -1.9570 -0.2694
 6180SOL    HW230000   2.017   1.300   5.881 -1.0433  0.2790  1.0572
 6181SOL     OW30001   0.145   1.680  13.617 -0.3243 -0.7729  0.0100
 6181SOL    HW130002   0.116   1.750  13.559  0.3710 -0.1368  0.4333
 6181SOL    HW230003   0.240   1.670  13.613 -0.3085 -0.8002  0.4389
 6182SOL     OW30004   1.831   3.109   2.018 -0.5097  0.2495  0.0125
 6182SOL    HW130005   1.886   3.185   1.997 -1.8012  0.9404 -0.8833
 6182SOL    HW230006   1.768   3.109   1.945 -0.9203 -0.1205  0.3651
 6183SOL     OW30007   4.098   1.648  16.947  0.4133 -0.6325 -0.1153
 6183SOL    HW130008   4.186   1.609  16.943  0.7562  0.1034  0.3154
 6183SOL    HW230009   4.101   1.666  17.041 -1.0189  0.2520 -0.2321
 6184SOL     OW30010   3.125   3.133   8.661  0.5390 -0.3180 -0.0509
 6184SOL    HW130011   3.160   3.148   8.573 -4.1841 -1.2286 -2.0857
 6184SOL    HW230012   3.131   3.218   8.706 -1.7411  0.2864 -0.9054
 6185SOL     OW30013   0.019   2.085   6.851 -0.6940  0.4069 -0.0324
 6185SOL    HW130014   0.104   2.112   6.887 -0.4377 -2.2369  1.3697
 6185SOL    HW230015   0.055   2.016   6.794  0.1102 -1.8877  3.2158
 6186SOL     OW30016   0.130   0.983  15.043 -0.7969 -0.0295 -0.5775
 6186SOL    HW130017   0.119   0.891  15.018  0.2827  0.6246 -3.4953
 6186SOL    HW230018   0.223   0.988  15.020 -0.9638 -1.7668 -1.6203
 6187SOL     OW30019   3.094   4.213  13.693 -0.2009  0.0452  0.0930
 6187SOL    HW130020   3.156   4.188  13.624  0.4388 -0.2333  0.7773
 6187SOL    HW230021   3.115   4.306  13.695  0.2898 -0.0086 -2.1683
 6188SOL     OW30022   4.216   2.459   2.419  0.1955  0.3544 -0.7011
 6188SOL    HW130023   4.168   2.377   2.422  3.1433 -1.3739 -0.5945
 6188SOL    HW230024   4.257   2.462   2.506 -2.4424 -0.4800  0.5610
 6189SOL     OW30025   1.942   3.693   6.804  0.7049  0.4064  0.1981
 6189SOL    HW130026   1.910   3.729   6.722 -2.6854 -0.9697  0.9023
 6189SOL    HW230027   1.986   3.617   6.768  0.7815 -0.2340  1.6431
 6190SOL     OW30028   2.552   3.106   8.191  0.1701 -0.0429 -0.1306
 6190SOL    HW130029   2.628   3.142   8.236 -1.8232  1.3528  2.0927
 6190SOL    HW230030   2.527   3.041   8.257 -0.7542 -0.5816 -0.9977
 6191SOL     OW30031   1.182   0.333   5.317  0.0519  0.6009  0.3530
 6191SOL    HW130032   1.156   0.425   5.312  0.1286  0.6819  1.6512
 6191SOL    HW230033   1.120   0.292   5.376 -0.3030 -0.0834 -0.4894
 6192SOL     OW30034   1.641   4.147   7.793 -0.8803 -0.0190 -0.0864
 6192SOL    HW130035   1.646   4.184   7.881 -0.0796 -2.4397  0.8654
 6192SOL    HW230036   1.615   4.057   7.808 -2.3762  0.5162  0.5057
 6193SOL     OW30037   2.113   3.979   5.519  0.4896 -0.0838 -0.4595
 6193SOL    HW130038   2.032   3.941   5.485 -0.3654  1.9719 -0.7220
 6193SOL    HW230039   2.073   4.047   5.574 -1.2691  1.0735 -3.1325
 6194SOL     OW30040   0.126   1.179   3.583 -0.0792  0.1444  0.2111
 6194SOL    HW130041   0.178   1.224   3.649 -1.2667  1.8690 -0.0308
 6194SOL    HW230042   0.193   1.160   3.517  2.2904  0.0719  2.6551
 6195SOL     OW30043   4.706   3.711   6.289 -0.1441 -0.2356 -0.1817
 6195SOL    HW130044   4.651   3.766   6.346  0.5829 -0.0610  0.3489
 6195SOL    HW230045   0.012   3.772   6.221 -1.5692 -0.0146 -0.5930
 6196SOL     OW30046   1.735   1.093   5.944 -0.5512  0.0354  0.1831
 6196SOL    HW130047   1.778   1.009   5.928 -0.8503 -0.7701  3.7047
 6196SOL    HW230048   1.780   1.149   5.882 -0.5134  0.4355  0.5733
 6197SOL     OW30049   4.150   4.602   9.051 -0.1342 -0.1719  0.1583
 6197SOL    HW130050   4.211   4.621   8.980 -0.9536 -0.2393 -0.5633
 6197SOL    HW230051   4.093   4.543   9.001 -1.3191  1.0235  0.0835
 6198SOL     OW30052   1.174   1.316  12.772  0.0247  0.0784 -0.3693
 6198SOL    HW130053   1.215   1.374  12.836  1.3944  1.6214 -2.6845
 6198SOL    HW230054   1.086   1.355  12.769 -0.4142 -1.0173 -1.4233
 6199SOL     OW30055   2.312   4.081  11.530 -0.0349  0.1757  0.2868
 6199SOL    HW130056   2.225   4.114  11.507 -0.0549  1.0071  1.5637
 6199SOL    HW230057   2.286   4.062  11.620 -0.8997 -1.2207 -0.2648
 6200SOL     OW30058   4.360   4.717   4.538 -0.3441 -0.2152  0.2545
 6200SOL    HW130059   4.293   4.668   4.491  0.1432  0.0092 -0.6705
 6200SOL    HW230060   4.361   0.071   4.481 -0.1597  1.8325  3.0068
 6201SOL     OW30061   4.067   2.783   0.439  0.3750  0.6561  0.4467
 6201SOL    HW130062   4.020   2.717   0.491 -1.7945  1.0711 -0.9593
 6201SOL    HW230063   4.110   2.833   0.509  1.2416  1.0113 -0.3498
 6202SOL     OW30064   2.262   1.918   9.862  0.0975  0.6456  0.1960
 6202SOL    HW130065   2.179   1.895   9.821  0.1512  0.2860  0.2902
 6202SOL    HW230066   2.232   1.934   9.951  2.2841 -0.3537  1.1132
 6203SOL     OW30067   3.520   3.669   4.778 -0.0927  0.4351 -0.5135
 6203SOL    HW130068   3.432   3.704   4.788  0.5401  1.5071  1.1678
 6203SOL    HW230069   3.513   3.628   4.691  0.2016 -0.7019 -0.0005
 6204SOL     OW30070   4.062   1.750   8.142 -0.8972 -0.2990 -0.0554
 6204SOL    HW130071   4.104   1.835   8.155 -1.1958 -0.2902  0.8559
 6204SOL    HW230072   4.064   1.713   8.230  0.1029 -1.0187 -0.3731
 6205SOL     OW30073   4.331   3.345   5.376 -0.1857  0.0529 -0.1291
 6205SOL    HW130074   4.368   3.268   5.418 -0.3530 -0.0039 -0.0845
 6205SOL    HW230075   4.255   3.349   5.435 -1.0875  1.2182 -1.3749
 6206SOL     OW30076   3.357   2.791   7.764 -0.2687  0.0468  0.1967
 6206SOL    HW130077   3.417   2.783   7.689 -0.0814 -2.0642  0.5759
 6206SOL    HW230078   3.297   2.861   7.740 -0.1869  0.7157  1.9936
 6207SOL     OW30079   2.450   0.956  14.131  0.2787 -0.1929  0.0192
 6207SOL    HW130080   2.511   0.917  14.069 -1.2141 -2.4600 -0.0005
 6207SOL    HW230081   2.399   0.885  14.170  1.4716  0.6743  3.1679
 6208SOL     OW30082   4.715   0.416   8.773 -0.7264 -0.0544  0.0476
 6208SOL    HW130083   4.667   0.426   8.855  0.3602 -1.3352  0.8502
 6208SOL    HW230084   4.657   0.460   8.712  0.8795  2.2234  0.1908
 6209SOL     OW30085   2.153   3.298  16.198 -0.2130 -0.2942  0.5637
 6209SOL    HW130086   2.123   3.311  16.108 -1.6594 -0.9449  0.9590
 6209SOL    HW230087   2.233   3.352  16.203  0.5117 -1.0754 -2.9340
 6210SOL     OW30088   3.911   1.164  17.591 -0.1046 -0.5549  0.2376
 6210SOL    HW130089   3.920   1.092  17.528  2.8732  0.1345 -0.1294
 6210SOL    HW230090   3.987   1.217  17.568 -0.5205 -1.0956 -2.3125
 6211SOL     OW30091   3.413   4.080   7.592 -0.2880  0.5159 -0.1744
 6211SOL    HW130092   3.507   4.088   7.578 -0.1391 -1.9384 -0.5397
 6211SOL    HW230093   3.401   4.050   7.682 -0.9023 -0.1625 -0.4809
 6212SOL     OW30094   4.054   3.529   2.441 -0.2915  0.0842 -0.4865
 6212SOL    HW130095   4.006   3.535   2.359  1.0724  0.4702 -1.2578
 6212SOL    HW230096   3.995   3.577   2.499  0.6229 -0.1358  0.6187
 6213SOL     OW30097   1.102   3.886  15.532 -0.4069 -0.0801 -0.2418
 6213SOL    HW130098   1.097   3.791  15.530  1.0989 -0.1848  0.5441
 6213SOL    HW230099   1.166   3.894  15.461 -1.2594  2.5200 -0.7248
 6214SOL     OW30100   3.391   2.565   3.212 -0.4957 -0.8103  0.0776
 6214SOL    HW130101   3.464   2.578   3.273 -1.3601 -0.8579  1.1219
 6214SOL    HW230102   3.324   2.554   3.279 -0.4552 -4.1432 -0.4327
 6215SOL     OW30103   2.362   2.903   1.244 -0.1492 -0.3898  0.6610
 6215SOL    HW130104   2.360   2.983   1.191  0.3122 -0.0246  1.1914
 6215SOL    HW230105   2.270   2.879   1.237  0.1243 -0.8341 -1.3794
 6216SOL     OW30106   3.448   0.994   9.900 -0.1188 -0.3502  0.4434
 6216SOL    HW130107   3.483   1.067   9.949  1.3011 -0.6446 -0.1445
 6216SOL    HW230108   3.354   1.014   9.896 -0.4099 -1.8247 -0.2479
 6217SOL     OW30109   2.140   3.152   4.802  0.3572 -0.1282  0.3121
 6217SOL    HW130110   2.150   3.174   4.709  1.9312  1.2547  0.8101
 6217SOL    HW230111   2.110   3.236   4.837  0.1765 -0.0511 -0.0184
 6218SOL     OW30112   4.625   3.750   1.302 -0.2096  0.7734  0.1999
 6218SOL    HW130113   4.647   3.705   1.221  0.7261 -0.4928  1.1613
 6218SOL    HW230114   4.531   3.732   1.295 -0.3795  1.3238  1.0990
 6219SOL     OW30115   2.938   4.283  10.613 -0.4482  0.3429 -0.3319
 6219SOL    HW130116   3.015   4.274  10.558  1.2151  2.3356  1.6317
 6219SOL    HW230117   2.979   4.309  10.696 -2.9637  1.6858  0.4949
 6220SOL     OW30118   4.517   0.377   6.031 -0.6655 -0.3130  0.1868
 6220SOL    HW130119   4.554   0.303   6.080 -0.0654  0.2237  0.5491
 6220SOL    HW230120   4.484   0.339   5.950 -1.6290 -0.1469  0.5018
 6221SOL     OW30121   2.748   3.077   6.871  0.5699 -0.0120  0.0782
 6221SOL    HW130122   2.719   2.988   6.889  2.2660 -1.0893 -2.4432
 6221SOL    HW230123   2.691   3.126   6.930  0.5538 -0.2247  0.2359
 6222SOL     OW30124   0.914   4.438   6.161  0.1722 -0.2210  0.2375
 6222SOL    HW130125   0.935   4.398   6.076  0.4713 -0.5261  0.4571
 6222SOL    HW230126   0.900   4.528   6.133 -0.3960  0.0944  1.5390
 6223SOL     OW30127   3.493   1.864   5.368  0.0801  0.2186  0.0274
 6223SOL    HW130128   3.534   1.812   5.436 -0.7308 -0.1006  0.2727
 6223SOL    HW230129   3.525   1.820   5.289  1.4213 -0.0183  0.7094
 6224SOL     OW30130   3.443   4.637   3.863  0.0360 -0.5111  0.6699
 6224SOL    HW130131   3.484   4.587   3.933 -1.2111 -2.0992  0.2793
 6224SOL    HW230132   3.445   4.573   3.792 -0.8619 -0.8160  0.9178
 6225SOL     OW30133   3.816   2.396   1.291  0.0472  0.3095  0.5662
 6225SOL    HW130134   3.851   2.337   1.358  0.0235  0.4849  0.7333
 6225SOL    HW230135   3.723   2.395   1.313 -0.1856 -0.6608 -0.4290
 6226SOL     OW30136   2.644   0.156   7.487  0.0148 -0.2239  0.4524
 6226SOL    HW130137   2.635   0.069   7.449  3.0865  0.3021 -1.4918
 6226SOL    HW230138   2.551   0.176   7.473  0.3118  0.4104 -0.6232
 6227SOL     OW30139   4.620   2.586  15.867 -0.2326 -0.2995  0.5658
 6227SOL    HW130140   4.710   2.553  15.864 -0.8944 -2.2899  2.0153
 6227SOL    HW230141   4.574   2.523  15.811 -0.8826  1.1482 -0.5229
 6228SOL     OW30142   3.289   4.102   5.610 -0.0825  0.1092  0.3215
 6228SOL    HW130143   3.219   4.047   5.646 -0.5734 -0.6967 -1.8896
 6228SOL    HW230144   3.293   4.168   5.679 -0.5062  0.2875  0.1724
 6229SOL     OW30145   1.180   0.260   0.594  0.3413 -0.4925  0.2379
 6229SOL    HW130146   1.176   0.354   0.613  1.3765 -0.1114 -1.4493
 6229SOL    HW230147   1.126   0.250   0.515 -1.2385  0.5485  1.1787
 6230SOL     OW30148   2.403   2.018   4.406 -0.3126 -0.2050  0.2501
 6230SOL    HW130149   2.456   2.033   4.329  0.0049  0.0183  0.5125
 6230SOL    HW230150   2.340   2.086   4.382  0.0635  0.4864  1.2035
 6231SOL     OW30151   3.710   1.651   8.158  0.3557 -0.6825  0.3720
 6231SOL    HW130152   3.720   1.680   8.248 -0.1393  0.2046  0.1382
 6231SOL    HW230153   3.622   1.688   8.155  1.4614  1.9002 -0.4689
 6232SOL     OW30154   1.355   2.788  15.604 -0.1660  0.5358  0.2923
 6232SOL    HW130155   1.368   2.694  15.593  1.1491  0.9507 -1.6663
 6232SOL    HW230156   1.271   2.791  15.650 -1.2556  0.6775 -1.6922
 6233SOL     OW30157   1.885   0.411  11.940 -0.2365  0.2131  0.3575
 6233SOL    HW130158   1.876   0.503  11.915 -1.6711  0.0852  0.4369
 6233SOL    HW230159   1.865   0.365  11.858  1.5184  0.5732 -0.2840
 6234SOL     OW30160   0.568   3.487  14.715 -0.0015  0.2458  0.0291
 6234SOL    HW130161   0.641   3.549  14.714  1.0251 -0.9692  0.0747
 6234SOL    HW230162   0.504   3.551  14.746 -0.9053 -0.1886 -0.9578
 6235SOL     OW30163   4.225   3.298   4.175 -0.0032 -0.1030  0.2450
 6235SOL    HW130164   4.150   3.238   4.169  1.0102 -1.4251  0.6228
 6235SOL    HW230165   4.209   3.352   4.098  0.6595  1.0084  0.8875
 6236SOL     OW30166   3.494   2.763   0.658 -0.0010 -0.5274  0.4470
 6236SOL    HW130167   3.442   2.766   0.739  1.5582 -0.8217  1.4720
 6236SOL    HW230168   3.577   2.773   0.706  0.1989  3.1509 -0.6438
 6237SOL     OW30169   3.108   1.326  11.339  0.1450 -0.1559 -0.7471
 6237SOL    HW130170   3.164   1.254  11.308  0.5475  0.1763 -0.7863
 6237SOL    HW230171   3.027   1.310  11.289  0.6353 -0.4265 -1.4514
 6238SOL     OW30172   3.704   3.330  13.349  0.4647 -0.3523  0.6990
 6238SOL    HW130173   3.753   3.262  13.303  1.0249  0.0193  0.7366
 6238SOL    HW230174   3.785   3.373  13.376  0.0677  0.7997  0.0953
 6239SOL     OW30175   3.208   2.510   2.324 -0.2530  0.8249 -0.4351
 6239SOL    HW130176   3.127   2.561   2.318  0.1047  1.8968  3.6263
 6239SOL    HW230177   3.224   2.483   2.234  0.4332  3.3660 -1.0840
 6240SOL     OW30178   1.572   0.672   3.197 -0.2236 -0.1275  0.0408
 6240SOL    HW130179   1.532   0.759   3.192  1.9248  0.7389 -1.8179
 6240SOL    HW230180   1.504   0.626   3.147 -1.4673  0.4378  1.2078
 6241SOL     OW30181   2.314   2.353   4.999  0.2795  0.3822  0.3134
 6241SOL    HW130182   2.300   2.357   4.904  3.5819  1.6731 -0.1319
 6241SOL    HW230183   2.405   2.381   4.998  0.0219  1.1967 -0.6700
 6242SOL     OW30184   2.835   1.539  11.417 -0.2917  0.2824  0.4524
 6242SOL    HW130185   2.924   1.533  11.449  0.1606  2.3239 -0.4484
 6242SOL    HW230186   2.842   1.628  11.382  0.4224  0.0795  0.0852
 6243SOL     OW30187   2.134   2.557   3.492  0.5901  0.3618  0.1833
 6243SOL    HW130188   2.133   2.634   3.437  0.8859  0.1790 -0.0771
 6243SOL    HW230189   2.040   2.539   3.489  0.5375  0.6635  0.1223
 6244SOL     OW30190   1.322   0.974   8.454 -0.0425 -0.3501 -0.0444
 6244SOL    HW130191   1.358   0.890   8.479  2.0031  1.1383  1.9509
 6244SOL    HW230192   1.228   0.955   8.446  0.5280 -2.4923 -1.6739
 6245SOL     OW30193   2.325   0.152  14.934  0.4306 -0.3984 -0.0051
 6245SOL    HW130194   2.237   0.147  14.896  0.0826 -0.9375  0.8708
 6245SOL    HW230195   2.356   0.063  14.917  0.7104 -0.3769  0.4189
 6246SOL     OW30196   0.021   2.995   2.026  0.6046 -0.1657  0.3361
 6246SOL    HW130197   0.053   3.046   2.100 -1.3896  1.7703 -0.1576
 6246SOL    HW230198   0.052   2.907   2.050 -0.2528 -0.3775  0.6736
 6247SOL     OW30199   3.593   2.282   2.881  0.5060 -0.0040  0.4764
 6247SOL    HW130200   3.643   2.204   2.904  0.1112 -0.5421 -0.5369
 6247SOL    HW230201   3.650   2.346   2.924  0.4417 -0.5218  1.3339
 6248SOL     OW30202   3.013   1.487   8.952 -0.0189  0.2148 -0.1468
 6248SOL    HW130203   3.103   1.513   8.971 -0.5922  0.9886  1.5412
 6248SOL    HW230204   2.981   1.574   8.976 -0.0058 -0.3609  1.8952
 6249SOL     OW30205   2.337   4.122  10.328  0.0117  0.3064 -0.2682
 6249SOL    HW130206   2.289   4.187  10.378  0.9023  0.5029  0.3232
 6249SOL    HW230207   2.395   4.090  10.397 -0.8634  0.3465  0.4787
 6250SOL     OW30208   4.038   2.295  17.360 -0.0134  0.5872 -1.0348
 6250SOL    HW130209   3.960   2.294  17.415 -0.7310  1.6548 -2.0272
 6250SOL    HW230210   4.049   2.203  17.337  0.7427 -0.2026  2.5029
 6251SOL     OW30211   2.541   1.601   0.197 -0.0028  0.3629 -0.0994
 6251SOL    HW130212   2.564   1.622   0.106  1.2691  1.0345  0.3715
 6251SOL    HW230213   2.496   1.520   0.176  0.1508  0.0986  0.6151
 6252SOL     OW30214   2.190   3.179   8.374 -0.0645  0.1399 -0.3700
 6252SOL    HW130215   2.230   3.113   8.431 -2.3987  1.0241  2.2786
 6252SOL    HW230216   2.113   3.129   8.347 -0.1766  0.6891 -1.0691
 6253SOL     OW30217   2.513   4.191  17.615  0.0881 -0.1315  0.3429
 6253SOL    HW130218   2.483   4.254  17.681 -1.5377  0.4543 -0.9661
 6253SOL    HW230219   2.442   4.127  17.616  0.5018 -0.5723  3.7806
 6254SOL     OW30220   4.521   2.149  12.203  0.4950 -0.0550  0.3404
 6254SOL    HW130221   4.594   2.210  12.199 -0.3163  0.8579 -0.5018
 6254SOL    HW230222   4.505   2.121  12.113 -0.2093  2.8063 -0.3984
 6255SOL     OW30223   4.174   3.837  16.076  0.4320 -0.4664  0.3696
 6255SOL    HW130224   4.146   3.880  15.996 -0.8924 -1.4858  0.2832
 6255SOL    HW230225   4.089   3.820  16.118  1.0323  0.0751  1.8129
 6256SOL     OW30226   1.450   1.775   6.017  0.7267  0.4785 -0.3492
 6256SOL    HW130227   1.455   1.742   6.106  1.6141  0.0959 -0.5502
 6256SOL    HW230228   1.525   1.834   6.006  0.8774  0.2970 -0.2846
 6257SOL     OW30229   0.332   2.008   8.548  0.0655 -0.5172 -0.6644
 6257SOL    HW130230   0.415   2.031   8.589 -1.6278  0.8615  2.0077
 6257SOL    HW230231   0.316   2.086   8.495 -1.3604 -0.3859 -0.0525
 6258SOL     OW30232   3.551   3.287  12.091 -0.1020 -0.4501  0.8303
 6258SOL    HW130233   3.590   3.242  12.016 -1.1639  1.7294 -1.0221
 6258SOL    HW230234   3.478   3.333  12.050 -0.5546 -1.4974  0.4585
 6259SOL     OW30235   0.268   4.321   3.924  0.3634  0.2328  0.2326
 6259SOL    HW130236   0.299   4.397   3.876 -1.1356  1.6938  1.5587
 6259SOL    HW230237   0.195   4.292   3.870 -0.3402  0.9805  0.7815
 6260SOL     OW30238   1.115   0.224  11.120 -0.3057  0.0695  0.2982
 6260SOL    HW130239   1.092   0.315  11.140 -0.7038 -0.3333  1.6521
 6260SOL    HW230240   1.029   0.183  11.135  0.3878 -2.6160 -3.0889
 6261SOL     OW30241   2.673   1.746   2.685 -0.2861 -0.5231 -0.4077
 6261SOL    HW130242   2.589   1.745   2.639 -1.3299 -2.7574  1.5299
 6261SOL    HW230243   2.661   1.662   2.730 -0.0395 -0.1156  0.4185
 6262SOL     OW30244   1.286   4.179   5.916 -0.3412 -0.0790 -0.3854
 6262SOL    HW130245   1.243   4.258   5.951  1.8690  2.3314 -3.0503
 6262SOL    HW230246   1.208   4.125   5.903 -0.9485  0.7247 -0.1427
 6263SOL     OW30247   2.801   0.439   6.506 -0.4520 -0.0343  0.1967
 6263SOL    HW130248   2.841   0.384   6.572 -0.1553  0.8125  0.7287
 6263SOL    HW230249   2.773   0.515   6.558 -0.8897 -0.1270  0.0995
 6264SOL     OW30250   4.027   1.682   9.300 -0.5981  0.0383  0.2765
 6264SOL    HW130251   3.976   1.760   9.276 -1.7228 -0.8260 -0.1568
 6264SOL    HW230252   4.086   1.729   9.360 -0.1141 -0.3999  0.1419
 6265SOL     OW30253   2.789   4.155   9.336 -0.1668  0.0333 -0.1743
 6265SOL    HW130254   2.818   4.143   9.245  0.6338 -0.3029  0.1290
 6265SOL    HW230255   2.870   4.192   9.373  0.3805 -0.2157 -1.1122
 6266SOL     OW30256   1.635   0.926   4.688 -0.1833 -0.1831 -0.0345
 6266SOL    HW130257   1.617   0.898   4.778 -1.8919  1.4346  0.1239
 6266SOL    HW230258   1.651   0.844   4.642  1.0925 -0.2918  0.5882
 6267SOL     OW30259   2.046   1.037   3.803  0.4550 -0.1599  0.0725
 6267SOL    HW130260   2.056   1.126   3.839  0.1904  0.7354 -2.0661
 6267SOL    HW230261   1.998   1.052   3.722  3.1395  1.0941 -1.2784
 6268SOL     OW30262   4.657   4.279   5.585 -0.1365  0.0444 -0.5185
 6268SOL    HW130263   4.621   4.196   5.616 -0.8551 -0.0965 -1.7446
 6268SOL    HW230264   4.702   4.244   5.508  0.8861 -1.7997  0.8990
 6269SOL     OW30265   1.735   0.812   1.851  0.3904  0.3838  0.4247
 6269SOL    HW130266   1.716   0.898   1.814  0.3275  0.4355  0.5757
 6269SOL    HW230267   1.762   0.760   1.775 -1.5456  1.3744 -0.9230
 6270SOL     OW30268   3.667   0.911   3.902 -0.3031 -0.4618 -0.5112
 6270SOL    HW130269   3.592   0.970   3.909 -1.5103 -2.4357  3.4193
 6270SOL    HW230270   3.749   0.958   3.916 -1.8980  1.6186  1.8702
 6271SOL     OW30271   3.674   3.852   5.344 -0.4870 -0.0597 -0.0647
 6271SOL    HW130272   3.670   3.937   5.387  0.0712 -0.4826  0.8158
 6271SOL    HW230273   3.581   3.837   5.327 -0.4445  0.1174 -0.4546
 6272SOL     OW30274   2.654   0.107  15.719  0.0284  0.3751 -0.5164
 6272SOL    HW130275   2.586   0.039  15.720  1.5803 -1.1757  1.9767
 6272SOL    HW230276   2.708   0.086  15.796 -0.3133  0.7995 -0.1618
 6273SOL     OW30277   1.797   3.280   3.294  0.2158 -0.3382  0.2183
 6273SOL    HW130278   1.822   3.294   3.386 -1.1286  0.8198  0.4032
 6273SOL    HW230279   1.735   3.207   3.289 -1.1371  0.9123 -0.8840
 6274SOL     OW30280   1.509   4.587  11.200  0.3548 -0.0311 -0.1735
 6274SOL    HW130281   1.556   4.600  11.118  1.5569 -0.5030  0.4400
 6274SOL    HW230282   1.433   4.643  11.191 -0.6405 -1.0560  1.7352
 6275SOL     OW30283   3.669   0.258   0.603 -0.2447  0.0193  0.0835
 6275SOL    HW130284   3.579   0.291   0.594 -0.9073 -1.7105  0.3569
 6275SOL    HW230285   3.717   0.340   0.591 -0.4690  0.2982  1.0948
 6276SOL     OW30286   0.415   4.530  15.398 -0.1595 -0.5243  0.1126
 6276SOL    HW130287   0.460   4.447  15.412  0.5464 -0.7685 -3.6015
 6276SOL    HW230288   0.328   4.504  15.429  0.7366 -1.4996  1.8333
 6277SOL     OW30289   2.653   0.258   6.807  0.1431 -0.1726 -0.3651
 6277SOL    HW130290   2.574   0.294   6.767 -0.4257 -0.0248  0.8999
 6277SOL    HW230291   2.703   0.340   6.810 -0.9862  0.5788 -2.2550
 6278SOL     OW30292   2.927   4.661   9.028 -0.8943 -0.5815 -0.8128
 6278SOL    HW130293   3.002   4.696   8.979 -2.6511  2.9498 -0.9546
 6278SOL    HW230294   2.868   0.013   9.029 -0.1953 -0.0686  1.3118
 6279SOL     OW30295   0.528   3.623  10.212  0.4341 -0.2848  0.1654
 6279SOL    HW130296   0.587   3.586  10.277  1.0469  1.8935  0.8446
 6279SOL    HW230297   0.523   3.712  10.246  4.7133 -0.1543  0.4272
 6280SOL     OW30298   1.074   4.005   3.016 -0.3189  0.0435  0.1123
 6280SOL    HW130299   1.067   3.910   3.019 -0.2922  0.0491  0.4110
 6280SOL    HW230300   1.161   4.006   3.056  0.9136  0.7050 -2.5732
 6281SOL     OW30301   3.562   0.354   4.529  0.1058 -0.2765  0.1775
 6281SOL    HW130302   3.563   0.266   4.568 -4.1843 -0.3160  0.1792
 6281SOL    HW230303   3.576   0.409   4.606 -0.4879 -0.0206  0.0984
 6282SOL     OW30304   3.270   1.916  11.403  0.4604 -0.2691 -0.7354
 6282SOL    HW130305   3.208   1.909  11.330  0.4879  4.0194 -1.1692
 6282SOL    HW230306   3.337   1.980  11.378 -1.0402  1.5650 -0.1157
 6283SOL     OW30307   4.657   2.692   1.115 -0.9475  0.6449  0.0462
 6283SOL    HW130308   4.717   2.679   1.041 -0.2419 -2.5041  1.1568
 6283SOL    HW230309   4.701   2.652   1.190 -1.6307  1.5360  0.9240
 6284SOL     OW30310   2.568   1.013  10.608  0.0637  0.1611 -0.6065
 6284SOL    HW130311   2.638   0.999  10.544  0.7348  2.0979 -0.3057
 6284SOL    HW230312   2.596   1.092  10.655  0.4520 -0.1230 -0.3643
 6285SOL     OW30313   0.881   0.767   3.435 -0.4824 -0.0838 -0.0630
 6285SOL    HW130314   0.856   0.722   3.516 -1.5484 -1.0143 -0.9098
 6285SOL    HW230315   0.942   0.826   3.479 -0.1217 -0.9001  0.5358
 6286SOL     OW30316   2.340   3.755   4.857  0.3516  0.1772  0.5248
 6286SOL    HW130317   2.380   3.842   4.867  1.4117 -0.3497  0.7836
 6286SOL    HW230318   2.299   3.751   4.944 -0.7553  2.2938  0.1162
 6287SOL     OW30319   0.292   1.505   4.594 -0.3479 -0.1784  0.1609
 6287SOL    HW130320   0.257   1.590   4.567 -0.5940 -0.4632 -0.4124
 6287SOL    HW230321   0.250   1.492   4.679 -0.3279 -3.8309 -0.3837
 6288SOL     OW30322   3.301   1.431   5.877 -0.3003 -0.0126  0.2616
 6288SOL    HW130323   3.331   1.341   5.892 -0.6250 -0.6930 -2.9814
 6288SOL    HW230324   3.384   1.471   5.849 -0.9485  0.4893 -0.9599
 6289SOL     OW30325   4.602   0.627   5.990  0.2141  0.2989 -0.0911
 6289SOL    HW130326   4.579   0.546   6.034 -1.0904  0.2932 -0.7690
 6289SOL    HW230327   4.676   0.603   5.933  0.4028  1.2378 -0.2480
 6290SOL     OW30328   0.538   1.299   2.283  0.1718 -0.4303  0.0952
 6290SOL    HW130329   0.515   1.389   2.262 -0.1715 -0.7671 -0.9585
 6290SOL    HW230330   0.626   1.293   2.247 -0.3868 -1.0003 -1.1925
 6291SOL     OW30331   1.363   0.256  10.661 -0.4732 -0.7195 -0.1355
 6291SOL    HW130332   1.292   0.289  10.717  0.1907 -1.9064  1.4007
 6291SOL    HW230333   1.443   0.293  10.697 -0.6185 -2.2924  1.8609
 6292SOL     OW30334   0.920   4.658   1.643 -0.4834 -0.2572  0.8767
 6292SOL    HW130335   0.830   4.632   1.623 -1.2943  1.4391  2.3963
 6292SOL    HW230336   0.958   4.570   1.650  0.4729  0.1399  0.5896
 6293SOL     OW30337   1.199   1.462   6.946  0.1758  0.8260  0.4533
 6293SOL    HW130338   1.168   1.521   6.877 -1.7199  0.0996  0.6822
 6293SOL    HW230339   1.265   1.415   6.894  0.2389  2.3191 -0.8213
 6294SOL     OW30340   1.838   1.348   7.567 -0.6970 -0.3275 -0.1928
 6294SOL    HW130341   1.831   1.443   7.561 -2.2025 -0.3005  2.1587
 6294SOL    HW230342   1.771   1.319   7.505 -1.4690 -0.7612  0.8526
 6295SOL     OW30343   4.681   3.496   8.260 -0.1183 -0.2302 -0.0672
 6295SOL    HW130344   4.672   3.541   8.344  1.2024 -0.0433 -0.0368
 6295SOL    HW230345   4.594   3.478   8.225  0.5273 -0.4469 -1.5245
 6296SOL     OW30346   4.386   1.674  17.468 -0.1259 -0.1634 -0.6084
 6296SOL    HW130347   4.411   1.756  17.426  0.3419 -1.1510 -2.2156
 6296SOL    HW230348   4.358   1.617  17.397  0.2239 -0.3666 -0.5806
 6297SOL     OW30349   4.183   3.018  13.897 -0.1294  0.0648 -0.4005
 6297SOL    HW130350   4.221   3.106  13.897 -0.1984  0.1107  2.1097
 6297SOL    HW230351   4.236   2.980  13.827  0.3997  1.7345 -0.9003
 6298SOL     OW30352   2.291   2.761   6.123 -0.0949 -0.0286  0.3338
 6298SOL    HW130353   2.312   2.688   6.064  1.1644  0.0977  0.6384
 6298SOL    HW230354   2.368   2.814   6.104 -0.0990 -0.9692 -2.3938
 6299SOL     OW30355   1.497   1.834  12.972 -0.2539 -0.2027 -0.5233
 6299SOL    HW130356   1.428   1.795  13.026  2.1092 -1.9528  1.2682
 6299SOL    HW230357   1.566   1.839  13.038 -2.2264 -1.1821  1.6409
 6300SOL     OW30358   4.326   3.502   8.703 -0.5764 -0.1268  0.1829
 6300SOL    HW130359   4.314   3.507   8.798 -2.0971  2.6134 -0.1499
 6300SOL    HW230360   4.398   3.563   8.690  0.1304 -0.7035  1.4380
 6301SOL     OW30361   2.709   1.861   0.783  0.1199  0.0429 -0.3920
 6301SOL    HW130362   2.750   1.783   0.749 -2.6008 -0.8722 -1.5683
 6301SOL    HW230363   2.640   1.855   0.717  0.0593 -3.3014 -0.0069
 6302SOL     OW30364   3.797   1.416   8.388 -0.5376  0.3038 -0.6613
 6302SOL    HW130365   3.765   1.326   8.381  1.9152 -0.8020  2.5157
 6302SOL    HW230366   3.791   1.441   8.296  2.6379  1.6431 -0.4985
 6303SOL     OW30367   1.914   4.098   7.655 -0.2799  0.1242  0.2060
 6303SOL    HW130368   1.982   4.148   7.698 -0.0147 -0.2056  0.1711
 6303SOL    HW230369   1.836   4.117   7.707  0.9216  1.6084  1.4434
 6304SOL     OW30370   2.442   4.675   8.533  0.0301 -0.0948  0.2652
 6304SOL    HW130371   2.475   0.022   8.478 -2.8316  1.1716  0.1384
 6304SOL    HW230372   2.401   0.004   8.602  1.0721 -1.2871  1.7828
 6305SOL     OW30373   2.183   3.429   4.081  0.0674  0.2037  0.2718
 6305SOL    HW130374   2.099   3.391   4.106  0.1164  0.0428  0.1906
 6305SOL    HW230375   2.192   3.503   4.140  0.8145 -0.2439  0.7052
 6306SOL     OW30376   4.282   1.896   4.163  0.1896 -0.5035  0.2975
 6306SOL    HW130377   4.272   1.991   4.158 -1.7301 -0.6746  0.8764
 6306SOL    HW230378   4.360   1.885   4.218  0.7196  0.1741 -0.3097
 6307SOL     OW30379   3.773   3.789   4.838 -0.7285  0.5892  0.0860
 6307SOL    HW130380   3.685   3.757   4.820 -0.6764  0.2526  0.4286
 6307SOL    HW230381   3.821   3.711   4.867 -0.7860 -0.1423 -1.8006
 6308SOL     OW30382   3.375   3.152   2.020  0.2200 -0.2870  0.0652
 6308SOL    HW130383   3.312   3.224   2.014  0.1296 -0.2679  1.2824
 6308SOL    HW230384   3.331   3.076   1.983 -0.3154 -1.6813  3.5381
 6309SOL     OW30385   1.263   1.184  15.859  0.7119  0.1858 -0.6397
 6309SOL    HW130386   1.241   1.277  15.864  0.2755  0.2087 -3.2036
 6309SOL    HW230387   1.281   1.172  15.766 -2.6120 -4.2546 -0.7101
 6310SOL     OW30388   0.045   2.308   8.885  0.1066 -0.0455  0.8916
 6310SOL    HW130389   0.042   2.243   8.815 -0.8227  0.2276  0.6836
 6310SOL    HW230390   4.685   2.296   8.931 -0.6958  3.0313  0.2243
 6311SOL     OW30391   2.805   4.116   0.723 -0.3038 -0.1208 -0.0517
 6311SOL    HW130392   2.809   4.127   0.628 -0.4070  0.5047  0.0127
 6311SOL    HW230393   2.715   4.133   0.749 -0.1654 -0.1753  0.4706
 6312SOL     OW30394   3.895   3.869   5.511 -0.3978 -0.3547  0.3524
 6312SOL    HW130395   3.947   3.791   5.525 -0.8904 -0.7491 -0.0189
 6312SOL    HW230396   3.839   3.839   5.439  0.3455  0.0961 -0.4249
 6313SOL     OW30397   3.705   1.712  10.658  0.4452 -0.0572  0.5198
 6313SOL    HW130398   3.689   1.618  10.657  0.3710 -0.0486  0.7023
 6313SOL    HW230399   3.638   1.742  10.720  1.0056  0.6293  0.7959
 6314SOL     OW30400   3.244   2.552   4.955  0.1953 -0.4744 -0.2465
 6314SOL    HW130401   3.248   2.595   4.870  1.6280 -0.3433 -0.1202
 6314SOL    HW230402   3.336   2.546   4.981  0.0177 -3.6382 -0.3987
 6315SOL     OW30403   3.676   3.643   7.363  0.4892 -0.1135 -0.0223
 6315SOL    HW130404   3.607   3.590   7.403 -0.9193  1.5598 -0.2402
 6315SOL    HW230405   3.737   3.570   7.349  0.5512  0.0095 -0.4101
 6316SOL     OW30406   3.632   4.546   6.058  0.0352 -0.0528  0.9922
 6316SOL    HW130407   3.662   4.523   5.970 -1.5139  0.1692  0.4121
 6316SOL    HW230408   3.556   4.489   6.060  0.6543 -0.8849  0.6405
 6317SOL     OW30409   4.105   0.814  14.436 -0.1810  0.4126 -0.0261
 6317SOL    HW130410   4.197   0.840  14.446 -0.4529  2.0325 -1.7267
 6317SOL    HW230411   4.087   0.761  14.514  0.8635  0.5957  0.3388
 6318SOL     OW30412   1.703   2.998   3.673 -0.0863  0.0059 -0.0807
 6318SOL    HW130413   1.619   3.027   3.709  0.9914  0.6236  1.9418
 6318SOL    HW230414   1.730   3.079   3.629  0.0151  1.1706  2.1145
 6319SOL     OW30415   3.781   2.092   4.237 -0.0581 -0.2651  0.1328
 6319SOL    HW130416   3.801   2.176   4.196 -0.1403  0.0200  0.6678
 6319SOL    HW230417   3.854   2.100   4.299  0.8514 -0.5832 -0.9055
 6320SOL     OW30418   1.487   1.259   4.763  0.5680  0.2109  0.0301
 6320SOL    HW130419   1.463   1.337   4.813 -1.3131 -0.8060  0.7345
 6320SOL    HW230420   1.537   1.302   4.693 -0.2543  0.4192 -0.4336
 6321SOL     OW30421   4.369   0.101   4.777  0.0637 -0.0860  0.4522
 6321SOL    HW130422   4.373   0.023   4.832 -2.6150 -2.2613 -2.4515
 6321SOL    HW230423   4.364   0.063   4.689 -0.7287 -0.6562  0.7410
 6322SOL     OW30424   1.410   1.903   2.996 -0.5863  0.5545  0.0158
 6322SOL    HW130425   1.490   1.927   2.948 -0.1732  0.0551  0.4674
 6322SOL    HW230426   1.372   1.991   3.005  1.4480  1.3741  0.5951
 6323SOL     OW30427   1.183   3.948   6.417  0.9121 -0.2518  0.3977
 6323SOL    HW130428   1.221   3.864   6.394 -0.9466 -0.5321 -1.6435
 6323SOL    HW230429   1.190   3.945   6.512 -0.0182  1.7659  0.5251
 6324SOL     OW30430   1.219   3.634   1.778  0.1169 -0.1844  0.0636
 6324SOL    HW130431   1.136   3.660   1.818 -0.8391  1.3920 -2.8995
 6324SOL    HW230432   1.287   3.659   1.841  0.7161 -0.5084 -0.4608
 6325SOL     OW30433   3.655   0.550  14.791 -0.4903 -0.4322  0.3367
 6325SOL    HW130434   3.702   0.482  14.839 -0.7192 -0.6680  0.2265
 6325SOL    HW230435   3.569   0.509  14.784 -1.3044  1.2854  0.1664
 6326SOL     OW30436   2.625   3.345   6.985  0.3863  0.2713 -0.2175
 6326SOL    HW130437   2.661   3.372   7.069  0.8484 -3.1749  0.7168
 6326SOL    HW230438   2.553   3.293   7.021 -0.1294  1.6271  0.7074
 6327SOL     OW30439   2.269   4.182  13.684 -0.7473  0.3505 -0.7751
 6327SOL    HW130440   2.360   4.158  13.667 -1.0500  0.4322 -2.4644
 6327SOL    HW230441   2.281   4.240  13.759 -0.1492 -1.1817  0.3270
 6328SOL     OW30442   1.883   3.277   5.003  0.2055  0.2208  0.8690
 6328SOL    HW130443   1.818   3.211   4.979 -0.2250  1.4558 -1.2836
 6328SOL    HW230444   1.838   3.358   4.979  0.6831  0.4266  0.6642
 6329SOL     OW30445   2.155   2.038   0.845 -0.0556  0.3141 -0.1283
 6329SOL    HW130446   2.172   2.130   0.823  1.8767  0.7863  3.3586
 6329SOL    HW230447   2.149   2.036   0.941 -2.0749 -0.9630 -0.2986
 6330SOL     OW30448   3.711   1.178   5.107  0.0662  0.1159 -0.1042
 6330SOL    HW130449   3.684   1.138   5.024  1.5679 -0.0416 -0.5221
 6330SOL    HW230450   3.627   1.206   5.141 -0.0647  0.2865 -0.5640
 6331SOL     OW30451   0.676   4.383   5.332 -0.1149  0.6616 -0.3769
 6331SOL    HW130452   0.752   4.343   5.375 -2.3422 -1.0072  1.9870
 6331SOL    HW230453   0.643   4.302   5.294  0.1692  0.3205  0.1060
 6332SOL     OW30454   3.370   1.946   9.237  0.4148  0.7534 -0.2542
 6332SOL    HW130455   3.408   2.021   9.192  1.9078 -0.9077 -1.8142
 6332SOL    HW230456   3.311   1.994   9.295 -1.4836  1.5509 -2.8415
 6333SOL     OW30457   4.304   4.148   3.127  0.0785 -0.6615  0.2368
 6333SOL    HW130458   4.301   4.238   3.160  1.6544 -1.1394  1.7213
 6333SOL    HW230459   4.273   4.114   3.211 -0.6238 -0.1890  0.1603
 6334SOL     OW30460   2.551   3.000  10.474  0.2402  0.9784 -0.4994
 6334SOL    HW130461   2.583   2.911  10.488 -3.2942 -0.0444  1.0446
 6334SOL    HW230462   2.458   2.982  10.463  0.1354  1.5513 -0.5769
 6335SOL     OW30463   3.838   2.731  14.757 -0.2865 -0.0662  0.0314
 6335SOL    HW130464   3.744   2.743  14.768 -0.0004  2.5696 -0.3780
 6335SOL    HW230465   3.867   2.758  14.844 -0.8292  0.3036  0.0961
 6336SOL     OW30466   2.775   4.084   6.550 -0.0607 -0.6009 -0.8395
 6336SOL    HW130467   2.771   4.178   6.532  0.3478 -0.5180 -0.4978
 6336SOL    HW230468   2.686   4.053   6.534 -1.9732  2.5002  3.4807
 6337SOL     OW30469   3.964   1.838   9.976 -0.2832 -0.6974 -0.5512
 6337SOL    HW130470   3.885   1.834  10.030  0.1475 -0.5649  0.0770
 6337SOL    HW230471   3.943   1.784   9.899  2.5527 -0.3405 -1.5842
 6338SOL     OW30472   0.938   4.473  16.008  0.2295 -0.0111 -0.0392
 6338SOL    HW130473   0.973   4.393  15.970  0.8454  1.0634 -1.7431
 6338SOL    HW230474   0.978   4.469  16.095  0.0260  1.3838  0.1238
 6339SOL     OW30475   4.587   0.777   5.234 -0.1315  0.1454 -0.1377
 6339SOL    HW130476   4.584   0.872   5.248  2.4155  0.0265  1.2085
 6339SOL    HW230477   4.567   0.738   5.319  0.0735 -2.2437 -1.1884
 6340SOL     OW30478   2.293   4.076   4.570 -0.3094  0.5436 -0.3743
 6340SOL    HW130479   2.255   3.992   4.542  3.4246 -1.0667 -0.6739
 6340SOL    HW230480   2.378   4.074   4.525 -0.5793 -1.1234 -0.8156
 6341SOL     OW30481   2.455   4.692  15.184 -0.0370 -0.6862 -0.5628
 6341SOL    HW130482   2.378   0.021  15.162 -0.0740 -0.3554  0.3640
 6341SOL    HW230483   2.468   4.631  15.112  1.1619 -0.5090 -0.5005
 6342SOL     OW30484   4.129   1.621   3.056 -0.4605  0.4442 -0.2131
 6342SOL    HW130485   4.218   1.597   3.030 -0.7150 -0.4561 -0.2604
 6342SOL    HW230486   4.143   1.714   3.074 -0.9706  0.6043 -0.6249
 6343SOL     OW30487   4.097   1.015  10.093 -0.0924  0.0045 -0.3218
 6343SOL    HW130488   4.010   1.046  10.118 -0.3226 -0.6209 -0.3742
 6343SOL    HW230489   4.121   0.960  10.167  1.7397  1.1676 -0.0371
 6344SOL     OW30490   2.492   3.490   1.912  0.0784  0.1898 -0.1634
 6344SOL    HW130491   2.573   3.439   1.917 -0.4393 -0.4447  1.7929
 6344SOL    HW230492   2.499   3.555   1.982 -2.6117  0.4282 -0.1063
 6345SOL     OW30493   3.819   0.027  14.881  0.2012 -0.2718 -0.1030
 6345SOL    HW130494   3.884   4.689  14.847  0.9453  1.3821 -1.6949
 6345SOL    HW230495   3.859   0.039  14.967 -0.6782 -0.0321  0.2723
 6346SOL     OW30496   0.701   1.826  13.721  0.2628 -0.0085 -1.1270
 6346SOL    HW130497   0.671   1.911  13.688 -1.1287 -0.0667  0.0200
 6346SOL    HW230498   0.763   1.865  13.783  0.1056 -0.7162 -0.5232
 6347SOL     OW30499   4.156   2.001   3.887  0.4370  1.0159 -0.2296
 6347SOL    HW130500   4.190   2.087   3.911  0.0506  0.9345  0.6394
 6347SOL    HW230501   4.181   1.950   3.965 -1.4663  0.1150 -0.1992
 6348SOL     OW30502   3.827   0.825  14.365  0.0606  0.0186 -0.2081
 6348SOL    HW130503   3.809   0.749  14.419 -2.0243 -0.2750 -1.3181
 6348SOL    HW230504   3.919   0.842  14.386 -0.2890 -1.6136  2.6066
 6349SOL     OW30505   2.895   2.708   4.537 -0.3096 -0.0661 -0.2357
 6349SOL    HW130506   2.812   2.755   4.541  0.0362  0.5300 -0.1108
 6349SOL    HW230507   2.945   2.775   4.582 -0.8854  0.8281 -0.9247
 6350SOL     OW30508   1.639   0.224   5.265 -0.2753  0.3706  0.3802
 6350SOL    HW130509   1.648   0.310   5.224 -0.0338 -1.3056 -3.1027
 6350SOL    HW230510   1.720   0.181   5.238 -0.5786 -0.8052  1.3282
 6351SOL     OW30511   4.104   0.212   6.797  0.1216  0.0440 -0.6318
 6351SOL    HW130512   4.108   0.305   6.774  1.3772 -0.0954 -0.9654
 6351SOL    HW230513   4.019   0.187   6.763  0.9841 -0.7759 -2.1613
 6352SOL     OW30514   1.181   2.467   1.875 -0.7416 -0.4597 -0.2395
 6352SOL    HW130515   1.087   2.453   1.859 -0.8427  0.7973 -0.7967
 6352SOL    HW230516   1.198   2.387   1.925  2.2871 -0.4895 -1.3080
 6353SOL     OW30517   0.121   1.756   0.726 -0.3143  0.1155 -0.6014
 6353SOL    HW130518   0.121   1.723   0.636 -1.7727  0.9609 -0.9027
 6353SOL    HW230519   0.095   1.846   0.706  0.4265  0.3846 -0.3535
 6354SOL     OW30520   1.339   4.307   6.893 -0.2067  0.2286  0.2098
 6354SOL    HW130521   1.389   4.227   6.910 -0.7442 -0.7793 -2.9875
 6354SOL    HW230522   1.287   4.280   6.817 -1.6668  1.7540  0.6906
 6355SOL     OW30523   4.125   4.465   5.458  0.2500  0.1526 -0.4229
 6355SOL    HW130524   4.124   4.536   5.522 -0.6856 -0.3777  0.1600
 6355SOL    HW230525   4.136   4.387   5.513  1.2503 -0.0554 -0.9098
 6356SOL     OW30526   0.822   4.091   2.489  0.5790  0.0041 -0.7891
 6356SOL    HW130527   0.810   4.137   2.572 -1.8753 -0.3059 -0.9903
 6356SOL    HW230528   0.735   4.105   2.452  0.5622 -0.9931 -1.1328
 6357SOL     OW30529   0.522   2.351   6.603 -0.3203  0.3553 -0.1157
 6357SOL    HW130530   0.601   2.321   6.558 -1.0253 -2.6216  0.6574
 6357SOL    HW230531   0.561   2.399   6.677  2.2538  0.9509 -1.8331
 6358SOL     OW30532   3.752   4.253   8.242  0.4810  0.2727  0.0194
 6358SOL    HW130533   3.660   4.253   8.215  0.5990  1.5501 -0.4005
 6358SOL    HW230534   3.745   4.203   8.323 -1.1887  2.9453  1.5338
 6359SOL     OW30535   3.030   1.656   4.897 -0.3446  0.0258 -0.4612
 6359SOL    HW130536   3.063   1.658   4.988 -1.0248 -1.4137 -0.1853
 6359SOL    HW230537   2.956   1.715   4.912  0.0349  0.6171 -0.8928
 6360SOL     OW30538   2.938   3.938   5.466  0.4261  0.7822  0.2860
 6360SOL    HW130539   3.001   3.941   5.537  1.9183 -1.8809 -0.9129
 6360SOL    HW230540   2.854   3.933   5.512  0.3537 -2.0320 -0.1006
 6361SOL     OW30541   4.709   3.134   6.609  0.1448 -0.4083 -0.3620
 6361SOL    HW130542   0.049   3.064   6.627 -0.6731 -1.4406 -1.4949
 6361SOL    HW230543   4.632   3.105   6.658  0.5150  1.1857  1.1750
 6362SOL     OW30544   4.176   0.315  16.629  0.1243  0.1858  0.0646
 6362SOL    HW130545   4.190   0.361  16.547 -1.9449 -1.1750 -1.0730
 6362SOL    HW230546   4.259   0.268  16.636 -0.0687 -0.3675 -1.3414
 6363SOL     OW30547   4.031   2.304   4.846 -0.2384  0.3186  0.6311
 6363SOL    HW130548   3.994   2.220   4.871  0.2402  0.4792  1.8977
 6363SOL    HW230549   4.119   2.288   4.881  0.2568 -1.3596 -1.3956
 6364SOL     OW30550   4.182   3.033   6.971 -0.0691  0.2339 -0.0679
 6364SOL    HW130551   4.168   2.952   6.923  1.2658  0.1572 -0.3309
 6364SOL    HW230552   4.104   3.077   6.937 -0.6961 -0.9549 -0.1729
 6365SOL     OW30553   4.131   2.345   4.008  0.2295 -0.3380  0.8717
 6365SOL    HW130554   4.089   2.421   3.968 -1.0235 -0.9515  1.0533
 6365SOL    HW230555   4.062   2.313   4.066  0.2118 -2.0990 -0.1317
 6366SOL     OW30556   4.592   4.104   9.744 -0.4849 -0.0275  0.2280
 6366SOL    HW130557   4.616   4.012   9.734 -0.9685 -0.5793  4.0602
 6366SOL    HW230558   4.523   4.093   9.810  0.2879  3.0598  1.5569
 6367SOL     OW30559   2.277   0.475   8.752 -1.0412 -0.4339  0.3720
 6367SOL    HW130560   2.198   0.457   8.702  0.4261 -2.9879 -1.0418
 6367SOL    HW230561   2.341   0.437   8.692 -1.3201 -0.6719  0.2306
 6368SOL     OW30562   3.227   1.663  17.352  0.1893 -0.3954  0.2674
 6368SOL    HW130563   3.271   1.664  17.267  2.3923  1.1324  1.4027
 6368SOL    HW230564   3.142   1.694  17.320  2.1390  4.3516 -0.3400
 6369SOL     OW30565   2.828   2.932  14.249  0.2180 -0.5044 -0.2260
 6369SOL    HW130566   2.921   2.931  14.225  0.4899  1.3241  0.7076
 6369SOL    HW230567   2.818   2.873  14.324  2.4177  0.0281  0.4911
 6370SOL     OW30568   0.339   2.751   0.781 -0.4153 -0.2497 -0.3722
 6370SOL    HW130569   0.415   2.797   0.747 -1.1637  1.2553  0.0087
 6370SOL    HW230570   0.276   2.772   0.712 -1.5507  0.2281  0.8134
 6371SOL     OW30571   1.509   4.443   5.687 -0.3993  0.0965 -0.4536
 6371SOL    HW130572   1.503   4.520   5.630 -0.0120  0.8889  0.5708
 6371SOL    HW230573   1.474   4.481   5.768  0.0996 -0.7911  0.1751
 6372SOL     OW30574   2.196   1.496   8.379  0.3953  0.6628  0.2867
 6372SOL    HW130575   2.166   1.452   8.300  1.1583  0.3911  0.1502
 6372SOL    HW230576   2.144   1.442   8.440 -1.2378  2.1064  0.1772
 6373SOL     OW30577   3.796   2.990   7.106  0.3501  0.2994  0.3519
 6373SOL    HW130578   3.701   2.978   7.095  0.5790 -1.7728  0.7580
 6373SOL    HW230579   3.824   2.899   7.111 -0.0173  0.1887  0.4423
 6374SOL     OW30580   4.526   2.714  17.560  0.6157 -0.1564  0.6542
 6374SOL    HW130581   4.498   2.642  17.505  0.3545  0.4510 -0.0079
 6374SOL    HW230582   4.559   2.779  17.498  0.0945 -0.5342 -0.0092
 6375SOL     OW30583   1.423   3.630   4.746  0.2699  0.5682  0.0344
 6375SOL    HW130584   1.337   3.635   4.786  0.1609 -2.9598  0.2882
 6375SOL    HW230585   1.451   3.557   4.802  0.6746  0.1929 -0.6601
 6376SOL     OW30586   2.850   0.184   9.109 -0.2517 -0.0512  0.0551
 6376SOL    HW130587   2.794   0.255   9.140 -2.4320 -1.9841  0.5775
 6376SOL    HW230588   2.869   0.138   9.191  0.5869 -0.3532 -0.3153
 6377SOL     OW30589   0.271   4.523  15.073  0.0951  0.5833  0.5555
 6377SOL    HW130590   0.311   4.568  15.148  0.4482 -1.4577  1.5929
 6377SOL    HW230591   0.343   4.462  15.054 -0.4202 -0.0970  0.7656
 6378SOL     OW30592   2.127   3.318  12.368  1.0751 -0.1073 -0.1016
 6378SOL    HW130593   2.169   3.294  12.286  0.3624  0.8063 -0.7509
 6378SOL    HW230594   2.036   3.333  12.339  0.8375 -1.8699 -0.2688
 6379SOL     OW30595   4.306   0.709   7.968 -0.0836 -0.5046  0.2130
 6379SOL    HW130596   4.335   0.622   7.997 -0.3537 -1.6889 -2.9959
 6379SOL    HW230597   4.254   0.680   7.893  2.3253 -1.7275 -0.9950
 6380SOL     OW30598   2.363   3.723   7.879 -0.3612  0.1135 -0.1546
 6380SOL    HW130599   2.350   3.817   7.889 -0.9569  0.0050  0.0951
 6380SOL    HW230600   2.310   3.689   7.951 -1.9368  0.2209 -1.2620
 6381SOL     OW30601   0.201   3.534  12.324  0.5091  0.3083  0.4838
 6381SOL    HW130602   0.270   3.486  12.370  1.1030 -1.4587 -2.2794
 6381SOL    HW230603   0.134   3.471  12.349  0.0208  0.1645 -1.1927
 6382SOL     OW30604   4.177   1.455   7.585 -0.3326 -0.2810 -0.1387
 6382SOL    HW130605   4.098   1.478   7.633  0.8587 -0.2776  1.8115
 6382SOL    HW230606   4.236   1.449   7.660  0.1350  0.3412 -0.4525
 6383SOL     OW30607   2.091   1.199   6.727 -0.3137 -0.1814  0.7097
 6383SOL    HW130608   2.037   1.278   6.725  0.7597  0.5034 -2.1961
 6383SOL    HW230609   2.108   1.180   6.819  0.8316 -0.2596  0.4917
 6384SOL     OW30610   1.388   3.163   8.032  0.1384  0.1700 -0.0183
 6384SOL    HW130611   1.445   3.098   8.073  0.9149  1.3660  0.7818
 6384SOL    HW230612   1.425   3.175   7.944 -1.7399 -0.9023 -0.9584
 6385SOL     OW30613   1.999   2.296   4.191  0.8082 -0.1125 -0.5068
 6385SOL    HW130614   1.957   2.227   4.140  0.3199 -1.7573  2.1231
 6385SOL    HW230615   1.920   2.329   4.234  0.1136 -0.8795 -1.1891
 6386SOL     OW30616   1.100   2.944  17.585 -0.3141 -0.2747  0.1068
 6386SOL    HW130617   1.095   2.854  17.616 -0.9690 -0.5558 -0.7938
 6386SOL    HW230618   1.127   2.984  17.667 -0.8816  0.4033 -0.0330
 6387SOL     OW30619   1.711   2.623   9.640  0.2891 -0.6194  0.3266
 6387SOL    HW130620   1.678   2.640   9.552 -0.5609  0.7996  0.9240
 6387SOL    HW230621   1.797   2.588   9.615  0.1206 -0.1864 -0.8266
 6388SOL     OW30622   0.864   3.051  12.976 -0.0988 -0.5414  0.3486
 6388SOL    HW130623   0.944   3.021  13.017  1.1588 -0.3526 -1.9691
 6388SOL    HW230624   0.795   2.999  13.016 -1.2837 -0.3315 -1.3891
 6389SOL     OW30625   4.663   2.345   7.141  0.0690  0.6095 -0.0693
 6389SOL    HW130626   4.603   2.371   7.211 -1.6903  0.8849 -1.6882
 6389SOL    HW230627   4.654   2.250   7.141 -1.8324  0.7926 -0.8375
 6390SOL     OW30628   3.575   1.034  12.010 -0.0052  0.2025 -0.2008
 6390SOL    HW130629   3.598   0.943  12.031  0.6085 -0.4175 -3.5575
 6390SOL    HW230630   3.585   1.036  11.915 -0.5216 -1.8164 -0.3120
 6391SOL     OW30631   1.874   0.308   6.354  0.7681 -0.2166  0.0556
 6391SOL    HW130632   1.877   0.404   6.357 -0.6843 -0.1446 -0.8542
 6391SOL    HW230633   1.790   0.284   6.392 -0.2686  1.4189 -1.2112
 6392SOL     OW30634   1.163   2.505   4.167 -0.6053 -0.4997 -0.7515
 6392SOL    HW130635   1.117   2.423   4.187  1.6473 -1.2804  1.1608
 6392SOL    HW230636   1.227   2.481   4.101  1.1556  0.6292  0.5487
 6393SOL     OW30637   1.416   3.875  12.742 -0.0553 -0.4601 -0.4447
 6393SOL    HW130638   1.495   3.923  12.717  0.0021 -0.2177  0.1845
 6393SOL    HW230639   1.453   3.791  12.716  0.0970 -0.5796  0.1633
 6394SOL     OW30640   1.294   4.450  15.589 -0.3417 -0.2212 -0.3216
 6394SOL    HW130641   1.253   4.502  15.658  2.6631  2.0294 -0.1790
 6394SOL    HW230642   1.240   4.372  15.600 -2.5452  1.4299  0.6595
 6395SOL     OW30643   4.204   1.196   9.300 -0.4073 -0.6163  0.0442
 6395SOL    HW130644   4.168   1.113   9.331  0.6635 -0.9448  0.4082
 6395SOL    HW230645   4.206   1.187   9.205  0.2029  2.8470 -0.2526
 6396SOL     OW30646   4.355   0.245   5.009 -0.6936 -0.2141 -0.1401
 6396SOL    HW130647   4.322   0.163   5.045 -1.0475  0.1598  0.3842
 6396SOL    HW230648   4.357   0.212   4.919 -1.9431 -1.7680  0.3933
 6397SOL     OW30649   3.276   2.998   2.927 -0.2257 -0.1576 -0.3443
 6397SOL    HW130650   3.356   2.945   2.931  0.3330  0.9087  2.5666
 6397SOL    HW230651   3.243   2.965   3.010  1.4625  1.2009  0.8706
 6398SOL     OW30652   1.249   1.531   3.147 -0.0283 -0.2040 -0.1202
 6398SOL    HW130653   1.160   1.539   3.181 -0.4871  0.3593 -1.4301
 6398SOL    HW230654   1.238   1.483   3.064 -2.5735 -0.3420  0.2770
 6399SOL     OW30655   0.051   0.744   8.032  0.4619 -0.4471  0.4320
 6399SOL    HW130656   4.714   0.808   7.993 -0.7929 -0.6019  2.1247
 6399SOL    HW230657   0.114   0.798   8.079  1.1096 -0.3989 -0.4783
 6400SOL     OW30658   3.941   2.182   4.442 -1.0300 -0.2251  0.0826
 6400SOL    HW130659   4.023   2.220   4.409 -1.6556  1.1111  0.0827
 6400SOL    HW230660   3.980   2.143   4.520  0.8678  1.0619 -0.2232
 6401SOL     OW30661   0.879   1.464  10.373  0.1902 -0.3651  0.2179
 6401SOL    HW130662   0.799   1.422  10.342  0.8121 -0.9039 -0.7003
 6401SOL    HW230663   0.898   1.515  10.294 -1.5548  3.2161  2.1570
 6402SOL     OW30664   4.666   1.212   5.032 -0.1131 -0.0920 -0.1860
 6402SOL    HW130665   4.608   1.279   5.069 -0.7295  0.4223 -2.1114
 6402SOL    HW230666   4.606   1.159   4.979  0.6297 -0.3368 -0.7706
 6403SOL     OW30667   3.657   1.748   9.035  0.2974  0.1757  0.1390
 6403SOL    HW130668   3.627   1.825   9.083 -0.7200 -0.5529  0.6586
 6403SOL    HW230669   3.594   1.684   9.068 -1.3056  0.6691 -1.9359
 6404SOL     OW30670   2.993   4.051   4.379 -0.0510  0.2741 -0.0048
 6404SOL    HW130671   2.991   4.096   4.295 -1.0606  2.5448  1.2404
 6404SOL    HW230672   2.995   3.959   4.352  0.1231  0.1240  0.5182
 6405SOL     OW30673   4.585   0.626   2.099 -0.0631  0.1230  0.1431
 6405SOL    HW130674   4.610   0.701   2.153  0.6257 -0.2848  0.3946
 6405SOL    HW230675   4.639   0.632   2.021 -2.5189 -0.4716 -1.6135
 6406SOL     OW30676   1.358   1.120  16.100 -0.3560  0.8064 -0.1150
 6406SOL    HW130677   1.311   1.154  16.024 -1.0096  0.4446  0.1343
 6406SOL    HW230678   1.351   1.025  16.094 -0.7839  0.8367 -0.0524
 6407SOL     OW30679   4.191   3.029   7.262  0.2293 -0.7013 -0.0038
 6407SOL    HW130680   4.182   3.120   7.290  0.4612 -1.3985  2.4071
 6407SOL    HW230681   4.211   3.043   7.170 -0.6008 -1.8655 -0.3684
 6408SOL     OW30682   1.362   0.012   0.395 -0.5381  0.0058  0.3275
 6408SOL    HW130683   1.393   0.070   0.464  1.7012 -1.5126  0.6140
 6408SOL    HW230684   1.314   0.068   0.335 -1.1682 -1.6444 -0.6936
 6409SOL     OW30685   3.306   1.542   8.046 -0.3263  0.0065  0.3631
 6409SOL    HW130686   3.243   1.478   8.080 -1.7220  0.2357 -1.7719
 6409SOL    HW230687   3.358   1.479   7.996 -1.0585 -1.4455  1.4160
 6410SOL     OW30688   1.372   4.405  13.896 -0.2107  0.0721  0.1868
 6410SOL    HW130689   1.463   4.414  13.924  0.0072 -1.0006 -0.1471
 6410SOL    HW230690   1.377   4.462  13.819  0.4278 -1.8802 -1.2297
 6411SOL     OW30691   0.969   0.925  11.118  0.3704  0.0508  0.0982
 6411SOL    HW130692   0.944   0.891  11.032 -0.9139  1.0744  0.0626
 6411SOL    HW230693   0.964   1.020  11.107  0.1266 -0.3890 -3.4090
 6412SOL     OW30694   4.303   0.136   5.535 -0.0234  0.4823  0.4576
 6412SOL    HW130695   4.372   0.137   5.469  0.7815  0.9838  1.2977
 6412SOL    HW230696   4.343   0.087   5.606 -0.6485 -1.4558 -0.5345
 6413SOL     OW30697   0.214   3.002  15.781  0.2294 -0.2131 -0.2393
 6413SOL    HW130698   0.302   3.038  15.776 -0.7310  2.1841  0.5154
 6413SOL    HW230699   0.161   3.081  15.777  4.1389  2.4141  0.1988
 6414SOL     OW30700   3.143   2.651  16.326 -0.4366  0.3503  0.3761
 6414SOL    HW130701   3.052   2.667  16.353 -0.6310 -0.9965  0.5048
 6414SOL    HW230702   3.133   2.567  16.281  0.6201 -0.0957  0.9759
 6415SOL     OW30703   1.200   4.211   0.767 -0.4000 -0.0546  0.2192
 6415SOL    HW130704   1.135   4.281   0.769  0.8297  1.1234 -0.5098
 6415SOL    HW230705   1.201   4.170   0.681  0.3836  1.3633 -0.4503
 6416SOL     OW30706   2.129   2.431   8.708 -0.0963  0.0832  0.7489
 6416SOL    HW130707   2.045   2.460   8.744  0.2909 -1.1785  2.6471
 6416SOL    HW230708   2.130   2.487   8.630 -2.3352  0.6939  1.1780
 6417SOL     OW30709   2.374   2.037   6.443 -0.3278  0.7691  0.0064
 6417SOL    HW130710   2.355   2.071   6.531 -0.1375  0.5083  0.1488
 6417SOL    HW230711   2.431   1.960   6.456 -1.6708 -0.5799 -2.1443
 6418SOL     OW30712   4.324   4.130   8.342 -0.2798  0.1987  0.3339
 6418SOL    HW130713   4.302   4.066   8.274  0.4798 -0.2270  0.4967
 6418SOL    HW230714   4.347   4.206   8.289  0.9270  0.3114  1.0355
 6419SOL     OW30715   0.115   2.835   0.095  0.3409  0.2209 -0.5538
 6419SOL    HW130716   0.146   2.867   0.180  0.5310  1.0760 -0.9538
 6419SOL    HW230717   0.034   2.790   0.121  0.5679 -0.0061 -0.2285
 6420SOL     OW30718   3.996   2.868  12.774  0.1702 -0.2653  0.1493
 6420SOL    HW130719   3.950   2.831  12.699 -0.3341  0.9228 -0.1283
 6420SOL    HW230720   3.955   2.811  12.839  0.1840 -0.8940 -0.3947
 6421SOL     OW30721   0.842   2.087   3.337 -0.3818  0.1486  0.1821
 6421SOL    HW130722   0.893   2.125   3.408 -0.0327  2.1774 -1.1437
 6421SOL    HW230723   0.902   2.119   3.270 -1.0903  1.1495  0.0293
 6422SOL     OW30724   3.303   1.343   3.370 -0.1775  0.5664 -0.4009
 6422SOL    HW130725   3.300   1.424   3.319  1.2047  0.9709  0.1387
 6422SOL    HW230726   3.251   1.280   3.320  1.3796 -0.2934 -0.9480
 6423SOL     OW30727   0.271   3.226  11.619  0.7519  0.3421  0.0681
 6423SOL    HW130728   0.245   3.211  11.710 -2.7127 -1.3037 -1.2207
 6423SOL    HW230729   0.246   3.314  11.593  1.9037  0.1641 -1.6311
 6424SOL     OW30730   2.421   1.263   6.647 -0.0618  0.5255  0.6307
 6424SOL    HW130731   2.426   1.224   6.734 -0.3898 -1.4317 -0.2379
 6424SOL    HW230732   2.380   1.349   6.653  0.7272  0.8939  0.8169
 6425SOL     OW30733   3.793   3.170  11.555 -0.0590 -0.0194 -0.1162
 6425SOL    HW130734   3.802   3.100  11.490  0.4678  0.0247 -0.0943
 6425SOL    HW230735   3.845   3.243  11.521  1.0880 -0.0703  1.5292
 6426SOL     OW30736   2.138   4.265   9.819 -0.0791 -0.2390  0.1740
 6426SOL    HW130737   2.207   4.284   9.755 -0.4485  1.8375  0.4090
 6426SOL    HW230738   2.159   4.172   9.825 -3.0107 -1.0118 -1.5004
 6427SOL     OW30739   2.517   4.070   4.419  0.0900 -0.8075 -0.4729
 6427SOL    HW130740   2.547   4.155   4.387 -1.8061 -0.3792 -1.1215
 6427SOL    HW230741   2.593   4.037   4.466 -0.2299  1.5568  1.7475
 6428SOL     OW30742   1.795   2.746   5.959 -0.3169  0.3496  0.0145
 6428SOL    HW130743   1.784   2.688   6.035 -1.5016 -1.3125 -1.4314
 6428SOL    HW230744   1.884   2.775   5.982  1.0167 -2.9782 -0.7974
 6429SOL     OW30745   0.532   0.639   6.093 -0.2356 -0.2530 -0.0381
 6429SOL    HW130746   0.455   0.587   6.069  0.8776 -0.7833 -2.4975
 6429SOL    HW230747   0.516   0.717   6.041  1.0249  0.2430  0.3214
 6430SOL     OW30748   4.044   0.759  17.263  0.3128 -0.2803  0.2367
 6430SOL    HW130749   4.120   0.701  17.250 -1.0245 -1.4716 -2.1821
 6430SOL    HW230750   3.974   0.696  17.249  1.3835 -1.1649 -1.1666
 6431SOL     OW30751   3.464   2.713  17.148 -0.5736  0.4483 -0.2019
 6431SOL    HW130752   3.554   2.682  17.145 -1.8211 -3.0697 -1.1460
 6431SOL    HW230753   3.458   2.750  17.236 -1.2742 -0.5827  0.1810
 6432SOL     OW30754   1.386   4.020   9.431  0.3176  0.2572 -0.2426
 6432SOL    HW130755   1.450   3.952   9.410  0.0390 -0.7225  2.1322
 6432SOL    HW230756   1.304   3.971   9.428  0.4800  0.0275 -0.9471
 6433SOL     OW30757   3.490   1.365  11.773 -0.2834  0.4890  0.2288
 6433SOL    HW130758   3.483   1.271  11.758  0.0809  0.5039 -0.0440
 6433SOL    HW230759   3.488   1.371  11.869  0.0111 -0.0653  0.2695
 6434SOL     OW30760   1.377   0.420   0.086  1.2167 -0.5965 -0.1797
 6434SOL    HW130761   1.382   0.430   0.181 -3.0733  0.1972 -0.0566
 6434SOL    HW230762   1.323   0.494   0.060  1.9210 -0.4247 -1.1642
 6435SOL     OW30763   0.507   4.599  15.945  0.2379  0.1823 -0.1373
 6435SOL    HW130764   0.560   4.519  15.953 -1.2235 -0.5520  2.1756
 6435SOL    HW230765   0.459   4.582  15.864 -0.9174  1.1216  0.3519
 6436SOL     OW30766   1.244   1.466   5.880  0.4935 -0.3842 -0.6171
 6436SOL    HW130767   1.266   1.491   5.790 -3.5793  2.0949 -0.9339
 6436SOL    HW230768   1.172   1.522   5.910 -0.0409 -1.7135  0.6322
 6437SOL     OW30769   2.059   2.766   3.072  0.2436 -0.1611  0.5382
 6437SOL    HW130770   2.059   2.670   3.074  0.4219 -0.0817  3.8039
 6437SOL    HW230771   2.144   2.798   3.043  0.6928 -0.3671  1.6090
 6438SOL     OW30772   4.212   1.826   4.464 -0.3215  0.2008  0.0468
 6438SOL    HW130773   4.191   1.894   4.528  1.8935  0.4804  0.4502
 6438SOL    HW230774   4.210   1.743   4.511  0.6297 -0.5291 -1.2040
 6439SOL     OW30775   0.130   1.114   7.826 -0.0685 -0.1533 -0.1596
 6439SOL    HW130776   0.210   1.096   7.777  0.8460  0.3447  1.1572
 6439SOL    HW230777   0.116   1.206   7.802 -0.4714 -0.0063  0.6536
 6440SOL     OW30778   3.577   2.591   2.082  0.1207  0.4741 -0.0195
 6440SOL    HW130779   3.490   2.614   2.113 -0.2852 -0.2391 -0.6487
 6440SOL    HW230780   3.628   2.574   2.161 -1.9828 -1.0332  1.0144
 6441SOL     OW30781   4.053   1.451   2.083  0.3351 -0.6030  0.0736
 6441SOL    HW130782   3.985   1.519   2.074  0.0828 -1.1043 -2.0073
 6441SOL    HW230783   4.089   1.446   1.994  0.3405  2.9903 -0.1258
 6442SOL     OW30784   4.517   3.791  13.416  0.9753  0.1923  0.1018
 6442SOL    HW130785   4.564   3.869  13.389  0.4706  0.4736  0.0307
 6442SOL    HW230786   4.428   3.827  13.415  1.6524  1.8022 -1.0156
 6443SOL     OW30787   3.521   0.561   0.310  0.1660 -0.0302  0.5309
 6443SOL    HW130788   3.582   0.550   0.383 -0.3087  1.0940  1.1116
 6443SOL    HW230789   3.573   0.547   0.231  0.7663 -1.0307  1.1051
 6444SOL     OW30790   2.456   4.537  10.623 -0.3142  0.1534 -0.0473
 6444SOL    HW130791   2.513   4.471  10.584 -1.3993 -1.2320  0.7420
 6444SOL    HW230792   2.454   4.603  10.553  0.3516  1.0312  0.7581
 6445SOL     OW30793   2.631   4.154   5.123 -0.3796  0.1159 -0.1501
 6445SOL    HW130794   2.577   4.223   5.162  0.3131  0.4680  0.1905
 6445SOL    HW230795   2.689   4.141   5.198  0.1047  2.5859 -0.1109
 6446SOL     OW30796   4.234   0.782  12.239  0.1617  0.1028  0.0292
 6446SOL    HW130797   4.287   0.775  12.318  2.5320  1.2344 -1.4214
 6446SOL    HW230798   4.241   0.877  12.235  2.4419 -0.0107  0.8340
 6447SOL     OW30799   3.052   2.017  14.441  0.4318  0.5843  0.7246
 6447SOL    HW130800   3.113   2.055  14.378  0.9250 -0.1057  0.7890
 6447SOL    HW230801   3.120   1.980  14.498  1.1645 -1.1419 -1.2525
 6448SOL     OW30802   4.100   4.612  15.656 -0.7527  0.3624  0.3071
 6448SOL    HW130803   4.159   4.595  15.729  0.5169  0.2956 -0.7379
 6448SOL    HW230804   4.026   4.656  15.699 -1.2527  2.0367 -2.2546
 6449SOL     OW30805   3.947   3.153   6.947  0.0734 -0.5725  0.3244
 6449SOL    HW130806   3.875   3.175   6.888 -0.8905 -2.8442  0.6498
 6449SOL    HW230807   3.904   3.102   7.016  0.6517 -0.5609  0.6995
 6450SOL     OW30808   0.951   0.950  11.405  0.3752 -0.1449 -0.3044
 6450SOL    HW130809   0.942   1.045  11.403 -3.2404 -0.4363  1.6507
 6450SOL    HW230810   0.955   0.929  11.311  3.5221  0.0276 -0.1890
 6451SOL     OW30811   1.561   1.443   7.542  0.2060  0.1686 -0.1483
 6451SOL    HW130812   1.477   1.487   7.535  1.0966  2.1912  1.9627
 6451SOL    HW230813   1.559   1.433   7.638 -0.4978 -0.8053 -0.2658
 6452SOL     OW30814   4.429   2.162   8.638 -0.0651  0.1230 -0.8532
 6452SOL    HW130815   4.397   2.143   8.726  1.4680  2.6543  0.2245
 6452SOL    HW230816   4.523   2.146   8.651 -0.0785 -1.3029 -2.4806
 6453SOL     OW30817   3.546   4.464   4.893  0.2159  0.3966 -0.4043
 6453SOL    HW130818   3.482   4.408   4.936 -0.9823  1.1613 -1.1849
 6453SOL    HW230819   3.615   4.400   4.876  1.6974  2.0285 -0.5654
 6454SOL     OW30820   3.204   2.332  12.420 -0.0350 -0.0661 -0.0103
 6454SOL    HW130821   3.161   2.348  12.504  0.0281 -2.4631  0.4656
 6454SOL    HW230822   3.286   2.287  12.442  0.9949  1.1894 -1.2208
 6455SOL     OW30823   1.574   3.542  10.124  0.2033 -0.0093 -0.3067
 6455SOL    HW130824   1.624   3.556  10.044  0.3867 -0.8425 -0.3408
 6455SOL    HW230825   1.539   3.453  10.119  0.4975 -0.1892  0.8074
 6456SOL     OW30826   4.046   0.657  14.664 -0.2284 -1.0316  0.5008
 6456SOL    HW130827   4.090   0.573  14.678  2.4196  0.1066 -0.8994
 6456SOL    HW230828   3.959   0.622  14.643  0.1218 -0.8609 -1.2848
 6457SOL     OW30829   1.887   3.273   7.793  0.2970 -0.1354  0.4271
 6457SOL    HW130830   1.837   3.247   7.871  0.0754  0.5336  0.5131
 6457SOL    HW230831   1.819   3.271   7.726  1.1527 -1.0793 -0.4199
 6458SOL     OW30832   3.873   4.532   8.907  0.5433  0.4996  0.5627
 6458SOL    HW130833   3.846   4.471   8.976 -2.2086  0.2905 -0.7019
 6458SOL    HW230834   3.869   4.471   8.833 -0.0938  0.7114  0.4228
 6459SOL     OW30835   0.050   0.342   2.374 -0.2209  0.1254  0.0203
 6459SOL    HW130836   0.120   0.287   2.339  0.0416  0.3572  0.1766
 6459SOL    HW230837   0.096   0.398   2.437 -0.3003 -0.1714  0.3394
 6460SOL     OW30838   4.446   3.546   0.687  0.7691 -0.3409  0.2730
 6460SOL    HW130839   4.498   3.587   0.618  2.2996 -3.8096 -0.5836
 6460SOL    HW230840   4.432   3.458   0.652  5.5122 -1.3438  0.9294
 6461SOL     OW30841   3.801   2.967   7.564  0.1748 -0.0081  0.1726
 6461SOL    HW130842   3.896   2.976   7.561  0.2857 -1.2606 -0.1630
 6461SOL    HW230843   3.781   2.908   7.491 -0.6909  1.8546 -1.0940
 6462SOL     OW30844   3.061   2.015   3.868 -0.3912  0.1734  0.4714
 6462SOL    HW130845   3.155   2.005   3.852 -0.5690  1.7096 -1.6046
 6462SOL    HW230846   3.028   1.926   3.885 -1.4709  0.7444  1.4024
 6463SOL     OW30847   2.451   1.600   0.536 -0.0111  0.2573 -0.0463
 6463SOL    HW130848   2.471   1.593   0.443 -3.1887  0.0742 -0.7332
 6463SOL    HW230849   2.369   1.550   0.540 -1.0740  1.9550 -0.5394
 6464SOL     OW30850   1.424   0.515  11.852  0.4540  0.0313  0.0303
 6464SOL    HW130851   1.496   0.557  11.804 -0.2985  1.4289  0.1039
 6464SOL    HW230852   1.460   0.537  11.938  0.8205  0.1482 -0.1517
 6465SOL     OW30853   0.557   2.887   9.268  0.2453 -0.2369 -0.3323
 6465SOL    HW130854   0.497   2.813   9.259 -1.2282  0.7920  1.0822
 6465SOL    HW230855   0.566   2.904   9.362  1.5297  0.4926 -0.5904
 6466SOL     OW30856   3.937   0.728   3.557 -0.1480 -0.7026  0.4151
 6466SOL    HW130857   3.917   0.820   3.575 -0.2887 -1.2874  3.2803
 6466SOL    HW230858   4.007   0.699   3.615  1.6696  1.6821 -0.6061
 6467SOL     OW30859   0.376   0.064   8.578 -0.0486  0.3223 -0.2484
 6467SOL    HW130860   0.308   0.116   8.620  1.0232  1.2777  0.3250
 6467SOL    HW230861   0.395   0.104   8.493  0.4627  0.0087 -0.2880
 6468SOL     OW30862   2.276   1.904  13.110 -0.1760  0.4265  0.3877
 6468SOL    HW130863   2.365   1.898  13.146  0.9052  0.1690 -2.3284
 6468SOL    HW230864   2.223   1.865  13.179  0.5849 -0.8639  0.2391
 6469SOL     OW30865   1.125   0.597  10.884 -0.2251  0.0915 -0.2292
 6469SOL    HW130866   1.069   0.580  10.960 -1.0916 -0.2567 -0.9443
 6469SOL    HW230867   1.130   0.509  10.847 -1.5461 -0.1177  0.0703
 6470SOL     OW30868   2.486   4.636   5.837 -0.0386  0.0319  0.4756
 6470SOL    HW130869   2.427   4.607   5.907 -1.6300  0.3831 -0.7283
 6470SOL    HW230870   2.428   4.673   5.771 -1.8840 -0.9123  1.5929
 6471SOL     OW30871   2.968   3.157   0.660  0.1055  0.2016 -0.1914
 6471SOL    HW130872   2.906   3.157   0.732  0.8983  0.4377  0.4920
 6471SOL    HW230873   2.924   3.101   0.596  0.9457  1.7642 -2.1520
 6472SOL     OW30874   3.400   4.537  11.411  0.0907  0.4981 -0.1508
 6472SOL    HW130875   3.455   4.486  11.352  0.8883  1.8442 -0.5635
 6472SOL    HW230876   3.465   4.566  11.474  1.3761 -1.0648 -0.7392
 6473SOL     OW30877   1.617   1.319   6.133 -0.0252  0.0254  0.3798
 6473SOL    HW130878   1.536   1.284   6.096 -0.4190 -1.0450  2.2841
 6473SOL    HW230879   1.637   1.390   6.072 -0.9768 -0.4615 -0.4982
 6474SOL     OW30880   0.940   1.241   2.466  0.7602  0.0109  0.2010
 6474SOL    HW130881   0.900   1.318   2.424 -2.8751 -1.6796  0.4891
 6474SOL    HW230882   0.914   1.174   2.403 -0.3135 -0.0242  0.6781
 6475SOL     OW30883   2.189   1.048   5.816  0.0256  0.1473 -0.0859
 6475SOL    HW130884   2.281   1.024   5.811  0.5120  1.9755  0.0006
 6475SOL    HW230885   2.197   1.119   5.881 -0.9043 -1.6586  1.9988
 6476SOL     OW30886   4.364   0.101   7.415  0.0102 -0.2045 -0.8174
 6476SOL    HW130887   4.356   0.193   7.392  2.6540  0.1234 -0.4463
 6476SOL    HW230888   4.449   0.069   7.383  0.6526 -0.1506  0.8159
 6477SOL     OW30889   2.061   3.020  14.304  0.0028 -1.0486 -0.1859
 6477SOL    HW130890   1.970   2.991  14.306 -0.4952  0.4370 -1.4850
 6477SOL    HW230891   2.090   2.982  14.387 -0.8877  1.7743  1.4192
 6478SOL     OW30892   3.633   3.665   0.436 -0.5011  0.6814  0.7121
 6478SOL    HW130893   3.628   3.734   0.502  0.5570  0.1291  1.3785
 6478SOL    HW230894   3.697   3.700   0.374 -0.6087 -0.5447 -0.1008
 6479SOL     OW30895   0.471   3.102  15.784 -0.0508  0.2264  0.2134
 6479SOL    HW130896   0.526   3.181  15.786 -0.6840  0.7064 -1.1645
 6479SOL    HW230897   0.535   3.034  15.763  0.4879  1.2098 -1.3163
 6480SOL     OW30898   0.100   0.118   6.663 -0.4284 -0.0618  0.3530
 6480SOL    HW130899   0.072   0.039   6.617  3.6981 -1.9262  1.0958
 6480SOL    HW230900   0.046   0.111   6.742 -0.3390 -1.0711  0.3298
 6481SOL     OW30901   2.848   3.066   7.228 -0.0757  0.0155 -0.6901
 6481SOL    HW130902   2.775   3.092   7.173  0.3684  0.4473 -1.0709
 6481SOL    HW230903   2.866   3.145   7.279  0.6621 -1.2415  1.0017
 6482SOL     OW30904   3.916   2.566   3.199  0.2872  0.5310  0.1107
 6482SOL    HW130905   3.990   2.549   3.140  0.6241 -0.4086  0.8001
 6482SOL    HW230906   3.927   2.661   3.204 -0.5226  0.5123  2.2094
 6483SOL     OW30907   4.628   2.563   2.855  0.1009 -0.3033 -0.1783
 6483SOL    HW130908   4.598   2.643   2.812  1.3216 -0.7591 -1.8663
 6483SOL    HW230909   4.666   2.513   2.783  0.2754 -0.4394  0.0077
 6484SOL     OW30910   0.146   3.286   7.994  0.0016 -0.1204  0.2446
 6484SOL    HW130911   0.204   3.314   8.064  0.4574  0.1542 -0.2444
 6484SOL    HW230912   0.086   3.359   7.982  0.3404  0.5520  2.8330
 6485SOL     OW30913   2.724   0.381   9.585 -0.8268 -0.1967 -0.2647
 6485SOL    HW130914   2.739   0.323   9.660 -0.6486 -0.2714 -0.3607
 6485SOL    HW230915   2.667   0.321   9.537 -0.6601 -1.5235  1.1772
 6486SOL     OW30916   3.698   0.162   7.571 -0.1178 -0.5693 -0.5502
 6486SOL    HW130917   3.690   0.253   7.543  1.7083 -0.4841 -0.7609
 6486SOL    HW230918   3.638   0.126   7.506 -1.1993  0.8744 -0.3411
 6487SOL     OW30919   0.897   3.525   6.092  0.0475  0.7283 -0.5263
 6487SOL    HW130920   0.934   3.545   6.178 -0.6145  0.3149 -0.1421
 6487SOL    HW230921   0.952   3.583   6.039 -1.6821  2.1402 -0.7740
 6488SOL     OW30922   2.240   0.955   4.036 -0.4024  0.2340 -0.2014
 6488SOL    HW130923   2.191   0.947   4.118  2.1370  0.2539  1.3175
 6488SOL    HW230924   2.177   1.002   3.982 -0.5539 -0.6430 -0.7939
 6489SOL     OW30925   0.771   0.898  10.882  0.0909 -0.0607 -0.1057
 6489SOL    HW130926   0.697   0.958  10.882  0.9110  0.9573  0.4037
 6489SOL    HW230927   0.761   0.864  10.793 -0.6204 -1.3907  0.4787
 6490SOL     OW30928   0.409   2.487   8.162 -0.1665  0.4905  0.3201
 6490SOL    HW130929   0.347   2.554   8.192 -0.9712  0.4961 -1.3854
 6490SOL    HW230930   0.382   2.416   8.220 -0.7635 -1.3980 -2.3417
 6491SOL     OW30931   2.397   2.012  10.337  0.3309 -0.4428  0.3443
 6491SOL    HW130932   2.384   1.962  10.418  0.9352 -2.8562 -1.0254
 6491SOL    HW230933   2.489   2.033  10.350  0.0111  0.0226  1.8480
 6492SOL     OW30934   0.367   4.437  11.216  0.3582  0.2723  0.6001
 6492SOL    HW130935   0.419   4.437  11.297 -0.7260 -0.2021  1.2972
 6492SOL    HW230936   0.284   4.429  11.263  0.1581 -0.2670  0.1476
 6493SOL     OW30937   1.504   0.762   5.716 -0.0800  0.4827 -0.2865
 6493SOL    HW130938   1.517   0.857   5.716 -0.6605  0.5897  2.3746
 6493SOL    HW230939   1.433   0.757   5.781  1.1959  1.2894  1.1530
 6494SOL     OW30940   0.534   4.234  17.482  0.2558 -0.1844 -0.2488
 6494SOL    HW130941   0.603   4.263  17.423  1.1303  2.4951  2.1411
 6494SOL    HW230942   0.462   4.263  17.426  0.3974  1.5539  0.4841
 6495SOL     OW30943   1.947   0.711   8.480  0.2245  0.8160  0.1674
 6495SOL    HW130944   1.961   0.644   8.414  1.7037 -0.8485  2.2061
 6495SOL    HW230945   2.014   0.772   8.449  0.2859  1.4086  1.4823
 6496SOL     OW30946   1.175   1.276  11.719  0.0649 -0.5300 -0.2695
 6496SOL    HW130947   1.227   1.230  11.653 -1.1266 -1.4782 -0.5365
 6496SOL    HW230948   1.158   1.354  11.666 -0.2985  0.4294  1.2818
 6497SOL     OW30949   2.224   4.619   7.493 -0.2103  0.4110 -0.7676
 6497SOL    HW130950   2.144   4.586   7.453 -0.4306 -0.1600  0.1631
 6497SOL    HW230951   2.230   4.703   7.447 -0.4611  1.6456  1.4475
 6498SOL     OW30952   1.571   4.083  15.796  0.2978 -0.5908 -0.2556
 6498SOL    HW130953   1.557   4.171  15.762  1.0457 -1.3296 -2.4954
 6498SOL    HW230954   1.503   4.052  15.737  0.8068  0.0392 -1.1609
 6499SOL     OW30955   2.459   1.995  16.618 -0.3342 -0.9975 -0.1577
 6499SOL    HW130956   2.439   2.032  16.532  0.1454  2.8752  1.4189
 6499SOL    HW230957   2.540   1.946  16.600  0.2876  0.6595 -1.8279
 6500SOL     OW30958   1.480   4.597   2.669  0.2164 -0.2458 -0.6375
 6500SOL    HW130959   1.425   4.666   2.633  0.9471 -0.3254 -1.9078
 6500SOL    HW230960   1.537   4.587   2.593  0.7705 -1.0258 -0.1193
 6501SOL     OW30961   3.995   2.232   2.857  0.0125 -0.2086 -0.0693
 6501SOL    HW130962   3.923   2.193   2.907  0.5931 -1.7146 -0.4344
 6501SOL    HW230963   4.067   2.182   2.895 -0.1743 -0.2491  0.2376
 6502SOL     OW30964   3.237   1.831   2.019 -0.1135  0.3802 -0.7272
 6502SOL    HW130965   3.284   1.912   2.002  0.3351  0.8650  2.9987
 6502SOL    HW230966   3.233   1.837   2.114  2.3038 -3.2686 -0.3662
 6503SOL     OW30967   0.902   3.725   8.503  0.3975 -0.1724 -0.3331
 6503SOL    HW130968   0.863   3.782   8.437  2.0239 -1.2225 -2.2141
 6503SOL    HW230969   0.937   3.792   8.562 -3.2305  0.1322  1.4622
 6504SOL     OW30970   1.636   3.652   3.018 -0.1656 -0.4288 -0.0724
 6504SOL    HW130971   1.720   3.607   3.010  1.8687  2.8303  2.8876
 6504SOL    HW230972   1.660   3.744   3.007  0.5428 -0.7176 -0.9499
 6505SOL     OW30973   3.124   1.417   8.478 -0.6347 -0.4381 -0.4053
 6505SOL    HW130974   3.046   1.375   8.515 -0.4893  0.8074  1.3147
 6505SOL    HW230975   3.193   1.389   8.537 -0.4163 -2.0448 -1.4197
 6506SOL     OW30976   3.143   1.226  10.063  0.5465 -0.1362 -0.3442
 6506SOL    HW130977   3.201   1.277  10.119 -0.5638  0.9370 -0.1785
 6506SOL    HW230978   3.104   1.297  10.011 -1.2638 -1.8237 -1.2966
 6507SOL     OW30979   4.308   3.950   1.308  0.3424 -0.2307 -0.2905
 6507SOL    HW130980   4.248   3.893   1.261 -0.4616  2.7800 -2.8670
 6507SOL    HW230981   4.269   4.036   1.292  1.0553 -0.1881 -1.7849
 6508SOL     OW30982   3.811   3.229  10.257 -0.5515  0.2921  0.4544
 6508SOL    HW130983   3.819   3.283  10.179  2.6213 -1.4870 -0.4391
 6508SOL    HW230984   3.823   3.140  10.224 -1.0578  0.6437 -0.6921
 6509SOL     OW30985   2.230   2.941   2.977  0.2508 -0.3450 -0.0216
 6509SOL    HW130986   2.270   2.885   2.910  0.7063 -0.0283 -0.0181
 6509SOL    HW230987   2.214   3.023   2.930  1.3639 -1.7162 -2.8205
 6510SOL     OW30988   3.949   1.164   8.598 -0.5644  0.0274 -0.2875
 6510SOL    HW130989   4.009   1.091   8.583 -1.2574  0.0824 -3.3475
 6510SOL    HW230990   3.880   1.152   8.533 -0.8428  0.6107 -0.0999
 6511SOL     OW30991   1.085   2.021  16.385  1.0258  0.2088  0.3212
 6511SOL    HW130992   1.052   2.110  16.374 -0.8170 -0.4752  0.2487
 6511SOL    HW230993   1.064   1.994  16.474 -1.2836  1.6344  0.2116
 6512SOL     OW30994   1.796   1.888   7.678 -0.1820 -0.1530  0.5353
 6512SOL    HW130995   1.760   1.974   7.656  0.9607  0.3626  0.6842
 6512SOL    HW230996   1.869   1.887   7.616  0.5096  0.0216  1.3412
 6513SOL     OW30997   0.532   3.945   8.899  0.0812  0.0770 -0.8324
 6513SOL    HW130998   0.450   3.911   8.864 -0.5318  0.6047  0.1261
 6513SOL    HW230999   0.588   3.939   8.821  0.8923 -2.4744 -0.0580
 6514SOL     OW31000   0.259   0.973   6.384  0.3471  0.3359 -0.0915
 6514SOL    HW131001   0.193   0.935   6.442 -0.2373 -0.4936 -1.2990
 6514SOL    HW231002   0.246   0.917   6.307 -0.3379 -0.1798  0.4047
 6515SOL     OW31003   3.936   2.279   1.531  0.3296  0.7444  0.3578
 6515SOL    HW131004   3.985   2.361   1.520  1.2081 -0.0260 -1.4513
 6515SOL    HW231005   3.997   2.211   1.559 -0.1116  0.7547  1.3544
 6516SOL     OW31006   3.840   2.085  15.088 -0.3129  0.8240 -0.0032
 6516SOL    HW131007   3.914   2.088  15.028  0.5095 -0.9793  0.9350
 6516SOL    HW231008   3.875   2.126  15.167  1.3405  3.5533 -2.1435
 6517SOL     OW31009   1.170   2.428  16.130  0.4902 -0.2248  0.1351
 6517SOL    HW131010   1.146   2.446  16.039 -1.0509  0.4138  0.6659
 6517SOL    HW231011   1.244   2.367  16.134  1.0453  0.3855 -0.8565
 6518SOL     OW31012   0.470   1.201   6.062  0.0923  0.1641 -0.7355
 6518SOL    HW131013   0.541   1.265   6.054  0.2581  0.0236 -0.3791
 6518SOL    HW231014   0.502   1.139   6.128  0.2775  1.6558  0.5468
 6519SOL     OW31015   3.239   4.590   2.754  0.3076  0.3730 -0.5605
 6519SOL    HW131016   3.205   4.679   2.742 -2.9657 -1.0745 -1.8582
 6519SOL    HW231017   3.193   4.533   2.693  0.8712 -1.3629  0.6235
 6520SOL     OW31018   1.623   2.560   9.348  0.1142  0.0537  0.0088
 6520SOL    HW131019   1.548   2.510   9.380 -0.0511 -0.2337 -0.8077
 6520SOL    HW231020   1.654   2.497   9.283 -0.8292 -0.1106 -0.2869
 6521SOL     OW31021   0.979   0.393   9.101 -0.0366  0.2936  0.0359
 6521SOL    HW131022   1.012   0.304   9.111  1.8823  0.9477 -0.4926
 6521SOL    HW231023   0.986   0.405   9.006 -1.5189 -1.4957 -0.3088
 6522SOL     OW31024   3.106   3.032  16.588 -0.2616  0.1912 -0.0596
 6522SOL    HW131025   3.167   2.961  16.567 -0.5843  0.4205 -1.7702
 6522SOL    HW231026   3.047   3.035  16.513 -0.8475  2.9866  0.5140
 6523SOL     OW31027   2.896   1.690   7.756  0.0138  0.1371 -0.4043
 6523SOL    HW131028   2.838   1.755   7.798 -0.7654 -0.6497 -0.2632
 6523SOL    HW231029   2.980   1.694   7.801 -0.8885  1.3850  1.1469
 6524SOL     OW31030   3.027   4.710   1.236 -0.5184 -0.3203 -0.6346
 6524SOL    HW131031   3.073   4.680   1.314  1.1686  0.0584 -1.4625
 6524SOL    HW231032   2.957   4.645   1.234 -1.9017  1.1832 -0.4593
 6525SOL     OW31033   3.443   2.917   9.795  0.3293 -0.3332  0.2034
 6525SOL    HW131034   3.460   2.858   9.868 -2.0725  0.0399  1.0801
 6525SOL    HW231035   3.350   2.939   9.807  0.0187 -1.1427 -0.6593
 6526SOL     OW31036   4.218   3.204   5.109 -0.8805 -0.2571  0.1348
 6526SOL    HW131037   4.130   3.237   5.124 -0.7296  0.8994 -1.5707
 6526SOL    HW231038   4.225   3.128   5.167  0.7131 -1.2389 -1.3425
 6527SOL     OW31039   2.325   1.208   4.762  0.2060  0.3704  0.0942
 6527SOL    HW131040   2.334   1.272   4.833 -1.9906 -0.2949  0.9563
 6527SOL    HW231041   2.405   1.224   4.712 -0.4779  0.8742 -0.8224
 6528SOL     OW31042   2.645   4.530   1.376 -0.0509 -0.5304  0.4012
 6528SOL    HW131043   2.717   4.534   1.438 -0.5735 -1.1766  1.0474
 6528SOL    HW231044   2.694   4.525   1.294  2.4167 -1.8900  1.9528
 6529SOL     OW31045   2.905   2.012  17.344 -0.1602 -0.4182  0.1255
 6529SOL    HW131046   2.931   1.932  17.299  0.6992  0.0616 -0.2405
 6529SOL    HW231047   2.989   2.057  17.338  0.7736 -2.1155  0.6346
 6530SOL     OW31048   4.385   3.214   2.454  0.1703 -1.0482 -0.0737
 6530SOL    HW131049   4.429   3.129   2.456  0.2725 -0.9276  3.5964
 6530SOL    HW231050   4.388   3.227   2.549  4.1300  0.9818 -0.4415
 6531SOL     OW31051   2.990   2.818   6.966  0.0046 -0.2365  0.5713
 6531SOL    HW131052   2.897   2.824   6.944 -0.4027  1.1572  2.6497
 6531SOL    HW231053   2.972   2.812   7.060  0.2867 -0.7946  0.5902
 6532SOL     OW31054   2.086   4.386   9.364  0.1663 -0.1540 -0.1634
 6532SOL    HW131055   2.021   4.350   9.424  1.5571 -1.3475  0.6303
 6532SOL    HW231056   2.037   4.384   9.282 -0.2297  1.1162  0.0527
 6533SOL     OW31057   3.639   0.766   5.014  0.0406 -0.4634 -0.0956
 6533SOL    HW131058   3.700   0.769   4.940  0.0823 -0.7766 -0.0759
 6533SOL    HW231059   3.584   0.843   5.003 -1.0738 -1.5161 -2.0452
 6534SOL     OW31060   0.438   4.699   0.759  0.2635  0.4140 -0.2375
 6534SOL    HW131061   0.481   0.007   0.839 -0.3049 -0.8871  0.5680
 6534SOL    HW231062   0.379   4.628   0.783 -0.7280  1.9132  1.7185
 6535SOL     OW31063   3.318   3.556   2.107  0.0663  0.3240  0.3645
 6535SOL    HW131064   3.407   3.546   2.071 -0.1217  1.5946 -0.4448
 6535SOL    HW231065   3.320   3.493   2.179  0.6128 -0.3165 -0.1931
 6536SOL     OW31066   0.084   0.087   4.973  0.0737  0.8074 -0.7064
 6536SOL    HW131067   0.098   0.095   4.879  0.7031 -2.3435 -0.8845
 6536SOL    HW231068   0.006   0.140   4.993 -1.8930 -2.0780 -0.6504
 6537SOL     OW31069   3.786   1.778  11.216 -0.5481 -0.5880  0.2975
 6537SOL    HW131070   3.864   1.751  11.167 -0.3371  1.0378 -0.2603
 6537SOL    HW231071   3.819   1.831  11.289 -0.5800 -1.8559  1.2254
 6538SOL     OW31072   0.512   2.463   7.017 -0.2597  0.0950  0.1137
 6538SOL    HW131073   0.557   2.543   6.989 -1.2297  1.0880  1.3814
 6538SOL    HW231074   0.520   2.464   7.113 -0.0866 -2.4360  0.1247
 6539SOL     OW31075   2.608   1.794   7.241 -0.2842 -0.1921 -0.2201
 6539SOL    HW131076   2.636   1.710   7.278 -0.9865  0.7860  2.5267
 6539SOL    HW231077   2.632   1.864   7.302 -0.9556  1.1123 -1.4554
 6540SOL     OW31078   3.348   3.226   8.990 -0.1162  0.4535 -0.9187
 6540SOL    HW131079   3.360   3.159   8.923 -2.3030 -1.0771  0.2264
 6540SOL    HW231080   3.259   3.197   9.009  0.3117 -0.4670 -0.3053
 6541SOL     OW31081   1.831   3.570   7.021 -0.6355  0.1500  0.1105
 6541SOL    HW131082   1.850   3.623   6.944 -2.4072  1.2322  0.4294
 6541SOL    HW231083   1.920   3.560   7.056 -1.4066 -0.8624  1.8159
 6542SOL     OW31084   3.435   2.911   3.294 -0.0179 -0.3958  0.1962
 6542SOL    HW131085   3.417   2.874   3.381 -0.0492  0.5560  0.5923
 6542SOL    HW231086   3.518   2.868   3.273  0.2555 -1.1854  2.8904
 6543SOL     OW31087   2.273   2.118   5.143 -0.3190  0.0732 -0.1878
 6543SOL    HW131088   2.293   2.196   5.090 -1.3743  0.2330 -0.3681
 6543SOL    HW231089   2.341   2.064   5.104  0.1585  0.2402  0.4226
 6544SOL     OW31090   3.636   3.174   8.738 -0.0748 -0.1720 -0.5748
 6544SOL    HW131091   3.704   3.235   8.766  0.9888 -1.5705 -0.0687
 6544SOL    HW231092   3.589   3.226   8.673  1.4701  0.2174 -1.3765
 6545SOL     OW31093   3.175   2.392   7.375  0.6033 -0.3553 -0.1040
 6545SOL    HW131094   3.238   2.328   7.409  2.8051  0.9138 -1.8356
 6545SOL    HW231095   3.210   2.475   7.406 -0.8906 -0.1776  1.0997
 6546SOL     OW31096   4.452   1.980   5.604  0.3578  0.1878 -0.6395
 6546SOL    HW131097   4.389   1.962   5.534  0.2120  1.3592 -0.8114
 6546SOL    HW231098   4.532   1.931   5.587  0.4594  0.5441 -1.1809
 6547SOL     OW31099   0.561   0.638   6.359  0.0537  0.0575 -0.3872
 6547SOL    HW131100   0.539   0.635   6.266  2.2789  0.0099 -0.8972
 6547SOL    HW231101   0.623   0.567   6.376  0.5733  0.3344 -1.1799
 6548SOL     OW31102   1.535   4.158  10.154 -1.0962  0.2516 -0.0275
 6548SOL    HW131103   1.548   4.252  10.138 -0.5272  0.3854  1.2320
 6548SOL    HW231104   1.592   4.152  10.231 -0.1320  2.1638 -0.5871
 6549SOL     OW31105   0.229   3.584   6.157  0.2076  0.2235  0.1193
 6549SOL    HW131106   0.195   3.502   6.120 -2.4929  0.9824  0.8996
 6549SOL    HW231107   0.172   3.600   6.232  1.1321 -3.1888  1.5374
 6550SOL     OW31108   2.957   0.679   2.295 -0.3856 -0.0860  0.1431
 6550SOL    HW131109   3.006   0.646   2.371 -0.0542  0.3984  0.1379
 6550SOL    HW231110   2.947   0.601   2.241  0.3235 -1.5090  2.0175
 6551SOL     OW31111   1.395   0.579   2.744  0.0539 -0.7819  0.7915
 6551SOL    HW131112   1.387   0.485   2.725 -1.0159 -0.2259 -1.5988
 6551SOL    HW231113   1.332   0.630   2.693  1.1912  1.2776  1.4769
 6552SOL     OW31114   3.182   0.797  11.631  0.0794  0.1113 -0.4135
 6552SOL    HW131115   3.202   0.812  11.723 -1.1412  0.7933 -0.2606
 6552SOL    HW231116   3.193   0.702  11.637 -1.1564  0.1063  1.7713
 6553SOL     OW31117   0.152   0.558   7.288 -0.4170  0.2518 -0.2644
 6553SOL    HW131118   0.059   0.546   7.303  0.0309 -0.7789  1.6629
 6553SOL    HW231119   0.203   0.503   7.347 -2.1127  1.3543  2.2010
 6554SOL     OW31120   1.091   1.748  12.418 -0.6728  0.5128  0.1271
 6554SOL    HW131121   1.127   1.683  12.478  1.0260 -0.7844 -2.2994
 6554SOL    HW231122   1.000   1.718  12.415 -1.0024  1.5160  0.1871
 6555SOL     OW31123   1.463   3.955   9.786  0.5175  0.0327 -0.1459
 6555SOL    HW131124   1.392   3.967   9.722 -0.2306  0.2269  0.7165
 6555SOL    HW231125   1.486   3.867   9.756  1.2142 -0.5364  2.0375
 6556SOL     OW31126   3.727   2.600  13.954 -0.2540  0.3832  0.3441
 6556SOL    HW131127   3.808   2.646  13.932  0.9631 -1.4199  1.0863
 6556SOL    HW231128   3.691   2.578  13.868 -1.1803 -1.4175  1.2160
 6557SOL     OW31129   1.653   3.158   3.021 -0.0411 -0.1500 -0.4738
 6557SOL    HW131130   1.645   3.076   3.069 -1.4692  0.9308  1.1623
 6557SOL    HW231131   1.741   3.176   2.988 -0.1386  0.0808 -0.6097
 6558SOL     OW31132   4.334   2.279   0.713 -0.6423 -0.1204 -0.6589
 6558SOL    HW131133   4.256   2.252   0.665  0.4962 -1.6515 -1.6486
 6558SOL    HW231134   4.297   2.364   0.736 -1.1998 -0.0560 -1.7615
 6559SOL     OW31135   1.741   4.137   6.245 -0.3685 -0.3993  0.1323
 6559SOL    HW131136   1.802   4.074   6.207  1.5886  1.2791  0.4957
 6559SOL    HW231137   1.797   4.168   6.317 -0.1686 -0.1978 -0.1088
 6560SOL     OW31138   0.825   0.975   1.990  0.3937 -0.1142 -0.7234
 6560SOL    HW131139   0.815   1.012   2.078  0.4220 -0.4644 -0.5733
 6560SOL    HW231140   0.763   0.905   2.009  2.2560 -0.9590  2.2805
 6561SOL     OW31141   2.607   2.834   7.484 -0.4556 -0.4405 -0.8240
 6561SOL    HW131142   2.613   2.930   7.490 -0.4550 -0.3899 -1.7614
 6561SOL    HW231143   2.538   2.816   7.548  0.5554 -0.6193  0.2119
 6562SOL     OW31144   3.756   2.066   5.800 -0.0434 -0.1791 -0.5578
 6562SOL    HW131145   3.831   2.075   5.859  0.3545 -0.0210 -1.0927
 6562SOL    HW231146   3.695   2.035   5.867  1.8598 -1.7863  0.4227
 6563SOL     OW31147   0.407   2.796   2.204 -0.7515  0.3635  0.0164
 6563SOL    HW131148   0.317   2.764   2.206 -1.1687  1.5429  0.7127
 6563SOL    HW231149   0.426   2.803   2.298  0.1988  0.8922 -0.2107
 6564SOL     OW31150   3.285   4.371   3.625  0.0852  0.3185  0.4694
 6564SOL    HW131151   3.204   4.320   3.625 -0.1907  0.7335  2.2666
 6564SOL    HW231152   3.279   4.421   3.544 -0.7068 -0.9446 -0.2421
 6565SOL     OW31153   4.456   3.491   6.945  0.3162  0.3698  0.3138
 6565SOL    HW131154   4.418   3.405   6.965  0.2657  0.7941  2.0362
 6565SOL    HW231155   4.443   3.536   7.029 -1.1207 -1.1967  0.9468
 6566SOL     OW31156   1.421   2.866   3.048 -0.1373 -0.4081 -0.5034
 6566SOL    HW131157   1.419   2.905   2.960  3.0052  0.4578 -0.1856
 6566SOL    HW231158   1.432   2.774   3.025 -0.8988 -0.4475 -0.7359
 6567SOL     OW31159   2.509   3.448   7.926 -0.1296  0.1513  0.0011
 6567SOL    HW131160   2.459   3.530   7.916  0.7338  0.8775  1.6390
 6567SOL    HW231161   2.599   3.481   7.928  0.0162 -0.1301 -2.3214
 6568SOL     OW31162   0.904   1.906   4.665  0.5685  0.2916 -0.4693
 6568SOL    HW131163   0.863   1.899   4.579 -0.8906 -1.6160  0.4120
 6568SOL    HW231164   0.993   1.919   4.632 -0.1971 -1.8211 -3.3937
 6569SOL     OW31165   0.319   3.997   5.660  0.2237  0.3193  0.2834
 6569SOL    HW131166   0.254   3.950   5.608 -0.6621  0.9718  0.7993
 6569SOL    HW231167   0.262   4.062   5.700 -0.1720  1.0342 -1.4259
 6570SOL     OW31168   4.167   2.622  12.474 -1.0537 -0.0708 -0.6712
 6570SOL    HW131169   4.191   2.708  12.507 -2.5701  0.4823 -0.9875
 6570SOL    HW231170   4.130   2.580  12.551  0.1391 -0.8655 -0.5410
 6571SOL     OW31171   4.482   1.445   3.302  0.7983  0.3174 -0.1285
 6571SOL    HW131172   4.433   1.416   3.225  1.4378  1.7698 -1.0904
 6571SOL    HW231173   4.476   1.540   3.293  0.0165  0.2562 -0.2437
 6572SOL     OW31174   2.061   0.614   5.933 -0.2700  0.1778  0.2822
 6572SOL    HW131175   1.994   0.558   5.972 -1.9671  2.5548  0.8218
 6572SOL    HW231176   2.140   0.587   5.979 -0.8429 -0.5811  0.8289
 6573SOL     OW31177   3.377   4.634   4.277  0.0790 -0.0262  0.3880
 6573SOL    HW131178   3.293   4.588   4.274 -0.3020  0.7577 -0.9457
 6573SOL    HW231179   3.425   4.583   4.211 -1.6015  0.5842 -1.3052
 6574SOL     OW31180   0.951   1.306  11.964  0.4212 -0.4403 -0.3960
 6574SOL    HW131181   0.895   1.380  11.988  0.9576  0.0293 -0.6073
 6574SOL    HW231182   1.031   1.341  12.001  0.7258 -1.1352 -0.4001
 6575SOL     OW31183   0.008   0.794  14.618  0.1876 -0.4854  0.4057
 6575SOL    HW131184   4.657   0.739  14.644 -0.7063 -1.0884 -3.4080
 6575SOL    HW231185   0.001   0.784  14.523 -1.0480  1.6082  0.2760
 6576SOL     OW31186   4.634   1.296   4.074 -0.2383  0.6001  0.0013
 6576SOL    HW131187   4.609   1.341   4.155  0.1280 -0.1764  0.5528
 6576SOL    HW231188   0.006   1.305   4.078  0.0449 -1.9064 -1.2341
 6577SOL     OW31189   4.658   1.391   8.766  0.1850 -0.5549 -0.1545
 6577SOL    HW131190   4.570   1.391   8.804 -1.3525 -3.1904 -3.7744
 6577SOL    HW231191   4.697   1.471   8.801 -0.3845  0.5735 -2.1319
 6578SOL     OW31192   1.568   2.473   3.806  0.0437  0.1378  0.3349
 6578SOL    HW131193   1.598   2.456   3.717  1.1118 -0.5620  0.8285
 6578SOL    HW231194   1.647   2.453   3.856  0.1259 -2.1938 -0.7223
 6579SOL     OW31195   1.546   0.526   6.601 -0.2886 -0.5637  0.2766
 6579SOL    HW131196   1.574   0.483   6.682  1.8582  0.4474  0.0762
 6579SOL    HW231197   1.487   0.455   6.576 -0.6794 -0.2207  0.2372
 6580SOL     OW31198   1.245   0.094   8.087  0.2294 -0.2247  0.2888
 6580SOL    HW131199   1.317   0.147   8.121  1.7594 -0.7602 -2.0332
 6580SOL    HW231200   1.208   0.151   8.019  0.6307  0.1753  0.4028
 6581SOL     OW31201   1.162   0.451  15.197 -0.5826  0.0359  0.5855
 6581SOL    HW131202   1.178   0.362  15.228  1.0835  0.2674  0.3684
 6581SOL    HW231203   1.170   0.443  15.102  0.8981 -1.8652  0.8703
 6582SOL     OW31204   3.035   2.144  11.492  0.4294 -0.0303  0.2928
 6582SOL    HW131205   3.098   2.123  11.561  0.8854 -0.2713 -0.1898
 6582SOL    HW231206   3.024   2.051  11.471  2.0537 -0.1135 -0.2324
 6583SOL     OW31207   1.680   3.469  14.960 -0.3287  0.0301  0.0720
 6583SOL    HW131208   1.718   3.441  15.043  2.6607 -0.9670 -1.6487
 6583SOL    HW231209   1.720   3.399  14.909 -2.0325 -2.2448  1.8781
 6584SOL     OW31210   2.266   0.553   6.089 -0.0220  0.3954  0.3993
 6584SOL    HW131211   2.297   0.622   6.031 -1.3375  1.9490  1.5451
 6584SOL    HW231212   2.343   0.529   6.141  0.6634  0.8274 -0.4362
 6585SOL     OW31213   2.178   2.483   5.206  0.2291  0.0973 -0.0557
 6585SOL    HW131214   2.255   2.535   5.229  1.0015 -1.0476 -0.0222
 6585SOL    HW231215   2.218   2.427   5.139  0.3029  0.3472 -0.2187
 6586SOL     OW31216   3.870   2.053   0.631  0.4260  0.1459 -0.5798
 6586SOL    HW131217   3.783   2.015   0.640  0.0227  0.9496 -1.0487
 6586SOL    HW231218   3.914   1.983   0.584 -0.7034 -1.4425  0.7267
 6587SOL     OW31219   3.885   3.768   8.447 -0.0085  0.0296  0.5150
 6587SOL    HW131220   3.961   3.716   8.420 -1.6864 -2.2790  0.2132
 6587SOL    HW231221   3.891   3.830   8.375  1.2899 -0.7472 -0.0453
 6588SOL     OW31222   2.759   3.410  11.325  0.2074 -0.3347 -0.7280
 6588SOL    HW131223   2.688   3.437  11.384 -0.4768  1.1609 -2.2387
 6588SOL    HW231224   2.810   3.358  11.387 -0.4866 -1.2095 -0.9052
 6589SOL     OW31225   3.506   4.155  17.046 -0.2611 -0.0958  0.1510
 6589SOL    HW131226   3.483   4.248  17.051 -1.1699 -0.2433 -1.3671
 6589SOL    HW231227   3.419   4.121  17.066  0.3010 -0.7859  1.3732
 6590SOL     OW31228   3.868   4.519   1.739 -0.5715  0.8917 -0.7237
 6590SOL    HW131229   3.835   4.444   1.788 -0.8779  0.6224 -1.3488
 6590SOL    HW231230   3.829   4.593   1.786 -0.6940 -0.5918  1.5406
 6591SOL     OW31231   1.092   4.364   2.448 -0.4633 -0.4787 -0.3036
 6591SOL    HW131232   1.155   4.294   2.431 -0.7550 -0.2305 -2.4025
 6591SOL    HW231233   1.014   4.314   2.422 -0.8042 -0.4462  0.6504
 6592SOL     OW31234   0.145   2.340   7.382 -0.3133  0.5096 -0.3690
 6592SOL    HW131235   0.101   2.366   7.301 -1.4832 -1.7790 -0.4662
 6592SOL    HW231236   0.071   2.307   7.433  0.3065 -2.2992 -1.2834
 6593SOL     OW31237   4.108   1.137   4.099  0.4980  0.2184  0.3162
 6593SOL    HW131238   4.109   1.212   4.039 -1.6977  1.2580  1.5608
 6593SOL    HW231239   4.201   1.118   4.112  0.4884 -1.2005 -1.7037
 6594SOL     OW31240   2.113   1.180   5.019  0.2327  0.2642  0.0199
 6594SOL    HW131241   2.120   1.235   5.097  0.4917  3.4502 -2.2411
 6594SOL    HW231242   2.132   1.239   4.945  0.5069 -1.6489 -1.4461
 6595SOL     OW31243   1.234   1.618   7.987  0.5115 -0.5049 -0.7828
 6595SOL    HW131244   1.187   1.535   7.992 -1.0107  0.4315  0.4362
 6595SOL    HW231245   1.203   1.651   7.903 -1.5930 -0.6888 -0.0788
 6596SOL     OW31246   3.167   0.236   5.827 -0.6708  0.4218 -0.3840
 6596SOL    HW131247   3.158   0.264   5.917 -0.3217  0.3585 -0.3260
 6596SOL    HW231248   3.161   0.323   5.787  1.0818  0.1874 -1.2005
 6597SOL     OW31249   0.061   1.577   3.996 -0.4177  0.1634  0.1086
 6597SOL    HW131250   0.055   1.532   3.912 -1.3173  1.3347 -0.4499
 6597SOL    HW231251   0.117   1.524   4.053 -0.0001  0.9589  0.4330
 6598SOL     OW31252   1.189   0.003  14.110 -0.2451  0.1259 -0.1520
 6598SOL    HW131253   1.140   4.645  14.122  0.2411 -0.4534 -2.0522
 6598SOL    HW231254   1.224   0.022  14.197 -2.9308 -1.6668  1.3334
 6599SOL     OW31255   3.930   4.479  16.492 -0.1786 -0.4940  1.1493
 6599SOL    HW131256   3.865   4.451  16.557 -0.2675 -1.7084  0.5361
 6599SOL    HW231257   3.935   4.568  16.525 -0.3464 -0.6861  1.6920
 6600SOL     OW31258   4.108   0.122  14.273 -0.4774  0.0199  0.4467
 6600SOL    HW131259   4.151   0.091  14.193 -0.1317 -0.2538  0.7386
 6600SOL    HW231260   4.025   0.074  14.271  0.7929 -2.1772 -0.0126
 6601SOL     OW31261   3.064   0.381  16.537  0.2867  0.2088 -0.4492
 6601SOL    HW131262   3.064   0.476  16.531  1.1371  0.3556  1.8572
 6601SOL    HW231263   3.045   0.361  16.445  0.7800  0.3295 -0.5780
 6602SOL     OW31264   2.624   2.230   8.380 -0.3045 -0.1406 -0.2344
 6602SOL    HW131265   2.560   2.249   8.449  1.0057 -1.9177  1.4644
 6602SOL    HW231266   2.579   2.160   8.332  0.2502  0.0585 -1.0404
 6603SOL     OW31267   1.668   3.944  12.577 -0.1544  0.6203 -0.3622
 6603SOL    HW131268   1.637   3.926  12.488 -0.1907 -1.4944  0.0804
 6603SOL    HW231269   1.736   4.010  12.563  1.4983 -1.0712 -0.2348
 6604SOL     OW31270   1.712   0.487   9.616  0.5996  0.2247  0.5988
 6604SOL    HW131271   1.624   0.494   9.579 -0.3134 -0.8697  2.5620
 6604SOL    HW231272   1.697   0.421   9.684 -1.3726 -0.3712 -0.4091
 6605SOL     OW31273   4.284   1.689   1.358  0.1958 -0.2213 -0.0654
 6605SOL    HW131274   4.317   1.777   1.375  0.0934 -0.8911  3.5581
 6605SOL    HW231275   4.282   1.691   1.262 -0.3714 -1.0102 -0.0674
 6606SOL     OW31276   3.815   4.313   8.742 -0.2814 -0.2774 -0.8118
 6606SOL    HW131277   3.812   4.269   8.827  1.4837 -1.4960 -1.3870
 6606SOL    HW231278   3.837   4.245   8.678  0.8183  0.5888 -1.3638
 6607SOL     OW31279   2.245   4.165   7.555 -0.6760 -0.3874 -0.0386
 6607SOL    HW131280   2.266   4.233   7.490 -1.8796 -0.5079 -0.5729
 6607SOL    HW231281   2.221   4.217   7.632  0.2195  0.8424 -0.5851
 6608SOL     OW31282   2.075   4.475   0.389  0.8126  1.0684  0.1845
 6608SOL    HW131283   2.131   4.520   0.326  2.7372 -2.0193 -0.3361
 6608SOL    HW231284   2.009   4.448   0.325 -0.3360 -0.3611  1.9699
 6609SOL     OW31285   4.402   1.606   9.103 -0.6808 -0.2166  0.0265
 6609SOL    HW131286   4.314   1.570   9.114 -0.7678  0.1812  0.6568
 6609SOL    HW231287   4.413   1.653   9.186 -0.2976 -2.0242  1.0128
 6610SOL     OW31288   4.552   0.836   7.893 -0.5306 -0.2882 -0.1232
 6610SOL    HW131289   4.462   0.827   7.926  0.2918 -1.8399  1.7317
 6610SOL    HW231290   4.535   0.848   7.800  3.3329  0.3597 -0.7029
 6611SOL     OW31291   2.922   4.064   7.009 -1.0889 -0.0393 -0.1183
 6611SOL    HW131292   2.903   4.123   7.082 -2.5520 -0.5913 -0.0443
 6611SOL    HW231293   2.837   4.020   7.001  1.1153 -4.3561 -0.1021
 6612SOL     OW31294   4.461   3.328   0.171  0.1599  0.2705 -0.1744
 6612SOL    HW131295   4.541   3.379   0.158  0.2973 -0.4756 -2.2115
 6612SOL    HW231296   4.449   3.351   0.264  0.5575 -1.6111  0.3227
 6613SOL     OW31297   2.217   2.234   8.876 -0.1516  0.7807  0.0863
 6613SOL    HW131298   2.182   2.300   8.816 -0.2512  2.8336  2.3950
 6613SOL    HW231299   2.203   2.267   8.965 -1.7592 -3.8693  1.6225
 6614SOL     OW31300   3.871   4.494  15.509 -0.3073  0.3623  0.3028
 6614SOL    HW131301   3.958   4.526  15.531 -0.0435 -0.3893  0.3759
 6614SOL    HW231302   3.869   4.494  15.414 -1.3264  0.5906  0.3195
 6615SOL     OW31303   0.460   2.371   7.815  0.3911  0.1780 -0.7518
 6615SOL    HW131304   0.534   2.315   7.794 -1.7883 -3.1837  0.4864
 6615SOL    HW231305   0.398   2.341   7.749  0.5152 -1.0960 -0.3001
 6616SOL     OW31306   0.617   0.091   2.658  0.1326  0.5288  0.9560
 6616SOL    HW131307   0.645   0.152   2.590 -0.5092 -2.1948 -1.7712
 6616SOL    HW231308   0.560   0.148   2.709 -1.9888 -2.0030  1.4740
 6617SOL     OW31309   1.713   0.214   5.536  0.0045 -0.2560  0.0827
 6617SOL    HW131310   1.679   0.224   5.447 -0.3729  0.5177  0.3064
 6617SOL    HW231311   1.737   0.305   5.555 -1.1504  0.0163  0.2454
 6618SOL     OW31312   1.688   3.183   4.212  0.2392 -0.4402 -0.0460
 6618SOL    HW131313   1.619   3.246   4.234  1.2370  0.2971  0.9596
 6618SOL    HW231314   1.642   3.114   4.164  1.0769 -0.2908 -1.0527
 6619SOL     OW31315   0.067   3.871   0.460 -0.0112 -0.1573 -0.2860
 6619SOL    HW131316   0.012   3.793   0.449  2.2102 -1.7676  0.0144
 6619SOL    HW231317   0.032   3.921   0.387 -0.0439  0.7831  0.3711
 6620SOL     OW31318   2.029   4.369   8.458  0.4748  0.7511 -0.1734
 6620SOL    HW131319   2.070   4.445   8.417 -1.4895  1.4231 -0.8891
 6620SOL    HW231320   2.023   4.399   8.548  0.2756  2.5726 -0.8055
 6621SOL     OW31321   2.753   1.191  11.489  0.3817  0.1633  0.3042
 6621SOL    HW131322   2.719   1.142  11.414 -0.2941  2.1973 -0.7130
 6621SOL    HW231323   2.842   1.208  11.459  0.2497 -1.3513 -0.9646
 6622SOL     OW31324   3.056   3.948   7.579 -0.0724  0.2005  0.5360
 6622SOL    HW131325   3.071   4.042   7.585 -0.8850  0.3208  0.6645
 6622SOL    HW231326   3.120   3.924   7.511 -0.1807 -1.2706  0.9442
 6623SOL     OW31327   2.812   1.576   8.231  0.0919 -0.6439 -0.0422
 6623SOL    HW131328   2.795   1.510   8.298  1.0293 -0.6686  0.1724
 6623SOL    HW231329   2.832   1.521   8.156 -1.6930  1.3989 -2.0226
 6624SOL     OW31330   3.446   4.554   5.497 -0.1324  0.2243 -0.4960
 6624SOL    HW131331   3.495   4.529   5.419  1.0440 -1.5932  0.8116
 6624SOL    HW231332   3.478   4.483   5.552  0.7479 -0.6094 -2.0916
 6625SOL     OW31333   1.649   3.770   4.296  0.0252 -0.2780  0.1128
 6625SOL    HW131334   1.664   3.860   4.325 -0.1746 -0.7887  1.8481
 6625SOL    HW231335   1.630   3.780   4.203  2.1216  0.5273 -0.2099
 6626SOL     OW31336   1.916   3.040   9.147 -0.4121  0.2973  0.2458
 6626SOL    HW131337   1.910   3.131   9.176  0.2543  1.0830 -2.0846
 6626SOL    HW231338   1.835   3.031   9.098 -0.6782  1.4720  0.4737
 6627SOL     OW31339   1.688   1.027   8.029 -0.0077 -0.0517 -0.5022
 6627SOL    HW131340   1.759   0.979   8.072  1.9413  1.3107 -2.1699
 6627SOL    HW231341   1.649   1.078   8.099  1.1221  0.5965 -0.3407
 6628SOL     OW31342   3.496   0.774  13.899 -0.8076  0.0228 -0.1830
 6628SOL    HW131343   3.455   0.759  13.814  0.3599 -0.6478 -0.6423
 6628SOL    HW231344   3.589   0.764  13.876 -1.0315 -0.8443 -0.7342
 6629SOL     OW31345   3.405   3.628   1.372  0.5256 -0.5281 -0.6927
 6629SOL    HW131346   3.315   3.597   1.371  0.0690  0.8855 -2.9017
 6629SOL    HW231347   3.415   3.672   1.288 -0.0701  0.6549 -0.1378
 6630SOL     OW31348   1.910   0.236   6.808 -0.7367 -0.0762  0.1164
 6630SOL    HW131349   1.877   0.149   6.832 -0.1268 -0.3989 -0.2032
 6630SOL    HW231350   1.999   0.206   6.787 -0.3945  0.5288  0.7304
 6631SOL     OW31351   1.163   0.483  11.776  0.6376  0.7164  0.5385
 6631SOL    HW131352   1.257   0.500  11.790  0.6792  1.6677 -0.9113
 6631SOL    HW231353   1.146   0.419  11.846 -0.0716 -0.8185 -1.0351
 6632SOL     OW31354   3.984   1.430   8.563 -0.4447  0.6527 -0.2469
 6632SOL    HW131355   3.907   1.431   8.506 -0.8825 -0.2776  0.3319
 6632SOL    HW231356   3.983   1.335   8.574 -3.0136  0.6155 -0.7319
 6633SOL     OW31357   3.144   0.721  14.815 -0.2057 -0.8250 -0.4494
 6633SOL    HW131358   3.069   0.776  14.839  0.2996  0.7271 -2.4633
 6633SOL    HW231359   3.178   0.760  14.735  2.8058 -0.1577  1.1415
 6634SOL     OW31360   4.628   2.077  11.035 -0.1865 -0.5773  0.7720
 6634SOL    HW131361   4.557   2.026  10.996 -0.3377 -1.3095  1.9853
 6634SOL    HW231362   4.649   2.126  10.956  3.1956 -1.5165  1.0964
 6635SOL     OW31363   3.625   2.308  13.494  0.2575 -0.5653 -0.2794
 6635SOL    HW131364   3.677   2.233  13.464 -0.1457  0.3648 -3.2781
 6635SOL    HW231365   3.567   2.265  13.557 -0.8167  1.3654  0.0377
 6636SOL     OW31366   2.924   1.177  17.386  0.3325  0.6301 -0.1731
 6636SOL    HW131367   2.894   1.224  17.463 -1.2227 -0.5350 -0.0517
 6636SOL    HW231368   2.982   1.242  17.347 -0.5073  0.2682 -2.0328
 6637SOL     OW31369   3.207   1.471   6.985  0.0735 -1.1438  0.1022
 6637SOL    HW131370   3.131   1.526   6.967  0.7385 -0.6694 -1.2277
 6637SOL    HW231371   3.197   1.396   6.927  0.2263 -1.1573  0.0935
 6638SOL     OW31372   1.239   2.436   8.670  0.3298 -0.3420  0.2755
 6638SOL    HW131373   1.165   2.476   8.715 -0.1612 -0.5353 -0.3530
 6638SOL    HW231374   1.286   2.386   8.736  0.0227  1.9276  2.2086
 6639SOL     OW31375   0.069   2.675   3.042 -0.2096  0.7340  0.0030
 6639SOL    HW131376   0.056   2.758   2.996  0.8933  0.1931 -1.2904
 6639SOL    HW231377   0.057   2.614   2.969 -1.3363 -0.6982  1.3951
 6640SOL     OW31378   2.925   4.037  16.664  0.4332  0.2648  0.4409
 6640SOL    HW131379   2.973   4.119  16.654 -0.8383  1.0897  1.0983
 6640SOL    HW231380   2.861   4.038  16.593  1.8353 -1.6368 -0.8435
 6641SOL     OW31381   2.883   1.344   3.705  0.2913 -0.1433 -0.9639
 6641SOL    HW131382   2.958   1.337   3.765  0.9360 -0.0664 -1.7568
 6641SOL    HW231383   2.936   1.364   3.627 -1.3033  2.1483 -1.4432
 6642SOL     OW31384   2.833   0.103   5.158 -0.0704 -0.2243  0.8625
 6642SOL    HW131385   2.793   0.021   5.129  1.7428 -1.6945  2.4685
 6642SOL    HW231386   2.884   0.071   5.232  0.7283 -3.0105 -0.8805
 6643SOL     OW31387   4.020   2.679   9.146 -0.0396 -0.2064  0.1303
 6643SOL    HW131388   3.934   2.722   9.145  1.2343  2.3127 -1.0708
 6643SOL    HW231389   4.048   2.675   9.055  0.1990  0.3835  0.1767
 6644SOL     OW31390   0.867   4.519   6.578 -0.4370 -0.2560  0.5228
 6644SOL    HW131391   0.854   4.521   6.673 -0.6071  0.3004  0.4926
 6644SOL    HW231392   0.940   4.459   6.565 -0.9302 -0.4168 -1.5441
 6645SOL     OW31393   4.353   2.627   7.418 -0.0153  0.1200 -0.2360
 6645SOL    HW131394   4.419   2.691   7.390  0.7775  0.0106  1.3779
 6645SOL    HW231395   4.278   2.680   7.392 -0.2285 -0.6610 -1.2306
 6646SOL     OW31396   2.836   3.429   8.329 -0.1076  0.1601 -0.0481
 6646SOL    HW131397   2.861   3.348   8.284 -1.1252 -1.7433  2.7760
 6646SOL    HW231398   2.914   3.442   8.382 -2.2757  2.3547  2.5573
 6647SOL     OW31399   3.589   1.125   6.687  0.5731  0.7313  0.0308
 6647SOL    HW131400   3.579   1.030   6.692  0.1078  0.9374  2.9079
 6647SOL    HW231401   3.518   1.162   6.739 -0.3438 -1.2806  0.2010
 6648SOL     OW31402   4.314   2.456   3.597  0.5815 -0.0951  0.0415
 6648SOL    HW131403   4.360   2.495   3.672  2.0264  1.6414 -1.7358
 6648SOL    HW231404   4.236   2.511   3.607  0.0332 -0.7807 -0.5531
 6649SOL     OW31405   2.237   1.949  15.762 -0.0430  1.0163 -0.2406
 6649SOL    HW131406   2.319   1.976  15.803  1.9425 -1.9447 -2.2168
 6649SOL    HW231407   2.185   1.911  15.833  0.2438  1.2011  0.0676
 6650SOL     OW31408   1.604   4.259  10.544  0.2477  0.8358 -0.6107
 6650SOL    HW131409   1.667   4.207  10.494  1.0477  1.0205  0.2016
 6650SOL    HW231410   1.661   4.271  10.621 -1.5424 -2.1162  1.1371
 6651SOL     OW31411   3.124   2.884   0.656 -0.1703  0.0128 -0.0052
 6651SOL    HW131412   3.170   2.958   0.697 -0.0035  0.1870 -0.5090
 6651SOL    HW231413   3.144   2.892   0.563  0.4991 -1.6854  0.0013
 6652SOL     OW31414   2.291   4.287   2.358  0.1440 -0.3297 -0.1897
 6652SOL    HW131415   2.270   4.193   2.360  0.7140 -0.4800 -0.9379
 6652SOL    HW231416   2.315   4.299   2.266  1.3895 -0.9058  0.0496
 6653SOL     OW31417   0.692   3.091   6.989  0.1017  0.1041 -0.0785
 6653SOL    HW131418   0.771   3.126   6.948  0.9536  1.8295  3.0248
 6653SOL    HW231419   0.722   3.057   7.074 -0.3934 -0.9917 -0.3455
 6654SOL     OW31420   2.375   3.992   5.576 -0.2178 -1.1264  0.7465
 6654SOL    HW131421   2.284   3.964   5.566  0.7047 -3.7816 -0.2610
 6654SOL    HW231422   2.364   4.078   5.615 -0.3499 -0.1366 -1.4739
 6655SOL     OW31423   3.791   3.395   2.589 -0.2895  0.2150 -0.5316
 6655SOL    HW131424   3.776   3.435   2.675 -0.4576  1.1531 -0.9979
 6655SOL    HW231425   3.715   3.435   2.547 -0.9150 -1.4237 -0.9644
 6656SOL     OW31426   3.672   4.350   1.377  0.1698  0.1391 -0.4677
 6656SOL    HW131427   3.678   4.263   1.415  1.2499  1.7501  3.0479
 6656SOL    HW231428   3.582   4.374   1.397  0.1448 -1.4131  1.2442
 6657SOL     OW31429   1.357   0.266   4.802  0.1010 -0.2330  0.6684
 6657SOL    HW131430   1.372   0.359   4.783  0.4358 -0.6207 -0.9973
 6657SOL    HW231431   1.329   0.239   4.714  2.5074  1.1738 -0.5528
 6658SOL     OW31432   2.584   2.584   0.940 -0.4029  0.3625  0.5510
 6658SOL    HW131433   2.577   2.676   0.912  1.6767 -0.2832 -2.1454
 6658SOL    HW231434   2.652   2.551   0.881  1.0950  0.3583  2.2743
 6659SOL     OW31435   0.115   1.896   7.237  0.1652 -0.8322  0.4504
 6659SOL    HW131436   0.151   1.812   7.209  0.0113 -0.9705  0.6595
 6659SOL    HW231437   0.192   1.952   7.244  0.1851 -0.9180  0.9614
 6660SOL     OW31438   0.312   1.465   7.380 -0.0796 -0.1309 -0.5789
 6660SOL    HW131439   0.275   1.381   7.354  1.1993 -0.4671 -1.3501
 6660SOL    HW231440   0.275   1.495   7.463  0.4439  0.5465 -0.5862
 6661SOL     OW31441   4.570   2.765   2.223  0.3865  0.0359 -0.6134
 6661SOL    HW131442   4.589   2.855   2.250  1.6962 -0.9009  1.6258
 6661SOL    HW231443   4.489   2.744   2.270  0.7774 -0.3717 -0.1246
 6662SOL     OW31444   1.030   3.561   9.445  0.4211 -0.3242 -0.5413
 6662SOL    HW131445   1.068   3.511   9.517  1.5035  1.5319  0.1754
 6662SOL    HW231446   0.945   3.586   9.481 -0.3810 -1.7661 -1.4286
 6663SOL     OW31447   4.520   0.786   0.545 -0.1076  0.2475 -0.0071
 6663SOL    HW131448   4.448   0.755   0.601  0.0479  3.4141  1.9185
 6663SOL    HW231449   4.522   0.721   0.474  1.9405 -0.5768  0.8123
 6664SOL     OW31450   4.630   4.032  13.404 -0.1557  0.0777  0.7123
 6664SOL    HW131451   4.606   4.124  13.392  1.3009  0.6568  2.1679
 6664SOL    HW231452   4.688   4.056  13.476  0.3059 -1.5199  0.8640
 6665SOL     OW31453   2.067   0.269  15.513  0.0510 -0.1162 -0.3836
 6665SOL    HW131454   2.027   0.198  15.463  0.7701 -0.8865  0.1390
 6665SOL    HW231455   2.141   0.294  15.458 -1.9435  1.6375 -2.2953
 6666SOL     OW31456   4.343   3.479   3.168 -0.5455  0.2202 -0.3855
 6666SOL    HW131457   4.383   3.537   3.103  2.5479  0.2250  1.4761
 6666SOL    HW231458   4.258   3.522   3.178 -1.5140 -1.1500 -2.7482
 6667SOL     OW31459   1.883   2.111  10.451 -0.1115 -0.2884 -0.0154
 6667SOL    HW131460   1.855   2.115  10.542 -0.3806 -0.6947 -0.0776
 6667SOL    HW231461   1.966   2.155  10.469  0.5909 -1.2385 -0.9682
 6668SOL     OW31462   2.854   0.973   5.359  0.1955  0.0908  0.8305
 6668SOL    HW131463   2.819   0.884   5.357 -1.7682  0.8197  2.1431
 6668SOL    HW231464   2.923   0.968   5.294 -0.8416 -1.2180 -0.1623
 6669SOL     OW31465   3.886   2.335   4.154 -0.0190 -0.1925  0.2995
 6669SOL    HW131466   3.851   2.401   4.094  0.5387  0.2984  0.5169
 6669SOL    HW231467   3.882   2.388   4.233 -3.7536  0.5365 -0.3682
 6670SOL     OW31468   3.119   2.138   6.026  0.0586 -0.2813 -0.0472
 6670SOL    HW131469   3.031   2.118   6.058 -0.7422  2.4123 -0.5509
 6670SOL    HW231470   3.110   2.096   5.941 -0.9814  1.0685 -0.6012
 6671SOL     OW31471   2.114   3.784   3.182 -0.1673  0.2082  0.2122
 6671SOL    HW131472   2.156   3.793   3.097  1.8485 -0.7551  1.0913
 6671SOL    HW231473   2.191   3.749   3.227  0.9761  3.0086  0.4258
 6672SOL     OW31474   0.793   0.443   5.017  0.1436  0.2367  0.0057
 6672SOL    HW131475   0.782   0.481   4.930 -2.5665  0.3453  0.4241
 6672SOL    HW231476   0.838   0.361   4.995  1.6667  0.4330  2.3654
 6673SOL     OW31477   1.842   2.940   7.744  0.2740  0.4183  0.2054
 6673SOL    HW131478   1.796   2.969   7.823 -1.4974 -0.4771 -0.5182
 6673SOL    HW231479   1.904   2.880   7.784  0.3196 -0.3770 -1.0739
 6674SOL     OW31480   3.921   2.497   9.360 -0.0965 -0.1530 -0.2726
 6674SOL    HW131481   3.871   2.566   9.404  2.6765  2.0803 -0.6000
 6674SOL    HW231482   3.953   2.548   9.286 -1.3147  2.3277  0.9039
 6675SOL     OW31483   0.749   1.373   1.811 -0.1222 -0.1997 -0.7777
 6675SOL    HW131484   0.775   1.454   1.768  0.7590  0.9735  1.9824
 6675SOL    HW231485   0.833   1.331   1.831  0.5720  2.5609  2.1285
 6676SOL     OW31486   0.547   3.928  17.524  0.0928  0.7411 -0.2116
 6676SOL    HW131487   0.531   4.021  17.539 -0.0838  0.7055 -0.1748
 6676SOL    HW231488   0.639   3.933  17.549  0.2089 -0.5509 -0.3543
 6677SOL     OW31489   3.644   3.046   6.580  0.1721  0.2159  0.4897
 6677SOL    HW131490   3.634   2.958   6.543  0.8032  1.2456 -2.1837
 6677SOL    HW231491   3.552   3.049   6.606  0.5660 -2.3690  2.1680
 6678SOL     OW31492   0.597   3.150   8.398  0.2213 -0.0693  0.1919
 6678SOL    HW131493   0.670   3.194   8.354 -0.1217 -0.9063 -1.2067
 6678SOL    HW231494   0.594   3.216   8.467  1.5980  0.6325 -0.4255
 6679SOL     OW31495   3.531   3.950   5.042  0.0181 -0.0470 -0.1208
 6679SOL    HW131496   3.518   3.910   5.128  2.2073 -1.0073 -0.2442
 6679SOL    HW231497   3.626   3.946   5.029 -0.1314 -1.7449 -0.5801
 6680SOL     OW31498   1.861   1.557  11.736  1.0668  0.1625 -0.0021
 6680SOL    HW131499   1.811   1.638  11.724 -1.9550 -1.4786  1.5197
 6680SOL    HW231500   1.803   1.514  11.799 -0.2449  1.5419 -0.2657
 6681SOL     OW31501   1.420   4.343   9.895 -0.6358  0.0549  0.1950
 6681SOL    HW131502   1.470   4.417   9.860 -1.3701 -0.1197 -1.2310
 6681SOL    HW231503   1.336   4.384   9.917 -0.5479  0.3153  0.0517
 6682SOL     OW31504   1.225   4.072   5.095 -0.2938 -0.5354 -0.4179
 6682SOL    HW131505   1.203   4.008   5.162 -2.0180 -0.0866 -0.5443
 6682SOL    HW231506   1.148   4.056   5.041 -0.7940  0.1475  0.0861
 6683SOL     OW31507   2.584   2.076   9.237 -0.0633  0.0835  0.1532
 6683SOL    HW131508   2.621   2.162   9.258  0.2391  0.1604 -0.6943
 6683SOL    HW231509   2.656   2.062   9.176  0.2438  1.3436  0.2198
 6684SOL     OW31510   3.252   0.594  10.026 -0.1554  0.1491  0.0006
 6684SOL    HW131511   3.199   0.537   9.971 -0.7772 -0.8757  1.6695
 6684SOL    HW231512   3.189   0.656  10.065  0.0371 -1.3622  2.7452
 6685SOL     OW31513   4.048   3.554  16.673  0.4653 -0.0232  0.3196
 6685SOL    HW131514   4.088   3.508  16.747  0.2854 -0.7368 -0.0343
 6685SOL    HW231515   4.026   3.486  16.610  0.1441 -0.7228  1.1940
 6686SOL     OW31516   0.444   1.112   5.448  0.3407  0.3133  0.1387
 6686SOL    HW131517   0.510   1.045   5.431 -0.4419 -0.0466 -1.4322
 6686SOL    HW231518   0.461   1.165   5.370 -1.2138  1.5756  0.6515
 6687SOL     OW31519   4.313   1.644  10.237  0.4116  0.3140  0.6327
 6687SOL    HW131520   4.310   1.679  10.326 -1.5110  1.2869  0.1949
 6687SOL    HW231521   4.323   1.724  10.186  1.8717  0.8642  1.7790
 6688SOL     OW31522   0.479   0.026  13.429  0.0985 -0.0616  0.2152
 6688SOL    HW131523   0.410   0.092  13.423  0.6222  0.4387 -0.3670
 6688SOL    HW231524   0.538   0.050  13.357 -1.2563 -0.0859 -0.9081
 6689SOL     OW31525   2.610   3.166   9.754 -0.3957  0.5826 -0.2554
 6689SOL    HW131526   2.532   3.187   9.805  0.6855 -0.4534  1.8069
 6689SOL    HW231527   2.642   3.090   9.801 -3.1884 -2.6263 -3.5554
 6690SOL     OW31528   1.906   3.597  10.138 -0.2401 -0.7313  0.2772
 6690SOL    HW131529   1.851   3.520  10.123 -0.1235 -0.9904  1.1781
 6690SOL    HW231530   1.984   3.547  10.164  0.0977 -0.9572 -1.1791
 6691SOL     OW31531   2.878   4.457   9.185  0.0127  0.8163  0.1375
 6691SOL    HW131532   2.786   4.464   9.209 -0.2190 -0.5270 -0.3468
 6691SOL    HW231533   2.887   4.540   9.138  0.5285  0.1130 -1.0073
 6692SOL     OW31534   4.203   3.156  13.182  0.5695 -0.0144 -0.0418
 6692SOL    HW131535   4.111   3.163  13.154  1.4018 -0.5684 -2.9104
 6692SOL    HW231536   4.217   3.067  13.151  2.2353  0.4133 -0.4951
 6693SOL     OW31537   0.317   2.309   2.786 -0.2046 -0.2117 -0.0097
 6693SOL    HW131538   0.320   2.395   2.829  3.0774  0.4087 -1.4529
 6693SOL    HW231539   0.320   2.262   2.869 -0.3013  0.6334  0.4716
 6694SOL     OW31540   4.095   3.022  15.160 -0.2237 -0.1238 -0.1484
 6694SOL    HW131541   3.999   3.022  15.157 -0.1393 -0.9862 -2.2449
 6694SOL    HW231542   4.111   3.054  15.072 -1.3168  0.0178 -0.2983
 6695SOL     OW31543   0.681   0.362  10.160 -0.3117  0.4213 -0.3350
 6695SOL    HW131544   0.710   0.273  10.140  1.8212  0.9193  0.5418
 6695SOL    HW231545   0.597   0.377  10.117 -0.6804 -0.9149 -0.0563
 6696SOL     OW31546   4.658   2.957   4.866  0.3921  0.0362  0.3081
 6696SOL    HW131547   4.626   2.979   4.953  1.3240 -0.5136  0.7942
 6696SOL    HW231548   4.693   3.041   4.837  2.7045 -1.5390 -1.5558
 6697SOL     OW31549   1.419   1.143   1.784 -0.0416 -0.7039  0.7597
 6697SOL    HW131550   1.334   1.180   1.759 -0.7715 -1.9808  1.3526
 6697SOL    HW231551   1.440   1.094   1.705  3.8576  0.3613  1.1246
 6698SOL     OW31552   4.489   3.565   2.618 -0.2363 -0.1768  0.8041
 6698SOL    HW131553   4.578   3.534   2.599 -0.6259  0.2465 -1.8159
 6698SOL    HW231554   4.464   3.610   2.537  1.1383 -0.7827  0.0354
 6699SOL     OW31555   0.229   4.327   5.186  0.2012 -0.0315 -0.0480
 6699SOL    HW131556   0.219   4.399   5.123  0.7382  0.7525  0.7501
 6699SOL    HW231557   0.160   4.353   5.247  0.3557 -0.1104  0.1609
 6700SOL     OW31558   3.954   2.576  17.402  0.5042  0.1482 -0.0294
 6700SOL    HW131559   3.947   2.620  17.487  1.6016 -2.0259  1.1934
 6700SOL    HW231560   4.009   2.503  17.429 -1.9744 -2.1199 -1.0617
 6701SOL     OW31561   3.282   1.775   8.435  0.1597  0.1276  0.1761
 6701SOL    HW131562   3.205   1.782   8.379 -0.4157 -1.2218  0.8103
 6701SOL    HW231563   3.336   1.711   8.390 -3.0620 -2.2789 -0.2027
 6702SOL     OW31564   1.050   1.118   5.068 -0.1712  0.4606  0.3518
 6702SOL    HW131565   1.128   1.112   5.122 -0.8727  1.2285  1.4406
 6702SOL    HW231566   1.022   1.026   5.062  1.2361  0.0338  0.2501
 6703SOL     OW31567   3.382   1.044   4.689  0.1959 -0.8542 -0.0583
 6703SOL    HW131568   3.372   0.968   4.745 -3.0160  0.3055  0.9277
 6703SOL    HW231569   3.329   1.005   4.619 -1.8964  2.0102 -0.0761
 6704SOL     OW31570   2.766   1.692   4.677 -0.2389 -0.4768  0.2102
 6704SOL    HW131571   2.710   1.744   4.619 -0.7478 -0.8134  0.4075
 6704SOL    HW231572   2.844   1.689   4.621 -0.8753 -0.7398 -0.6562
 6705SOL     OW31573   1.246   0.007  13.289  0.5343  0.2350  0.2696
 6705SOL    HW131574   1.191   0.063  13.344 -0.2012 -1.4838  1.2425
 6705SOL    HW231575   1.314   4.710  13.353  1.7664  0.4775 -0.9367
 6706SOL     OW31576   4.611   1.975  14.010  0.6449  0.3082  1.0268
 6706SOL    HW131577   4.559   1.997  14.088 -0.5971  0.1903  0.2263
 6706SOL    HW231578   4.697   2.005  14.038  1.3314  0.6712 -1.4906
 6707SOL     OW31579   1.712   4.535   7.671 -0.3242 -0.7166 -0.0585
 6707SOL    HW131580   1.619   4.555   7.676 -0.2178 -0.1022 -0.4896
 6707SOL    HW231581   1.705   4.458   7.616  0.4576  1.3542 -3.0839
 6708SOL     OW31582   3.948   1.203   4.305 -0.1661 -0.2045  0.4150
 6708SOL    HW131583   4.010   1.162   4.245  2.0525  0.2925  2.3546
 6708SOL    HW231584   3.915   1.275   4.250 -0.7908 -1.3154 -0.6592
 6709SOL     OW31585   2.339   2.422   7.350  0.0004  0.2552 -0.3949
 6709SOL    HW131586   2.360   2.513   7.372  0.5749  0.0431 -0.0495
 6709SOL    HW231587   2.251   2.425   7.387 -0.5923 -0.2927 -1.7621
 6710SOL     OW31588   2.819   3.129   6.411  0.1606  0.0453  0.8168
 6710SOL    HW131589   2.802   3.211   6.363  1.4692 -0.5249 -0.6027
 6710SOL    HW231590   2.746   3.138   6.472  0.9466  1.3680  1.5558
 6711SOL     OW31591   4.324   3.983   8.100 -0.3240 -0.4343 -0.2423
 6711SOL    HW131592   4.413   3.953   8.084 -0.6127 -1.0922 -0.6061
 6711SOL    HW231593   4.320   4.067   8.055 -1.3102 -1.7021 -2.4804
 6712SOL     OW31594   1.999   1.180   2.694 -0.1697 -0.1772 -0.1022
 6712SOL    HW131595   1.946   1.103   2.673 -1.0255  0.6015 -0.7498
 6712SOL    HW231596   1.931   1.246   2.682  1.8238  1.7510 -0.7384
 6713SOL     OW31597   2.711   1.410   5.135 -0.1626  0.0750 -0.4899
 6713SOL    HW131598   2.714   1.360   5.216  1.1881  1.4632  0.3187
 6713SOL    HW231599   2.745   1.343   5.075 -0.2468 -0.6894  0.3153
 6714SOL     OW31600   2.996   4.670   5.862  0.2190 -0.2750  0.5841
 6714SOL    HW131601   3.051   4.630   5.930 -1.3630 -0.7249  1.5889
 6714SOL    HW231602   2.967   0.029   5.903 -1.8726 -0.2118 -1.0135
 6715SOL     OW31603   1.574   0.419   6.895 -0.2251 -0.2951  0.3502
 6715SOL    HW131604   1.576   0.493   6.956  2.5047 -1.1110  1.2389
 6715SOL    HW231605   1.542   0.350   6.953  0.8777 -0.7500  0.4188
 6716SOL     OW31606   0.232   3.817   7.215  0.6030  0.4154  0.0853
 6716SOL    HW131607   0.215   3.769   7.134  1.2134 -1.6056  1.1390
 6716SOL    HW231608   0.305   3.767   7.253 -1.0288 -1.3293  0.8771
 6717SOL     OW31609   2.572   3.766  13.570  0.1245  0.0895  0.0218
 6717SOL    HW131610   2.641   3.810  13.619 -0.4794  0.4674  0.5309
 6717SOL    HW231611   2.620   3.686  13.549  2.1071  1.7741 -1.9014
 6718SOL     OW31612   2.211   1.924  12.847  0.1224 -0.0424 -0.1972
 6718SOL    HW131613   2.143   1.857  12.841 -0.3765  0.3148  1.3631
 6718SOL    HW231614   2.248   1.918  12.935  3.7370 -2.3954 -1.8570
 6719SOL     OW31615   2.671   0.185   6.425 -0.2237 -0.3183  0.3509
 6719SOL    HW131616   2.749   0.242   6.428  0.6213 -1.3669 -1.3512
 6719SOL    HW231617   2.612   0.248   6.384  1.1440  1.3818  0.9568
 6720SOL     OW31618   1.454   4.361  13.218  0.0167  0.0281  0.1174
 6720SOL    HW131619   1.476   4.431  13.156 -0.5170  0.8928  0.8865
 6720SOL    HW231620   1.404   4.300  13.164  0.0633 -1.0051  1.2659
 6721SOL     OW31621   3.460   3.851  10.955  0.6909 -0.1941  0.8376
 6721SOL    HW131622   3.555   3.863  10.956  0.6460  0.2549 -0.3621
 6721SOL    HW231623   3.451   3.800  10.874  1.8712  0.0852  0.5238
 6722SOL     OW31624   3.799   1.326  10.448  0.0841 -0.1252  0.5047
 6722SOL    HW131625   3.873   1.386  10.437 -0.9617  1.1482  0.2779
 6722SOL    HW231626   3.764   1.369  10.526 -0.1111  0.9390 -0.1595
 6723SOL     OW31627   0.670   0.442   2.673 -0.5370 -0.1642  0.2199
 6723SOL    HW131628   0.761   0.453   2.698  0.3558 -1.2250 -2.5252
 6723SOL    HW231629   0.684   0.372   2.610  0.3887 -1.1739  1.5577
 6724SOL     OW31630   1.329   2.431   5.659  0.1708  0.2410  0.1089
 6724SOL    HW131631   1.424   2.423   5.662  0.5198  4.6762  1.0538
 6724SOL    HW231632   1.319   2.382   5.577  2.5572 -0.1702  0.0699
 6725SOL     OW31633   2.965   2.760   3.393 -0.7661 -0.1167 -0.2813
 6725SOL    HW131634   2.926   2.826   3.450  0.1854  0.5807 -0.4283
 6725SOL    HW231635   2.912   2.768   3.314  0.9088 -0.2932 -1.4194
 6726SOL     OW31636   3.476   1.470   9.543 -0.1677  0.2177  0.3003
 6726SOL    HW131637   3.442   1.453   9.631  2.2457 -1.9844  0.8189
 6726SOL    HW231638   3.474   1.565   9.538 -1.9952  0.2418  1.2633
 6727SOL     OW31639   3.579   2.946   1.477 -0.2129  0.6648 -0.3793
 6727SOL    HW131640   3.671   2.922   1.471 -0.8786 -1.1275 -3.3024
 6727SOL    HW231641   3.590   3.034   1.441  1.7953  0.6349  0.1539
 6728SOL     OW31642   0.629   0.242   5.528 -0.2416 -0.4742  0.3555
 6728SOL    HW131643   0.676   0.193   5.596 -0.1658 -0.6096  0.2055
 6728SOL    HW231644   0.650   0.333   5.547 -0.2500 -0.3036 -0.4778
 6729SOL     OW31645   1.962   1.065  12.859  0.1675  0.3540  0.1568
 6729SOL    HW131646   1.982   1.146  12.907 -0.2832 -0.5130  1.7727
 6729SOL    HW231647   1.942   1.114  12.779  1.9309  1.7460  0.5571
 6730SOL     OW31648   4.297   2.359  17.424  0.1872 -0.1808 -0.5304
 6730SOL    HW131649   4.312   2.398  17.338 -0.2516  1.7504  0.2724
 6730SOL    HW231650   4.210   2.319  17.414  0.2323 -0.3746 -0.1340
 6731SOL     OW31651   0.973   2.064  11.980 -0.2871  0.6108 -0.7048
 6731SOL    HW131652   1.039   2.128  11.952  1.7491 -2.0795 -2.0748
 6731SOL    HW231653   0.897   2.120  11.964  0.8914  1.7978 -2.2012
 6732SOL     OW31654   3.283   4.013  15.242  1.0239  0.2189 -0.0707
 6732SOL    HW131655   3.190   4.026  15.260  0.8645 -0.9837 -0.0292
 6732SOL    HW231656   3.322   4.099  15.258  0.6295  1.0418 -3.5591
 6733SOL     OW31657   2.217   1.472  12.859  0.8236  0.0113  0.1685
 6733SOL    HW131658   2.149   1.496  12.795  2.5415  1.1038 -1.2370
 6733SOL    HW231659   2.170   1.429  12.931 -2.4186  1.6047 -0.9782
 6734SOL     OW31660   4.494   2.363   0.426 -0.1001  0.5842  0.2694
 6734SOL    HW131661   4.506   2.438   0.367 -1.1450 -1.0889 -2.0723
 6734SOL    HW231662   4.429   2.399   0.485  1.1827  1.2143  1.3064
 6735SOL     OW31663   1.411   3.549   5.507  0.2909  0.6466  0.0860
 6735SOL    HW131664   1.409   3.463   5.549 -2.7661  0.5892 -0.2039
 6735SOL    HW231665   1.467   3.599   5.566 -0.6946  2.1586 -0.2541
 6736SOL     OW31666   1.974   1.835   5.574 -0.1554  0.3875  0.2052
 6736SOL    HW131667   2.062   1.800   5.561  0.0218 -0.1775  2.9425
 6736SOL    HW231668   1.916   1.764   5.548  0.3473 -0.0822  0.3730
 6737SOL     OW31669   2.049   1.224  14.298 -0.6780 -0.0255  0.4748
 6737SOL    HW131670   2.129   1.172  14.300 -0.4938  0.1268 -2.7536
 6737SOL    HW231671   2.021   1.217  14.389  0.9635  1.6332  1.1237
 6738SOL     OW31672   0.060   3.390   7.303  0.2614  0.0305 -0.2076
 6738SOL    HW131673   0.018   3.315   7.344 -1.7556  0.3599 -1.6750
 6738SOL    HW231674   0.089   3.437   7.381  0.4394  0.8573 -0.7690
 6739SOL     OW31675   2.124   2.310   5.624 -0.1696 -0.0530 -0.5458
 6739SOL    HW131676   2.077   2.227   5.619 -0.3579 -0.0321  0.7805
 6739SOL    HW231677   2.211   2.272   5.634 -0.1498 -0.2866 -1.6605
 6740SOL     OW31678   3.655   0.740  16.098  0.7182 -0.1049 -0.0689
 6740SOL    HW131679   3.615   0.775  16.178  2.7650  1.5935  0.1933
 6740SOL    HW231680   3.581   0.753  16.038  0.3935  0.6929  0.5037
 6741SOL     OW31681   3.781   0.431   6.766 -0.2720  0.2757  0.0682
 6741SOL    HW131682   3.843   0.481   6.713  0.7629  1.8801  2.7976
 6741SOL    HW231683   3.826   0.419   6.850  0.5040 -0.3953 -0.4477
 6742SOL     OW31684   4.431   2.388   2.924 -0.4411  0.2338 -0.0308
 6742SOL    HW131685   4.479   2.309   2.900 -0.2979 -0.3183  2.1137
 6742SOL    HW231686   4.509   2.443   2.930  0.8141 -1.8223  2.1005
 6743SOL     OW31687   0.681   4.658   9.394  0.6965 -0.2819  0.3447
 6743SOL    HW131688   0.681   4.712   9.315 -2.1878  0.1049  0.6096
 6743SOL    HW231689   0.707   0.009   9.449  1.7366 -2.5924  2.9328
 6744SOL     OW31690   1.153   4.555  13.104 -0.3034  0.1507 -0.6151
 6744SOL    HW131691   1.206   4.554  13.024  1.0956  1.3292  0.2996
 6744SOL    HW231692   1.204   4.604  13.168  1.5467  0.4709 -2.3745
 6745SOL     OW31693   3.598   3.143   2.258  0.2822 -0.1043  0.4039
 6745SOL    HW131694   3.601   3.175   2.168 -1.6758 -0.8769  0.0692
 6745SOL    HW231695   3.596   3.050   2.240 -3.3130  0.1677 -0.5887
 6746SOL     OW31696   0.180   2.580   8.487  0.1549  0.0560 -0.6982
 6746SOL    HW131697   0.150   2.644   8.552  1.5591  0.7017 -0.6868
 6746SOL    HW231698   0.248   2.634   8.447  0.9702 -0.4225  0.0272
 6747SOL     OW31699   1.070   2.947   3.466 -0.4181  0.2694  0.1158
 6747SOL    HW131700   1.143   3.008   3.461  0.3765 -0.7536 -0.8158
 6747SOL    HW231701   1.002   3.005   3.430  0.1867  0.6665 -0.3806
 6748SOL     OW31702   3.310   4.421   8.863  0.4126 -0.1334 -0.4784
 6748SOL    HW131703   3.230   4.414   8.916  1.4493 -0.3221  1.0296
 6748SOL    HW231704   3.306   4.510   8.827  1.4251  0.6024  1.2213
 6749SOL     OW31705   0.784   3.930   0.133 -0.1267  0.1744  0.5405
 6749SOL    HW131706   0.778   3.860   0.067  0.4811  1.3150 -0.7315
 6749SOL    HW231707   0.774   3.998   0.067  1.8608 -0.3466 -0.2981
 6750SOL     OW31708   3.197   2.711   1.406  0.0708  0.2082  0.1380
 6750SOL    HW131709   3.143   2.754   1.340 -0.8093 -2.6206 -0.9697
 6750SOL    HW231710   3.282   2.729   1.367  0.7009 -0.2050  1.3285
 6751SOL     OW31711   0.751   4.352   0.029 -0.6473 -0.0953 -0.2680
 6751SOL    HW131712   0.811   4.323  17.654  0.5361  0.9702  0.3242
 6751SOL    HW231713   0.808   4.349   0.106 -0.3122  2.8908 -0.4009
 6752SOL     OW31714   0.813   3.313   8.304  0.0312 -0.3535 -0.0725
 6752SOL    HW131715   0.871   3.260   8.359 -0.7934 -1.2188 -0.0251
 6752SOL    HW231716   0.857   3.397   8.313 -0.6843  0.0110  0.0094
 6753SOL     OW31717   4.501   2.165   0.228 -0.2382  0.0244 -0.0679
 6753SOL    HW131718   4.429   2.114   0.265  0.4837 -0.7788  0.2110
 6753SOL    HW231719   4.510   2.238   0.290  0.5959  0.2075 -0.4078
 6754SOL     OW31720   2.829   0.717  14.777  0.1759 -0.4119 -0.3575
 6754SOL    HW131721   2.816   0.790  14.838  0.3989  0.9379 -1.9398
 6754SOL    HW231722   2.877   0.653  14.830  0.3560  0.6176  0.7132
 6755SOL     OW31723   0.069   2.443   2.384 -0.3576 -0.2911  0.2591
 6755SOL    HW131724   0.086   2.359   2.426 -0.0582  0.2677  1.2737
 6755SOL    HW231725   0.008   2.489   2.442 -0.9740 -0.1541 -0.4883
 6756SOL     OW31726   1.801   0.846   0.045 -0.0033 -0.1678 -0.5664
 6756SOL    HW131727   1.785   0.776  17.676 -0.7055 -1.2006  0.7548
 6756SOL    HW231728   1.786   0.799   0.127 -0.0347  0.0876 -0.4230
 6757SOL     OW31729   0.072   4.701  13.257  0.0801 -0.1686 -0.0351
 6757SOL    HW131730   0.041   0.036  13.327 -0.4816  2.1480 -2.2053
 6757SOL    HW231731   4.720   4.671  13.206 -0.5578  1.3071  0.0390
 6758SOL     OW31732   3.997   1.905  10.331  0.2050  0.2323 -0.7125
 6758SOL    HW131733   3.933   1.835  10.344  0.1512  0.0106 -2.1773
 6758SOL    HW231734   4.055   1.892  10.406 -0.0893  1.8484 -0.2025
 6759SOL     OW31735   1.351   1.352  12.427  0.5457  0.3655 -0.2801
 6759SOL    HW131736   1.259   1.372  12.446  0.7835  0.6711  0.5194
 6759SOL    HW231737   1.342   1.347  12.331 -2.8374 -0.5324  0.0924
 6760SOL     OW31738   2.434   0.276  15.153 -0.2341 -0.4444  0.4417
 6760SOL    HW131739   2.408   0.225  15.077  0.4196 -1.6769  1.0468
 6760SOL    HW231740   2.350   0.279  15.200 -0.0873 -2.4255  0.8235
 6761SOL     OW31741   3.712   0.112   2.588  0.0899  0.7717 -0.3371
 6761SOL    HW131742   3.731   0.201   2.620  2.7428 -0.4311  1.4205
 6761SOL    HW231743   3.785   0.111   2.527  0.5928 -2.7681  0.3258
 6762SOL     OW31744   3.366   1.952   1.061  0.3313  0.0047  0.0448
 6762SOL    HW131745   3.350   2.008   1.137  2.9562  0.8479 -0.0052
 6762SOL    HW231746   3.310   1.997   0.999  0.2647  1.1291  0.9288
 6763SOL     OW31747   4.347   4.643   9.252 -0.2370  0.9432 -0.3662
 6763SOL    HW131748   4.295   4.619   9.329 -0.4442 -0.0654 -0.8188
 6763SOL    HW231749   4.279   4.630   9.186 -0.5086 -0.5169  0.1963
 6764SOL     OW31750   1.811   3.687   3.670  0.3798  0.2909  0.1811
 6764SOL    HW131751   1.901   3.711   3.694  0.4046  1.1864 -0.8390
 6764SOL    HW231752   1.807   3.721   3.581  0.0003 -2.6614 -0.9198
 6765SOL     OW31753   3.280   2.052   5.445  0.0421 -0.7155 -0.4590
 6765SOL    HW131754   3.309   1.989   5.379  0.6230 -1.3791  0.4318
 6765SOL    HW231755   3.304   2.010   5.528 -2.0741  0.1670  0.6118
 6766SOL     OW31756   3.003   1.424   2.592  0.3439  0.3315 -0.6450
 6766SOL    HW131757   3.094   1.407   2.568  0.8186 -1.7961  2.6705
 6766SOL    HW231758   3.016   1.507   2.638 -0.7024  1.3868 -2.2258
 6767SOL     OW31759   0.117   1.988  11.177  0.4537 -0.1733  0.3009
 6767SOL    HW131760   0.193   1.984  11.118  0.3798  1.8021  0.0499
 6767SOL    HW231761   0.045   2.003  11.116  1.0796 -0.0230 -0.3989
 6768SOL     OW31762   1.767   3.566   1.353  0.2420  0.0139 -0.2621
 6768SOL    HW131763   1.856   3.540   1.328  0.2078 -0.5613  0.2054
 6768SOL    HW231764   1.759   3.650   1.309 -1.1176 -0.6001 -1.1953
 6769SOL     OW31765   4.317   2.362   1.536  0.0310 -0.1228  0.0893
 6769SOL    HW131766   4.336   2.317   1.618 -0.6055  3.1497  2.0351
 6769SOL    HW231767   4.342   2.300   1.468 -1.9731  1.0802 -1.7424
 6770SOL     OW31768   2.248   1.967  13.578 -0.0227 -0.6504 -0.2041
 6770SOL    HW131769   2.218   2.058  13.577 -0.4561 -0.7748  1.3154
 6770SOL    HW231770   2.281   1.966  13.668  1.0495  0.5618 -0.5853
 6771SOL     OW31771   0.851   2.166   2.302 -0.2888 -0.0527 -0.4733
 6771SOL    HW131772   0.756   2.154   2.313 -0.3600  1.6930  0.9919
 6771SOL    HW231773   0.858   2.223   2.226 -2.2388 -0.3669 -0.8881
 6772SOL     OW31774   1.014   0.455   2.266 -0.4235  0.1590  0.1084
 6772SOL    HW131775   0.928   0.468   2.308  0.6422  0.0264  2.3545
 6772SOL    HW231776   1.080   0.486   2.328  0.2824 -1.4350  0.1391
 6773SOL     OW31777   3.102   0.652   5.475 -0.3001 -0.1121  0.5976
 6773SOL    HW131778   3.184   0.660   5.426  0.1752 -1.9483  1.0930
 6773SOL    HW231779   3.038   0.635   5.406  1.1820 -0.7679 -0.6142
 6774SOL     OW31780   3.725   2.819   1.227  0.3171 -0.2265  0.1439
 6774SOL    HW131781   3.791   2.750   1.231  1.8586  1.0878 -2.9676
 6774SOL    HW231782   3.763   2.894   1.273  1.6075 -0.8570  0.1023
 6775SOL     OW31783   2.714   4.545   3.797 -0.2199  0.9548 -0.0108
 6775SOL    HW131784   2.757   4.600   3.731  1.8444 -0.2825  0.3054
 6775SOL    HW231785   2.633   4.594   3.813  0.7283  2.3714  0.4749
 6776SOL     OW31786   0.904   3.628   1.647 -0.6257 -0.5961 -0.1387
 6776SOL    HW131787   0.862   3.708   1.615 -0.5081 -0.8856 -1.0259
 6776SOL    HW231788   0.941   3.662   1.728 -0.8097  1.7878 -1.0449
 6777SOL     OW31789   3.695   1.054  14.264 -0.3863  0.2007  0.5800
 6777SOL    HW131790   3.699   1.071  14.170 -1.7240 -2.0287  0.1017
 6777SOL    HW231791   3.699   0.959  14.273 -1.9683  0.0737 -0.0845
 6778SOL     OW31792   2.004   3.064   8.234 -0.1705 -0.2573  0.1425
 6778SOL    HW131793   1.952   3.010   8.292 -1.1971 -0.2796 -0.7886
 6778SOL    HW231794   1.960   3.066   8.148  0.9432  1.6335 -0.4011
 6779SOL     OW31795   4.560   0.928   9.741 -0.4466 -0.4757 -0.2155
 6779SOL    HW131796   4.472   0.935   9.777 -0.4020 -0.0380 -0.1973
 6779SOL    HW231797   4.545   0.918   9.647 -0.2229 -1.5744 -0.1295
 6780SOL     OW31798   4.515   0.387   2.261  0.0065  0.1973  0.0050
 6780SOL    HW131799   4.600   0.363   2.296 -1.7577 -2.0156  2.7285
 6780SOL    HW231800   4.540   0.463   2.207  0.5930  0.1949  0.2837
 6781SOL     OW31801   0.884   2.871   8.902  0.2465 -0.1712  0.3111
 6781SOL    HW131802   0.796   2.908   8.910 -0.3323 -1.3765 -0.6041
 6781SOL    HW231803   0.875   2.789   8.949 -0.3159 -1.5812 -2.2349
 6782SOL     OW31804   4.302   2.634   4.510 -0.1279  0.0795  0.5233
 6782SOL    HW131805   4.339   2.707   4.559 -1.1628  2.2324 -1.8970
 6782SOL    HW231806   4.292   2.581   4.589 -1.2891  1.5544  1.3601
 6783SOL     OW31807   0.638   1.936   6.948  0.4190  0.5338  0.3164
 6783SOL    HW131808   0.730   1.908   6.954  0.4105  0.6395  0.8985
 6783SOL    HW231809   0.637   2.031   6.959  0.7400  0.5684  0.0499
 6784SOL     OW31810   4.620   0.380  11.811  0.1729  0.3791 -0.3412
 6784SOL    HW131811   4.666   0.423  11.739  0.0032  0.8940 -0.1349
 6784SOL    HW231812   4.647   0.440  11.881 -0.9501  1.0337 -0.4857
 6785SOL     OW31813   2.915   4.020   3.225  0.0440  0.1998 -0.7630
 6785SOL    HW131814   2.900   4.007   3.319  1.7099  0.4170 -0.4652
 6785SOL    HW231815   2.828   4.031   3.187 -0.7637  0.0778  1.0340
 6786SOL     OW31816   1.126   2.564  10.298 -0.2737  0.1572  0.1747
 6786SOL    HW131817   1.184   2.490  10.281 -1.4425 -0.3037 -1.7601
 6786SOL    HW231818   1.084   2.531  10.378  0.7837 -1.3719  0.0936
 6787SOL     OW31819   1.775   3.634   0.481 -0.4444  0.0968  0.3401
 6787SOL    HW131820   1.807   3.551   0.445 -1.7560 -0.1236 -0.2993
 6787SOL    HW231821   1.830   3.703   0.443  1.5856 -1.0104  1.2594
 6788SOL     OW31822   0.494   2.182   3.120  0.2883 -0.0732  0.3938
 6788SOL    HW131823   0.532   2.229   3.195  2.1672 -1.2811  0.2143
 6788SOL    HW231824   0.406   2.218   3.130  0.2440 -0.8043  2.6182
 6789SOL     OW31825   3.293   0.730   9.189 -0.1206 -0.3714  0.2189
 6789SOL    HW131826   3.369   0.786   9.174  0.3165 -0.8926  0.4505
 6789SOL    HW231827   3.283   0.729   9.284 -0.2338  0.5880  0.2132
 6790SOL     OW31828   0.781   2.092   6.172  0.3976 -0.3235 -0.2633
 6790SOL    HW131829   0.801   2.136   6.089 -0.5771 -0.2762 -0.4763
 6790SOL    HW231830   0.840   2.017   6.167  0.0487 -0.5659 -0.8036
 6791SOL     OW31831   0.170   2.445   4.935 -0.1680  0.3426  0.3926
 6791SOL    HW131832   0.215   2.475   5.014  1.4165 -2.2342  0.4818
 6791SOL    HW231833   0.226   2.491   4.872 -0.0716 -0.9484 -0.4681
 6792SOL     OW31834   3.399   4.570   1.369 -0.4597 -0.4264  0.7425
 6792SOL    HW131835   3.462   4.615   1.425 -0.3948  0.0417  0.2893
 6792SOL    HW231836   3.393   4.638   1.302 -0.3152  0.5797  1.7464
 6793SOL     OW31837   4.140   2.741   5.311 -0.1630  0.1889  0.3415
 6793SOL    HW131838   4.223   2.712   5.350  0.8598 -0.2576 -2.1462
 6793SOL    HW231839   4.158   2.835   5.304 -1.8743  0.4173 -0.8759
 6794SOL     OW31840   4.319   4.526   0.534  0.8461  0.1139  0.0900
 6794SOL    HW131841   4.271   4.566   0.606  2.3744 -1.0186  1.7424
 6794SOL    HW231842   4.379   4.598   0.516  3.4091 -2.8596 -3.1601
 6795SOL     OW31843   0.713   1.990  15.138 -0.5696  0.1059 -0.8341
 6795SOL    HW131844   0.713   1.930  15.064 -0.1061 -0.5010 -0.3424
 6795SOL    HW231845   0.680   2.074  15.104 -0.5789  0.9654  1.2807
 6796SOL     OW31846   3.528   2.476   6.759  0.1157  0.3944  0.2400
 6796SOL    HW131847   3.510   2.480   6.665  1.1382  0.9976  0.0699
 6796SOL    HW231848   3.618   2.442   6.757 -0.4052 -0.7278 -4.5202
 6797SOL     OW31849   4.277   4.619  10.302  0.3734 -0.6507  0.1396
 6797SOL    HW131850   4.306   4.604  10.391  1.0777  0.4552  0.0945
 6797SOL    HW231851   4.231   4.702  10.318  1.8937  0.1076  0.5199
 6798SOL     OW31852   0.452   4.658  11.072  0.0986 -0.1798  0.1825
 6798SOL    HW131853   0.422   4.587  11.129  0.8603  1.4591  2.6074
 6798SOL    HW231854   0.414   0.005  11.125  0.1396  0.2507 -0.3577
 6799SOL     OW31855   4.487   3.930   1.082 -0.2598  0.1219  0.2177
 6799SOL    HW131856   4.447   3.966   1.161  0.5172 -3.2494  2.1396
 6799SOL    HW231857   4.443   3.846   1.077  1.4451 -0.6669 -1.6132
 6800SOL     OW31858   2.798   4.105  16.442  0.2665  0.2610  0.4975
 6800SOL    HW131859   2.704   4.088  16.448  0.4737 -1.9510 -2.2416
 6800SOL    HW231860   2.804   4.193  16.405 -4.0454  0.0408 -0.6589
 6801SOL     OW31861   4.177   1.989   8.232  0.0211 -0.3042 -0.4237
 6801SOL    HW131862   4.256   2.007   8.282 -0.4824 -1.3468  0.7469
 6801SOL    HW231863   4.117   2.062   8.250 -0.6784 -0.8841 -0.3757
 6802SOL     OW31864   4.228   0.550   2.442 -0.0818 -0.1516  0.4327
 6802SOL    HW131865   4.141   0.513   2.425  0.6531 -1.5628 -0.2777
 6802SOL    HW231866   4.239   0.592   2.357 -0.7458  0.8894  0.8695
 6803SOL     OW31867   3.262   1.678   8.734 -0.2096 -0.8830  0.1693
 6803SOL    HW131868   3.328   1.621   8.696  1.3887  0.4300  0.9490
 6803SOL    HW231869   3.198   1.681   8.663  0.1139 -0.8108 -0.1153
 6804SOL     OW31870   1.884   0.577   5.302 -0.2462  0.3287  0.1868
 6804SOL    HW131871   1.888   0.673   5.309  0.6891  0.2643  0.4086
 6804SOL    HW231872   1.825   0.558   5.229  1.5431 -0.0325 -1.1702
 6805SOL     OW31873   1.252   3.146   3.429  0.5359 -0.7195 -0.0108
 6805SOL    HW131874   1.254   3.206   3.354  1.4991  1.1822  1.5498
 6805SOL    HW231875   1.282   3.205   3.497 -1.3707  0.4884 -0.2142
 6806SOL     OW31876   1.670   4.222   9.717 -0.4862 -0.3878 -0.3796
 6806SOL    HW131877   1.646   4.133   9.691 -1.4205  0.1154 -1.2516
 6806SOL    HW231878   1.607   4.240   9.787  0.6370  1.7018  0.1026
 6807SOL     OW31879   0.155   1.659   0.473 -0.4909  0.1097  0.1555
 6807SOL    HW131880   0.215   1.691   0.405 -0.3071  0.7854  0.6409
 6807SOL    HW231881   0.078   1.635   0.421 -0.8291  0.0234  0.6987
 6808SOL     OW31882   2.971   3.241   4.350  0.1504 -0.2627 -0.2990
 6808SOL    HW131883   2.989   3.181   4.278  0.9316 -1.7292  1.1374
 6808SOL    HW231884   2.884   3.218   4.384  0.1143  0.2220 -0.0513
 6809SOL     OW31885   1.546   3.915   7.895 -0.3812 -0.0446  0.1108
 6809SOL    HW131886   1.489   3.839   7.899  0.3547 -0.7493 -2.4639
 6809SOL    HW231887   1.610   3.900   7.964 -0.1868  2.8512  0.5652
 6810SOL     OW31888   0.269   0.222  13.514 -0.1715  0.0870  0.1846
 6810SOL    HW131889   0.318   0.302  13.493 -1.1138  0.9096  1.1663
 6810SOL    HW231890   0.299   0.212  13.604  1.6164  0.0313 -0.4010
 6811SOL     OW31891   4.579   1.760   9.322  0.1220  0.2789  0.3193
 6811SOL    HW131892   4.626   1.752   9.404  1.0066 -2.5654 -0.4697
 6811SOL    HW231893   4.637   1.709   9.265  2.6429  0.9452  2.3207
 6812SOL     OW31894   1.845   0.208   3.326 -0.5508  0.6461 -0.2530
 6812SOL    HW131895   1.909   0.261   3.279  0.8990 -0.3576  0.6014
 6812SOL    HW231896   1.898   0.156   3.386  1.6791  1.0428 -1.8549
 6813SOL     OW31897   4.534   1.358  17.295 -0.7763  1.0132  0.4733
 6813SOL    HW131898   4.527   1.329  17.205  2.3088  0.6490  0.3616
 6813SOL    HW231899   4.623   1.391  17.285 -0.4523  0.3972  1.2931
 6814SOL     OW31900   1.961   1.862   1.540 -0.5072  0.3135  0.3720
 6814SOL    HW131901   1.930   1.950   1.560  0.2882  1.2331 -2.3696
 6814SOL    HW231902   1.978   1.826   1.627 -1.5272  0.2302  0.5456
 6815SOL     OW31903   1.972   1.648   4.425  0.0446  0.0336 -0.0232
 6815SOL    HW131904   1.930   1.728   4.457 -1.1916  0.7990 -3.5578
 6815SOL    HW231905   2.049   1.690   4.386  0.2178 -0.1706  0.0968
 6816SOL     OW31906   1.425   0.424   3.505 -0.4168 -0.4946 -0.1101
 6816SOL    HW131907   1.507   0.442   3.460 -0.6194 -1.7462 -0.9779
 6816SOL    HW231908   1.363   0.440   3.433  1.1254 -0.3797 -1.4215
 6817SOL     OW31909   4.450   0.213  16.029  0.0323  0.0275 -0.4859
 6817SOL    HW131910   4.470   0.150  15.959 -3.7858  0.6515 -2.1437
 6817SOL    HW231911   4.355   0.200  16.035 -0.1431  0.7618 -1.6374
 6818SOL     OW31912   2.809   0.109   7.157  0.3669  0.1064  0.5340
 6818SOL    HW131913   2.749   0.051   7.204  1.4323 -0.6626  0.9510
 6818SOL    HW231914   2.864   0.040   7.120  0.9070  2.5729 -3.2289
 6819SOL     OW31915   2.516   2.488  10.773  0.5197 -0.2749  0.0636
 6819SOL    HW131916   2.460   2.494  10.695 -0.7527 -1.8220  0.8641
 6819SOL    HW231917   2.595   2.452  10.733  0.2263 -0.6951 -0.1330
 6820SOL     OW31918   0.091   2.179   2.970 -0.2437  0.7219 -0.1707
 6820SOL    HW131919   0.127   2.234   3.040  1.0170 -0.7106  0.3166
 6820SOL    HW231920   0.121   2.089   2.986  0.2846  0.7195 -1.1769
 6821SOL     OW31921   0.771   1.026   2.258 -0.6345  0.8071  0.3588
 6821SOL    HW131922   0.856   0.999   2.293 -0.9576 -0.0834  0.4717
 6821SOL    HW231923   0.713   1.015   2.333  0.9385 -1.4486  1.2616
 6822SOL     OW31924   2.100   0.369  14.208 -0.0643 -0.1845 -0.3647
 6822SOL    HW131925   2.045   0.416  14.146 -0.2583  0.8262  0.5955
 6822SOL    HW231926   2.111   0.448  14.261 -0.0765 -0.0508 -0.5636
 6823SOL     OW31927   2.065   1.168   1.576  0.3832  0.2430 -0.1499
 6823SOL    HW131928   2.076   1.198   1.666  2.4789 -2.1031  0.3881
 6823SOL    HW231929   2.076   1.075   1.598  1.9843  0.3628 -0.4341
 6824SOL     OW31930   2.937   4.696   7.452 -0.2696 -0.3866 -0.3246
 6824SOL    HW131931   2.995   4.640   7.504  1.3609  0.7976 -0.8633
 6824SOL    HW231932   2.872   4.627   7.436 -1.7412  0.6361  1.2100
 6825SOL     OW31933   1.302   3.952   3.169 -0.2813 -0.0859  0.3825
 6825SOL    HW131934   1.397   3.946   3.164 -0.0609  4.1785 -0.4910
 6825SOL    HW231935   1.295   4.018   3.237 -0.1162 -0.9077  1.2079
 6826SOL     OW31936   0.654   4.390   8.722  0.0610 -0.0338  0.1222
 6826SOL    HW131937   0.725   4.416   8.781  2.0819 -1.2528 -1.7622
 6826SOL    HW231938   0.607   4.472   8.709  1.4984  1.1402  2.3176
 6827SOL     OW31939   1.155   2.032  12.242  0.6384  0.3832  0.1177
 6827SOL    HW131940   1.205   2.013  12.163  1.6142 -0.1158  0.8603
 6827SOL    HW231941   1.159   1.949  12.289 -0.6894  1.3582  1.9719
 6828SOL     OW31942   4.536   4.589   8.994 -0.1948 -0.2881  0.7147
 6828SOL    HW131943   4.478   4.577   8.919  0.4503 -0.0033  0.1667
 6828SOL    HW231944   4.480   4.563   9.067 -0.5318 -1.3123  0.0935
 6829SOL     OW31945   3.457   0.779   2.509 -0.4629  0.0565  0.0097
 6829SOL    HW131946   3.370   0.796   2.471 -0.9144 -0.4163  0.8268
 6829SOL    HW231947   3.476   0.865   2.546  0.2764  1.2559 -3.1223
 6830SOL     OW31948   2.832   2.421   5.218  0.1974 -0.5267  0.0834
 6830SOL    HW131949   2.894   2.473   5.167  0.4867 -0.9215  0.0306
 6830SOL    HW231950   2.884   2.340   5.219  1.9450  0.6149 -0.0238
 6831SOL     OW31951   4.165   1.652  12.058 -0.4310  0.3429  0.0870
 6831SOL    HW131952   4.116   1.719  12.010 -2.0582 -1.1864 -0.4379
 6831SOL    HW231953   4.114   1.633  12.137 -0.9256 -1.8833 -0.7450
 6832SOL     OW31954   4.465   1.191   3.486  0.5157  0.4671 -0.2326
 6832SOL    HW131955   4.465   1.268   3.429  0.3960  0.8399  0.2699
 6832SOL    HW231956   4.506   1.123   3.433  2.0237  0.5989  0.7557
 6833SOL     OW31957   0.627   2.631  13.828  0.1065  0.2306 -0.2103
 6833SOL    HW131958   0.571   2.703  13.856 -1.2296 -0.4759 -1.0013
 6833SOL    HW231959   0.626   2.584  13.911  0.3785  0.6703  0.0413
 6834SOL     OW31960   4.265   2.169   8.860  0.6090  0.2208  0.7444
 6834SOL    HW131961   4.226   2.231   8.922  0.3560 -0.3598  1.1680
 6834SOL    HW231962   4.228   2.084   8.883  2.5829 -0.7950  0.1410
 6835SOL     OW31963   0.569   3.132  14.573  0.3093  0.2124  0.0758
 6835SOL    HW131964   0.565   3.165  14.662 -1.4345 -0.3936  0.2177
 6835SOL    HW231965   0.486   3.088  14.558 -0.2770  1.6807 -0.9760
 6836SOL     OW31966   2.927   2.081   9.075  0.4039 -0.3206  0.2125
 6836SOL    HW131967   3.007   2.111   9.032 -0.4686  0.2051 -1.0470
 6836SOL    HW231968   2.881   2.043   9.000  0.7853  0.1321 -0.2527
 6837SOL     OW31969   0.442   3.554   7.186 -0.5675 -0.1086 -0.9604
 6837SOL    HW131970   0.516   3.593   7.139  0.6163 -1.4943 -0.2268
 6837SOL    HW231971   0.463   3.565   7.279  0.6512  3.2293 -1.6100
 6838SOL     OW31972   2.865   4.364  14.056 -0.5696  0.5449 -0.2207
 6838SOL    HW131973   2.830   4.286  14.099  0.3347  0.1144 -0.2543
 6838SOL    HW231974   2.939   4.330  14.005 -1.4582  1.1637 -1.9165
 6839SOL     OW31975   0.738   0.322   3.794  0.5384  0.3730 -0.6389
 6839SOL    HW131976   0.774   0.373   3.722  1.9356 -1.0469 -0.9548
 6839SOL    HW231977   0.798   0.356   3.860 -0.5752  0.7651  0.1648
 6840SOL     OW31978   1.068   0.924  15.766  0.4292  0.0047  0.3411
 6840SOL    HW131979   1.140   0.861  15.777 -0.1260 -1.1359 -2.5748
 6840SOL    HW231980   1.087   0.961  15.680 -1.7914 -1.2957 -0.7189
 6841SOL     OW31981   1.120   2.137   6.759  0.0990  0.1812  0.1312
 6841SOL    HW131982   1.159   2.051   6.773  1.0365  0.3711 -1.3646
 6841SOL    HW231983   1.166   2.198   6.816  0.6343  0.8737 -1.0468
 6842SOL     OW31984   4.153   2.746  12.172 -0.1922  0.1854  0.2481
 6842SOL    HW131985   4.125   2.729  12.082 -1.4934  0.1947  0.6576
 6842SOL    HW231986   4.175   2.661  12.210 -0.0193  1.6166  3.3432
 6843SOL     OW31987   0.341   1.077   5.851  0.4774  0.1078  0.0428
 6843SOL    HW131988   0.372   1.134   5.921  0.7620 -0.2473  0.2105
 6843SOL    HW231989   0.361   1.133   5.776 -1.6769 -0.1552 -0.7121
 6844SOL     OW31990   4.001   2.860   5.002  0.4149 -0.0091  0.5971
 6844SOL    HW131991   4.070   2.926   5.009 -0.6714  1.0961  0.9171
 6844SOL    HW231992   4.052   2.795   4.954 -2.8945 -2.0228 -0.2720
 6845SOL     OW31993   4.277   4.013  17.673  0.0128 -0.0094 -0.3912
 6845SOL    HW131994   4.235   4.041   0.060  0.1737  1.3005 -0.7638
 6845SOL    HW231995   4.361   3.988   0.018 -0.5553 -0.7420  0.3699
 6846SOL     OW31996   4.278   3.825   4.061  0.1969 -0.1298 -0.8832
 6846SOL    HW131997   4.352   3.813   4.001  1.1602  1.2699  0.0362
 6846SOL    HW231998   4.306   3.770   4.135  0.7213  0.2849 -0.7724
 6847SOL     OW31999   3.857   2.497  12.626 -0.2244 -0.1098 -0.3262
 6847SOL    HW132000   3.833   2.590  12.621 -4.6084 -1.3605 -3.1821
 6847SOL    HW232001   3.934   2.508  12.682 -0.2803  2.2125 -0.7255
 6848SOL     OW32002   3.059   0.071   8.408 -0.7678  0.0373 -0.2321
 6848SOL    HW132003   3.035   0.023   8.487 -1.2820  1.5009  0.5050
 6848SOL    HW232004   3.155   0.070   8.408 -0.7565  1.0144 -0.3469
 6849SOL     OW32005   4.336   4.446   6.890 -0.2096 -0.3883  0.1298
 6849SOL    HW132006   4.414   4.453   6.835 -1.2225 -1.4408 -1.4217
 6849SOL    HW232007   4.302   4.536   6.891 -1.1669 -0.7589  1.2585
 6850SOL     OW32008   4.181   3.743   3.801  0.2896 -0.4289 -0.3322
 6850SOL    HW132009   4.194   3.787   3.884  0.1128 -0.0460 -0.5049
 6850SOL    HW232010   4.229   3.803   3.744 -1.9561  1.3543 -0.3593
 6851SOL     OW32011   1.362   3.635   4.271 -0.3469  0.8436 -0.0029
 6851SOL    HW132012   1.396   3.571   4.207 -0.2741  1.7008 -0.8313
 6851SOL    HW232013   1.434   3.698   4.275  0.1494  0.2681  0.3323
 6852SOL     OW32014   4.481   2.169   6.060  0.3478  1.2859 -0.2243
 6852SOL    HW132015   4.420   2.132   6.125  0.2339  0.6119 -0.7169
 6852SOL    HW232016   4.440   2.144   5.978 -1.7755  3.5574  0.1260
 6853SOL     OW32017   3.932   0.255  16.736  0.0210  0.2693  0.2023
 6853SOL    HW132018   4.021   0.276  16.709 -0.1526  0.0625 -0.5222
 6853SOL    HW232019   3.912   0.316  16.807  0.4754  1.7295 -0.9169
 6854SOL     OW32020   0.216   1.219   9.084  0.1999  0.0420 -0.6150
 6854SOL    HW132021   0.188   1.185   8.999 -1.5117  2.0273 -0.8271
 6854SOL    HW232022   0.310   1.231   9.069  0.4369 -0.6825  0.2635
 6855SOL     OW32023   4.316   2.598  15.328  0.3014 -0.1303 -0.3343
 6855SOL    HW132024   4.250   2.600  15.259 -1.4536 -1.1852  1.2987
 6855SOL    HW232025   4.398   2.603  15.279  0.0379  2.9527 -0.4342
 6856SOL     OW32026   2.481   1.119   9.164  0.0831  0.3259 -0.4704
 6856SOL    HW132027   2.494   1.153   9.076  2.8866  0.9917  0.1991
 6856SOL    HW232028   2.478   1.201   9.213  1.4099  0.5986 -0.8562
 6857SOL     OW32029   1.418   2.467   6.993 -0.6625  0.3342  0.2783
 6857SOL    HW132030   1.472   2.532   6.947 -1.4116  1.2224  0.6574
 6857SOL    HW232031   1.478   2.393   6.984  0.5391  1.2874  0.4646
 6858SOL     OW32032   3.619   4.326   6.629 -0.6816 -0.0413 -0.7737
 6858SOL    HW132033   3.669   4.248   6.654  0.4767  1.7807  2.4339
 6858SOL    HW232034   3.577   4.358   6.708 -0.4236  0.1970 -0.7350
 6859SOL     OW32035   1.184   3.490   3.394  0.0117  0.1861 -0.4144
 6859SOL    HW132036   1.205   3.415   3.338  1.1089 -1.7331  2.5720
 6859SOL    HW232037   1.218   3.559   3.337 -1.5651  1.1279 -0.2166
 6860SOL     OW32038   1.812   2.910  14.282  0.3982  0.2842  0.4018
 6860SOL    HW132039   1.746   2.849  14.249  0.9343  0.1539 -0.4287
 6860SOL    HW232040   1.746   2.975  14.303  1.3380  1.4610 -0.2736
 6861SOL     OW32041   0.325   2.843  10.281 -0.2636  0.1220  0.4756
 6861SOL    HW132042   0.314   2.869  10.373 -1.2392 -0.6054  0.5767
 6861SOL    HW232043   0.233   2.849  10.254  0.5521 -0.1739 -2.3258
 6862SOL     OW32044   4.247   2.089  15.701  0.0707 -0.0920  0.0693
 6862SOL    HW132045   4.234   2.182  15.721  1.5907  0.9018 -3.4540
 6862SOL    HW232046   4.334   2.087  15.739  0.7995  2.0590 -1.4800
 6863SOL     OW32047   2.303   2.552   0.362 -0.7728  0.0901 -0.2339
 6863SOL    HW132048   2.397   2.553   0.381 -0.5400  0.3090 -1.3711
 6863SOL    HW232049   2.313   2.566   0.267 -0.7446  3.0992  0.1930
 6864SOL     OW32050   2.350   2.977  12.202 -0.6515  0.3030  0.4859
 6864SOL    HW132051   2.341   2.981  12.297  0.8762 -2.2777  0.7193
 6864SOL    HW232052   2.407   3.049  12.178  2.8441 -2.7950 -0.4862
 6865SOL     OW32053   1.370   1.968   7.945  0.1187 -0.7720  0.0335
 6865SOL    HW132054   1.311   2.004   8.012 -0.1058  0.3105 -0.7519
 6865SOL    HW232055   1.410   1.895   7.992 -0.7853 -1.4857 -0.3035
 6866SOL     OW32056   1.986   1.975   6.204  0.1975 -0.2462  0.0289
 6866SOL    HW132057   2.029   1.971   6.119 -1.1058 -0.8435 -0.5959
 6866SOL    HW232058   1.979   2.070   6.215 -0.1601 -0.0424 -2.0646
 6867SOL     OW32059   4.045   4.545  14.916 -0.1708 -0.1045 -0.3222
 6867SOL    HW132060   4.125   4.568  14.962 -0.6493 -0.2564  0.5870
 6867SOL    HW232061   4.008   4.479  14.975 -0.6531 -1.0149 -1.6271
 6868SOL     OW32062   0.427   3.451   9.262 -0.4698 -0.5915  0.0708
 6868SOL    HW132063   0.458   3.511   9.195 -1.1047  0.6973  0.9254
 6868SOL    HW232064   0.496   3.385   9.264  0.5446  0.4941  1.2157
 6869SOL     OW32065   3.022   0.812   3.127 -0.0176  0.5071  0.1207
 6869SOL    HW132066   3.058   0.900   3.125 -1.3650  1.0750  1.7016
 6869SOL    HW232067   3.093   0.760   3.164 -0.0575 -0.0688 -0.6162
 6870SOL     OW32068   1.107   4.568   8.922 -0.2159 -0.4496 -0.7685
 6870SOL    HW132069   1.157   4.513   8.982  4.6940  2.4953 -2.1465
 6870SOL    HW232070   1.045   4.604   8.984  0.0297  1.2293 -1.4944
 6871SOL     OW32071   3.875   2.021   7.947 -0.2372 -0.3093  0.4255
 6871SOL    HW132072   3.964   1.990   7.931 -0.8119 -1.5289 -0.3715
 6871SOL    HW232073   3.884   2.060   8.035 -0.5202  0.9619 -0.1023
 6872SOL     OW32074   1.730   3.378  10.831  0.0229  0.4537  0.1184
 6872SOL    HW132075   1.815   3.338  10.813  0.1226  1.5467 -1.8371
 6872SOL    HW232076   1.739   3.451  10.892  0.6141 -0.0376  0.6198
 6873SOL     OW32077   0.374   2.568   6.432 -0.7634  0.3261  0.3065
 6873SOL    HW132078   0.407   2.574   6.521  2.5907 -3.1813 -0.6454
 6873SOL    HW232079   0.342   2.478   6.426  0.7962 -0.2476  0.4762
 6874SOL     OW32080   1.872   0.505  16.763 -0.1198  0.1588  0.0798
 6874SOL    HW132081   1.940   0.529  16.826 -1.0454  0.7275  0.8654
 6874SOL    HW232082   1.855   0.586  16.715 -1.4766  1.0892  2.1174
 6875SOL     OW32083   2.051   1.140   4.138 -0.2623 -0.0657 -0.0665
 6875SOL    HW132084   2.050   1.232   4.112 -1.0963 -0.0260  0.0849
 6875SOL    HW232085   1.962   1.124   4.171 -1.0587  0.8355 -1.7513
 6876SOL     OW32086   0.803   4.147   8.791 -0.4845 -0.0248 -0.7133
 6876SOL    HW132087   0.844   4.194   8.863 -1.4881 -1.6312  0.9175
 6876SOL    HW232088   0.722   4.197   8.785 -1.9994 -2.4144 -0.3539
 6877SOL     OW32089   2.319   0.341   2.760 -0.4003  0.3089 -0.2611
 6877SOL    HW132090   2.265   0.297   2.826  0.4600 -0.6052 -0.1653
 6877SOL    HW232091   2.278   0.304   2.682  2.0537  1.3983 -2.0898
 6878SOL     OW32092   2.208   0.400   5.579 -0.2972 -0.1834 -0.0132
 6878SOL    HW132093   2.135   0.434   5.631 -1.5121  0.8791 -2.3865
 6878SOL    HW232094   2.281   0.414   5.638  0.3801 -2.3001 -0.3529
 6879SOL     OW32095   4.429   2.342  16.823  0.1512  0.1276 -0.6977
 6879SOL    HW132096   4.437   2.326  16.917  0.9973 -0.8243 -0.9295
 6879SOL    HW232097   4.424   2.438  16.825 -0.5140  0.0422  1.4186
 6880SOL     OW32098   2.486   1.516  10.127 -0.3553 -0.0030  0.7541
 6880SOL    HW132099   2.519   1.559  10.048 -0.4311 -0.3654  0.5259
 6880SOL    HW232100   2.521   1.427  10.122  1.5188  0.8287 -1.0533
 6881SOL     OW32101   1.848   0.685   1.642  0.8258  0.1510  0.6579
 6881SOL    HW132102   1.778   0.677   1.576  0.8346 -0.8651  0.7816
 6881SOL    HW232103   1.915   0.617   1.637  0.9794  0.5813 -3.4675
 6882SOL     OW32104   2.918   0.244   7.444 -0.3441 -0.1288  0.6385
 6882SOL    HW132105   2.825   0.248   7.465 -0.2855 -0.0502  0.8821
 6882SOL    HW232106   2.926   0.154   7.412  0.2708 -0.1752  0.9080
 6883SOL     OW32107   4.315   2.533   5.956 -0.3817 -0.2621  0.4052
 6883SOL    HW132108   4.356   2.547   6.041  0.0669  1.2711 -0.0694
 6883SOL    HW232109   4.336   2.617   5.915  1.2389  1.2376  4.3279
 6884SOL     OW32110   3.185   1.450   0.556 -0.3757  0.1460 -0.1202
 6884SOL    HW132111   3.240   1.403   0.619 -0.4231 -0.3248 -0.4327
 6884SOL    HW232112   3.256   1.504   0.520 -0.2310  1.8873  2.8110
 6885SOL     OW32113   2.562   4.556  15.704  0.6499  0.1656 -0.5796
 6885SOL    HW132114   2.582   4.488  15.768 -0.5871  0.2880 -0.0658
 6885SOL    HW232115   2.637   4.557  15.645  0.6746  0.6521 -0.5444
 6886SOL     OW32116   4.336   1.567   6.127  0.0643  0.4743  0.3766
 6886SOL    HW132117   4.365   1.594   6.039  0.1234 -0.9887 -0.0541
 6886SOL    HW232118   4.344   1.473   6.113  1.1064  0.5206  0.6618
 6887SOL     OW32119   2.840   2.410  12.872  0.8305  0.4627  0.4953
 6887SOL    HW132120   2.883   2.337  12.828  0.1105  0.5229 -0.3143
 6887SOL    HW232121   2.861   2.394  12.964 -0.0176  1.7013  0.8938
 6888SOL     OW32122   2.572   2.078   4.742  0.0805  0.5981  0.2655
 6888SOL    HW132123   2.566   2.099   4.835  0.1069  0.0277  0.3972
 6888SOL    HW232124   2.488   2.033   4.733 -0.1799  0.6538  2.3390
 6889SOL     OW32125   1.546   1.714  14.853  0.3664  0.2261 -0.6691
 6889SOL    HW132126   1.635   1.744  14.835 -0.0629  2.2257  0.5537
 6889SOL    HW232127   1.551   1.685  14.944 -1.0999 -0.4749 -0.8179
 6890SOL     OW32128   0.537   0.659   6.837 -0.2487  0.1953  0.1716
 6890SOL    HW132129   0.470   0.598   6.804  0.3299  0.6797 -1.9071
 6890SOL    HW232130   0.529   0.734   6.778 -0.5106 -0.2977 -0.4311
 6891SOL     OW32131   4.489   0.730   7.324 -0.3346 -0.9399 -0.2743
 6891SOL    HW132132   4.490   0.654   7.265  0.8676 -0.4916 -0.8295
 6891SOL    HW232133   4.560   0.775   7.278 -1.6687  2.5639  1.1783
 6892SOL     OW32134   1.702   4.622   3.032 -0.8444  0.1229  0.0885
 6892SOL    HW132135   1.678   4.701   3.081 -2.5794  1.5916 -3.1162
 6892SOL    HW232136   1.695   4.662   2.945 -1.6345 -1.6062 -0.6362
 6893SOL     OW32137   4.248   4.444   4.929  0.0518 -0.2328 -0.2144
 6893SOL    HW132138   4.324   4.486   4.889  0.8042 -1.5906 -0.2197
 6893SOL    HW232139   4.254   4.472   5.020 -2.2416  0.4350 -0.2546
 6894SOL     OW32140   4.600   2.123   7.418  0.4316 -0.5683  0.1564
 6894SOL    HW132141   4.649   2.044   7.438 -0.6611 -2.0879 -3.2425
 6894SOL    HW232142   4.560   2.152   7.500 -0.9250 -0.2768 -0.6045
 6895SOL     OW32143   3.803   3.035  15.166 -0.0112  0.2660  0.1009
 6895SOL    HW132144   3.808   3.096  15.093  1.0528  0.6773  0.5228
 6895SOL    HW232145   3.708   3.019  15.164  0.1866 -0.9347  0.1853
 6896SOL     OW32146   3.434   0.897  14.182  0.4442 -0.0660 -0.0634
 6896SOL    HW132147   3.482   0.897  14.099  0.6781  0.2604  0.0731
 6896SOL    HW232148   3.364   0.955  14.152  0.8514  0.3517 -0.2060
 6897SOL     OW32149   1.638   3.869  17.661  0.3214  0.1229  0.7032
 6897SOL    HW132150   1.609   3.906   0.050  2.0614  0.5240  1.1325
 6897SOL    HW232151   1.720   3.916  17.647 -0.2264  0.9206  0.2050
 6898SOL     OW32152   1.934   0.151   6.090 -0.4323 -0.0092 -0.4462
 6898SOL    HW132153   1.936   0.157   5.994 -2.7638  1.7258 -0.3818
 6898SOL    HW232154   2.029   0.162   6.099 -0.2848 -0.8764 -0.9858
 6899SOL     OW32155   2.663   0.159   4.788 -0.1921 -0.3094 -0.0563
 6899SOL    HW132156   2.685   0.068   4.808 -2.6762 -0.8830  0.1828
 6899SOL    HW232157   2.716   0.169   4.709  0.8305  0.9982  0.8002
 6900SOL     OW32158   2.727   0.348   5.820  0.9494 -0.3519 -0.0311
 6900SOL    HW132159   2.737   0.384   5.732  1.1065  2.6901  1.2075
 6900SOL    HW232160   2.709   0.434   5.859 -0.9265 -1.0378  0.6026
 6901SOL     OW32161   0.521   4.221   0.062 -0.3226 -0.2842  0.6514
 6901SOL    HW132162   0.532   4.208  17.662  1.3616  2.9652  0.4017
 6901SOL    HW232163   0.592   4.280   0.087 -1.3200  0.2980  2.1267
 6902SOL     OW32164   1.374   2.083  12.473  0.0968  0.3768  0.7828
 6902SOL    HW132165   1.363   2.089  12.568 -2.4002  0.0333  0.5065
 6902SOL    HW232166   1.285   2.099  12.441  1.2142  3.6785 -0.6991
 6903SOL     OW32167   2.469   0.997   5.813 -0.0342  0.4599 -0.5990
 6903SOL    HW132168   2.473   1.022   5.905  2.1878  1.3023 -0.9194
 6903SOL    HW232169   2.484   1.080   5.768 -0.6770  0.9315  0.0776
 6904SOL     OW32170   3.437   2.181  12.403  0.3776  0.4983 -0.1259
 6904SOL    HW132171   3.531   2.183  12.420  0.5601 -1.5237 -0.8712
 6904SOL    HW232172   3.423   2.110  12.340  2.4677  0.9892 -1.1255
 6905SOL     OW32173   2.437   1.150   7.034  0.0317 -0.2150  0.1390
 6905SOL    HW132174   2.435   1.144   7.129 -1.7927 -0.4174  0.0956
 6905SOL    HW232175   2.344   1.170   7.021  0.7255  1.8559 -1.7819
 6906SOL     OW32176   0.795   1.861  16.169 -0.3544 -0.6536 -0.5721
 6906SOL    HW132177   0.888   1.855  16.147 -0.6508  3.6573 -3.0094
 6906SOL    HW232178   0.744   1.842  16.090  1.0166  0.7721 -1.8055
 6907SOL     OW32179   2.424   0.966   4.866 -0.2557  0.0766  0.6611
 6907SOL    HW132180   2.371   0.938   4.793 -0.3799 -1.5231  1.3749
 6907SOL    HW232181   2.406   1.060   4.859  0.6755  0.3781  2.1685
 6908SOL     OW32182   2.379   0.450   4.275  0.1716 -0.3489  0.0879
 6908SOL    HW132183   2.384   0.532   4.226  0.4116  0.3866  1.3484
 6908SOL    HW232184   2.379   0.481   4.365 -1.3984  1.0075 -0.3888
 6909SOL     OW32185   2.633   1.336   8.648 -0.3223  0.0919 -0.2243
 6909SOL    HW132186   2.722   1.365   8.628 -0.0797  0.1551  0.9085
 6909SOL    HW232187   2.589   1.418   8.670 -1.1419 -0.7969  1.4402
 6910SOL     OW32188   2.109   1.198  17.636 -0.4860 -0.4924  0.2317
 6910SOL    HW132189   2.050   1.122  17.635 -1.8447  0.5778 -0.0738
 6910SOL    HW232190   2.040   1.264  17.636  0.1943  0.2131  0.2863
 6911SOL     OW32191   1.671   1.758   9.023 -0.3540 -0.3858  0.2929
 6911SOL    HW132192   1.740   1.693   9.004  1.8446  2.1500 -0.3724
 6911SOL    HW232193   1.600   1.698   8.999  0.0821  0.0436 -2.0789
 6912SOL     OW32194   1.855   4.234   2.450  0.0316  0.3026  1.2125
 6912SOL    HW132195   1.840   4.140   2.445 -2.5957  0.7970 -0.2236
 6912SOL    HW232196   1.837   4.255   2.358 -0.1950 -0.6055  1.0466
 6913SOL     OW32197   4.577   1.804   4.715  0.0160 -0.0887  0.1927
 6913SOL    HW132198   4.611   1.848   4.637  0.9699 -0.5698  0.3359
 6913SOL    HW232199   4.658   1.815   4.765 -0.6512 -1.2330  1.5067
 6914SOL     OW32200   1.154   3.955   9.059  0.2206  0.6018 -0.0692
 6914SOL    HW132201   1.091   3.892   9.093 -0.7188  2.5037  1.7221
 6914SOL    HW232202   1.215   3.950   9.132  0.7375 -0.6729 -0.5943
 6915SOL     OW32203   2.364   4.055   2.798 -0.7502  0.1370 -0.1031
 6915SOL    HW132204   2.420   3.997   2.747 -0.0797  0.1791  0.5832
 6915SOL    HW232205   2.376   4.131   2.741 -0.1608 -0.4126 -0.7074
 6916SOL     OW32206   0.046   3.992   4.507 -0.1279  0.4177  0.0155
 6916SOL    HW132207   4.711   3.972   4.580  0.5215  0.0611  0.4423
 6916SOL    HW232208   4.704   3.981   4.438  0.6752  2.3771 -1.0346
 6917SOL     OW32209   1.413   0.282   6.545  0.7615  0.2152  0.2417
 6917SOL    HW132210   1.369   0.206   6.506  2.6459 -0.3497 -0.8103
 6917SOL    HW232211   1.381   0.264   6.634 -1.8424 -0.6824 -0.8756
 6918SOL     OW32212   2.771   2.726   6.604 -0.3942  0.8587  0.2384
 6918SOL    HW132213   2.679   2.699   6.599  0.2154 -0.8953 -1.6745
 6918SOL    HW232214   2.814   2.654   6.650 -1.4071  0.2416  0.2306
 6919SOL     OW32215   4.187   2.300   4.371 -0.0065 -0.0342  0.3432
 6919SOL    HW132216   4.122   2.370   4.362  0.0055 -0.3349 -2.0407
 6919SOL    HW232217   4.268   2.338   4.337 -0.1768 -1.2341 -1.3972
 6920SOL     OW32218   4.609   1.687   4.371  0.6909  0.1914 -0.1041
 6920SOL    HW132219   4.565   1.771   4.378 -0.2778 -0.2846 -0.4879
 6920SOL    HW232220   4.692   1.718   4.335  1.2325  0.1990  1.1520
 6921SOL     OW32221   3.275   3.828   5.868  0.2369  0.3490  0.1732
 6921SOL    HW132222   3.306   3.881   5.942 -0.1271 -1.8785  1.9314
 6921SOL    HW232223   3.357   3.830   5.820 -0.2983 -0.7664 -0.7850
 6922SOL     OW32224   2.866   1.241   0.464  0.1240 -0.2035 -0.0531
 6922SOL    HW132225   2.776   1.218   0.441  0.3766 -0.5292 -0.7167
 6922SOL    HW232226   2.903   1.156   0.487 -0.1421  0.2076  1.8707
 6923SOL     OW32227   1.002   2.306   4.191 -0.0410 -0.3742  0.4617
 6923SOL    HW132228   1.009   2.265   4.104  1.5860  0.7542  0.0407
 6923SOL    HW232229   0.910   2.286   4.201 -0.6168  0.8019 -2.3993
 6924SOL     OW32230   1.893   0.221  17.092  0.5325 -0.1412  0.0734
 6924SOL    HW132231   1.891   0.312  17.122 -1.3672  0.7410 -2.8001
 6924SOL    HW232232   1.942   0.222  17.010  1.2251 -0.2298  0.4786
 6925SOL     OW32233   1.733   4.048   3.947  0.2478 -0.4541  0.5674
 6925SOL    HW132234   1.680   4.050   3.867 -1.4401  1.4661  1.7306
 6925SOL    HW232235   1.814   4.092   3.921 -0.2245 -0.0457 -0.2171
 6926SOL     OW32236   3.579   1.421  15.031  0.0306 -0.5242  0.3158
 6926SOL    HW132237   3.523   1.460  15.098 -0.7473 -1.2734  0.0992
 6926SOL    HW232238   3.613   1.501  14.991 -0.2194 -0.1903  0.7718
 6927SOL     OW32239   1.705   0.432   8.529  0.4288 -1.0242  0.6325
 6927SOL    HW132240   1.664   0.441   8.615  1.3992 -2.8062  1.2748
 6927SOL    HW232241   1.789   0.475   8.547  0.7314 -0.8493 -1.1814
 6928SOL     OW32242   4.426   2.475   6.798  0.1572  0.2835 -0.1715
 6928SOL    HW132243   4.481   2.398   6.786  0.4372  0.3602  0.6213
 6928SOL    HW232244   4.413   2.475   6.703 -0.8206 -1.4971 -0.0273
 6929SOL     OW32245   3.853   1.603   1.068 -0.3489 -0.5235  0.4717
 6929SOL    HW132246   3.820   1.519   1.102  1.6523 -1.1385  0.9124
 6929SOL    HW232247   3.915   1.582   0.999  0.8073  0.3956  1.2359
 6930SOL     OW32248   2.914   1.189   3.977  0.0351  0.3293 -0.3009
 6930SOL    HW132249   2.970   1.201   3.900 -0.5162  2.2353 -0.4019
 6930SOL    HW232250   2.884   1.100   3.954  0.7951  0.1670 -0.6489
 6931SOL     OW32251   1.555   3.050   8.463 -0.1549  0.4225  0.0391
 6931SOL    HW132252   1.469   3.036   8.503  1.5824 -4.3558  2.1191
 6931SOL    HW232253   1.618   3.029   8.532  0.1509  2.1586  0.2785
 6932SOL     OW32254   0.942   2.848   7.092  0.3303 -0.2575  0.2812
 6932SOL    HW132255   1.037   2.836   7.091  0.5370  1.3821  0.2229
 6932SOL    HW232256   0.905   2.761   7.109 -1.5147  0.8170  1.7295
 6933SOL     OW32257   2.187   3.902  14.571  0.1464 -0.3193 -0.2511
 6933SOL    HW132258   2.243   3.871  14.500 -1.1144 -0.0580 -1.3586
 6933SOL    HW232259   2.124   3.831  14.563 -1.8335  1.2148  1.5819
 6934SOL     OW32260   1.152   2.847   9.149  0.7007  0.2853 -0.0178
 6934SOL    HW132261   1.223   2.843   9.213  0.2129  2.0387  0.6365
 6934SOL    HW232262   1.187   2.916   9.092 -3.4982  0.6217 -2.1473
 6935SOL     OW32263   0.042   2.099   5.312  0.3423 -0.2479 -0.3112
 6935SOL    HW132264   0.133   2.070   5.300 -0.1397 -1.2868 -1.5414
 6935SOL    HW232265   0.023   2.060   5.397  1.3669 -2.4398 -1.0843
 6936SOL     OW32266   1.212   3.101   3.771  0.2386  0.2487 -0.3869
 6936SOL    HW132267   1.301   3.133   3.780  0.5458 -0.8257  0.3356
 6936SOL    HW232268   1.173   3.173   3.720 -1.6324  0.8496  1.8665
 6937SOL     OW32269   2.204   0.373   9.072 -0.6747  0.4130  0.1545
 6937SOL    HW132270   2.252   0.422   9.005 -3.2429 -1.9382 -3.4455
 6937SOL    HW232271   2.229   0.281   9.059 -0.0042  0.3967  1.5600
 6938SOL     OW32272   3.268   3.538  17.690 -0.2209  0.7499 -0.1642
 6938SOL    HW132273   3.311   3.623  17.679  1.1976 -0.0907 -1.1447
 6938SOL    HW232274   3.231   3.526  17.602  0.8440  3.2851 -0.9682
 6939SOL     OW32275   2.375   0.218   7.466 -0.7119 -0.0050  0.3632
 6939SOL    HW132276   2.334   0.186   7.546  0.1039  0.7332  1.0718
 6939SOL    HW232277   2.315   0.180   7.402 -0.4636 -2.5372  1.6593
 6940SOL     OW32278   1.095   3.767   4.272 -0.4248  0.2189  0.0953
 6940SOL    HW132279   1.179   3.721   4.268 -0.3063  0.3249  1.4555
 6940SOL    HW232280   1.089   3.794   4.180  0.6542  3.3521  0.9456
 6941SOL     OW32281   0.806   2.532   4.544  0.3526  0.5595 -0.2095
 6941SOL    HW132282   0.843   2.559   4.460  1.3023  1.7653  0.5933
 6941SOL    HW232283   0.760   2.613   4.565 -0.2223  0.1783 -0.0130
 6942SOL     OW32284   2.936   1.499   0.487 -0.0576  0.2575  0.3284
 6942SOL    HW132285   3.029   1.479   0.501 -0.5374 -0.1723  2.9036
 6942SOL    HW232286   2.911   1.408   0.471 -0.8028  0.6696 -0.8289
 6943SOL     OW32287   4.425   4.635   7.783 -0.2239 -0.4833  0.2902
 6943SOL    HW132288   4.516   4.632   7.812 -0.3714 -0.5858  0.7549
 6943SOL    HW232289   4.437   4.593   7.698 -0.0843 -0.9235  0.5221
 6944SOL     OW32290   0.347   4.434   0.817 -0.4287 -0.1380  0.2636
 6944SOL    HW132291   0.405   4.374   0.863  0.8057 -0.4315 -1.6854
 6944SOL    HW232292   0.290   4.461   0.889 -0.9837  0.6230 -0.4546
 6945SOL     OW32293   0.805   0.854  11.617  0.0582 -0.4024  0.1614
 6945SOL    HW132294   0.869   0.860  11.545 -1.4224  2.4223 -0.9268
 6945SOL    HW232295   0.792   0.949  11.613  1.2898 -0.2417 -0.1412
 6946SOL     OW32296   3.627   0.547  16.934 -0.6558  0.6425 -0.0791
 6946SOL    HW132297   3.663   0.618  16.988 -1.2293  0.9875 -0.1461
 6946SOL    HW232298   3.536   0.572  16.916 -0.9104  1.8755  2.9872
 6947SOL     OW32299   2.048   4.481   4.017 -0.1851 -0.4315  0.2582
 6947SOL    HW132300   2.060   4.442   3.930  0.7295 -1.6312  0.9185
 6947SOL    HW232301   2.096   4.563   4.004 -0.0631 -0.3717  1.1322
 6948SOL     OW32302   4.114   2.855  16.943  0.4761 -0.1164 -0.5813
 6948SOL    HW132303   4.195   2.812  16.972  1.0190  1.5776  0.3983
 6948SOL    HW232304   4.049   2.789  16.967  2.5353 -1.1940  2.0607
 6949SOL     OW32305   1.233   0.194  13.071 -0.0591 -0.9232 -0.0740
 6949SOL    HW132306   1.225   0.128  13.140  1.6850  0.0257  1.0285
 6949SOL    HW232307   1.149   0.197  13.025 -0.0038  0.6015 -0.0682
 6950SOL     OW32308   4.495   2.026  11.953  0.3882 -0.8883  0.0383
 6950SOL    HW132309   4.506   1.935  11.924 -0.7699 -0.8535 -0.5031
 6950SOL    HW232310   4.401   2.028  11.937  0.6007 -0.1123 -1.1005
 6951SOL     OW32311   0.414   2.287   6.260  0.0100 -0.2970  0.7253
 6951SOL    HW132312   0.495   2.305   6.308  0.5257 -1.6344  0.3374
 6951SOL    HW232313   0.425   2.196   6.232  1.7627  0.8735 -2.3346
 6952SOL     OW32314   4.146   4.454   8.079  0.2071 -0.1906 -0.2630
 6952SOL    HW132315   4.210   4.513   8.040 -1.3982  2.8389  1.7498
 6952SOL    HW232316   4.173   4.441   8.169 -1.0932  0.4004  0.2166
 6953SOL     OW32317   0.343   0.143  11.210 -0.9469 -0.1973  0.0148
 6953SOL    HW132318   0.309   0.219  11.162 -1.3161  1.3485  2.6791
 6953SOL    HW232319   0.266   0.107  11.255 -3.9748  2.3239 -3.1714
 6954SOL     OW32320   4.524   0.946   3.037 -0.2248 -0.6406 -0.0367
 6954SOL    HW132321   4.437   0.910   3.056  0.4822 -0.7015  3.0534
 6954SOL    HW232322   4.507   1.035   3.008 -1.1407 -1.6826 -2.6776
 6955SOL     OW32323   0.668   1.382   5.446 -0.8602  0.2823  0.5083
 6955SOL    HW132324   0.751   1.424   5.469 -1.8922  2.0215  1.1003
 6955SOL    HW232325   0.692   1.289   5.447  1.5526  0.8958 -0.2715
 6956SOL     OW32326   0.727   1.804  14.941 -0.3909  0.7488  0.6111
 6956SOL    HW132327   0.804   1.811  14.885 -1.3903 -0.9836 -0.9667
 6956SOL    HW232328   0.759   1.736  15.001 -0.9986 -0.9459 -0.9871
 6957SOL     OW32329   4.265   0.174   6.379 -0.4498  0.7647  0.2070
 6957SOL    HW132330   4.190   0.144   6.431 -1.4243  1.5943 -0.7256
 6957SOL    HW232331   4.341   0.178   6.438 -0.5161 -0.3738  0.3751
 6958SOL     OW32332   0.133   1.143  13.316 -0.4150  0.6967  0.6022
 6958SOL    HW132333   0.078   1.206  13.269 -1.2252 -1.3481 -1.1922
 6958SOL    HW232334   0.128   1.071  13.253 -1.4731  0.3039  1.1387
 6959SOL     OW32335   0.264   0.899   8.195 -0.4024 -0.6731  0.1025
 6959SOL    HW132336   0.304   0.829   8.246  1.0925  1.0681  1.2897
 6959SOL    HW232337   0.261   0.966   8.263  1.8557  0.1161 -0.5807
 6960SOL     OW32338   4.145   0.302   5.301 -0.0194 -0.2448 -0.0832
 6960SOL    HW132339   4.179   0.221   5.339 -0.1531  0.2207  1.0342
 6960SOL    HW232340   4.096   0.339   5.375  1.1986 -0.4106  0.7913
 6961SOL     OW32341   2.037   2.175  10.215 -0.1518  0.0766 -0.3552
 6961SOL    HW132342   2.060   2.256  10.170  3.0556 -0.5746  0.0854
 6961SOL    HW232343   2.055   2.204  10.304  3.6659  0.1886 -1.1693
 6962SOL     OW32344   3.017   0.416   4.211 -0.1112 -0.5125  0.0647
 6962SOL    HW132345   3.055   0.358   4.144 -1.7046  0.3416 -1.5951
 6962SOL    HW232346   3.033   0.371   4.293  2.3621  0.6695  0.2269
 6963SOL     OW32347   2.054   2.407  15.631 -0.4662  0.0083 -0.0154
 6963SOL    HW132348   2.100   2.396  15.548  1.3455 -0.1739  1.0165
 6963SOL    HW232349   2.028   2.315  15.632 -0.5719  0.0341 -0.3731
 6964SOL     OW32350   2.035   2.127  15.650  0.3304  0.6941 -0.1423
 6964SOL    HW132351   1.953   2.094  15.612  0.7380 -0.9332  0.4019
 6964SOL    HW232352   2.090   2.049  15.659  0.5692  0.8432 -0.3418
 6965SOL     OW32353   2.717   3.426   2.779  0.5189  0.0052 -0.2814
 6965SOL    HW132354   2.676   3.385   2.703 -1.4833  1.4965 -0.0184
 6965SOL    HW232355   2.747   3.512   2.751  0.1969  0.8414  1.9396
 6966SOL     OW32356   1.496   2.366   9.505  0.1514 -0.3229  0.6877
 6966SOL    HW132357   1.454   2.281   9.489  1.1038 -0.5490 -0.6224
 6966SOL    HW232358   1.439   2.419   9.561  1.1894 -0.8839  2.2807
 6967SOL     OW32359   3.566   4.453   6.380  0.1704 -0.4553  0.0048
 6967SOL    HW132360   3.575   4.426   6.471 -0.9625 -0.8893 -0.0108
 6967SOL    HW232361   3.513   4.382   6.344 -0.6595 -0.3026  0.9406
 6968SOL     OW32362   4.462   2.066   3.736 -0.6064  0.3462 -0.3873
 6968SOL    HW132363   4.520   2.132   3.774 -0.2651 -0.9162  1.3135
 6968SOL    HW232364   4.406   2.123   3.684 -0.6848  1.0564  0.4764
 6969SOL     OW32365   3.341   3.874   2.205 -0.3833 -0.1494  0.3562
 6969SOL    HW132366   3.437   3.867   2.206 -0.2193  2.3802  1.3616
 6969SOL    HW232367   3.309   3.797   2.157  2.9048 -2.1225  1.2815
 6970SOL     OW32368   0.494   4.270  16.900 -0.0177  0.5199  0.1028
 6970SOL    HW132369   0.530   4.349  16.940 -2.4811  1.7434 -0.0550
 6970SOL    HW232370   0.422   4.256  16.962  0.6676  0.2227  0.8254
 6971SOL     OW32371   4.644   0.492   3.589  0.0567  0.1140 -0.1165
 6971SOL    HW132372   4.625   0.578   3.626  0.9095  0.9186 -1.5784
 6971SOL    HW232373   4.629   0.426   3.657  1.3742 -0.1224 -0.0530
 6972SOL     OW32374   3.920   4.005   4.735  0.1992  0.3119  0.3549
 6972SOL    HW132375   3.972   3.954   4.672 -1.2492 -1.1830  0.3650
 6972SOL    HW232376   3.870   3.935   4.776 -0.3880 -0.0307 -0.9263
 6973SOL     OW32377   1.625   4.612   4.706 -0.0025 -0.4009 -0.4590
 6973SOL    HW132378   1.540   4.653   4.720 -0.2380 -0.8361 -0.6257
 6973SOL    HW232379   1.629   4.569   4.792  1.8866  1.0776  0.1954
 6974SOL     OW32380   4.159   0.086   7.119 -0.0217  0.0809  0.1893
 6974SOL    HW132381   4.153   0.023   7.191 -2.2780 -0.8475 -0.7869
 6974SOL    HW232382   4.069   0.120   7.124  0.1820  0.3619  2.0264
 6975SOL     OW32383   2.480   4.029  13.623 -0.2972 -0.0865  0.2354
 6975SOL    HW132384   2.512   3.938  13.626  0.6414  0.2824  1.4824
 6975SOL    HW232385   2.561   4.079  13.614 -0.0592 -0.7223 -1.1169
 6976SOL     OW32386   4.565   0.548   8.597 -0.1810 -0.3897 -0.4032
 6976SOL    HW132387   4.479   0.539   8.558 -0.9218 -1.8311  1.5289
 6976SOL    HW232388   4.609   0.599   8.529 -0.4290 -0.9092 -0.9513
 6977SOL     OW32389   4.103   0.757   3.257  0.3305 -0.1890  0.4806
 6977SOL    HW132390   4.038   0.737   3.324 -1.5851  0.7727 -1.1017
 6977SOL    HW232391   4.044   0.791   3.190  0.5701  1.5867  1.1722
 6978SOL     OW32392   2.418   0.839   3.762  0.1495  0.2216  0.2280
 6978SOL    HW132393   2.333   0.795   3.755 -0.9929  2.2603  1.0774
 6978SOL    HW232394   2.465   0.775   3.814  0.6943 -0.3640 -0.9799
 6979SOL     OW32395   4.684   2.310   3.737  0.3845  0.1561  0.2588
 6979SOL    HW132396   0.037   2.365   3.718  0.7020 -0.1345  0.6754
 6979SOL    HW232397   4.624   2.375   3.773  0.3108 -1.5074  3.1790
 6980SOL     OW32398   1.096   4.224   8.156  0.1932  0.2068  0.3930
 6980SOL    HW132399   1.073   4.300   8.102  1.3795  0.2118 -0.1070
 6980SOL    HW232400   1.191   4.224   8.141  0.3727 -0.5734  1.6050
 6981SOL     OW32401   0.248   1.449  10.792  0.3113 -0.2040  0.3249
 6981SOL    HW132402   0.167   1.475  10.749  0.5245  1.0857  0.6925
 6981SOL    HW232403   0.320   1.477  10.736 -0.7828  2.6413  0.3215
 6982SOL     OW32404   0.630   3.184   7.725  0.1602  0.4320  0.1343
 6982SOL    HW132405   0.626   3.257   7.787  1.7415 -0.2991  1.0924
 6982SOL    HW232406   0.659   3.124   7.794 -1.0199 -1.1110 -0.6949
 6983SOL     OW32407   4.560   2.158   2.896 -0.2183 -0.2833 -0.0392
 6983SOL    HW132408   4.645   2.153   2.940  0.2865 -2.2424 -1.2278
 6983SOL    HW232409   4.543   2.068   2.869  1.8277 -0.4349 -0.8218
 6984SOL     OW32410   4.504   3.304   9.239 -0.8011 -0.6204 -0.6942
 6984SOL    HW132411   4.425   3.354   9.262 -0.1287 -0.0784  0.4360
 6984SOL    HW232412   4.468   3.216   9.239 -0.9242 -0.5562  0.7700
 6985SOL     OW32413   2.798   2.345   6.239  0.0201 -0.2421  0.1576
 6985SOL    HW132414   2.855   2.334   6.163 -1.3738 -0.7648 -0.7964
 6985SOL    HW232415   2.723   2.298   6.203 -1.4056  1.0346  1.4699
 6986SOL     OW32416   0.029   1.645   8.839  0.0682 -0.2865  0.3761
 6986SOL    HW132417   4.693   1.710   8.877  0.7138  0.9048 -0.6831
 6986SOL    HW232418   0.114   1.688   8.833  0.2686 -0.7848 -0.3964
 6987SOL     OW32419   1.431   4.318  13.500 -0.1213  0.0672  0.4618
 6987SOL    HW132420   1.424   4.325  13.405  1.4341  0.0241  0.3444
 6987SOL    HW232421   1.500   4.254  13.519 -0.1512 -0.6280 -1.8206
 6988SOL     OW32422   1.552   0.018  14.131  0.0927 -0.0219 -0.0947
 6988SOL    HW132423   1.612   0.077  14.085  0.8422 -1.2939 -0.7379
 6988SOL    HW232424   1.510   4.705  14.053 -0.7513  0.6347  0.0497
 6989SOL     OW32425   0.898   1.246  11.413 -0.1496 -0.0696  0.0005
 6989SOL    HW132426   0.958   1.276  11.346  0.3050 -0.4272  0.2498
 6989SOL    HW232427   0.896   1.329  11.462 -0.7625 -0.3856  0.5248
 6990SOL     OW32428   4.263   2.251  14.329 -0.3851  0.0458  0.7473
 6990SOL    HW132429   4.210   2.308  14.274 -0.0431 -0.5736 -0.2228
 6990SOL    HW232430   4.300   2.190  14.266  0.3392  0.4674  0.7647
 6991SOL     OW32431   2.090   2.296  10.481 -0.5231  0.0428 -0.3691
 6991SOL    HW132432   2.140   2.327  10.557 -0.3823  1.1364 -0.9174
 6991SOL    HW232433   2.053   2.378  10.449 -2.2063 -0.1886  0.9180
 6992SOL     OW32434   0.360   4.252  17.227 -0.0559 -0.6932 -0.3696
 6992SOL    HW132435   0.419   4.322  17.201 -0.9662  1.0405  2.2914
 6992SOL    HW232436   0.403   4.171  17.198  1.1894 -0.8935  2.0697
 6993SOL     OW32437   4.439   4.499   4.699 -0.3250  0.4726  0.5538
 6993SOL    HW132438   4.428   4.581   4.650  2.6050  0.9652  0.7156
 6993SOL    HW232439   4.350   4.469   4.678  0.5009 -1.0880 -0.7223
 6994SOL     OW32440   0.286   0.262   6.160  0.7300  0.3052  0.1017
 6994SOL    HW132441   0.197   0.229   6.162  1.2511 -1.1197 -0.0836
 6994SOL    HW232442   0.294   0.285   6.252  1.6393 -0.3356  0.1851
 6995SOL     OW32443   1.211   0.990  13.892 -0.3285  0.3273 -0.0425
 6995SOL    HW132444   1.292   0.974  13.843 -0.1375  1.1801 -0.0073
 6995SOL    HW232445   1.170   1.056  13.837  0.4038 -0.9401 -2.1172
 6996SOL     OW32446   0.712   3.115   4.096  0.0802  0.9159 -0.4935
 6996SOL    HW132447   0.717   3.025   4.064 -1.2824 -0.1273  2.1980
 6996SOL    HW232448   0.620   3.133   4.075  0.3421  4.6245  1.4711
 6997SOL     OW32449   3.849   1.580   1.488  0.2423  0.0822  0.2582
 6997SOL    HW132450   3.843   1.657   1.544 -0.2505 -0.6832  1.2723
 6997SOL    HW232451   3.837   1.617   1.401  0.5877  0.4049  0.3493
 6998SOL     OW32452   4.613   1.730  11.669 -0.6508  0.2452 -0.3774
 6998SOL    HW132453   4.543   1.730  11.734  1.1116  0.4458  1.5296
 6998SOL    HW232454   4.562   1.709  11.591  1.1232  0.6596 -1.6634
 6999SOL     OW32455   3.400   3.552   9.995  0.6159  1.0409 -0.1444
 6999SOL    HW132456   3.438   3.577   9.910  1.7042 -2.8097 -0.7682
 6999SOL    HW232457   3.308   3.564   9.972  0.4420 -1.1989 -0.5504
 7000SOL     OW32458   3.343   3.945   4.839  0.0413 -0.5262  0.2695
 7000SOL    HW132459   3.391   4.019   4.801 -1.1563  1.4048  2.4868
 7000SOL    HW232460   3.411   3.919   4.900  0.7028  0.9836  0.1750
 7001SOL     OW32461   4.316   3.646   9.532  0.2905  0.2807 -0.2479
 7001SOL    HW132462   4.270   3.618   9.453 -0.9964  0.8607  0.2982
 7001SOL    HW232463   4.398   3.597   9.522 -1.2172 -2.0917 -0.9123
 7002SOL     OW32464   3.021   0.330  11.619  0.0433  0.7731  0.4787
 7002SOL    HW132465   3.013   0.308  11.712 -0.3468  0.1588  0.3035
 7002SOL    HW232466   3.092   0.269  11.598 -1.3376 -0.2975 -1.0924
 7003SOL     OW32467   0.438   3.451  12.492  0.9469 -0.2151 -0.4790
 7003SOL    HW132468   0.403   3.501  12.566  0.2568  0.5251 -1.3062
 7003SOL    HW232469   0.501   3.517  12.463  0.0871  0.9898  0.4231
 7004SOL     OW32470   0.585   0.999   0.472 -0.0586  0.2257 -0.4255
 7004SOL    HW132471   0.613   0.979   0.561 -1.4020  0.4699  0.0582
 7004SOL    HW232472   0.507   0.944   0.478  0.0608  0.3253  2.0118
 7005SOL     OW32473   2.709   3.705   1.925  0.0797 -0.2921  0.1735
 7005SOL    HW132474   2.755   3.700   1.841  0.6734 -1.0968  0.5404
 7005SOL    HW232475   2.756   3.775   1.970 -2.0543  1.0043  0.3544
 7006SOL     OW32476   4.025   0.020  15.167  0.9631 -0.7492  0.7785
 7006SOL    HW132477   4.112   0.061  15.163  1.9386 -3.0166 -1.3005
 7006SOL    HW232478   3.980   0.104  15.154  0.3656 -1.3894 -1.2673
 7007SOL     OW32479   1.579   3.935   3.097  0.2852 -0.1297  0.8319
 7007SOL    HW132480   1.562   3.986   3.018 -0.2236  1.2987  1.8744
 7007SOL    HW232481   1.673   3.951   3.112  0.7728 -0.9977 -1.2385
 7008SOL     OW32482   3.998   4.035   9.247 -0.2887  0.9226  0.4037
 7008SOL    HW132483   3.934   4.099   9.277  1.3930  2.9420 -0.3744
 7008SOL    HW232484   3.936   3.969   9.216  1.3034  0.9557 -2.7561
 7009SOL     OW32485   1.924   0.208  11.221  0.5367  0.0024 -0.4093
 7009SOL    HW132486   1.838   0.237  11.252  0.6179 -1.1524  0.8739
 7009SOL    HW232487   1.962   0.296  11.223  0.4686  0.0415 -1.0696
 7010SOL     OW32488   0.986   3.903   7.354 -0.3092  0.0327 -0.5379
 7010SOL    HW132489   1.008   3.952   7.434  1.2513 -1.1206 -0.2602
 7010SOL    HW232490   0.929   3.837   7.393  2.7808 -0.9816  2.2780
 7011SOL     OW32491   2.644   0.554   2.758 -0.0872 -0.5586 -0.2052
 7011SOL    HW132492   2.703   0.524   2.688  0.5786  1.3304 -0.4468
 7011SOL    HW232493   2.710   0.539   2.826  0.5655  0.2580 -0.6544
 7012SOL     OW32494   0.518   0.841   4.568 -0.3345 -0.1740  0.1803
 7012SOL    HW132495   0.433   0.807   4.540 -0.3361 -0.5678  0.6600
 7012SOL    HW232496   0.523   0.802   4.656 -0.6963 -0.6364 -0.0030
 7013SOL     OW32497   3.924   3.110   6.529 -0.7148  0.3007 -0.2202
 7013SOL    HW132498   3.968   3.146   6.606 -0.6035  0.0821 -0.1814
 7013SOL    HW232499   3.833   3.112   6.558  0.1329 -0.1192  2.5457
 7014SOL     OW32500   4.414   0.980   1.131 -0.1772 -0.2325  0.3927
 7014SOL    HW132501   4.497   0.932   1.130  0.0127  0.1771 -3.3009
 7014SOL    HW232502   4.388   0.977   1.223  1.2155 -1.9723  0.7212
 7015SOL     OW32503   0.510   2.643   3.141 -0.6844  0.7074  0.4928
 7015SOL    HW132504   0.532   2.731   3.170  0.6521  0.2795  0.8303
 7015SOL    HW232505   0.592   2.596   3.123 -2.0333 -1.8673  1.0365
 7016SOL     OW32506   1.914   3.470   3.117  0.1934 -0.2246  0.7819
 7016SOL    HW132507   1.868   3.406   3.171 -0.1464  0.0085  0.7675
 7016SOL    HW232508   1.989   3.486   3.175  0.1579  0.9689  0.4936
 7017SOL     OW32509   2.500   3.303  15.866  0.1998  0.3053  0.9078
 7017SOL    HW132510   2.576   3.313  15.810  0.2740  1.6085  1.2539
 7017SOL    HW232511   2.451   3.384  15.854  0.7079  0.2344 -1.5985
 7018SOL     OW32512   0.138   0.772   3.530  0.3485  0.3798  0.1652
 7018SOL    HW132513   0.065   0.715   3.554 -0.5600  1.0602 -0.9482
 7018SOL    HW232514   0.104   0.854   3.567 -1.9680  0.8550 -3.0385
 7019SOL     OW32515   3.913   2.308   9.024 -0.2996 -0.1464  0.3382
 7019SOL    HW132516   3.856   2.316   9.100  1.8138  2.2818  1.6864
 7019SOL    HW232517   3.860   2.258   8.962 -0.0106 -1.3654  1.0695
 7020SOL     OW32518   3.133   2.887   1.606 -0.2544  0.4878  0.3595
 7020SOL    HW132519   3.171   2.820   1.549  0.8077  0.2041  1.4038
 7020SOL    HW232520   3.040   2.881   1.581 -0.6945 -0.3266  2.1725
 7021SOL     OW32521   0.436   0.817   5.875 -0.0525 -0.1586 -0.1286
 7021SOL    HW132522   0.404   0.907   5.870  1.0834  0.2735  0.4672
 7021SOL    HW232523   0.394   0.772   5.801 -1.2674  1.9462 -0.7185
 7022SOL     OW32524   3.986   0.725   7.369  0.0839  0.7922  0.2212
 7022SOL    HW132525   3.919   0.789   7.344 -1.3503 -0.8922 -0.2589
 7022SOL    HW232526   3.935   0.676   7.432  1.5455 -1.5384 -0.4196
 7023SOL     OW32527   1.872   0.812  10.359  0.4132 -0.4451  0.0646
 7023SOL    HW132528   1.907   0.729  10.393 -0.2574 -0.6504  0.2467
 7023SOL    HW232529   1.865   0.799  10.264  1.4014 -0.5661  0.0049
 7024SOL     OW32530   2.314   3.153   6.393  0.1533 -1.0289  0.3560
 7024SOL    HW132531   2.394   3.109   6.365  1.6784  1.4240  0.8930
 7024SOL    HW232532   2.349   3.181   6.478 -0.8495 -0.1639  0.4859
 7025SOL     OW32533   3.423   4.372   7.186 -0.2896  0.3084  0.1283
 7025SOL    HW132534   3.390   4.337   7.103  3.2417  1.7856 -1.8932
 7025SOL    HW232535   3.445   4.301   7.246 -0.6106 -0.0396 -0.1592
 7026SOL     OW32536   1.095   4.170   1.266 -0.2133 -0.4368  0.0106
 7026SOL    HW132537   1.111   4.130   1.180 -0.6601 -0.4333 -0.0794
 7026SOL    HW232538   1.064   4.090   1.308 -2.5392  0.8436  0.7752
 7027SOL     OW32539   2.997   1.224  12.480  0.1250 -0.1438  0.1935
 7027SOL    HW132540   2.930   1.247  12.416 -0.0734  0.0238  0.4605
 7027SOL    HW232541   3.059   1.179  12.422  1.2130 -0.9329  1.9471
 7028SOL     OW32542   4.296   0.916  16.262  0.0147  0.3876 -0.1519
 7028SOL    HW132543   4.243   0.988  16.230  0.5246  0.3807 -1.0067
 7028SOL    HW232544   4.280   0.856  16.188  0.3640  0.6701 -0.4534
 7029SOL     OW32545   2.481   0.162   3.037 -0.2257  0.1319  0.0505
 7029SOL    HW132546   2.502   0.175   3.130  0.2833 -2.5780  0.3171
 7029SOL    HW232547   2.408   0.222   3.021 -2.0418 -1.3562  2.4781
 7030SOL     OW32548   2.011   1.463   0.691 -0.0595  0.2254 -0.0167
 7030SOL    HW132549   1.963   1.537   0.656 -1.5781 -0.2032  1.1943
 7030SOL    HW232550   1.992   1.476   0.784 -2.1598 -1.7311 -0.1850
 7031SOL     OW32551   2.880   3.082   5.805  0.0114 -0.1848 -0.7666
 7031SOL    HW132552   2.823   3.067   5.730  0.6167  0.1096 -1.2799
 7031SOL    HW232553   2.868   3.007   5.863  1.4258 -3.9264 -5.3435
 7032SOL     OW32554   4.401   0.531   3.143  0.1539  0.3401  0.4646
 7032SOL    HW132555   4.480   0.516   3.092 -0.0479  0.1725  0.1999
 7032SOL    HW232556   4.342   0.560   3.073  0.9239  0.3615 -0.1726
 7033SOL     OW32557   0.380   1.469   5.052  0.2531  0.1724 -0.1995
 7033SOL    HW132558   0.429   1.448   4.973 -0.1919 -2.1235  0.1377
 7033SOL    HW232559   0.332   1.389   5.072  0.0226  0.2775 -0.3301
 7034SOL     OW32560   4.706   4.212   7.212 -0.1093  0.4068 -0.7565
 7034SOL    HW132561   4.625   4.183   7.170 -1.6765  0.8547  1.9542
 7034SOL    HW232562   4.696   4.182   7.303  0.6165  2.6501  0.0646
 7035SOL     OW32563   2.631   3.317   6.031 -0.0934 -0.0918  0.4847
 7035SOL    HW132564   2.711   3.303   6.082 -0.7578 -1.9114  1.0540
 7035SOL    HW232565   2.665   3.311   5.942 -0.6790  0.9324  0.2045
 7036SOL     OW32566   4.522   0.838   4.007 -0.2778 -0.0553  0.2554
 7036SOL    HW132567   4.615   0.824   3.989  0.2293  2.7174  0.6631
 7036SOL    HW232568   4.486   0.755   3.976 -1.3828  1.0093 -1.3614
 7037SOL     OW32569   0.565   1.880   3.952  0.5964  0.4508  0.5579
 7037SOL    HW132570   0.497   1.833   3.906  0.4825  2.4237 -1.3077
 7037SOL    HW232571   0.569   1.954   3.891  3.3110 -0.6098 -0.5231
 7038SOL     OW32572   0.356   3.644   3.373 -0.0174 -0.1657  0.1311
 7038SOL    HW132573   0.363   3.577   3.305  0.9230 -1.0544  1.1022
 7038SOL    HW232574   0.285   3.694   3.333  0.6749  0.4968 -0.2863
 7039SOL     OW32575   3.010   0.357  13.741 -0.0383  0.5880  0.5210
 7039SOL    HW132576   3.059   0.321  13.667  1.0775  0.7866  1.1463
 7039SOL    HW232577   2.957   0.284  13.772 -2.4828  2.6956  1.2362
 7040SOL     OW32578   4.585   3.225   2.149  0.3732  0.0364 -0.3094
 7040SOL    HW132579   4.643   3.244   2.222 -0.2392 -0.0714  0.2038
 7040SOL    HW232580   4.634   3.252   2.071 -0.2086  2.2642  0.0997
 7041SOL     OW32581   3.269   0.764   8.771 -0.0493  0.3014 -0.4146
 7041SOL    HW132582   3.341   0.810   8.815 -0.5963 -0.3301  1.1551
 7041SOL    HW232583   3.316   0.727   8.697  1.6133  1.6613 -0.0335
 7042SOL     OW32584   2.324   3.422   7.130  0.6427  0.4083  0.0557
 7042SOL    HW132585   2.383   3.432   7.055 -0.0400 -1.0135 -0.6644
 7042SOL    HW232586   2.304   3.329   7.129 -0.6360  0.6677  1.5966
 7043SOL     OW32587   3.216   2.829  15.302 -0.5178 -0.2619 -0.4031
 7043SOL    HW132588   3.257   2.894  15.360 -2.7189  0.2632  0.5595
 7043SOL    HW232589   3.231   2.862  15.213  0.9188 -2.6537 -1.0330
 7044SOL     OW32590   1.857   0.967   2.625 -0.9600 -0.2729 -0.0506
 7044SOL    HW132591   1.762   0.978   2.619 -0.5717  1.7406 -2.3706
 7044SOL    HW232592   1.855   0.871   2.618  0.0654 -0.2760 -0.3123
 7045SOL     OW32593   1.342   0.154   7.543  0.2792 -0.2867  0.2946
 7045SOL    HW132594   1.350   0.217   7.472 -0.5903 -0.7423 -0.2060
 7045SOL    HW232595   1.411   0.176   7.605  1.2613  2.1922 -1.6661
 7046SOL     OW32596   0.040   3.313   2.328  0.1349 -0.1490  0.5753
 7046SOL    HW132597   0.029   3.322   2.423  0.8959  0.3277  0.6225
 7046SOL    HW232598   0.081   3.399   2.315  0.4332 -0.2412  0.9089
 7047SOL     OW32599   3.969   4.395   4.979 -0.0389  0.6426  0.4288
 7047SOL    HW132600   3.957   4.425   5.069 -1.8360 -1.4817  0.8886
 7047SOL    HW232601   4.062   4.406   4.958 -0.2521 -1.5416 -1.6708
 7048SOL     OW32602   0.883   0.601  11.771 -0.4732  0.1165  0.2442
 7048SOL    HW132603   0.976   0.578  11.760 -0.4107  1.3184 -1.8157
 7048SOL    HW232604   0.876   0.672  11.707 -1.1617  1.7307  2.0831
 7049SOL     OW32605   3.137   4.540   1.454  0.2595  0.2309 -0.7455
 7049SOL    HW132606   3.162   4.448   1.445  2.7964  0.7822  0.4864
 7049SOL    HW232607   3.224   4.580   1.448  0.4469 -0.4362 -2.5681
 7050SOL     OW32608   2.552   1.004   8.741  0.4008  0.4875  0.0439
 7050SOL    HW132609   2.536   0.961   8.657 -0.7800  1.8219 -0.4115
 7050SOL    HW232610   2.520   0.940   8.804  1.2318 -0.6924 -0.7246
 7051SOL     OW32611   4.448   3.551   1.836  0.2865  0.0798 -0.3652
 7051SOL    HW132612   4.540   3.547   1.810  0.6694  2.6747  0.5616
 7051SOL    HW232613   4.460   3.537   1.930  0.6078  3.2244  0.0766
 7052SOL     OW32614   0.651   1.637   9.161  0.1514 -0.5529  0.6120
 7052SOL    HW132615   0.608   1.679   9.235 -0.6363  0.1413 -0.2296
 7052SOL    HW232616   0.696   1.558   9.192  0.6768 -0.9022 -1.0213
 7053SOL     OW32617   1.274   0.943  14.189  0.4053 -0.1483  0.6926
 7053SOL    HW132618   1.215   0.870  14.206  0.4564  0.0754  1.8237
 7053SOL    HW232619   1.266   0.941  14.094 -0.8087 -0.2404  0.8035
 7054SOL     OW32620   1.144   3.449   6.620 -0.1343 -0.0638  0.2424
 7054SOL    HW132621   1.078   3.383   6.640  0.9867 -1.1031  0.5281
 7054SOL    HW232622   1.141   3.525   6.679  0.1315 -0.1056  0.3116
 7055SOL     OW32623   1.275   0.520   8.329 -0.3645 -0.1911 -0.4312
 7055SOL    HW132624   1.258   0.543   8.420  1.4727 -2.2257  0.4534
 7055SOL    HW232625   1.369   0.539   8.325 -0.4281  0.5824  1.5073
 7056SOL     OW32626   0.952   3.422  17.272 -0.5314 -0.0294  0.1391
 7056SOL    HW132627   1.033   3.385  17.307 -0.7114 -0.6971 -0.1592
 7056SOL    HW232628   0.975   3.419  17.180 -0.6960  0.8280  0.0665
 7057SOL     OW32629   3.297   3.057   1.484 -0.8953  0.4519  0.1196
 7057SOL    HW132630   3.259   2.979   1.524 -2.6392  1.7905  1.0793
 7057SOL    HW232631   3.358   3.088   1.550  0.5189  1.6680 -1.7347
 7058SOL     OW32632   0.399   1.689   2.999 -0.7662 -0.4089  0.3140
 7058SOL    HW132633   0.402   1.714   3.092 -1.2347  1.8749 -0.2824
 7058SOL    HW232634   0.488   1.661   2.977 -0.1527  2.7959 -1.3253
 7059SOL     OW32635   1.466   2.543   5.880  0.4791 -0.3906 -0.5091
 7059SOL    HW132636   1.456   2.576   5.791 -1.8368 -0.4570 -0.2927
 7059SOL    HW232637   1.386   2.491   5.893  0.3192  0.1056  0.4603
 7060SOL     OW32638   2.420   2.250   8.600  0.3243 -0.2188  0.7633
 7060SOL    HW132639   2.332   2.274   8.628  0.1924 -0.2299  0.3655
 7060SOL    HW232640   2.474   2.302   8.660  1.8290 -0.0166 -0.7719
 7061SOL     OW32641   1.712   1.371   3.226 -0.2876  0.9169  0.3120
 7061SOL    HW132642   1.802   1.360   3.193 -1.7576 -0.1377 -3.2884
 7061SOL    HW232643   1.664   1.359   3.145  0.5017  1.2157 -0.2053
 7062SOL     OW32644   2.696   2.908   1.322  0.3242  0.0857 -0.5037
 7062SOL    HW132645   2.621   2.924   1.265  0.7703 -1.1958 -1.4498
 7062SOL    HW232646   2.752   2.860   1.261 -1.1863 -1.1129 -0.9583
 7063SOL     OW32647   4.002   2.495   4.365 -0.0141 -0.0759  0.1247
 7063SOL    HW132648   4.039   2.583   4.361  3.8246 -1.7969 -1.8370
 7063SOL    HW232649   3.908   2.514   4.371  0.3716  1.3149  1.6718
 7064SOL     OW32650   1.167   4.139   9.780  0.4107 -0.2696 -0.5748
 7064SOL    HW132651   1.194   4.052   9.751 -0.2603 -0.5157 -0.4608
 7064SOL    HW232652   1.209   4.136   9.865 -0.6028 -0.3076 -0.0714
 7065SOL     OW32653   3.942   3.571   4.881  0.0556  0.0626 -0.0247
 7065SOL    HW132654   3.925   3.522   4.800 -1.6285  3.0524 -1.4994
 7065SOL    HW232655   3.980   3.506   4.940  0.2960 -0.1353 -0.4014
 7066SOL     OW32656   1.323   1.000   6.586 -0.1828 -0.3890 -0.0019
 7066SOL    HW132657   1.403   1.018   6.635 -1.2475  2.2495  0.7671
 7066SOL    HW232658   1.328   0.904   6.584 -0.5688 -0.3997 -0.5302
 7067SOL     OW32659   1.704   4.603   5.343 -0.0828 -0.4469  0.2577
 7067SOL    HW132660   1.776   4.600   5.280 -0.5055  1.9473 -0.3404
 7067SOL    HW232661   1.743   4.656   5.413  2.1686  1.9025 -2.7358
 7068SOL     OW32662   4.147   2.534  12.741  0.1335 -0.3248  0.1742
 7068SOL    HW132663   4.117   2.539  12.832  0.5150 -0.9535  0.3385
 7068SOL    HW232664   4.240   2.549  12.761 -0.1286  1.5930 -0.0197
 7069SOL     OW32665   2.499   3.272   4.941 -0.6394  0.1403 -0.3700
 7069SOL    HW132666   2.473   3.362   4.923  2.3142  1.2547  0.9828
 7069SOL    HW232667   2.594   3.285   4.949 -0.5230  0.2105 -1.7944
 7070SOL     OW32668   2.189   4.345   2.876 -0.3733  0.4380  0.1175
 7070SOL    HW132669   2.120   4.343   2.811  0.3657  0.5249 -0.6719
 7070SOL    HW232670   2.144   4.395   2.945 -2.5906 -1.3080 -0.0876
 7071SOL     OW32671   2.492   1.563   5.363 -0.1107 -0.1077 -0.7432
 7071SOL    HW132672   2.523   1.558   5.272  0.6736 -0.7698 -0.4400
 7071SOL    HW232673   2.419   1.502   5.350  0.4410 -0.7262 -0.9505
 7072SOL     OW32674   3.237   4.090   8.385  0.0634  0.3391  0.4785
 7072SOL    HW132675   3.206   4.069   8.473  1.7256  0.6765  1.1527
 7072SOL    HW232676   3.188   4.171   8.369 -1.7604 -0.7686  0.4952
 7073SOL     OW32677   2.824   3.236  13.967 -0.0238 -0.7475  0.0691
 7073SOL    HW132678   2.839   3.264  14.057 -1.8605 -1.8861  0.7341
 7073SOL    HW232679   2.900   3.282  13.932 -0.5887  0.6643  0.6800
 7074SOL     OW32680   3.183   3.238   2.794 -0.0531 -0.0216  0.6271
 7074SOL    HW132681   3.219   3.296   2.861 -1.6789  0.7738  0.8069
 7074SOL    HW232682   3.200   3.152   2.832  2.0925 -0.2037 -0.7383
 7075SOL     OW32683   0.519   3.336   6.449  1.0165  0.4759 -0.4874
 7075SOL    HW132684   0.514   3.278   6.525 -2.2530  1.6133  0.1759
 7075SOL    HW232685   0.493   3.420   6.485 -1.7525 -0.0357 -1.3002
 7076SOL     OW32686   1.198   2.887   8.750 -0.1474  0.2391 -0.3102
 7076SOL    HW132687   1.116   2.854   8.713  1.2477 -1.7105 -1.6807
 7076SOL    HW232688   1.195   2.981   8.735  1.1801 -0.0352 -2.3090
 7077SOL     OW32689   0.602   0.630  17.321 -0.1029 -0.5560 -0.1390
 7077SOL    HW132690   0.555   0.558  17.280  0.0751 -1.0448  0.5139
 7077SOL    HW232691   0.603   0.592  17.409  0.8985 -1.2414 -0.4555
 7078SOL     OW32692   1.599   1.672   4.632  0.1439  0.3995  0.1861
 7078SOL    HW132693   1.647   1.751   4.657 -1.9524  2.0321 -0.9063
 7078SOL    HW232694   1.512   1.710   4.647 -0.0766  0.3596 -0.9452
 7079SOL     OW32695   3.950   0.469   2.420 -0.3602 -0.3782  0.2066
 7079SOL    HW132696   3.899   0.550   2.431 -0.3617 -0.4852  1.0039
 7079SOL    HW232697   3.891   0.415   2.473  2.5285 -2.4284  1.2799
 7080SOL     OW32698   0.539   3.300   3.729 -1.0802  0.2555  0.2577
 7080SOL    HW132699   0.456   3.327   3.690  0.1244  1.4947 -1.4563
 7080SOL    HW232700   0.526   3.341   3.814  0.5640  1.4724 -0.0660
 7081SOL     OW32701   1.778   1.308  13.091  0.1861  0.3188 -0.3727
 7081SOL    HW132702   1.698   1.338  13.046  1.6865  0.4140 -2.9768
 7081SOL    HW232703   1.754   1.328  13.182 -0.1767 -0.5643 -0.2815
 7082SOL     OW32704   4.177   3.512   9.926  0.5868 -0.1582 -0.5327
 7082SOL    HW132705   4.199   3.419   9.925  2.3145  0.2871 -5.4771
 7082SOL    HW232706   4.244   3.550   9.984 -0.3187  2.6739 -1.3522
 7083SOL     OW32707   0.013   4.709   1.145  0.2408  0.0038 -0.6199
 7083SOL    HW132708   0.034   0.048   1.215 -1.4438 -0.8407  0.6325
 7083SOL    HW232709   4.704   0.038   1.072  1.5002 -0.7862 -1.7481
 7084SOL     OW32710   3.446   2.783   1.297  0.0770 -0.5158  0.0883
 7084SOL    HW132711   3.487   2.854   1.345 -0.5892  0.2715 -0.5066
 7084SOL    HW232712   3.518   2.724   1.319  0.2383 -1.1726 -2.1710
 7085SOL     OW32713   0.543   4.279   6.310  0.2503  0.0783 -0.3750
 7085SOL    HW132714   0.614   4.230   6.268  1.9815  1.1100  1.3414
 7085SOL    HW232715   0.491   4.306   6.234 -0.4955 -1.6839 -0.4832
 7086SOL     OW32716   2.269   4.551   1.802 -0.1180 -0.1945  0.0964
 7086SOL    HW132717   2.331   4.594   1.743  0.4532 -0.0263  0.8207
 7086SOL    HW232718   2.236   4.493   1.733 -2.6708  2.4275 -0.8630
 7087SOL     OW32719   3.653   1.349  12.179  0.1700 -0.4243  0.0961
 7087SOL    HW132720   3.615   1.399  12.251 -0.3930  0.0443 -0.5179
 7087SOL    HW232721   3.591   1.358  12.107  0.1647  2.8282  0.5342
 7088SOL     OW32722   2.292   0.945  12.996  0.4784 -0.5322  0.2599
 7088SOL    HW132723   2.388   0.938  12.996  0.3151 -2.7459  0.7956
 7088SOL    HW232724   2.268   1.018  13.054 -0.2316  1.8743 -3.0897
 7089SOL     OW32725   1.372   1.877   8.949 -0.3383  0.1520 -0.3281
 7089SOL    HW132726   1.399   1.791   8.981  2.6782  0.8730 -0.8724
 7089SOL    HW232727   1.278   1.883   8.961 -0.2205 -1.1381  1.1958
 7090SOL     OW32728   0.630   3.806   7.241 -0.5180  0.2027  0.0512
 7090SOL    HW132729   0.574   3.866   7.290  2.2124  2.3002  0.6172
 7090SOL    HW232730   0.693   3.780   7.308 -2.3994  0.5287  1.9389
 7091SOL     OW32731   0.878   3.730   2.133 -0.2218  0.4268  0.2055
 7091SOL    HW132732   0.796   3.772   2.159 -0.8418 -1.5752  1.4601
 7091SOL    HW232733   0.845   3.643   2.111 -0.3594  0.7859 -1.0457
 7092SOL     OW32734   1.044   0.764   1.767 -0.2389 -0.6005  0.8436
 7092SOL    HW132735   0.954   0.794   1.755  1.4423  3.6787 -0.9192
 7092SOL    HW232736   1.056   0.695   1.703 -0.3616  0.0921  0.0806
 7093SOL     OW32737   1.593   4.648   7.016  0.0536  0.4039 -0.1571
 7093SOL    HW132738   1.645   4.573   6.987  1.5857 -0.1554  3.9698
 7093SOL    HW232739   1.509   4.608   7.037 -0.1912  1.6456  1.1883
 7094SOL     OW32740   0.584   3.421   5.731 -0.8603  1.0713 -0.6974
 7094SOL    HW132741   0.492   3.396   5.725 -0.4748 -0.3950 -0.4232
 7094SOL    HW232742   0.602   3.398   5.822 -2.0885  0.9148 -0.4939
 7095SOL     OW32743   3.524   1.047   8.933 -0.4201  0.0629 -0.1666
 7095SOL    HW132744   3.564   0.960   8.935  2.2236  1.3135  1.0306
 7095SOL    HW232745   3.519   1.067   8.840 -0.2365  2.1482  0.2767
 7096SOL     OW32746   4.570   4.238   4.706  0.6485 -0.4976 -0.2552
 7096SOL    HW132747   4.478   4.214   4.697  0.7428 -0.7628 -0.4928
 7096SOL    HW232748   4.543   4.325   4.736  0.6313 -1.2198  1.8505
 7097SOL     OW32749   1.829   0.588  12.380  0.3101  0.0307  0.3659
 7097SOL    HW132750   1.786   0.642  12.314  0.9831  0.0616 -0.0521
 7097SOL    HW232751   1.891   0.541  12.324 -1.0133 -0.8052 -0.3968
 7098SOL     OW32752   4.404   1.687   7.142  0.2635 -0.0182 -0.1650
 7098SOL    HW132753   4.491   1.660   7.172  0.1510 -1.7946 -1.4444
 7098SOL    HW232754   4.423   1.780   7.126  0.8112 -0.3329 -1.3012
 7099SOL     OW32755   2.898   1.013   1.074  0.5399 -0.1074 -0.1439
 7099SOL    HW132756   2.809   0.998   1.108  0.6334  1.4372  0.7925
 7099SOL    HW232757   2.893   1.010   0.979 -1.1554 -1.0262 -0.0274
 7100SOL     OW32758   0.298   2.779  11.697 -0.1192  0.5609 -0.2161
 7100SOL    HW132759   0.324   2.856  11.748  0.3811 -0.0174  0.4031
 7100SOL    HW232760   0.308   2.815  11.608  4.2105  0.9092  0.4054
 7101SOL     OW32761   1.725   3.610   4.027  0.5639  0.5440 -0.4756
 7101SOL    HW132762   1.804   3.663   4.024  0.6068  0.5157  0.1141
 7101SOL    HW232763   1.672   3.651   3.959 -1.8438 -0.4715  0.7569
 7102SOL     OW32764   2.352   2.043   2.788 -0.3549  0.4340  0.1882
 7102SOL    HW132765   2.350   2.041   2.883  4.6724 -0.9313  0.2507
 7102SOL    HW232766   2.301   1.965   2.764  0.6766  0.0999 -0.9778
 7103SOL     OW32767   4.564   4.022  10.014 -0.0632  0.0541 -0.7208
 7103SOL    HW132768   4.640   4.077   9.996 -0.8965  1.5604  0.3452
 7103SOL    HW232769   4.607   3.944  10.049 -1.3650 -0.8143 -1.0662
 7104SOL     OW32770   0.792   4.057  17.562  0.2075  0.1508  0.1266
 7104SOL    HW132771   0.884   4.033  17.551  0.2920  0.6729 -0.3033
 7104SOL    HW232772   0.783   4.135  17.506  0.4535  0.7634  0.9458
 7105SOL     OW32773   2.568   1.863  12.823  0.5503 -0.4262 -0.0351
 7105SOL    HW132774   2.591   1.905  12.906 -0.4451 -1.3162  0.6738
 7105SOL    HW232775   2.507   1.796  12.851  1.3591 -0.2713  2.0719
 7106SOL     OW32776   3.485   1.881   2.657 -0.6918  0.4717  0.1091
 7106SOL    HW132777   3.558   1.941   2.671 -1.2323  1.4677 -1.4026
 7106SOL    HW232778   3.447   1.921   2.579  0.3589 -3.4708 -2.4676
 7107SOL     OW32779   1.936   1.050  13.539  0.3381  0.0586  0.4372
 7107SOL    HW132780   1.860   1.083  13.490 -0.4912 -0.2863  1.5118
 7107SOL    HW232781   1.900   1.055  13.627 -0.8016 -2.2391  0.0884
 7108SOL     OW32782   1.405   1.842   6.471 -0.0688  0.3083 -0.6416
 7108SOL    HW132783   1.416   1.932   6.502 -2.2086 -0.2611  1.8497
 7108SOL    HW232784   1.478   1.827   6.412  0.3968 -1.0896  0.2859
 7109SOL     OW32785   4.343   3.096   8.049  0.5582 -0.0777 -0.2003
 7109SOL    HW132786   4.383   3.137   8.126  0.1913  1.6693 -0.9215
 7109SOL    HW232787   4.267   3.066   8.098 -1.1204  0.4629 -2.4544
 7110SOL     OW32788   3.078   3.413   6.648 -0.5080 -0.1051  0.1419
 7110SOL    HW132789   2.988   3.404   6.679  1.1986 -0.2345  4.9892
 7110SOL    HW232790   3.094   3.508   6.644 -1.7254  0.0812 -0.3127
 7111SOL     OW32791   4.065   2.391   7.151  0.3103 -0.4574 -0.3061
 7111SOL    HW132792   4.150   2.388   7.108  0.5066 -0.0080  0.0504
 7111SOL    HW232793   4.022   2.469   7.115 -0.5267 -0.3716  0.8876
 7112SOL     OW32794   2.875   2.689  16.397  0.0020 -0.4463 -0.0979
 7112SOL    HW132795   2.819   2.762  16.372 -0.3185 -1.1591 -1.5267
 7112SOL    HW232796   2.837   2.669  16.482 -1.3805  1.1353 -0.3537
 7113SOL     OW32797   0.522   0.251  13.130  0.2892 -0.3538 -0.1553
 7113SOL    HW132798   0.472   0.172  13.106  1.0380 -1.5882  2.3870
 7113SOL    HW232799   0.592   0.207  13.179  1.2456 -0.9357 -2.0446
 7114SOL     OW32800   4.656   4.302  11.470 -0.2506 -0.2596  0.1264
 7114SOL    HW132801   4.638   4.252  11.391  0.6825 -1.9104  0.9438
 7114SOL    HW232802   4.602   4.254  11.533 -1.3285  0.4164 -0.2776
 7115SOL     OW32803   1.973   2.078  13.021  0.0892  0.3129 -0.2799
 7115SOL    HW132804   1.928   2.040  13.097  0.5266 -0.5894 -0.4762
 7115SOL    HW232805   2.065   2.069  13.045 -0.0610  0.9710  0.5801
 7116SOL     OW32806   2.842   2.837   5.471  0.0577  0.0916 -0.0608
 7116SOL    HW132807   2.860   2.760   5.525 -0.8447 -1.2879 -1.7059
 7116SOL    HW232808   2.868   2.806   5.384 -0.8440  0.1276 -0.3544
 7117SOL     OW32809   1.715   2.312   1.533 -0.0502 -0.3834  0.6962
 7117SOL    HW132810   1.764   2.384   1.574  1.6302 -0.9579 -0.3116
 7117SOL    HW232811   1.766   2.305   1.453 -1.9040 -0.7177 -0.4332
 7118SOL     OW32812   4.039   0.205   1.018  0.0019  0.3076 -0.1079
 7118SOL    HW132813   4.072   0.231   1.104 -1.2405  1.1935  0.0905
 7118SOL    HW232814   3.992   0.285   0.999 -0.5205 -0.0683 -0.3931
 7119SOL     OW32815   0.585   2.168   8.366  0.0651  0.0159 -0.5161
 7119SOL    HW132816   0.514   2.232   8.362  0.7884  0.8316 -0.4174
 7119SOL    HW232817   0.630   2.191   8.448  2.5849 -0.0539 -1.8864
 7120SOL     OW32818   2.198   4.143   8.016 -0.0687 -0.3403 -0.6090
 7120SOL    HW132819   2.138   4.199   8.066 -0.0327 -1.4522  0.6393
 7120SOL    HW232820   2.168   4.060   8.051 -0.6746  0.1712  0.0974
 7121SOL     OW32821   4.112   3.950   6.635 -0.3183  0.3332 -0.0626
 7121SOL    HW132822   4.046   3.958   6.704 -1.9299  1.7803 -1.7665
 7121SOL    HW232823   4.075   3.887   6.573 -2.0682  0.8553  0.4298
 7122SOL     OW32824   3.699   4.139   7.023 -0.0236  0.1818  0.0185
 7122SOL    HW132825   3.684   4.045   7.017 -0.2446  0.1912  0.4126
 7122SOL    HW232826   3.794   4.145   7.021 -0.0064  0.0758  0.8047
 7123SOL     OW32827   1.141   0.729  14.229 -0.0888  0.4674  0.1589
 7123SOL    HW132828   1.097   0.672  14.165 -3.3352  1.2196  1.6934
 7123SOL    HW232829   1.096   0.705  14.310 -0.0273 -0.7395 -0.1633
 7124SOL     OW32830   3.457   1.335   7.969 -0.3861  0.0276  0.2372
 7124SOL    HW132831   3.459   1.359   7.877 -0.2696 -0.9141 -0.0029
 7124SOL    HW232832   3.447   1.240   7.966 -1.1491  0.0640  1.7282
 7125SOL     OW32833   0.084   0.936   2.923 -0.5696  0.6749 -0.0399
 7125SOL    HW132834   4.716   0.908   2.937 -0.7912  1.9813  1.1975
 7125SOL    HW232835   0.085   0.972   2.835  1.0289  1.5861  0.3549
 7126SOL     OW32836   1.395   2.113   4.830  0.3377  0.1347 -0.0761
 7126SOL    HW132837   1.367   2.083   4.916  1.3825 -0.8690 -0.0866
 7126SOL    HW232838   1.426   2.199   4.856  1.7744 -0.4697  0.2356
 7127SOL     OW32839   0.334   4.179  13.752 -0.1465  0.1151  0.0134
 7127SOL    HW132840   0.426   4.154  13.753 -0.0607  0.4329  0.6033
 7127SOL    HW232841   0.296   4.155  13.837  0.5205  3.0785  1.1777
 7128SOL     OW32842   0.172   0.085   8.288 -0.3113  0.4197 -1.0609
 7128SOL    HW132843   0.229   0.155   8.320 -0.4343  0.8787 -1.8444
 7128SOL    HW232844   0.231   0.012   8.306 -1.4445 -0.5667 -1.3151
 7129SOL     OW32845   2.567   2.686  14.363 -0.9949 -0.6144 -0.1574
 7129SOL    HW132846   2.615   2.627  14.305 -0.9332 -0.2804 -0.4427
 7129SOL    HW232847   2.638   2.733  14.406 -2.0296  1.0619 -0.2931
 7130SOL     OW32848   4.283   3.550  11.876  0.3404  0.4746  0.2275
 7130SOL    HW132849   4.282   3.637  11.915 -0.3932 -0.1546  1.5813
 7130SOL    HW232850   4.316   3.556  11.786 -0.0272  2.6408  0.2437
 7131SOL     OW32851   3.979   3.556  14.843 -0.2278 -0.0592  0.2805
 7131SOL    HW132852   3.948   3.646  14.835  1.0218  0.2334 -1.3594
 7131SOL    HW232853   3.921   3.524  14.912 -0.6051  0.1601  0.0643
 7132SOL     OW32854   3.960   0.407   6.329  0.3395 -0.1088 -0.5017
 7132SOL    HW132855   3.901   0.341   6.366 -0.3739  0.9918  0.3067
 7132SOL    HW232856   4.031   0.356   6.291 -1.1003 -0.8537 -2.2020
 7133SOL     OW32857   1.106   4.013   0.468  0.1474 -0.2111 -0.2252
 7133SOL    HW132858   1.084   3.921   0.486  1.7607 -0.5137  0.2038
 7133SOL    HW232859   1.022   4.059   0.472 -0.9095 -2.2141  0.9488
 7134SOL     OW32860   1.886   2.462   3.515  0.3022  0.5285  0.7033
 7134SOL    HW132861   1.909   2.369   3.514 -1.6667  0.0773 -1.8552
 7134SOL    HW232862   1.790   2.464   3.522  0.1808 -1.6127 -0.2021
 7135SOL     OW32863   1.214   1.354  14.314  0.3602 -0.3815  0.1551
 7135SOL    HW132864   1.280   1.416  14.283  0.9518 -2.1487 -2.1047
 7135SOL    HW232865   1.137   1.411  14.305  0.9671  0.6738  1.7057
 7136SOL     OW32866   3.282   1.223   2.870 -0.7365  0.2761  0.4238
 7136SOL    HW132867   3.321   1.259   2.790  0.1799 -0.7572  0.4170
 7136SOL    HW232868   3.192   1.252   2.858 -1.2092 -0.9080  1.1298
 7137SOL     OW32869   1.434   0.829   8.923 -0.1287  0.4893 -0.3087
 7137SOL    HW132870   1.424   0.762   8.990  1.7394  0.0292 -0.5037
 7137SOL    HW232871   1.502   0.880   8.967 -0.1483 -0.5381  0.9105
 7138SOL     OW32872   4.482   0.219   3.078  0.5025  0.0001  0.2763
 7138SOL    HW132873   4.530   0.285   3.028  1.6338 -2.5326 -1.9739
 7138SOL    HW232874   4.448   0.155   3.014 -0.2678 -0.5824  1.2642
 7139SOL     OW32875   4.336   2.845  17.228  0.1955  0.2997 -0.1507
 7139SOL    HW132876   4.341   2.932  17.188 -2.3105  1.6303  2.4445
 7139SOL    HW232877   4.428   2.820  17.232  0.4952  1.8039  2.3409
 7140SOL     OW32878   1.961   4.158   8.702  0.4338 -0.1182  0.1081
 7140SOL    HW132879   1.938   4.067   8.721  1.6225  0.2339  3.2414
 7140SOL    HW232880   1.883   4.194   8.659  0.6978 -0.7710 -0.9093
 7141SOL     OW32881   1.188   3.144  16.140  0.1277  0.5440  0.2466
 7141SOL    HW132882   1.255   3.163  16.074  1.3354 -1.5583  0.8379
 7141SOL    HW232883   1.236   3.154  16.223 -0.5412  2.2247  0.4262
 7142SOL     OW32884   0.395   2.575  16.355  0.2377  0.3529  0.1620
 7142SOL    HW132885   0.490   2.578  16.359  0.2825  0.7613 -1.1871
 7142SOL    HW232886   0.379   2.568  16.449  2.2036  1.9706  0.5958
 7143SOL     OW32887   0.652   0.626   7.436 -0.4180 -0.1004  0.1584
 7143SOL    HW132888   0.668   0.711   7.477 -0.1097  0.6426 -1.4829
 7143SOL    HW232889   0.689   0.640   7.349  0.4263 -2.0408  0.2142
 7144SOL     OW32890   4.193   1.181   5.932 -0.5660 -0.0878  0.5433
 7144SOL    HW132891   4.137   1.131   5.992 -0.4965  1.1446  1.6339
 7144SOL    HW232892   4.138   1.175   5.854  0.5760  0.3141 -0.2958
 7145SOL     OW32893   4.157   2.129   0.498  0.7080  0.5657  0.4205
 7145SOL    HW132894   4.139   2.048   0.545  0.3379  1.1346  1.2692
 7145SOL    HW232895   4.218   2.092   0.435 -0.8599 -0.1380 -0.6820
 7146SOL     OW32896   2.012   1.298   7.285 -0.3415 -0.2305  0.2930
 7146SOL    HW132897   2.055   1.294   7.371 -1.2421 -1.4642  0.6898
 7146SOL    HW232898   2.061   1.363   7.235  0.6892 -0.7077  0.6656
 7147SOL     OW32899   1.290   1.524   9.189  0.0758 -0.4840  0.5223
 7147SOL    HW132900   1.319   1.598   9.243  0.7261 -0.4227  0.0935
 7147SOL    HW232901   1.240   1.483   9.259 -3.8391  1.5626 -1.0965
 7148SOL     OW32902   0.224   2.969   2.945 -0.2346  0.5166  0.1853
 7148SOL    HW132903   0.314   2.936   2.943  0.0721  1.4322 -0.8839
 7148SOL    HW232904   0.180   2.901   2.894  1.3062  0.9466 -1.6937
 7149SOL     OW32905   2.973   1.958  10.796  0.2930  0.4404 -0.3759
 7149SOL    HW132906   2.985   1.988  10.887  0.0441  0.5840 -0.3882
 7149SOL    HW232907   3.062   1.975  10.766  1.3460  0.9142  2.9143
 7150SOL     OW32908   4.432   3.539   8.951 -0.1645  0.1106 -0.1428
 7150SOL    HW132909   4.434   3.446   8.927 -2.9986  0.0810 -0.2054
 7150SOL    HW232910   4.521   3.570   8.934  0.4295 -0.8882  1.1637
 7151SOL     OW32911   1.993   0.459  12.196 -0.1024 -0.0604  0.0287
 7151SOL    HW132912   1.987   0.431  12.105  0.3767 -0.9218  0.2661
 7151SOL    HW232913   2.080   0.497  12.195  0.2279 -0.7916  0.6358
 7152SOL     OW32914   2.614   4.432  13.888  0.7731 -0.1135 -0.1763
 7152SOL    HW132915   2.691   4.404  13.939  0.6606 -2.1075 -1.1094
 7152SOL    HW232916   2.624   4.527  13.881  3.2129 -0.4942 -1.9376
 7153SOL     OW32917   3.292   1.135   8.198  0.1635 -0.1814  0.3417
 7153SOL    HW132918   3.274   1.093   8.114 -1.9565  2.2250 -0.4052
 7153SOL    HW232919   3.273   1.067   8.262 -1.8489 -0.4585 -0.5511
 7154SOL     OW32920   1.882   3.092   4.402 -0.6227 -0.3266  0.4348
 7154SOL    HW132921   1.827   3.116   4.327  0.5784 -1.4597 -0.8199
 7154SOL    HW232922   1.819   3.080   4.472 -0.1973 -0.9163  0.7192
 7155SOL     OW32923   3.731   1.046   9.627 -0.5524  0.4392  0.0966
 7155SOL    HW132924   3.822   1.019   9.636  0.0261  1.8781 -1.6123
 7155SOL    HW232925   3.727   1.085   9.715 -0.5239 -0.3092  0.4265
 7156SOL     OW32926   0.674   0.991   8.573 -0.1966 -0.3605  0.0638
 7156SOL    HW132927   0.745   0.961   8.515  1.3416  1.9595  0.7632
 7156SOL    HW232928   0.714   1.020   8.655  0.2566  1.5384 -0.8295
 7157SOL     OW32929   0.221   0.326   4.075  0.0454 -0.0921 -0.2330
 7157SOL    HW132930   0.175   0.316   3.992  0.6621  0.1845 -0.6042
 7157SOL    HW232931   0.299   0.275   4.056  0.4994 -0.2092  1.9570
 7158SOL     OW32932   0.446   3.453   3.169  0.1722 -0.1307 -0.7211
 7158SOL    HW132933   0.407   3.369   3.142  0.1419  0.2738 -1.8987
 7158SOL    HW232934   0.533   3.446   3.130  1.3749  1.1063  1.6872
 7159SOL     OW32935   4.113   1.562   9.043 -0.2993 -0.0016 -0.3723
 7159SOL    HW132936   4.049   1.499   9.011 -0.0067 -0.5002  0.0246
 7159SOL    HW232937   4.073   1.589   9.126 -0.8677  1.7479 -1.2199
 7160SOL     OW32938   2.371   1.467   4.053  0.4826 -0.1901 -0.0660
 7160SOL    HW132939   2.321   1.477   3.972  0.4336  0.4660  0.0448
 7160SOL    HW232940   2.438   1.410   4.015  0.0973 -0.4983 -0.2861
 7161SOL     OW32941   4.026   1.601   7.725  0.1604 -0.1195 -0.3629
 7161SOL    HW132942   4.064   1.683   7.694  1.0180  0.0517  1.1704
 7161SOL    HW232943   3.979   1.636   7.801  1.8301  2.9767 -0.7621
 7162SOL     OW32944   3.950   1.842   2.695  0.4058  0.3725  0.3051
 7162SOL    HW132945   3.887   1.815   2.762  2.2122 -3.5789  0.4153
 7162SOL    HW232946   3.941   1.765   2.638  3.2974 -0.1242  0.5472
 7163SOL     OW32947   2.985   0.894   9.391  0.0978  0.2996 -0.0789
 7163SOL    HW132948   2.907   0.950   9.389  0.3422  0.8034  3.6647
 7163SOL    HW232949   3.053   0.950   9.351  1.1800 -0.5526  0.5770
 7164SOL     OW32950   4.519   0.513   7.695  0.6036  0.3176  0.3287
 7164SOL    HW132951   4.498   0.598   7.656 -0.0718  0.8855  1.9377
 7164SOL    HW232952   4.551   0.470   7.616 -0.4484  1.4524 -0.7038
 7165SOL     OW32953   2.067   2.874   7.451 -0.3438 -0.0620  0.7125
 7165SOL    HW132954   1.982   2.918   7.443  1.0473  2.1058 -1.8198
 7165SOL    HW232955   2.111   2.945   7.498 -0.3305  0.4828 -0.1308
 7166SOL     OW32956   1.201   2.027  15.517 -0.2392 -0.0063 -0.6198
 7166SOL    HW132957   1.231   1.968  15.448  1.0275  0.5711 -0.5559
 7166SOL    HW232958   1.194   2.105  15.463  1.4557 -0.2696 -1.2204
 7167SOL     OW32959   2.479   1.878  12.528 -0.0377  0.6014 -0.1761
 7167SOL    HW132960   2.508   1.868  12.619 -0.9872 -1.4359 -0.1066
 7167SOL    HW232961   2.559   1.858  12.480 -0.6324  0.7244 -1.2010
 7168SOL     OW32962   0.976   4.041   4.939  0.2888  0.7563 -0.3314
 7168SOL    HW132963   0.929   3.964   4.906  1.7103  0.0877 -0.7883
 7168SOL    HW232964   1.020   4.065   4.858  1.2728  0.0822  0.0106
 7169SOL     OW32965   4.254   2.549   3.278 -0.2996  0.1637  0.2281
 7169SOL    HW132966   4.202   2.611   3.330  0.4788  0.2194  0.9378
 7169SOL    HW232967   4.340   2.565   3.316  0.7153 -3.7904 -0.4815
 7170SOL     OW32968   3.342   0.436   6.882  0.3437  0.9490 -0.1703
 7170SOL    HW132969   3.385   0.424   6.966 -1.9775 -0.1930  0.8606
 7170SOL    HW232970   3.413   0.415   6.821 -0.2667  0.8315 -0.8513
 7171SOL     OW32971   1.679   4.322   7.557  0.2913  0.2446  0.0327
 7171SOL    HW132972   1.590   4.308   7.526  1.1267  2.2343 -3.3012
 7171SOL    HW232973   1.684   4.263   7.632 -0.5360 -0.4541 -0.4600
 7172SOL     OW32974   3.738   0.587   7.115  0.3963 -0.2987 -0.0553
 7172SOL    HW132975   3.731   0.492   7.129  0.0249 -0.6044 -2.3898
 7172SOL    HW232976   3.828   0.607   7.140 -0.0158  0.0440  1.2004
 7173SOL     OW32977   0.839   3.781   4.974 -0.2356  0.4121  0.0843
 7173SOL    HW132978   0.850   3.733   5.056  0.2831  1.6605  0.7539
 7173SOL    HW232979   0.805   3.716   4.913  1.2952  0.6273 -1.0062
 7174SOL     OW32980   0.722   4.373  16.234 -0.0491 -0.6935  0.2985
 7174SOL    HW132981   0.812   4.404  16.240  0.5760 -1.9915 -2.4094
 7174SOL    HW232982   0.690   4.364  16.324 -1.7419  0.8166 -0.1395
 7175SOL     OW32983   0.727   2.797   2.065  0.0537 -0.0945 -0.3560
 7175SOL    HW132984   0.766   2.718   2.028  1.4283  0.6469 -0.4978
 7175SOL    HW232985   0.699   2.842   1.986 -1.2429 -2.7645 -1.4193
 7176SOL     OW32986   3.427   1.731   9.447  0.1404  0.5351  0.2496
 7176SOL    HW132987   3.333   1.714   9.456  0.1018 -0.5263 -1.9976
 7176SOL    HW232988   3.448   1.823   9.465 -0.6390  0.8290 -0.3446
 7177SOL     OW32989   0.804   1.523   6.558  0.1856 -0.1581  0.5095
 7177SOL    HW132990   0.859   1.544   6.483  1.5026 -3.0919  0.6132
 7177SOL    HW232991   0.842   1.579   6.626  0.6890 -0.6184  0.6059
 7178SOL     OW32992   2.844   0.097   7.700 -0.3770  0.6001 -0.0209
 7178SOL    HW132993   2.773   0.107   7.635  0.1242  0.7006 -0.5541
 7178SOL    HW232994   2.907   0.059   7.639 -1.0721  2.0270 -1.6742
 7179SOL     OW32995   3.705   3.885   0.728  0.3426 -0.2099 -0.0483
 7179SOL    HW132996   3.772   3.951   0.713 -0.1586  0.5321  0.9391
 7179SOL    HW232997   3.755   3.804   0.719  1.1040  0.2745 -0.0724
 7180SOL     OW32998   0.272   2.995   3.750 -0.2563  0.1954 -0.5836
 7180SOL    HW132999   0.359   3.035   3.750 -0.2424  0.1654 -0.5170
 7180SOL    HW233000   0.297   2.904   3.766  1.3375  0.6782 -0.3311
 7181SOL     OW33001   4.182   2.235   7.328 -0.2662 -0.1521  0.1429
 7181SOL    HW133002   4.147   2.165   7.272  0.5596 -1.4293  1.2424
 7181SOL    HW233003   4.134   2.301   7.277  0.7404  1.1649  0.9111
 7182SOL     OW33004   2.706   2.917   3.308 -0.1722 -0.2440  1.0421
 7182SOL    HW133005   2.637   2.862   3.347  0.7214 -1.6404  0.6723
 7182SOL    HW233006   2.708   2.995   3.363  1.4228 -0.7743  1.7357
 7183SOL     OW33007   4.191   2.996   8.274  0.4184  0.5406 -0.6943
 7183SOL    HW133008   4.241   3.036   8.345  0.5497 -1.6449  0.4343
 7183SOL    HW233009   4.098   3.007   8.292  0.7664  3.7659 -0.9592
 7184SOL     OW33010   2.776   4.305  15.729  0.4770  0.3229  0.3614
 7184SOL    HW133011   2.776   4.220  15.774 -2.0946 -0.1687 -0.5480
 7184SOL    HW233012   2.731   4.355  15.797  0.2971  0.8944 -0.1760
 7185SOL     OW33013   4.048   0.863   4.400  0.0966  0.1826 -0.5035
 7185SOL    HW133014   4.109   0.894   4.466 -0.0741  1.4154 -0.9221
 7185SOL    HW233015   4.104   0.804   4.350 -1.5902 -1.6470 -0.2362
 7186SOL     OW33016   4.281   4.546   6.272  0.4695  0.2021  0.4599
 7186SOL    HW133017   4.273   4.491   6.350  0.7380 -0.2599  0.1600
 7186SOL    HW233018   4.208   4.506   6.226 -0.0057  0.5104  0.9443
 7187SOL     OW33019   2.317   3.529   3.190  0.2058  0.0063 -0.4745
 7187SOL    HW133020   2.372   3.604   3.169  0.9356 -0.2945  0.3271
 7187SOL    HW233021   2.285   3.503   3.104 -0.9441  0.7392 -0.2703
 7188SOL     OW33022   1.337   2.723  16.291  0.3003 -0.4499 -0.0232
 7188SOL    HW133023   1.350   2.629  16.304  2.5197  0.0379  1.2024
 7188SOL    HW233024   1.423   2.745  16.327  0.3886 -1.9250  0.6697
 7189SOL     OW33025   4.252   3.661   6.835 -0.1399 -0.0783  0.3551
 7189SOL    HW133026   4.332   3.615   6.809 -0.3671 -1.0321  1.3611
 7189SOL    HW233027   4.286   3.740   6.877 -1.6589  0.5674  0.3555
 7190SOL     OW33028   2.041   1.875  11.046  0.2249  0.3745  0.0848
 7190SOL    HW133029   2.100   1.864  11.121 -0.0487  1.2968  0.4435
 7190SOL    HW233030   2.089   1.948  11.007  0.1715  1.4876  2.0846
 7191SOL     OW33031   4.067   3.029  15.452  0.3764 -0.5046  0.3791
 7191SOL    HW133032   4.125   3.105  15.457  1.5183 -1.3373 -0.2286
 7191SOL    HW233033   4.091   3.011  15.361  0.2545 -0.8982  0.4284
 7192SOL     OW33034   4.128   0.558  11.430  0.0415 -0.2428  0.2204
 7192SOL    HW133035   4.208   0.534  11.476 -0.2030  0.3573  0.9747
 7192SOL    HW233036   4.153   0.639  11.385  1.8427 -0.4334  0.8851
 7193SOL     OW33037   0.422   1.760  11.294 -0.1686 -0.5293 -0.0620
 7193SOL    HW133038   0.386   1.730  11.211 -3.3996 -0.0955  1.1529
 7193SOL    HW233039   0.458   1.682  11.337 -0.0750 -0.7429 -0.5257
 7194SOL     OW33040   2.884   3.084   1.737  0.3681  0.0798 -0.3806
 7194SOL    HW133041   2.873   3.029   1.659  1.7393  1.5763 -1.6079
 7194SOL    HW233042   2.944   3.150   1.705  0.3534  0.4031  0.2604
 7195SOL     OW33043   2.104   2.094   4.606 -0.5675 -0.0068  0.3526
 7195SOL    HW133044   2.101   2.041   4.526  1.5675 -2.4630  1.9227
 7195SOL    HW233045   2.046   2.166   4.579  1.7977  1.5692 -0.5497
 7196SOL     OW33046   0.057   0.433  14.933 -0.2619  0.0962 -0.0428
 7196SOL    HW133047   4.715   0.402  14.870 -1.9293  2.9488  0.2603
 7196SOL    HW233048   0.123   0.364  14.922 -0.1984 -0.1394  1.9433
 7197SOL     OW33049   4.654   1.011  16.341 -0.7409  0.1496 -0.0825
 7197SOL    HW133050   4.579   1.070  16.343 -0.8777 -0.0470  0.7260
 7197SOL    HW233051   4.604   0.930  16.328 -1.0589  0.3417 -0.0408
 7198SOL     OW33052   3.284   1.656   2.931  0.2784  0.7416  0.1050
 7198SOL    HW133053   3.227   1.732   2.921  0.6473  0.7266 -2.1485
 7198SOL    HW233054   3.323   1.648   2.844 -3.6640 -1.4456 -1.4480
 7199SOL     OW33055   3.324   3.477   5.254  0.0746 -0.7624  0.5088
 7199SOL    HW133056   3.307   3.553   5.310  2.1650 -0.3793  0.6216
 7199SOL    HW233057   3.274   3.488   5.173  0.5047  1.4674  0.5422
 7200SOL     OW33058   0.197   0.604  14.307  0.0177  0.1337  0.4191
 7200SOL    HW133059   0.128   0.670  14.312  1.1151  1.3746 -0.7892
 7200SOL    HW233060   0.164   0.562  14.228 -0.1626  0.2466  0.4346
 7201SOL     OW33061   1.726   4.059   0.662  0.5046  0.2794 -0.0838
 7201SOL    HW133062   1.708   3.987   0.722  3.1854 -1.7092 -1.7040
 7201SOL    HW233063   1.819   4.040   0.652  0.6411  0.7764  0.2231
 7202SOL     OW33064   0.580   3.593   8.706 -0.3174  0.1739  0.8107
 7202SOL    HW133065   0.503   3.590   8.762 -1.4450  1.0330 -0.6889
 7202SOL    HW233066   0.569   3.676   8.659 -1.2080 -0.2742  0.2196
 7203SOL     OW33067   4.088   4.409   6.127  0.3266 -0.3072  0.0868
 7203SOL    HW133068   4.000   4.405   6.165  1.0397 -0.4152  1.7158
 7203SOL    HW233069   4.099   4.320   6.093  1.8248 -0.6832  1.5629
 7204SOL     OW33070   3.041   4.129  15.264  0.2407  0.0869 -0.0715
 7204SOL    HW133071   2.993   4.152  15.184 -0.2089 -0.1309  0.1404
 7204SOL    HW233072   2.982   4.148  15.337 -1.4116  2.0107 -1.8740
 7205SOL     OW33073   2.655   3.020   2.356 -0.0342 -0.7667 -0.5965
 7205SOL    HW133074   2.631   2.991   2.268  2.1664 -2.2626 -0.7154
 7205SOL    HW233075   2.631   3.112   2.347  0.2614 -0.6231  0.0980
 7206SOL     OW33076   2.941   1.577   7.029 -0.3735  0.0675 -0.0442
 7206SOL    HW133077   2.875   1.570   7.098 -0.9611 -0.0853 -0.6271
 7206SOL    HW233078   2.888   1.609   6.956  1.6663  0.1110 -1.4951
 7207SOL     OW33079   3.131   2.514   9.255  0.4505 -0.2319  0.7683
 7207SOL    HW133080   3.156   2.542   9.343 -1.7581  1.6916  0.7756
 7207SOL    HW233081   3.045   2.554   9.243 -1.2158 -3.7231  1.1349
 7208SOL     OW33082   1.239   2.285  14.466 -0.3347 -0.0798 -0.4566
 7208SOL    HW133083   1.283   2.360  14.507 -0.9875 -0.6672  1.2830
 7208SOL    HW233084   1.262   2.213  14.524  0.9342 -0.4834 -1.4470
 7209SOL     OW33085   0.897   0.389   7.984 -0.6430  0.1870  0.1338
 7209SOL    HW133086   0.925   0.310   7.938  2.2981  0.4802  1.4699
 7209SOL    HW233087   0.981   0.410   8.024  0.0586 -0.0743 -1.1932
 7210SOL     OW33088   0.440   0.057  15.175  0.2832 -0.9522  0.0080
 7210SOL    HW133089   0.459   0.072  15.083 -0.2514  2.8446  0.5274
 7210SOL    HW233090   0.372   0.119  15.202 -0.5140 -1.7712 -0.0936
 7211SOL     OW33091   4.429   2.545   3.815  0.2281  0.2158  0.2952
 7211SOL    HW133092   4.474   2.498   3.885  0.6590  1.3179  0.7406
 7211SOL    HW233093   4.439   2.629   3.859 -0.8684 -0.6804  2.2658
 7212SOL     OW33094   1.363   1.705   6.709 -0.2432 -0.0461 -0.0260
 7212SOL    HW133095   1.390   1.771   6.645  2.1304 -2.7121 -1.7858
 7212SOL    HW233096   1.415   1.630   6.681 -1.5656 -1.1779  0.5767
 7213SOL     OW33097   2.922   2.823   7.446 -0.2783 -0.5957  0.1572
 7213SOL    HW133098   2.937   2.915   7.471 -0.7837 -0.7686  1.0964
 7213SOL    HW233099   2.926   2.779   7.531  0.9462 -0.7532  0.0147
 7214SOL     OW33100   1.627   2.107   5.989  0.1668  0.1026  0.2954
 7214SOL    HW133101   1.657   2.017   5.980  2.3819  0.6285  2.5440
 7214SOL    HW233102   1.616   2.126   5.895 -2.0246 -0.8146  0.3654
 7215SOL     OW33103   1.152   3.200   7.149  0.4914  0.2599 -0.1567
 7215SOL    HW133104   1.228   3.255   7.168 -0.8509  1.0691  3.0165
 7215SOL    HW233105   1.177   3.108   7.160  0.1267  0.3148  1.1546
 7216SOL     OW33106   1.762   3.224  15.497 -0.3742 -0.2779  0.0187
 7216SOL    HW133107   1.830   3.284  15.528  0.2558 -0.6774 -0.5974
 7216SOL    HW233108   1.719   3.290  15.444  1.8833 -0.4290 -2.0100
 7217SOL     OW33109   2.739   3.984   4.570  0.0450  0.1029 -0.2095
 7217SOL    HW133110   2.794   4.061   4.583 -0.7703  0.8408 -1.1155
 7217SOL    HW233111   2.804   3.929   4.527 -1.5366  0.1301 -2.6292
 7218SOL     OW33112   0.584   0.931  17.432  0.1003  0.1291 -0.1384
 7218SOL    HW133113   0.609   0.846  17.397  1.3549  0.4901 -0.1238
 7218SOL    HW233114   0.581   0.992  17.358 -3.4338  0.0865 -0.0168
 7219SOL     OW33115   4.323   1.513   0.005  0.0397 -0.3242  0.2206
 7219SOL    HW133116   4.301   1.573  17.628 -0.8055  1.6347  2.1395
 7219SOL    HW233117   4.315   1.579   0.074  0.9534 -0.5387  0.5291
 7220SOL     OW33118   1.042   2.824  11.605  0.2353 -0.0252  0.3976
 7220SOL    HW133119   1.117   2.823  11.546 -0.5478 -0.4501 -0.5859
 7220SOL    HW233120   1.006   2.736  11.592  0.9684 -0.2493 -0.1254
 7221SOL     OW33121   1.039   2.347   7.647 -0.3199  0.8063  0.2785
 7221SOL    HW133122   1.015   2.260   7.678  1.7926  0.8280  1.8960
 7221SOL    HW233123   1.008   2.344   7.556  0.4203  1.9107 -0.0171
 7222SOL     OW33124   0.725   3.073   4.759 -0.0696 -0.3275 -0.0984
 7222SOL    HW133125   0.818   3.096   4.757 -0.1543 -0.0943 -1.0118
 7222SOL    HW233126   0.684   3.152   4.793 -0.0264 -0.6828  0.8101
 7223SOL     OW33127   1.341   4.116   2.557 -0.5559 -0.2264 -0.5384
 7223SOL    HW133128   1.337   4.134   2.651  0.8407  0.1648 -0.5579
 7223SOL    HW233129   1.249   4.090   2.547 -0.5555 -0.6241  0.4723
 7224SOL     OW33130   2.347   2.838   4.811  0.0131  0.2413  0.4899
 7224SOL    HW133131   2.437   2.813   4.834  0.4660 -1.7326 -3.5573
 7224SOL    HW233132   2.354   2.934   4.802  1.1885  0.0640 -0.5280
 7225SOL     OW33133   4.475   0.697  10.460  0.0185  0.2861  0.0819
 7225SOL    HW133134   4.415   0.706  10.385 -0.5846 -1.1714  0.3948
 7225SOL    HW233135   4.559   0.702  10.416  0.9436 -2.5479  1.5764
 7226SOL     OW33136   0.500   1.568   5.291  0.5003 -0.0399  0.2487
 7226SOL    HW133137   0.532   1.506   5.356 -1.1212 -1.4778 -0.3216
 7226SOL    HW233138   0.445   1.520   5.230  0.2717 -1.4733  1.5785
 7227SOL     OW33139   0.981   2.710   3.323 -0.4713 -0.0442  0.3857
 7227SOL    HW133140   1.070   2.729   3.293 -0.8584  0.7226 -0.2700
 7227SOL    HW233141   0.962   2.791   3.371 -3.3922  0.3574 -1.4742
 7228SOL     OW33142   1.706   1.658   4.924  0.2707  0.2370 -0.4511
 7228SOL    HW133143   1.747   1.663   4.838 -0.7293 -0.8837 -0.9921
 7228SOL    HW233144   1.657   1.739   4.938  1.0530  0.9995 -2.0966
 7229SOL     OW33145   3.930   2.140   8.195  0.0069  0.2427  0.2368
 7229SOL    HW133146   3.909   2.097   8.278  0.2669 -1.4388 -0.5774
 7229SOL    HW233147   3.903   2.230   8.215  0.1846  0.3751 -0.1047
 7230SOL     OW33148   4.107   2.008  17.288  0.6130  0.2520  0.4155
 7230SOL    HW133149   4.083   1.920  17.260 -1.8165  1.0352  0.0612
 7230SOL    HW233150   4.184   2.033  17.237 -1.1796  0.4322 -2.2456
 7231SOL     OW33151   3.877   2.948  17.340  0.1432 -0.3405  0.1067
 7231SOL    HW133152   3.792   2.968  17.380  0.9235 -0.7230  1.9465
 7231SOL    HW233153   3.919   3.033  17.348 -0.8366  0.4466 -3.3387
 7232SOL     OW33154   0.350   2.130  11.361 -0.1182 -0.9909  0.0386
 7232SOL    HW133155   0.297   2.070  11.413 -1.1655 -1.4394 -1.5776
 7232SOL    HW233156   0.326   2.105  11.272 -1.9332 -1.1615  0.5757
 7233SOL     OW33157   0.212   0.926  10.229  0.3825 -0.0522 -0.7627
 7233SOL    HW133158   0.276   0.872  10.183 -1.2973 -2.8319  0.1120
 7233SOL    HW233159   0.158   0.945  10.153  1.2210  1.0613 -1.0729
 7234SOL     OW33160   3.216   2.454   2.038  0.4000  0.3803 -0.3577
 7234SOL    HW133161   3.295   2.402   2.051  1.0093  1.3939 -0.0217
 7234SOL    HW233162   3.238   2.509   1.963  0.0047  0.5225 -0.3716
 7235SOL     OW33163   1.386   0.222   3.216  0.1857 -0.3547 -0.1178
 7235SOL    HW133164   1.305   0.227   3.165  0.0820 -0.2727  0.0555
 7235SOL    HW233165   1.376   0.308   3.257 -1.3026 -0.9213  0.7304
 7236SOL     OW33166   3.365   0.658   4.147 -0.6670  0.1054  0.2408
 7236SOL    HW133167   3.356   0.593   4.216 -0.1906 -1.4364 -1.1378
 7236SOL    HW233168   3.451   0.633   4.113 -1.3021  0.7449 -1.8669
 7237SOL     OW33169   3.563   3.116   5.113  0.1143 -0.3812  0.4331
 7237SOL    HW133170   3.619   3.043   5.142  1.5029  0.2433 -0.6495
 7237SOL    HW233171   3.571   3.095   5.020  2.0974  1.0673  0.2567
 7238SOL     OW33172   0.640   3.296  12.637 -0.1111 -0.3372 -0.2201
 7238SOL    HW133173   0.580   3.359  12.596  0.4682  0.4606  0.1519
 7238SOL    HW233174   0.623   3.303  12.731 -0.5423 -0.5302 -0.2825
 7239SOL     OW33175   2.806   4.166   5.329  0.2196  0.3378  0.3309
 7239SOL    HW133176   2.841   4.124   5.408  0.1779 -0.1587  0.0844
 7239SOL    HW233177   2.808   4.252   5.370 -0.7164  0.3042  0.4628
 7240SOL     OW33178   3.896   0.528   7.518 -0.1888 -0.0913 -0.4746
 7240SOL    HW133179   3.946   0.457   7.558  0.1774  0.0873 -0.6223
 7240SOL    HW233180   3.807   0.511   7.549 -0.3034  0.4097 -0.5280
 7241SOL     OW33181   2.870   4.592   1.561 -0.1387  0.2609  0.6600
 7241SOL    HW133182   2.959   4.558   1.562 -0.2706 -0.2159 -2.3993
 7241SOL    HW233183   2.886   4.679   1.596  1.4225  0.7141 -1.1548
 7242SOL     OW33184   0.604   3.746   3.501 -1.1463 -0.1271 -0.3491
 7242SOL    HW133185   0.523   3.718   3.459  0.0271 -1.8450 -1.4232
 7242SOL    HW233186   0.630   3.829   3.461 -0.4163  0.0535  0.4780
 7243SOL     OW33187   4.681   4.549   8.294  0.4781  0.0734  0.6121
 7243SOL    HW133188   0.006   4.566   8.213 -1.2660 -0.5744 -0.5500
 7243SOL    HW233189   0.025   4.520   8.357 -0.7579  0.7131  2.2056
 7244SOL     OW33190   2.641   4.409   3.420 -0.5255  0.2778 -0.0517
 7244SOL    HW133191   2.654   4.489   3.370 -0.0534 -0.8559 -1.7363
 7244SOL    HW233192   2.597   4.360   3.350  0.2865 -1.8322  0.9052
 7245SOL     OW33193   1.939   4.652   4.720  0.2725  0.3730 -0.2200
 7245SOL    HW133194   1.845   4.640   4.705  0.0544 -0.8041  1.9847
 7245SOL    HW233195   1.972   4.562   4.717 -1.8734 -0.4405  0.9384
 7246SOL     OW33196   1.009   3.646   7.127  0.8898  0.1395 -0.1502
 7246SOL    HW133197   1.103   3.632   7.114  0.8095  0.9210 -1.5499
 7246SOL    HW233198   0.993   3.582   7.196  0.6329  0.3451 -0.0196
 7247SOL     OW33199   2.588   3.447   3.857  0.0013 -0.3742  0.4606
 7247SOL    HW133200   2.638   3.381   3.810 -0.3324 -1.0969  1.1207
 7247SOL    HW233201   2.517   3.392   3.890 -0.9678  0.8820  0.4842
 7248SOL     OW33202   3.504   0.074   6.111  0.0329  1.1398  0.6828
 7248SOL    HW133203   3.560   0.136   6.159  1.6164  0.3879 -0.2176
 7248SOL    HW233204   3.571   0.006   6.100  0.4146  1.6044  0.1480
 7249SOL     OW33205   2.446   1.095   6.094  0.8202  0.0570  0.6523
 7249SOL    HW133206   2.399   1.164   6.141 -2.6384 -1.5486 -0.4458
 7249SOL    HW233207   2.381   1.026   6.105  0.7231  0.1491  0.6485
 7250SOL     OW33208   1.571   0.427   8.776  0.2569  0.1499 -0.3887
 7250SOL    HW133209   1.506   0.364   8.809  0.6034 -0.2921 -0.5445
 7250SOL    HW233210   1.636   0.428   8.845  2.1396 -1.3022 -2.1344
 7251SOL     OW33211   2.000   0.121  11.891  0.4832  0.1512  0.0733
 7251SOL    HW133212   2.090   0.096  11.871  0.5996 -0.3066  1.1653
 7251SOL    HW233213   1.966   0.157  11.809  1.3745 -0.2937 -0.4920
 7252SOL     OW33214   3.429   0.662   1.557  0.3075  0.0017  0.2464
 7252SOL    HW133215   3.472   0.746   1.545 -0.2816  0.3823  0.7672
 7252SOL    HW233216   3.344   0.693   1.526  0.6724 -0.0358 -0.8046
 7253SOL     OW33217   2.754   0.675   6.646  0.2357  0.4456  0.0702
 7253SOL    HW133218   2.749   0.759   6.602 -0.1994 -0.0352 -0.7986
 7253SOL    HW233219   2.828   0.687   6.706  1.4186  3.4345 -2.0132
 7254SOL     OW33220   4.424   1.794   2.322 -0.6137 -0.3146 -0.2977
 7254SOL    HW133221   4.338   1.771   2.285 -0.9936  0.8299 -0.1178
 7254SOL    HW233222   4.467   1.845   2.255 -1.1336 -0.3407 -0.6543
 7255SOL     OW33223   3.743   2.446   3.049  0.0193 -0.0192 -0.4010
 7255SOL    HW133224   3.763   2.513   3.114  0.1833  0.0396 -0.5129
 7255SOL    HW233225   3.818   2.454   2.991  0.3574  1.4249  0.2396
 7256SOL     OW33226   3.773   3.205  14.915  0.0444  0.3880 -0.3156
 7256SOL    HW133227   3.678   3.192  14.912  0.2016 -0.4354 -1.6406
 7256SOL    HW233228   3.776   3.295  14.949 -1.6773  0.1127  0.6029
 7257SOL     OW33229   3.445   4.605  12.625 -0.4377 -0.2296 -0.1145
 7257SOL    HW133230   3.436   4.542  12.697  0.4628  1.1646  1.2248
 7257SOL    HW233231   3.510   4.561  12.570  2.1376  2.6136  0.6914
 7258SOL     OW33232   0.508   2.972   7.594  0.0613  0.7960  0.9314
 7258SOL    HW133233   0.529   3.055   7.636  0.3177  1.0836  0.2359
 7258SOL    HW233234   0.477   3.003   7.509  0.3271  0.5836  0.7567
 7259SOL     OW33235   3.314   0.586  14.005  0.9948  0.2116  0.3840
 7259SOL    HW133236   3.364   0.647  13.951  0.9082 -1.6563 -1.7652
 7259SOL    HW233237   3.355   0.595  14.091  0.1194 -0.9052  0.9183
 7260SOL     OW33238   1.888   3.550   2.851  0.1088  0.6001  0.8085
 7260SOL    HW133239   1.828   3.493   2.803 -1.2800  2.6144  0.1889
 7260SOL    HW233240   1.914   3.502   2.929  2.2181 -0.2279 -0.3776
 7261SOL     OW33241   0.223   2.719  16.054  0.5901 -0.2997  0.0802
 7261SOL    HW133242   0.261   2.635  16.079 -0.0953 -1.1921 -1.9117
 7261SOL    HW233243   0.278   2.784  16.099  0.3120  0.3223 -0.4852
 7262SOL     OW33244   4.452   3.518   3.977 -0.3010  0.3486  0.0729
 7262SOL    HW133245   4.485   3.518   4.067 -2.4395  1.1266  0.8801
 7262SOL    HW233246   4.464   3.608   3.945 -3.1995 -0.6071 -3.6664
 7263SOL     OW33247   1.405   0.500   4.296 -0.3778  0.4960  0.2685
 7263SOL    HW133248   1.354   0.439   4.243  1.2467 -0.1295 -0.5704
 7263SOL    HW233249   1.462   0.531   4.226 -1.5771  0.0542 -0.9107
 7264SOL     OW33250   3.831   1.956   6.672 -0.0349  0.0013 -0.0399
 7264SOL    HW133251   3.863   1.935   6.584  0.3403  0.9942 -0.1386
 7264SOL    HW233252   3.918   1.953   6.713 -1.0453 -0.8619  2.0266
 7265SOL     OW33253   2.513   1.239  15.715 -0.4824 -0.2150 -0.1073
 7265SOL    HW133254   2.510   1.159  15.768  2.4783 -0.9165 -0.9791
 7265SOL    HW233255   2.604   1.233  15.686 -0.8130  0.9270 -1.4004
 7266SOL     OW33256   3.951   1.339   2.492  0.3530 -0.2182  0.2424
 7266SOL    HW133257   3.909   1.364   2.574 -2.3106  0.7881 -1.4249
 7266SOL    HW233258   3.881   1.284   2.455  0.2141  0.0081  0.1653
 7267SOL     OW33259   4.182   2.919   2.378  0.4428  0.1450 -0.1973
 7267SOL    HW133260   4.205   2.985   2.312  0.4290  0.7836  0.4345
 7267SOL    HW233261   4.140   2.978   2.441 -0.5935  0.0200 -0.7825
 7268SOL     OW33262   4.526   2.249   4.282  0.3461  0.0456 -0.4555
 7268SOL    HW133263   4.557   2.327   4.327 -0.0627  0.2004 -0.4505
 7268SOL    HW233264   4.463   2.211   4.343  1.4061  0.0132  0.6313
 7269SOL     OW33265   4.048   1.127  15.938  0.2861 -0.3270 -0.1886
 7269SOL    HW133266   4.098   1.141  15.858  0.2883 -0.7407 -0.2615
 7269SOL    HW233267   3.966   1.106  15.893 -0.5635 -0.7565  1.5612
 7270SOL     OW33268   1.679   0.260   7.197 -0.0380 -0.0339 -0.3892
 7270SOL    HW133269   1.681   0.356   7.201  1.9792 -0.1120  0.2754
 7270SOL    HW233270   1.586   0.253   7.173 -0.1840  1.3427 -0.2751
 7271SOL     OW33271   0.787   4.412   2.497  0.2991  0.1737  0.3170
 7271SOL    HW133272   0.793   4.435   2.405 -1.3282  0.9165  0.3882
 7271SOL    HW233273   0.694   4.393   2.504 -0.4762  4.0581  0.8015
 7272SOL     OW33274   0.911   0.518   5.292  0.3480 -0.1821 -0.6814
 7272SOL    HW133275   0.952   0.573   5.225  0.8047 -0.6495 -0.7776
 7272SOL    HW233276   0.826   0.505   5.250  0.8470  1.6637 -2.2437
 7273SOL     OW33277   2.336   4.497   9.111  0.3744 -0.2376  0.2484
 7273SOL    HW133278   2.377   4.530   9.191  1.4349 -0.0042 -0.3936
 7273SOL    HW233279   2.274   4.433   9.146  0.0251  0.0918  0.2342
 7274SOL     OW33280   3.767   0.484  15.205  0.2411  0.1454  0.4774
 7274SOL    HW133281   3.673   0.505  15.203  0.3628  0.4072 -3.1111
 7274SOL    HW233282   3.806   0.570  15.196 -0.2845  0.4023  0.6435
 7275SOL     OW33283   1.275   4.277  15.907  0.1993  0.1314 -0.7445
 7275SOL    HW133284   1.299   4.364  15.939 -0.8474  0.1746 -0.0551
 7275SOL    HW233285   1.199   4.262  15.963  0.4715  1.4113 -0.0246
 7276SOL     OW33286   4.138   1.979   4.678  0.8956  0.5411 -0.2844
 7276SOL    HW133287   4.205   1.950   4.740 -0.6598 -2.5867 -0.0849
 7276SOL    HW233288   4.093   2.038   4.739  0.4828 -0.2390  0.1617
 7277SOL     OW33289   2.195   1.815   4.833 -0.0578 -0.0093 -0.3909
 7277SOL    HW133290   2.258   1.840   4.765  1.0749  0.1267  0.7208
 7277SOL    HW233291   2.246   1.746   4.874 -2.2324 -0.6370  1.2826
 7278SOL     OW33292   2.619   0.697   8.836 -0.1199  0.0207 -0.5092
 7278SOL    HW133293   2.708   0.718   8.867 -0.0688  0.9126 -1.2708
 7278SOL    HW233294   2.637   0.699   8.742  2.0009 -0.9558 -0.1337
 7279SOL     OW33295   2.206   0.786   8.069  0.4101  0.1291  0.5262
 7279SOL    HW133296   2.279   0.781   8.130 -0.6854 -0.1015  1.8231
 7279SOL    HW233297   2.246   0.798   7.983  2.5618  2.8456  1.9160
 7280SOL     OW33298   1.762   0.264  16.800 -0.1328  0.2436 -0.4172
 7280SOL    HW133299   1.798   0.352  16.797  1.3904 -0.4550 -2.2529
 7280SOL    HW233300   1.788   0.237  16.712 -2.8779  1.5082 -1.6443
 7281SOL     OW33301   2.261   0.096   9.125  0.5528 -0.2426 -0.2146
 7281SOL    HW133302   2.209   0.078   9.203  1.4185  0.0403  0.4367
 7281SOL    HW233303   2.346   0.101   9.169  0.7482 -0.7962 -0.5295
 7282SOL     OW33304   3.760   1.981   2.031  0.5591  0.2481 -0.4266
 7282SOL    HW133305   3.731   2.063   1.992  2.5283  0.4573 -1.4386
 7282SOL    HW233306   3.847   2.003   2.065  0.8070 -0.3035 -0.6996
 7283SOL     OW33307   4.590   2.470   3.153 -0.2396  0.9023 -0.2407
 7283SOL    HW133308   4.667   2.527   3.153 -0.1729  0.8177  0.7783
 7283SOL    HW233309   4.514   2.518   3.187  0.7372  3.3766 -1.5781
 7284SOL     OW33310   1.550   3.890   5.902 -0.6544  0.3195  0.1485
 7284SOL    HW133311   1.536   3.907   5.996  0.5852  0.6569  0.2768
 7284SOL    HW233312   1.566   3.979   5.871  3.6493 -0.8312 -0.9091
 7285SOL     OW33313   4.259   1.704   7.400 -0.1648 -0.1321 -0.2282
 7285SOL    HW133314   4.300   1.717   7.314 -0.1112 -1.7359 -0.4400
 7285SOL    HW233315   4.174   1.664   7.382 -0.0566 -0.4351 -0.0591
 7286SOL     OW33316   4.429   4.666   2.883 -0.2217  0.4220  0.7663
 7286SOL    HW133317   4.404   4.703   2.798 -0.8766  0.1354  0.8305
 7286SOL    HW233318   4.522   4.646   2.871 -0.3335  1.2031 -1.5101
 7287SOL     OW33319   1.760   0.976  15.010 -0.0862  0.1896 -0.5890
 7287SOL    HW133320   1.756   1.071  14.999  0.6960  0.3220  0.3361
 7287SOL    HW233321   1.813   0.945  14.936 -1.9651 -3.8058 -0.2586
 7288SOL     OW33322   4.111   0.235   6.134  0.7386  0.1035  0.4320
 7288SOL    HW133323   4.173   0.306   6.150 -0.9902  1.7682 -0.1271
 7288SOL    HW233324   4.163   0.155   6.140 -3.1423 -2.5370 -1.1582
 7289SOL     OW33325   0.872   4.495   8.333  0.5015  0.1722 -0.1905
 7289SOL    HW133326   0.935   4.501   8.404  2.5251  0.1002 -1.9922
 7289SOL    HW233327   0.883   4.407   8.297  0.9278 -0.0562  0.5166
 7290SOL     OW33328   2.574   4.009  10.187  0.2978  0.3069 -0.1689
 7290SOL    HW133329   2.522   3.929  10.189 -0.7878  1.0438  1.1810
 7290SOL    HW233330   2.515   4.083  10.202  0.7057  0.6731 -0.3737
 7291SOL     OW33331   4.031   3.816  16.756 -0.8630  0.1583 -0.0182
 7291SOL    HW133332   4.044   3.734  16.708  1.3867  0.7401 -0.3839
 7291SOL    HW233333   4.005   3.872  16.683  0.7198  0.6148 -0.2247
 7292SOL     OW33334   1.096   2.504   6.513 -0.0526  0.1997  0.3301
 7292SOL    HW133335   1.009   2.544   6.517 -0.9272 -1.5686 -1.1332
 7292SOL    HW233336   1.097   2.454   6.432 -2.3574 -0.3070  0.6241
 7293SOL     OW33337   4.404   3.747   6.028 -0.0887  0.2775  0.0733
 7293SOL    HW133338   4.452   3.673   6.064  3.2591  2.4328  0.0733
 7293SOL    HW233339   4.329   3.707   5.983  1.0980 -1.7429 -0.0751
 7294SOL     OW33340   3.483   1.211   1.234  0.0322 -0.1579 -0.3779
 7294SOL    HW133341   3.513   1.216   1.325 -1.7605 -0.3086  0.2295
 7294SOL    HW233342   3.483   1.300   1.199 -1.2932 -0.2683 -0.6564
 7295SOL     OW33343   2.049   3.688  12.361 -0.4517 -0.5057  0.0260
 7295SOL    HW133344   1.980   3.736  12.315 -0.4406 -0.0276  0.5073
 7295SOL    HW233345   2.035   3.720  12.451 -0.9123 -0.4312 -0.0724
 7296SOL     OW33346   0.953   2.654  14.042  0.0599  0.0632  0.2249
 7296SOL    HW133347   0.899   2.725  14.077  1.0074 -0.2164  2.3033
 7296SOL    HW233348   0.949   2.657  13.947  0.3521 -1.7048  0.1575
 7297SOL     OW33349   1.579   4.326  11.654 -0.2874 -0.5816  0.6306
 7297SOL    HW133350   1.487   4.310  11.636 -0.9303  1.4140  2.2862
 7297SOL    HW233351   1.590   4.411  11.611 -0.5023  0.6815  3.0731
 7298SOL     OW33352   1.305   4.611   3.240  0.0093 -0.4358  0.0349
 7298SOL    HW133353   1.331   4.699   3.214  2.9770 -1.3521 -0.1162
 7298SOL    HW233354   1.382   4.592   3.294 -0.6383 -0.6055  0.8949
 7299SOL     OW33355   3.386   0.998   4.164 -0.0594 -0.4742 -0.3916
 7299SOL    HW133356   3.358   0.987   4.255  0.4544 -0.4011 -0.2258
 7299SOL    HW233357   3.323   0.947   4.112  2.3599 -1.7714 -2.0607
 7300SOL     OW33358   4.610   4.117   0.377 -0.2931 -0.6234 -0.1000
 7300SOL    HW133359   4.549   4.160   0.437 -0.8720 -0.3756 -0.8683
 7300SOL    HW233360   4.694   4.144   0.414 -0.5197 -0.1963  0.1057
 7301SOL     OW33361   3.786   1.753  10.377  0.5876 -0.4770 -0.4586
 7301SOL    HW133362   3.720   1.753  10.447  1.1942  0.3830  0.1138
 7301SOL    HW233363   3.733   1.737  10.299 -1.0624 -1.1504  0.8007
 7302SOL     OW33364   1.231   1.067   6.998 -0.0019 -0.5728  0.1324
 7302SOL    HW133365   1.157   1.031   7.047 -1.4409  3.0499  0.6980
 7302SOL    HW233366   1.206   1.045   6.908 -0.4384 -0.1979  0.1562
 7303SOL     OW33367   2.990   0.198   1.042 -0.5894  0.2177  0.1288
 7303SOL    HW133368   2.916   0.151   1.005  0.1552  0.0734 -1.1475
 7303SOL    HW233369   3.021   0.128   1.099 -0.3979 -2.1517 -2.9485
 7304SOL     OW33370   3.351   3.656  11.522 -0.1009  0.1705 -0.1997
 7304SOL    HW133371   3.336   3.740  11.566  0.4989  0.1920 -0.0382
 7304SOL    HW233372   3.303   3.677  11.442  1.2233  0.9100 -0.7919
 7305SOL     OW33373   1.263   3.450   4.463  0.1592 -0.4994 -0.0853
 7305SOL    HW133374   1.335   3.430   4.523 -0.4459  0.0560  0.8169
 7305SOL    HW233375   1.310   3.504   4.398 -0.1532 -0.2366 -0.0948
 7306SOL     OW33376   2.893   4.024   2.639  0.2166  0.2116  0.3927
 7306SOL    HW133377   2.957   3.961   2.605 -1.0402 -0.8201 -0.0821
 7306SOL    HW233378   2.835   4.038   2.564  1.6074 -0.0573 -0.7313
 7307SOL     OW33379   3.558   1.517   8.539  0.0047  0.0620  0.3204
 7307SOL    HW133380   3.508   1.485   8.464 -1.8864 -2.3948  2.6256
 7307SOL    HW233381   3.646   1.524   8.500 -0.2358  0.6205 -0.1198
 7308SOL     OW33382   0.865   3.379   4.144  0.2154  0.0889 -0.0886
 7308SOL    HW133383   0.900   3.355   4.058  2.6202 -1.4110  1.3188
 7308SOL    HW233384   0.810   3.302   4.160  2.0213 -1.0522  0.5958
 7309SOL     OW33385   1.521   2.342   3.164 -0.1982  0.5916 -0.1020
 7309SOL    HW133386   1.579   2.319   3.091 -0.5198 -1.4718  0.2888
 7309SOL    HW233387   1.578   2.322   3.238 -1.5794 -1.1599  0.4993
 7310SOL     OW33388   2.149   2.349   1.356 -0.4741  0.1636  0.4053
 7310SOL    HW133389   2.168   2.405   1.431 -2.4570  0.3371  0.7726
 7310SOL    HW233390   2.225   2.370   1.303  0.5682  0.4825  2.0237
 7311SOL     OW33391   3.550   3.518   1.956 -0.4686 -0.7217 -0.3181
 7311SOL    HW133392   3.511   3.495   1.871 -0.8717  1.5075 -0.7216
 7311SOL    HW233393   3.605   3.440   1.967 -1.4999 -1.4119 -0.0035
 7312SOL     OW33394   0.292   1.578  11.509 -0.3011 -0.0911  0.4384
 7312SOL    HW133395   0.271   1.500  11.561 -0.8355  0.7431  1.4742
 7312SOL    HW233396   0.359   1.532  11.458 -0.4744  1.3315 -1.0642
 7313SOL     OW33397   0.709   2.551   0.743  0.0174  0.1368 -0.0089
 7313SOL    HW133398   0.713   2.606   0.665  0.0393 -1.5529 -1.2196
 7313SOL    HW233399   0.760   2.473   0.719  0.6739  0.0621  1.6255
 7314SOL     OW33400   0.925   0.901  13.906 -0.4150  0.3842  0.0915
 7314SOL    HW133401   0.892   0.942  13.986  0.7890  0.2228  0.6775
 7314SOL    HW233402   1.019   0.899  13.926 -0.5470 -2.4204  0.4611
 7315SOL     OW33403   1.700   4.207   5.184  0.4917  0.3716 -0.5161
 7315SOL    HW133404   1.606   4.221   5.175  0.4466  0.5886  0.3300
 7315SOL    HW233405   1.718   4.134   5.125 -1.0641 -0.5097  0.1041
 7316SOL     OW33406   1.749   0.975  13.000  0.3458  0.0596  0.4689
 7316SOL    HW133407   1.697   1.036  12.948  0.7746  0.5723  0.6314
 7316SOL    HW233408   1.831   1.001  12.958  1.0163 -0.8856  1.1980
 7317SOL     OW33409   1.681   4.030   7.448  0.2444 -0.4725  0.1828
 7317SOL    HW133410   1.710   4.084   7.374 -1.5769  1.0705  0.5745
 7317SOL    HW233411   1.745   4.057   7.514  0.0238  2.4700 -0.7868
 7318SOL     OW33412   0.020   1.708   9.576  0.4831  0.4339  0.4174
 7318SOL    HW133413   0.094   1.687   9.633 -0.4838 -3.2969  0.2842
 7318SOL    HW233414   0.035   1.803   9.569  1.6291  0.2507  0.3313
 7319SOL     OW33415   3.628   3.683  16.772  0.1703 -0.6899 -0.1661
 7319SOL    HW133416   3.573   3.613  16.738  2.2902 -1.7361 -1.4368
 7319SOL    HW233417   3.687   3.645  16.837 -0.9683 -1.5009  0.3880
 7320SOL     OW33418   4.595   1.011   3.289 -0.5956 -0.1441 -0.1082
 7320SOL    HW133419   4.585   0.982   3.198  0.9513  0.3701 -0.4367
 7320SOL    HW233420   4.529   0.957   3.332 -0.4350 -0.4460 -0.2408
 7321SOL     OW33421   3.009   2.179   4.492  0.2117  0.1429  0.2437
 7321SOL    HW133422   3.100   2.152   4.482 -0.1755 -1.3376  0.7677
 7321SOL    HW233423   3.014   2.268   4.457 -1.9949 -1.4788 -4.2082
 7322SOL     OW33424   1.586   0.004  17.108  0.4328 -0.6130  0.2757
 7322SOL    HW133425   1.618   4.637  17.117 -0.5005 -1.0099 -0.4823
 7322SOL    HW233426   1.558   0.027  17.197 -2.6951  0.4875 -0.9999
 7323SOL     OW33427   0.404   3.776   4.788  0.2013  0.0488  0.2806
 7323SOL    HW133428   0.342   3.757   4.858 -0.3298  1.8594  0.3041
 7323SOL    HW233429   0.343   3.796   4.717  1.5547 -0.3031 -0.9783
 7324SOL     OW33430   3.284   2.713   4.699 -0.2970 -0.3250 -0.4755
 7324SOL    HW133431   3.274   2.739   4.608 -1.3976 -1.8275 -0.7689
 7324SOL    HW233432   3.370   2.748   4.723 -0.3067 -0.5630 -0.0782
 7325SOL     OW33433   3.652   1.543  10.063  0.4659  0.1778  0.8477
 7325SOL    HW133434   3.722   1.535   9.998  0.3227  1.9273  0.4868
 7325SOL    HW233435   3.579   1.504  10.015  0.3259  1.1511  0.2618
 7326SOL     OW33436   4.308   3.965   7.448 -0.0202 -0.1586 -0.0086
 7326SOL    HW133437   4.347   3.964   7.535  0.9704 -0.4999 -0.4505
 7326SOL    HW233438   4.229   4.012   7.475  0.3425 -0.1231  0.9964
 7327SOL     OW33439   3.219   0.149   9.375 -0.0587 -0.6736  0.2000
 7327SOL    HW133440   3.145   0.206   9.355 -0.1651 -1.7775 -2.4822
 7327SOL    HW233441   3.281   0.208   9.419 -1.3171  0.2548  0.7357
 7328SOL     OW33442   3.241   0.073   7.222 -0.2824 -0.0469  0.2779
 7328SOL    HW133443   3.223   4.723   7.282 -0.1851  0.1064  0.4966
 7328SOL    HW233444   3.250   0.022   7.142  0.2893 -0.7783  0.8114
 7329SOL     OW33445   0.864   1.861   9.368 -0.5412  0.1312  0.2819
 7329SOL    HW133446   0.777   1.899   9.354 -0.5717 -0.2545 -0.5943
 7329SOL    HW233447   0.843   1.825   9.454 -0.0079 -1.1023 -0.1158
 7330SOL     OW33448   1.174   1.347   1.741  0.0339 -0.0541 -0.8255
 7330SOL    HW133449   1.110   1.282   1.713 -0.5858 -1.7429  4.6187
 7330SOL    HW233450   1.190   1.331   1.833 -0.2618  2.6694 -0.2776
 7331SOL     OW33451   3.849   1.206   6.733 -0.4205 -0.2943  0.2094
 7331SOL    HW133452   3.766   1.160   6.720 -1.7919  1.9279  1.0199
 7331SOL    HW233453   3.870   1.235   6.644  1.3751 -0.8533  0.4615
 7332SOL     OW33454   3.225   0.464   4.765 -0.5110  0.1731 -0.4054
 7332SOL    HW133455   3.306   0.515   4.774 -1.0812  1.2768 -1.5217
 7332SOL    HW233456   3.245   0.394   4.827 -0.5161  0.2242 -0.3459
 7333SOL     OW33457   0.379   3.835  15.719 -0.2393 -0.7392  0.4446
 7333SOL    HW133458   0.451   3.816  15.658  1.5292  1.6324  1.8113
 7333SOL    HW233459   0.400   3.927  15.731  0.6397 -0.7294 -1.1264
 7334SOL     OW33460   3.160   4.073   6.366 -0.2164 -0.6976 -0.0578
 7334SOL    HW133461   3.200   3.987   6.352  2.7523  0.5675  0.6180
 7334SOL    HW233462   3.090   4.053   6.428  0.9634 -0.2761  1.4455
 7335SOL     OW33463   1.920   0.633   3.867 -0.5336 -0.0073 -0.0525
 7335SOL    HW133464   1.897   0.561   3.809  2.8426 -0.6626 -0.5599
 7335SOL    HW233465   1.999   0.595   3.904 -1.1979 -1.4664 -0.1163
 7336SOL     OW33466   0.586   1.934   3.023  0.8181 -0.2378 -0.2521
 7336SOL    HW133467   0.558   2.024   3.042  1.6810  0.1471 -0.8304
 7336SOL    HW233468   0.517   1.884   3.066 -0.0695  0.8113 -0.4300
 7337SOL     OW33469   0.372   1.772   7.369  0.0154 -0.4327 -0.0763
 7337SOL    HW133470   0.331   1.795   7.452  2.4748  0.5864  0.8225
 7337SOL    HW233471   0.413   1.857   7.352 -0.3438  0.0401  1.4373
 7338SOL     OW33472   0.306   4.037   9.924 -0.0049  0.6287  0.1546
 7338SOL    HW133473   0.319   3.947   9.892 -1.0530  1.2970 -2.1704
 7338SOL    HW233474   0.295   4.091   9.845 -0.8105  0.1669 -0.0547
 7339SOL     OW33475   4.338   1.313   3.679 -0.1083  0.0188  0.6697
 7339SOL    HW133476   4.378   1.253   3.616 -1.0645 -0.4815  0.5363
 7339SOL    HW233477   4.324   1.393   3.629  1.0293 -1.1265 -1.4668
 7340SOL     OW33478   1.247   0.259  14.028 -0.1321  0.5218 -0.2707
 7340SOL    HW133479   1.216   0.295  14.111 -2.2989  1.3264 -1.4238
 7340SOL    HW233480   1.216   0.169  14.036 -0.2129  0.2231 -3.8238
 7341SOL     OW33481   2.507   1.241   2.807 -0.0966 -0.3208  0.1812
 7341SOL    HW133482   2.490   1.308   2.874 -0.2121 -0.0802 -0.0874
 7341SOL    HW233483   2.445   1.264   2.738 -1.4090 -1.1954  1.0659
 7342SOL     OW33484   0.280   2.996   1.100  0.1581  0.0401  0.3484
 7342SOL    HW133485   0.356   2.950   1.137  0.7314  2.3501  2.0131
 7342SOL    HW233486   0.336   3.050   1.044  0.1176  0.7187  0.9788
 7343SOL     OW33487   4.188   4.598   7.326  1.1903  0.2210  0.0615
 7343SOL    HW133488   4.261   4.659   7.339  2.0069 -0.7575  0.0747
 7343SOL    HW233489   4.162   4.576   7.416  1.8006 -0.7139  0.0125
 7344SOL     OW33490   1.090   2.822   0.296 -0.3549  0.4851  0.3521
 7344SOL    HW133491   1.137   2.864   0.368  1.3992  0.5903 -0.8669
 7344SOL    HW233492   1.152   2.751   0.282 -1.8837 -0.6865 -0.5148
 7345SOL     OW33493   2.799   0.531   3.924 -0.2384 -0.4560 -0.0949
 7345SOL    HW133494   2.778   0.461   3.863 -2.0841  1.4624 -1.6837
 7345SOL    HW233495   2.873   0.566   3.873 -0.2581 -0.8558 -0.3921
 7346SOL     OW33496   2.101   3.404  10.187 -0.3461 -0.6202 -0.3617
 7346SOL    HW133497   2.044   3.341  10.143  0.9743 -1.4867 -0.8405
 7346SOL    HW233498   2.061   3.398  10.273 -1.8556  0.7056 -0.9801
 7347SOL     OW33499   2.373   2.728   6.807 -0.0824 -1.1205  0.2741
 7347SOL    HW133500   2.362   2.791   6.736  0.3174 -1.5069 -0.1398
 7347SOL    HW233501   2.280   2.725   6.829 -0.0958 -2.2084  0.0769
 7348SOL     OW33502   1.888   2.194   3.102  0.4075 -0.3552  0.3494
 7348SOL    HW133503   1.833   2.204   3.179 -0.3020  0.4363 -0.2695
 7348SOL    HW233504   1.828   2.147   3.043  0.8099  1.7890 -1.7540
 7349SOL     OW33505   4.316   3.994   6.161  0.3659 -0.1089  0.2049
 7349SOL    HW133506   4.367   3.921   6.127 -0.4687 -0.5920  0.0098
 7349SOL    HW233507   4.383   4.063   6.166  1.1611 -0.7521 -1.5590
 7350SOL     OW33508   3.536   2.632  14.766 -0.0929 -0.3313 -0.2351
 7350SOL    HW133509   3.514   2.716  14.727  1.4024  0.8174  1.4210
 7350SOL    HW233510   3.565   2.595  14.682 -1.7706 -1.9309 -0.1057
 7351SOL     OW33511   0.326   0.304   4.605 -0.2500 -0.2200 -0.6320
 7351SOL    HW133512   0.233   0.326   4.605  0.7369  3.9260  0.1504
 7351SOL    HW233513   0.343   0.320   4.513 -2.9214  0.7918 -0.9531
 7352SOL     OW33514   2.102   2.734   7.084  0.2851 -0.2626 -0.0681
 7352SOL    HW133515   2.022   2.702   7.126  1.1527 -1.8278  0.3812
 7352SOL    HW233516   2.063   2.784   7.012 -0.4814 -0.9584 -0.1428
 7353SOL     OW33517   3.374   3.287   2.601  0.3035 -0.8889  0.0018
 7353SOL    HW133518   3.401   3.359   2.657 -2.7421  1.0958 -1.0646
 7353SOL    HW233519   3.301   3.257   2.655 -0.0438  1.9780  1.1097
 7354SOL     OW33520   0.339   2.580   4.736 -0.1388  0.9048 -0.1516
 7354SOL    HW133521   0.331   2.654   4.796  1.2097  2.1651 -1.5228
 7354SOL    HW233522   0.398   2.626   4.676 -0.3009  0.5511 -0.5797
 7355SOL     OW33523   0.789   0.578   4.783  0.4085  0.8698  0.1741
 7355SOL    HW133524   0.760   0.531   4.705 -2.0679  1.2796  0.8534
 7355SOL    HW233525   0.739   0.659   4.789 -0.6692  0.0198  2.3262
 7356SOL     OW33526   1.874   4.299   3.206 -0.4493 -0.5053  0.1909
 7356SOL    HW133527   1.857   4.217   3.161 -0.0097 -0.2773 -0.3847
 7356SOL    HW233528   1.905   4.262   3.289 -3.0433  0.4831  1.5834
 7357SOL     OW33529   4.215   0.739   7.065  0.3882 -0.1087  0.1327
 7357SOL    HW133530   4.200   0.802   7.135  0.4482  0.1693 -0.1051
 7357SOL    HW233531   4.310   0.749   7.064  0.6282 -2.2497  1.1877
 7358SOL     OW33532   2.385   3.585   9.271 -0.4913 -0.1211 -0.7811
 7358SOL    HW133533   2.430   3.569   9.354  0.2157  2.0360 -0.7631
 7358SOL    HW233534   2.453   3.604   9.207  0.8193  0.2044  0.6883
 7359SOL     OW33535   1.655   0.978   7.389  0.0328  0.2189 -0.2661
 7359SOL    HW133536   1.631   1.071   7.382 -0.0141  0.1325 -1.2734
 7359SOL    HW233537   1.729   0.987   7.449 -0.1315  1.6374 -0.2639
 7360SOL     OW33538   1.601   3.691  11.036 -0.3508 -0.0662 -0.0788
 7360SOL    HW133539   1.682   3.665  10.992  0.3505  0.4087  0.9250
 7360SOL    HW233540   1.584   3.767  10.980 -1.1130 -0.3817 -0.2691
 7361SOL     OW33541   1.950   4.025   4.244  0.1308 -0.7451  0.2525
 7361SOL    HW133542   1.872   4.004   4.297 -1.6233  1.1246 -1.5847
 7361SOL    HW233543   2.026   4.014   4.301 -0.2917  2.4609  1.4736
 7362SOL     OW33544   4.304   3.140   4.660 -0.1612  0.2970 -0.3026
 7362SOL    HW133545   4.240   3.107   4.598 -0.0519  2.6515 -1.7070
 7362SOL    HW233546   4.375   3.184   4.613 -0.9318  1.0136 -0.8087
 7363SOL     OW33547   2.328   4.201   1.621 -0.5663  0.2976 -0.5522
 7363SOL    HW133548   2.260   4.268   1.636 -2.1931 -1.4031 -0.3983
 7363SOL    HW233549   2.403   4.231   1.672  0.0054  0.5714 -1.5523
 7364SOL     OW33550   1.653   0.012   8.962 -0.0114  0.3516 -1.0208
 7364SOL    HW133551   1.708   4.679   8.908  1.5070  1.7442 -0.9530
 7364SOL    HW233552   1.591   0.039   8.895  0.2879 -0.3524 -1.5784
 7365SOL     OW33553   2.302   0.739  10.416  0.6739 -0.0598 -0.1577
 7365SOL    HW133554   2.360   0.748  10.492  1.8652  1.0273 -1.1888
 7365SOL    HW233555   2.233   0.692  10.463  0.9122 -0.1635  0.0876
 7366SOL     OW33556   2.135   2.301   0.924 -0.4478 -0.1160 -0.1503
 7366SOL    HW133557   2.096   2.336   1.004 -0.7541 -2.6333  0.7974
 7366SOL    HW233558   2.129   2.376   0.865  1.6386  0.1819  0.0032
 7367SOL     OW33559   2.195   1.745   5.327 -0.5208 -0.6018 -0.5792
 7367SOL    HW133560   2.275   1.784   5.362 -1.0876  0.5264 -0.5224
 7367SOL    HW233561   2.157   1.816   5.275  2.1294  2.7072  1.9918
 7368SOL     OW33562   3.013   2.156   6.666 -0.4086 -0.2408  0.0552
 7368SOL    HW133563   2.984   2.204   6.744 -0.1976  1.6129 -1.0038
 7368SOL    HW233564   2.943   2.173   6.603  0.4780 -1.3968 -1.2249
 7369SOL     OW33565   0.214   1.634   7.111  0.3673 -0.1543 -0.1918
 7369SOL    HW133566   0.218   1.609   7.018 -1.1328 -1.5415  0.1110
 7369SOL    HW233567   0.129   1.598   7.138  0.8332 -0.3298  1.0374
 7370SOL     OW33568   3.060   0.110   4.110 -0.4104  0.2022  0.5039
 7370SOL    HW133569   3.004   0.104   4.188 -0.3035  3.2602  0.8419
 7370SOL    HW233570   3.136   0.061   4.138 -0.8678 -1.4520 -1.1969
 7371SOL     OW33571   0.771   3.079   8.752 -0.2670  0.7215  0.5140
 7371SOL    HW133572   0.808   3.082   8.663 -0.1599  0.5722  0.5526
 7371SOL    HW233573   0.847   3.060   8.806  0.3617 -0.9461 -0.9543
 7372SOL     OW33574   0.609   3.348  12.924 -0.2856 -0.0774  0.4543
 7372SOL    HW133575   0.566   3.394  12.995  1.8885  1.0174  1.0582
 7372SOL    HW233576   0.672   3.410  12.888  1.2420 -1.7158  0.2942
 7373SOL     OW33577   3.182   1.108   7.944  0.3543 -0.4720  0.1444
 7373SOL    HW133578   3.167   1.112   7.849  0.3813  0.5801  0.1890
 7373SOL    HW233579   3.100   1.140   7.982  0.5590 -0.0781  0.2465
 7374SOL     OW33580   1.130   1.822   6.393  0.2108  0.2900  0.5459
 7374SOL    HW133581   1.093   1.884   6.456  1.9929  2.1709 -0.2480
 7374SOL    HW233582   1.221   1.822   6.425 -0.4654 -2.9366  2.5072
 7375SOL     OW33583   3.520   0.188   4.922 -0.3057  0.1549 -0.3168
 7375SOL    HW133584   3.582   0.255   4.951 -0.1937  0.0314 -0.2697
 7375SOL    HW233585   3.439   0.238   4.918 -0.5296 -0.2698 -1.1037
 7376SOL     OW33586   1.813   1.120   5.065 -0.4215 -0.1662  0.3709
 7376SOL    HW133587   1.832   1.073   4.983 -3.5445 -0.2926 -0.2625
 7376SOL    HW233588   1.896   1.167   5.074 -0.9703  0.8786  0.0139
 7377SOL     OW33589   0.600   0.918  12.796 -0.1705 -0.5582 -0.1982
 7377SOL    HW133590   0.525   0.944  12.850  0.4092  1.6130 -0.4241
 7377SOL    HW233591   0.634   1.005  12.775  1.7125 -1.4168 -0.6759
 7378SOL     OW33592   3.063   0.899   7.348  0.8529 -0.3374 -0.3931
 7378SOL    HW133593   3.100   0.908   7.436  5.0647  2.6390 -2.4717
 7378SOL    HW233594   2.971   0.905   7.371  0.9526  2.2720 -0.7476
 7379SOL     OW33595   4.659   2.055  12.930  0.6060 -0.3745  0.2645
 7379SOL    HW133596   4.611   2.115  12.872  0.3000 -0.0235  0.8866
 7379SOL    HW233597   0.028   2.079  12.921  0.1956  1.2317  0.3087
 7380SOL     OW33598   1.026   2.336   5.269  0.7710  0.1435 -0.0214
 7380SOL    HW133599   0.946   2.358   5.316  0.0695  1.0764 -1.6518
 7380SOL    HW233600   1.085   2.401   5.307  0.9411  0.6165 -1.0818
 7381SOL     OW33601   4.653   0.112   9.081 -0.0752 -0.1653  0.2289
 7381SOL    HW133602   0.022   0.084   9.080 -0.2745 -0.8674  1.0595
 7381SOL    HW233603   4.609   0.035   9.047 -2.6409  1.8595 -1.0403
 7382SOL     OW33604   1.658   0.454   8.046 -0.1657 -0.4110  0.0642
 7382SOL    HW133605   1.704   0.536   8.030 -2.0788  0.3026 -1.8209
 7382SOL    HW233606   1.615   0.431   7.963  0.4166  2.2379 -0.9646
 7383SOL     OW33607   4.687   0.179   4.247  0.3671  0.4553  0.7860
 7383SOL    HW133608   4.638   0.103   4.215  2.5879  0.7071 -3.1835
 7383SOL    HW233609   0.053   0.151   4.223  0.2277  0.2278  0.5370
 7384SOL     OW33610   0.443   0.255   2.794 -0.6599 -0.4872  0.3541
 7384SOL    HW133611   0.406   0.309   2.864 -2.1748 -0.5775 -0.3800
 7384SOL    HW233612   0.489   0.329   2.754  1.1246 -1.2805  0.9019
 7385SOL     OW33613   4.439   3.504   7.239  0.1384  0.3339 -0.1456
 7385SOL    HW133614   4.459   3.598   7.242  0.0985  0.3602 -0.8071
 7385SOL    HW233615   4.527   3.467   7.234 -0.1258 -0.1187 -1.3845
 7386SOL     OW33616   1.909   3.136   6.917 -0.4480  1.0788 -0.3334
 7386SOL    HW133617   1.819   3.133   6.948 -0.1687 -0.8735  0.2525
 7386SOL    HW233618   1.898   3.174   6.829 -0.8468  3.7184  0.8600
 7387SOL     OW33619   4.641   1.423   6.842  0.3328  0.3669  0.2082
 7387SOL    HW133620   4.615   1.332   6.858  1.2630  0.6841  3.6019
 7387SOL    HW233621   4.596   1.438   6.759 -0.2609  0.2466  0.5063
 7388SOL     OW33622   3.037   1.271   5.684 -0.0029  0.3497  0.2535
 7388SOL    HW133623   3.033   1.187   5.639 -1.2416  0.7654 -0.4481
 7388SOL    HW233624   3.015   1.239   5.771 -1.1317 -0.0668 -0.1822
 7389SOL     OW33625   2.442   2.562   6.369  0.3063 -0.1191  0.4083
 7389SOL    HW133626   2.363   2.604   6.404  0.6964 -0.4772  1.7419
 7389SOL    HW233627   2.507   2.574   6.438  0.5842  0.5001  0.0357
 7390SOL     OW33628   0.162   2.445  12.971 -0.3809 -0.0842 -0.1673
 7390SOL    HW133629   0.145   2.352  12.988  1.0240 -0.7541 -2.4860
 7390SOL    HW233630   0.258   2.443  12.967 -0.3817  0.9361 -0.7191
 7391SOL     OW33631   1.637   0.104   4.160 -0.7386 -0.6706 -0.5750
 7391SOL    HW133632   1.644   0.009   4.163  1.1479 -0.4850  0.9727
 7391SOL    HW233633   1.566   0.122   4.223  0.0295  0.5917 -0.0620
 7392SOL     OW33634   4.070   4.284  15.215  0.0540 -0.1385  0.2033
 7392SOL    HW133635   4.026   4.369  15.228  2.6352  1.1369  0.5246
 7392SOL    HW233636   4.071   4.268  15.121 -1.6751 -2.5877  0.5814
 7393SOL     OW33637   3.035   4.400  10.845 -0.3144  0.5205 -0.1930
 7393SOL    HW133638   3.117   4.398  10.896 -0.7678  0.0122  0.5205
 7393SOL    HW233639   2.981   4.337  10.894  2.1917 -1.5607 -0.0935
 7394SOL     OW33640   3.990   2.395  15.482 -0.5387 -0.1733 -0.3648
 7394SOL    HW133641   3.898   2.402  15.458 -0.1333  0.5933 -1.6743
 7394SOL    HW233642   4.019   2.448  15.408  0.5322  0.4556  0.5158
 7395SOL     OW33643   1.922   4.161   2.057 -0.0813  0.7309  0.0191
 7395SOL    HW133644   1.935   4.066   2.064  0.0633  0.7693  0.2910
 7395SOL    HW233645   1.986   4.176   2.127  0.0041  1.2328 -0.1639
 7396SOL     OW33646   3.237   3.375   4.151 -0.2340 -0.1963 -0.1114
 7396SOL    HW133647   3.273   3.287   4.140 -0.2015 -0.3013  0.8045
 7396SOL    HW233648   3.283   3.413   4.076 -0.1639 -0.1461 -0.0440
 7397SOL     OW33649   4.193   3.398   2.627  0.3330  0.5496  0.3541
 7397SOL    HW133650   4.274   3.401   2.577  0.3993 -0.9073  0.3615
 7397SOL    HW233651   4.144   3.456   2.569 -0.1087  0.4709  0.6491
 7398SOL     OW33652   1.415   0.760  13.256  0.0335  0.0361  0.4357
 7398SOL    HW133653   1.440   0.849  13.279  3.7257 -1.3210  1.8054
 7398SOL    HW233654   1.498   0.730  13.218  0.0107 -0.0577  0.4583
 7399SOL     OW33655   3.765   2.718  17.218 -0.0536  0.4328  0.4384
 7399SOL    HW133656   3.789   2.798  17.264 -1.6465  0.8032  0.6161
 7399SOL    HW233657   3.816   2.658  17.273 -1.3415  0.3209  1.5014
 7400SOL     OW33658   1.615   0.044  11.755  0.2399  0.5963  0.6031
 7400SOL    HW133659   1.627   0.018  11.846  0.8580 -1.3068 -0.0140
 7400SOL    HW233660   1.542   0.105  11.768  0.0798  0.6230 -0.3575
 7401SOL     OW33661   4.713   0.299   5.642  0.5923  0.2815  0.2002
 7401SOL    HW133662   4.713   0.268   5.552 -0.8224  0.1947  0.2207
 7401SOL    HW233663   4.657   0.376   5.634  0.8283  0.4643  0.3130
 7402SOL     OW33664   4.379   0.960   6.119  0.2730  0.1828  0.2107
 7402SOL    HW133665   4.473   0.972   6.124  0.2688  1.1648 -2.4922
 7402SOL    HW233666   4.369   1.003   6.034 -0.5312 -0.5048 -0.0517
 7403SOL     OW33667   2.379   3.272   5.624 -0.5973  0.2927  0.5132
 7403SOL    HW133668   2.424   3.320   5.554 -0.0056 -1.4123 -0.2714
 7403SOL    HW233669   2.371   3.181   5.595 -0.9100  0.1919  0.9188
 7404SOL     OW33670   1.011   0.242   5.535 -0.0543 -0.6741  0.9221
 7404SOL    HW133671   0.957   0.193   5.598 -1.0164  0.1146  0.7036
 7404SOL    HW233672   0.945   0.305   5.506 -0.0500 -0.4839  1.3250
 7405SOL     OW33673   3.990   1.341   4.544  0.2513 -0.3246  0.3364
 7405SOL    HW133674   3.957   1.311   4.459  0.7965  1.4465 -0.4969
 7405SOL    HW233675   4.073   1.296   4.529 -0.1885 -0.9472 -0.2362
 7406SOL     OW33676   0.835   1.157  12.920  0.1507  0.6326  0.4956
 7406SOL    HW133677   0.901   1.117  12.864 -0.7081  1.5917 -1.1841
 7406SOL    HW233678   0.884   1.180  13.000 -0.8233  2.7395  0.4962
 7407SOL     OW33679   1.564   2.596   7.748 -0.0674 -0.2031 -0.2976
 7407SOL    HW133680   1.504   2.570   7.818 -2.0263  3.4749 -0.6051
 7407SOL    HW233681   1.642   2.547   7.772 -0.5191 -0.2639  1.0257
 7408SOL     OW33682   1.261   1.747   2.264 -0.4673 -0.4365  0.3682
 7408SOL    HW133683   1.334   1.695   2.295  0.2188 -0.0882 -0.6744
 7408SOL    HW233684   1.190   1.718   2.323 -1.0983 -1.6663 -1.0047
 7409SOL     OW33685   1.742   3.456   6.520  0.2796  0.1120 -0.1815
 7409SOL    HW133686   1.755   3.438   6.427 -0.8789 -2.1475  0.0846
 7409SOL    HW233687   1.754   3.551   6.520  1.7213 -0.0531 -3.3679
 7410SOL     OW33688   1.607   3.478   4.221 -0.0908  0.6008  0.1833
 7410SOL    HW133689   1.653   3.519   4.148 -0.3430 -0.5778 -0.6499
 7410SOL    HW233690   1.639   3.538   4.288  2.2361 -0.9696  0.4936
 7411SOL     OW33691   0.043   2.238   1.311 -0.3173 -0.2459 -0.0002
 7411SOL    HW133692   0.079   2.234   1.223 -2.0002 -2.7504 -0.5926
 7411SOL    HW233693   0.045   2.333   1.318 -0.4114 -0.2296 -0.1953
 7412SOL     OW33694   3.365   3.623   6.953 -0.1331  0.0912  0.6233
 7412SOL    HW133695   3.296   3.557   6.950 -0.9667  1.0041 -0.3461
 7412SOL    HW233696   3.433   3.576   7.001  0.7891 -0.2448 -1.0006
 7413SOL     OW33697   2.102   1.923  10.633 -0.1299 -0.3950 -0.1348
 7413SOL    HW133698   2.153   1.859  10.683 -1.1028 -0.2604  1.0331
 7413SOL    HW233699   2.097   2.004  10.684  0.4670 -0.6755  0.3790
 7414SOL     OW33700   4.054   1.126   3.194 -0.8584  0.2437  0.0713
 7414SOL    HW133701   4.035   1.058   3.129  0.7733 -1.6868  1.6047
 7414SOL    HW233702   4.056   1.206   3.142 -2.1794  0.4871  0.3911
 7415SOL     OW33703   3.893   0.015   1.157  0.0653 -0.1437  0.2608
 7415SOL    HW133704   3.930   0.093   1.116  1.1822 -1.7224 -1.7422
 7415SOL    HW233705   3.807   0.035   1.195 -0.0153 -2.0505  1.0712
 7416SOL     OW33706   1.298   2.568   6.662  0.0500  0.0800 -0.0877
 7416SOL    HW133707   1.369   2.507   6.644 -0.5589 -0.6999  0.1981
 7416SOL    HW233708   1.238   2.543   6.592  0.4910  1.2192 -0.8814
 7417SOL     OW33709   3.344   2.435   0.370 -0.6031  0.4400  0.2474
 7417SOL    HW133710   3.374   2.462   0.457 -1.6224 -0.5266  0.8931
 7417SOL    HW233711   3.359   2.340   0.376 -0.7126  0.3014 -1.5127
 7418SOL     OW33712   1.229   4.290   3.180 -0.0860 -0.3189 -0.0001
 7418SOL    HW133713   1.225   4.377   3.219 -2.9788 -0.3833 -0.1736
 7418SOL    HW233714   1.304   4.251   3.226  0.9721 -0.4521 -1.8292
 7419SOL     OW33715   1.380   0.949   7.475  0.4144 -0.8340  0.3488
 7419SOL    HW133716   1.471   0.954   7.445  0.0335 -1.8357 -0.9912
 7419SOL    HW233717   1.387   0.959   7.570  0.5148 -1.1105  0.3716
 7420SOL     OW33718   0.053   4.255   3.410 -0.4380 -0.0476 -0.0643
 7420SOL    HW133719   0.053   4.335   3.357 -0.8924  0.1812  0.2841
 7420SOL    HW233720   0.010   4.190   3.356 -0.2000 -1.7498  1.7920
 7421SOL     OW33721   0.354   3.333   7.744 -0.1693  0.1911  0.4736
 7421SOL    HW133722   0.310   3.294   7.819 -0.9619 -0.2282 -0.2076
 7421SOL    HW233723   0.433   3.372   7.780 -1.0172  2.3057  0.0643
 7422SOL     OW33724   1.529   0.945   1.632  0.2570  0.0848  0.8200
 7422SOL    HW133725   1.568   0.874   1.582 -2.0959 -1.0619  0.5851
 7422SOL    HW233726   1.448   0.959   1.582 -0.3642 -1.0973  1.4779
 7423SOL     OW33727   1.936   3.723   3.371 -0.3554  0.9826  0.0755
 7423SOL    HW133728   1.952   3.634   3.340  0.3410  1.1399  0.0004
 7423SOL    HW233729   2.002   3.761   3.314  2.5986 -1.1555  2.1004
 7424SOL     OW33730   1.226   2.963   0.479  0.3596  0.1212  0.1944
 7424SOL    HW133731   1.206   3.052   0.450 -0.3511  0.3160  1.2735
 7424SOL    HW233732   1.320   2.966   0.498  0.0218  4.0528  1.3933
 7425SOL     OW33733   4.092   2.932   2.801  0.2046 -0.0604 -0.0997
 7425SOL    HW133734   4.182   2.919   2.833  0.4365 -1.1432 -1.1959
 7425SOL    HW233735   4.096   2.969   2.713 -0.6121 -0.6482 -0.3829
 7426SOL     OW33736   3.898   2.341   5.696  0.7001  0.0792  0.3763
 7426SOL    HW133737   3.937   2.281   5.632 -0.0931 -2.0200  1.8669
 7426SOL    HW233738   3.963   2.351   5.766  0.0869  0.6374  0.8631
 7427SOL     OW33739   2.497   3.084   4.754  0.1817 -0.0368  0.3997
 7427SOL    HW133740   2.496   3.151   4.822 -1.6465 -0.0596  0.3906
 7427SOL    HW233741   2.473   3.141   4.680  3.5713 -0.5465 -1.1306
 7428SOL     OW33742   4.198   0.254   1.295  0.3668 -0.7427 -0.3712
 7428SOL    HW133743   4.167   0.217   1.378  2.5024 -0.0387  0.7313
 7428SOL    HW233744   4.288   0.222   1.283  0.2522 -0.4138 -2.0436
 7429SOL     OW33745   1.777   2.314   9.463 -0.6449  0.0515 -0.3412
 7429SOL    HW133746   1.684   2.320   9.485 -0.7986  1.3787 -1.3106
 7429SOL    HW233747   1.769   2.337   9.370  0.2557 -1.0293 -0.6853
 7430SOL     OW33748   4.318   4.174   4.635  0.4010 -0.0971 -0.0980
 7430SOL    HW133749   4.277   4.157   4.551 -0.2466 -0.1563  0.2268
 7430SOL    HW233750   4.278   4.259   4.652 -0.5524 -0.8166  1.2908
 7431SOL     OW33751   3.397   0.991   5.278 -0.6580  0.4945 -0.4067
 7431SOL    HW133752   3.357   0.942   5.207  2.1577 -1.7224 -0.4502
 7431SOL    HW233753   3.401   1.080   5.242 -1.1357  0.9575  0.6565
 7432SOL     OW33754   3.942   4.594  14.652 -0.2576  0.1310 -0.3532
 7432SOL    HW133755   3.988   4.564  14.731  0.3159  3.5073  0.5687
 7432SOL    HW233756   3.915   4.510  14.614  0.2386  0.0477 -0.5295
 7433SOL     OW33757   2.613   2.831   2.593  0.7586  0.4617 -0.3990
 7433SOL    HW133758   2.530   2.784   2.596  1.7575 -1.4457 -3.3470
 7433SOL    HW233759   2.679   2.763   2.599 -1.5145 -1.5412  1.7231
 7434SOL     OW33760   0.891   2.789   9.212 -0.1091 -0.0669 -0.2455
 7434SOL    HW133761   0.866   2.733   9.138  2.3986 -1.5354  0.0442
 7434SOL    HW233762   0.978   2.815   9.182 -0.9053  1.0351 -1.6341
 7435SOL     OW33763   1.895   2.260   1.332  0.2522  0.4153  0.4352
 7435SOL    HW133764   1.983   2.297   1.339  1.5256 -2.3308 -1.4348
 7435SOL    HW233765   1.908   2.179   1.381  2.2354  0.8987  0.7091
 7436SOL     OW33766   4.142   1.526   3.360  0.3256 -0.2071  0.2310
 7436SOL    HW133767   4.082   1.601   3.362  0.8054  0.1744  0.0544
 7436SOL    HW233768   4.114   1.483   3.279 -1.1628  1.7534 -0.2923
 7437SOL     OW33769   3.345   1.057   2.380  0.3724  0.5379 -0.2586
 7437SOL    HW133770   3.333   1.065   2.475 -0.4729 -0.4535 -0.2960
 7437SOL    HW233771   3.280   0.992   2.357  0.5953  1.0377 -2.2827
 7438SOL     OW33772   1.498   0.226  13.946 -0.4681  0.3556 -0.4750
 7438SOL    HW133773   1.481   0.136  13.920  2.3317 -0.7376  1.5113
 7438SOL    HW233774   1.407   0.257  13.949 -1.1092 -1.5564 -0.6067
 7439SOL     OW33775   3.185   1.031   9.844 -0.4133  0.0874 -0.2248
 7439SOL    HW133776   3.149   1.060   9.760  1.2488 -2.0018 -1.6462
 7439SOL    HW233777   3.113   1.037   9.907 -0.3609 -0.5948 -0.1022
 7440SOL     OW33778   1.346   2.960   7.719  0.1032 -0.0255  0.4626
 7440SOL    HW133779   1.414   2.923   7.775  0.0309 -0.1312  0.4795
 7440SOL    HW233780   1.367   3.054   7.723 -0.9221  0.1713  1.1280
 7441SOL     OW33781   1.189   4.532   9.849 -0.4314  0.2057  0.5597
 7441SOL    HW133782   1.141   4.454   9.819 -1.1051  0.6342  0.5094
 7441SOL    HW233783   1.120   4.598   9.840 -1.9844 -1.4590  0.2003
 7442SOL     OW33784   2.955   2.282   7.292 -0.0236  0.2105 -0.2120
 7442SOL    HW133785   3.040   2.319   7.315 -0.5622  1.0713  0.4068
 7442SOL    HW233786   2.940   2.231   7.371  0.9610 -1.0580 -0.8426
 7443SOL     OW33787   1.877   4.327   9.527 -0.2312  0.5139  0.2410
 7443SOL    HW133788   1.874   4.284   9.612  1.5401  0.3976  0.2391
 7443SOL    HW233789   1.786   4.356   9.523 -0.2239  0.2738 -1.8421
 7444SOL     OW33790   4.156   0.661   0.501  0.3240  0.4609  0.4791
 7444SOL    HW133791   4.222   0.634   0.565 -0.6258  1.0980  1.7192
 7444SOL    HW233792   4.076   0.653   0.553  0.1693  1.3828  0.3870
 7445SOL     OW33793   1.060   3.740   7.711 -0.3726  0.2150  0.6115
 7445SOL    HW133794   1.143   3.781   7.686 -1.8313  2.7373 -0.1337
 7445SOL    HW233795   1.063   3.671   7.645  0.1509  0.1629  0.6884
 7446SOL     OW33796   3.207   0.400   7.826 -0.1806 -0.1867 -0.1229
 7446SOL    HW133797   3.200   0.348   7.746  0.1109  0.4378 -0.5532
 7446SOL    HW233798   3.169   0.485   7.804  0.6507 -0.5137 -2.7436
 7447SOL     OW33799   0.488   0.309   3.879 -0.5212  0.0665 -0.5820
 7447SOL    HW133800   0.478   0.215   3.888 -1.0769  0.0218 -1.5940
 7447SOL    HW233801   0.574   0.319   3.836 -0.3984 -2.9570 -1.0037
 7448SOL     OW33802   0.526   1.160   3.624  0.3670  0.3623  0.0026
 7448SOL    HW133803   0.537   1.244   3.578  1.8804  0.9969  1.5103
 7448SOL    HW233804   0.451   1.114   3.587  1.3210 -0.5090 -0.8608
 7449SOL     OW33805   0.093   1.215   6.782 -0.1395  0.6332  0.4197
 7449SOL    HW133806   0.071   1.307   6.797 -0.0593  0.3304  2.2864
 7449SOL    HW233807   0.010   1.181   6.748 -0.7528  2.0643  0.4925
 7450SOL     OW33808   1.406   2.220   0.313  0.2659  0.3891  0.6209
 7450SOL    HW133809   1.441   2.225   0.402 -0.5668  0.9641  0.9245
 7450SOL    HW233810   1.481   2.246   0.260 -0.3153  0.1690 -0.3193
 7451SOL     OW33811   1.770   4.571  12.559  0.5164  0.1881 -0.1805
 7451SOL    HW133812   1.799   4.576  12.468  2.3165 -2.1275  0.2609
 7451SOL    HW233813   1.850   4.553  12.609 -0.0092  3.0983  1.7076
 7452SOL     OW33814   0.674   3.345   7.343  0.0175  0.8806 -0.1400
 7452SOL    HW133815   0.713   3.259   7.358 -0.7301  0.5656 -0.0317
 7452SOL    HW233816   0.601   3.346   7.405 -1.1582  0.8609 -1.5160
 7453SOL     OW33817   0.901   2.544   5.775 -0.2410 -0.0610 -0.0855
 7453SOL    HW133818   0.864   2.473   5.827 -0.5956 -0.0226 -0.2835
 7453SOL    HW233819   0.988   2.555   5.815 -1.0738  0.5206  1.5360
 7454SOL     OW33820   0.351   2.137   2.520  0.2196 -0.4068  0.0765
 7454SOL    HW133821   0.361   2.152   2.426  3.9636  1.6222  0.7844
 7454SOL    HW233822   0.391   2.219   2.551 -0.5428  0.3445 -0.9703
 7455SOL     OW33823   4.043   2.814   6.241 -0.0702 -0.1937  0.1175
 7455SOL    HW133824   3.982   2.870   6.193  1.4944 -0.1721 -1.8252
 7455SOL    HW233825   4.125   2.823   6.193 -0.9165  1.6667 -0.9923
 7456SOL     OW33826   1.612   4.711   3.809  0.0413 -0.0847 -0.0661
 7456SOL    HW133827   1.536   0.031   3.849 -1.8822 -1.4657 -2.2162
 7456SOL    HW233828   1.676   0.059   3.809 -0.0388 -0.0132  0.3557
 7457SOL     OW33829   3.306   4.505   3.387  0.2118 -0.3320 -0.1866
 7457SOL    HW133830   3.354   4.448   3.327  0.9754  0.3158 -0.1896
 7457SOL    HW233831   3.361   4.584   3.389  0.9629 -0.8571  0.2379
 7458SOL     OW33832   3.882   1.070   1.597  0.3309 -0.4017  0.0151
 7458SOL    HW133833   3.862   0.984   1.634 -0.8547 -0.9295 -1.8727
 7458SOL    HW233834   3.976   1.074   1.614 -0.0010  0.1155  1.7249
 7459SOL     OW33835   0.684   4.676   5.907 -0.1034  0.6836 -0.1761
 7459SOL    HW133836   0.625   4.712   5.973 -0.2112  1.0532 -0.4748
 7459SOL    HW233837   0.620   4.645   5.843  0.7344  0.5753 -0.9511
 7460SOL     OW33838   0.575   0.395   3.226  0.7605  0.2587 -0.1374
 7460SOL    HW133839   0.504   0.336   3.251  0.0461  0.7265 -1.0793
 7460SOL    HW233840   0.536   0.462   3.170  3.1579  0.5091 -1.4993
 7461SOL     OW33841   1.933   4.299   4.209 -0.6446 -0.1645 -0.1574
 7461SOL    HW133842   1.963   4.209   4.222  0.7863  0.6593  2.1954
 7461SOL    HW233843   2.008   4.335   4.160 -0.3077 -2.6017 -1.4327
 7462SOL     OW33844   2.850   1.832   3.516  0.3672  0.5251 -0.3200
 7462SOL    HW133845   2.890   1.883   3.587 -1.1760 -1.4649  1.9852
 7462SOL    HW233846   2.902   1.752   3.514  0.4247  0.5004  1.5157
 7463SOL     OW33847   1.169   1.413  10.900 -0.1471  0.4654  0.3688
 7463SOL    HW133848   1.177   1.453  10.814  1.5917  0.3010  0.4581
 7463SOL    HW233849   1.085   1.371  10.880  0.2900  0.0329 -0.5741
 7464SOL     OW33850   0.090   2.131   8.694 -0.3301  0.5203 -0.5035
 7464SOL    HW133851   0.160   2.089   8.743 -1.0819  0.1646  0.2800
 7464SOL    HW233852   0.027   2.058   8.688  0.1176  0.2120 -1.4533
 7465SOL     OW33853   1.719   4.363  10.222  0.1457  0.3709 -0.8132
 7465SOL    HW133854   1.747   4.275  10.245  1.2399  0.6061 -1.2688
 7465SOL    HW233855   1.716   4.404  10.309 -0.0698 -0.4174 -0.4536
 7466SOL     OW33856   4.601   4.508  10.361 -0.1530 -0.0551  0.0010
 7466SOL    HW133857   4.576   4.426  10.402 -1.4253  0.1509 -0.3638
 7466SOL    HW233858   4.646   4.478  10.281  1.3513  0.0865  0.7907
 7467SOL     OW33859   3.924   2.663  17.015 -0.1815 -0.2316 -0.3952
 7467SOL    HW133860   3.922   2.567  17.013 -2.0759 -0.1763 -0.3181
 7467SOL    HW233861   3.852   2.690  17.071 -0.0371 -1.2291  0.2815
 7468SOL     OW33862   0.203   4.450  10.952  0.0347 -0.3559 -0.0763
 7468SOL    HW133863   0.234   4.388  11.018 -0.0185  0.2099  0.4732
 7468SOL    HW233864   0.234   4.533  10.987  0.1874 -0.3975 -0.1101
 7469SOL     OW33865   3.351   0.594  16.879  0.5425  0.0410  0.3266
 7469SOL    HW133866   3.356   0.601  16.783  1.5321 -1.6327  0.2427
 7469SOL    HW233867   3.265   0.633  16.892  0.1173 -0.9630  0.4849
 7470SOL     OW33868   1.703   3.944   5.627  0.4384 -0.3979 -0.4626
 7470SOL    HW133869   1.703   4.014   5.692  3.8469 -0.5206 -0.3603
 7470SOL    HW233870   1.730   3.991   5.548  0.2381  1.3297  0.4947
 7471SOL     OW33871   3.148   1.801   9.483  0.2334  0.3507 -0.0465
 7471SOL    HW133872   3.147   1.896   9.497  0.5240  0.4216 -0.5289
 7471SOL    HW233873   3.150   1.781   9.390 -1.3774  0.2531 -0.0634
 7472SOL     OW33874   3.906   0.629   6.634  0.2435  0.1317  0.0855
 7472SOL    HW133875   3.970   0.667   6.694  0.1189 -0.5392  0.6509
 7472SOL    HW233876   3.957   0.647   6.555  2.0599  0.3714  1.3115
 7473SOL     OW33877   3.694   2.273  12.561  0.1761 -0.3111  0.2225
 7473SOL    HW133878   3.603   2.299  12.573 -0.1456 -1.0306 -0.6183
 7473SOL    HW233879   3.736   2.359  12.556 -1.3709  0.4889  1.2192
 7474SOL     OW33880   2.697   1.198  11.757  0.1074  0.2105  0.0051
 7474SOL    HW133881   2.631   1.264  11.777  1.0253  0.5574  1.9116
 7474SOL    HW233882   2.709   1.203  11.662  0.7723  1.9266  0.1802
 7475SOL     OW33883   3.129   2.638  14.099 -0.6660  0.1630  0.0992
 7475SOL    HW133884   3.158   2.717  14.145 -0.9758  0.1155  0.3780
 7475SOL    HW233885   3.034   2.647  14.104 -0.8523 -1.9010  0.1318
 7476SOL     OW33886   4.315   1.035  12.203 -0.1369  0.6195  0.1177
 7476SOL    HW133887   4.267   1.086  12.138  1.2165  0.0408 -1.3357
 7476SOL    HW233888   4.366   1.108  12.239 -0.9620  1.9397 -1.4012
 7477SOL     OW33889   0.918   2.249  12.233  0.0032  0.2252 -0.2354
 7477SOL    HW133890   0.983   2.236  12.165  1.2375 -0.6765  1.1207
 7477SOL    HW233891   0.942   2.338  12.259  1.5263 -0.3039  0.1693
 7478SOL     OW33892   3.309   0.021   7.765 -0.2383 -0.3169 -0.7049
 7478SOL    HW133893   3.281   4.707   7.849 -1.3683 -1.2491 -1.4837
 7478SOL    HW233894   3.404   0.012   7.775 -0.4474 -2.2159 -0.4022
 7479SOL     OW33895   2.045   0.625  14.686 -0.1495 -0.6954  0.4077
 7479SOL    HW133896   1.979   0.693  14.700 -0.4585 -0.7061 -0.9894
 7479SOL    HW233897   2.108   0.637  14.758 -1.0230 -2.6109  1.4866
 7480SOL     OW33898   3.512   4.342  15.906 -0.3281 -0.8579 -0.0379
 7480SOL    HW133899   3.549   4.411  15.851  1.3859 -0.1845  1.9546
 7480SOL    HW233900   3.435   4.392  15.933 -1.2193 -1.1652 -2.0413
 7481SOL     OW33901   2.092   3.475   3.328 -0.0297  0.6127  0.4996
 7481SOL    HW133902   2.180   3.497   3.298 -1.2675  3.7888 -0.8144
 7481SOL    HW233903   2.108   3.436   3.413  0.4828  0.6361  0.4124
 7482SOL     OW33904   2.998   1.885  12.895 -0.2014 -0.0157 -0.4928
 7482SOL    HW133905   2.926   1.872  12.833 -0.1383 -0.3932 -0.4865
 7482SOL    HW233906   3.078   1.862  12.849  0.6760 -1.7969  1.9473
 7483SOL     OW33907   1.560   2.501   9.878 -0.2444 -0.4158  0.1968
 7483SOL    HW133908   1.602   2.582   9.846 -1.9674  0.6118  0.5697
 7483SOL    HW233909   1.483   2.530   9.926  0.7281 -0.0060  1.5144
 7484SOL     OW33910   4.357   0.731   5.838 -0.3439  0.1071 -0.1542
 7484SOL    HW133911   4.436   0.685   5.865 -0.5894  0.3161  0.9077
 7484SOL    HW233912   4.298   0.708   5.910  1.5754 -1.0992  1.0262
 7485SOL     OW33913   1.067   3.672   6.818  0.1795  0.4552  0.7292
 7485SOL    HW133914   1.103   3.592   6.857  1.8840  1.4809  1.2731
 7485SOL    HW233915   1.009   3.697   6.890 -0.1946  0.1288  0.5402
 7486SOL     OW33916   4.211   1.352   3.945 -0.0855  0.1826  0.3263
 7486SOL    HW133917   4.273   1.405   3.995  0.0552 -1.0461  1.4430
 7486SOL    HW233918   4.259   1.353   3.862 -1.5509 -2.0203 -0.5422
 7487SOL     OW33919   1.729   0.115   5.809 -0.9562  0.2317  0.3757
 7487SOL    HW133920   1.822   0.096   5.796 -0.9523 -0.4439  1.3756
 7487SOL    HW233921   1.699   0.120   5.719  1.1091  0.5848 -0.2860
 7488SOL     OW33922   0.666   4.101  12.769  0.1324 -0.3435  0.3179
 7488SOL    HW133923   0.708   4.118  12.853  3.7150 -2.1493 -1.1178
 7488SOL    HW233924   0.654   4.192  12.743  3.1265  0.1395  0.5859
 7489SOL     OW33925   2.021   2.064   7.248 -0.4793  0.1453  0.2083
 7489SOL    HW133926   1.992   2.153   7.267 -1.2307 -0.9538  4.2328
 7489SOL    HW233927   1.939   2.016   7.255 -0.9274  0.8632 -0.0812
 7490SOL     OW33928   1.553   0.527  11.196  0.4124 -0.4226  0.2092
 7490SOL    HW133929   1.510   0.553  11.114 -0.0200 -0.2109  0.5043
 7490SOL    HW233930   1.628   0.587  11.200 -1.2817  1.7776 -1.1785
 7491SOL     OW33931   2.663   3.214   7.886 -0.3838  0.0387 -0.2080
 7491SOL    HW133932   2.619   3.299   7.891  1.1255  0.8320 -0.5633
 7491SOL    HW233933   2.640   3.177   7.972  0.6570  4.4785  1.9924
 7492SOL     OW33934   2.083   2.410  11.765  0.3049 -0.3523 -0.0456
 7492SOL    HW133935   2.118   2.452  11.843 -0.2694  1.3583 -0.7026
 7492SOL    HW233936   2.062   2.325  11.804  1.3647 -1.2998 -1.5403
 7493SOL     OW33937   1.430   0.421   0.358  0.3021 -0.1555  0.8159
 7493SOL    HW133938   1.466   0.373   0.433 -0.0573 -2.1598 -0.2770
 7493SOL    HW233939   1.466   0.509   0.370 -1.9017  1.0171 -1.1457
 7494SOL     OW33940   3.266   1.806   0.656 -0.2778 -0.1031  0.5250
 7494SOL    HW133941   3.206   1.858   0.709 -0.7886  0.5162 -0.6705
 7494SOL    HW233942   3.279   1.734   0.718 -2.8323 -1.5060 -0.5977
 7495SOL     OW33943   2.780   3.330  17.191 -0.0567  0.2693  0.3824
 7495SOL    HW133944   2.773   3.396  17.121  1.5370 -1.2316 -1.1972
 7495SOL    HW233945   2.707   3.346  17.251 -1.0329 -0.9675 -0.4794
 7496SOL     OW33946   3.244   2.360  15.306  0.1864 -0.1726  0.2510
 7496SOL    HW133947   3.149   2.366  15.316  0.3351 -0.4007  1.7411
 7496SOL    HW233948   3.262   2.399  15.392  0.8164  2.1100 -0.9066
 7497SOL     OW33949   2.170   4.279  14.672  0.0427  0.3021  0.3146
 7497SOL    HW133950   2.085   4.245  14.646  0.3641  2.5015 -3.5520
 7497SOL    HW233951   2.143   4.359  14.718 -0.5830 -0.6830  1.6627
 7498SOL     OW33952   4.137   4.142   6.019  0.5426 -0.3839  0.2512
 7498SOL    HW133953   4.157   4.092   5.940  1.6451 -0.6582  0.6840
 7498SOL    HW233954   4.193   4.090   6.078  0.8036  1.3358  1.5268
 7499SOL     OW33955   1.973   3.333   9.141  0.1442  0.9962  0.1753
 7499SOL    HW133956   1.920   3.346   9.219 -0.7318 -1.2249 -0.0576
 7499SOL    HW233957   2.044   3.395   9.161  1.5330 -1.0203  1.4790
 7500SOL     OW33958   2.199   4.653   8.932 -0.4888 -0.4428 -0.0905
 7500SOL    HW133959   2.260   4.587   8.964 -1.1583 -1.3183 -0.6470
 7500SOL    HW233960   2.204   4.712   9.008 -1.2088  0.4956 -0.7610
 7501SOL     OW33961   4.185   1.951   2.759 -0.0514  0.0067 -0.0315
 7501SOL    HW133962   4.119   1.896   2.802  1.0411 -0.5102  0.9688
 7501SOL    HW233963   4.164   1.920   2.671 -0.6075 -0.8970  0.4170
 7502SOL     OW33964   4.290   4.609  11.372 -0.0992  0.3907 -0.4652
 7502SOL    HW133965   4.288   4.684  11.431  1.6512  0.8567 -1.0211
 7502SOL    HW233966   4.220   4.559  11.414  1.6645 -0.5157  1.3687
 7503SOL     OW33967   0.371   0.370   4.320  0.5179  0.0992  0.5583
 7503SOL    HW133968   0.452   0.401   4.278 -0.4563  1.6395 -0.2153
 7503SOL    HW233969   0.323   0.361   4.237  0.9224 -0.3256  0.3753
 7504SOL     OW33970   4.079   3.143   7.885 -0.1393  0.2786 -0.6705
 7504SOL    HW133971   4.080   3.055   7.923  1.9297  0.5252 -0.2002
 7504SOL    HW233972   4.058   3.128   7.792  1.3072 -1.7489 -0.6621
 7505SOL     OW33973   2.805   1.503   5.768  0.1315 -0.2482 -0.1322
 7505SOL    HW133974   2.737   1.522   5.704  1.7248 -1.0073 -2.0656
 7505SOL    HW233975   2.827   1.412   5.750  0.1929 -0.5303  1.4448
 7506SOL     OW33976   0.976   1.365   7.372  0.0911 -0.2643 -0.1722
 7506SOL    HW133977   0.912   1.338   7.438 -0.2329  1.0389  0.0386
 7506SOL    HW233978   0.975   1.292   7.310  1.1601 -1.8234  1.6324
 7507SOL     OW33979   3.714   3.275   8.330 -0.0132  0.3561  0.2373
 7507SOL    HW133980   3.789   3.302   8.383 -1.4741 -0.0565  2.5416
 7507SOL    HW233981   3.650   3.248   8.396 -1.4541 -0.5774 -1.5373
 7508SOL     OW33982   3.988   0.717   7.769  0.1303 -0.3059 -0.3534
 7508SOL    HW133983   3.962   0.766   7.691  2.4595  0.8333 -0.4418
 7508SOL    HW233984   4.082   0.704   7.756  0.3959  1.2214 -0.0487
 7509SOL     OW33985   0.926   0.079   6.530  0.1708  0.4283  0.4912
 7509SOL    HW133986   0.849   0.110   6.577 -1.6751 -2.2773 -0.7371
 7509SOL    HW233987   0.926   4.706   6.533 -2.3039  0.3596 -1.8600
 7510SOL     OW33988   2.837   2.591   9.319  0.0101  0.3251  0.2246
 7510SOL    HW133989   2.871   2.573   9.407 -1.4404  3.6203  1.4603
 7510SOL    HW233990   2.830   2.686   9.317 -0.3745  0.3093  0.7578
 7511SOL     OW33991   3.711   3.334   5.019  0.4300  0.2057  0.0138
 7511SOL    HW133992   3.688   3.253   4.975  0.1553 -0.3276  1.1429
 7511SOL    HW233993   3.663   3.323   5.101 -1.8514 -0.0731 -1.3564
 7512SOL     OW33994   4.530   4.037  16.884  0.4622  0.1784  0.2983
 7512SOL    HW133995   4.555   3.947  16.904 -0.8177 -0.0770  0.7384
 7512SOL    HW233996   4.536   4.044  16.788  0.4081 -0.7630  0.2265
 7513SOL     OW33997   0.004   1.982   6.371  0.2767  0.1895 -0.2733
 7513SOL    HW133998   0.041   2.069   6.379 -0.0307  0.5106 -2.3722
 7513SOL    HW233999   4.720   1.971   6.276  0.1335  2.5016 -0.5326
 7514SOL     OW34000   1.194   1.339   9.995 -0.2949  0.1605 -0.2558
 7514SOL    HW134001   1.275   1.318  10.041 -0.4646  1.1126  0.4807
 7514SOL    HW234002   1.196   1.265   9.935 -3.8782 -0.4581  0.3865
 7515SOL     OW34003   3.491   3.204   1.640  0.2076 -0.2300  0.2141
 7515SOL    HW134004   3.561   3.164   1.692  0.4066  1.2621  1.0890
 7515SOL    HW234005   3.529   3.198   1.553 -1.9994  0.0676 -0.7744
 7516SOL     OW34006   4.693   4.673   6.471 -0.0993  0.1810  0.2375
 7516SOL    HW134007   0.034   4.603   6.484 -1.3204 -1.0103 -0.1825
 7516SOL    HW234008   4.659   4.646   6.386 -0.4916 -0.7812  0.6986
 7517SOL     OW34009   1.169   2.383   3.680  0.0561 -0.2499 -0.0100
 7517SOL    HW134010   1.226   2.459   3.683  0.1032 -0.4176  4.1961
 7517SOL    HW234011   1.086   2.421   3.708 -0.3032  0.3983 -1.9767
 7518SOL     OW34012   3.456   1.268   6.919  0.5838 -0.6214 -0.1051
 7518SOL    HW134013   3.367   1.250   6.889  0.3075 -0.9276  0.8795
 7518SOL    HW234014   3.469   1.361   6.903 -0.5776 -0.2038  1.3895
 7519SOL     OW34015   0.897   4.043   5.242  0.3132 -0.3228 -0.5857
 7519SOL    HW134016   0.908   4.026   5.148 -0.4045  1.8359 -1.0651
 7519SOL    HW234017   0.942   4.126   5.254  0.6065 -0.5879  0.1101
 7520SOL     OW34018   4.360   3.938   8.934  0.0534  0.0540  0.3844
 7520SOL    HW134019   4.307   3.868   8.973  2.0868 -2.3423 -1.1135
 7520SOL    HW234020   4.327   4.006   8.992 -0.6807  0.6371 -0.7083
 7521SOL     OW34021   3.537   1.218   4.556  0.1107  0.0629 -0.0483
 7521SOL    HW134022   3.483   1.167   4.617 -0.3275 -0.2904 -0.7383
 7521SOL    HW234023   3.470   1.284   4.538  1.0631  0.9355 -0.4421
 7522SOL     OW34024   1.440   3.139   4.388  0.0689 -0.7798  0.2162
 7522SOL    HW134025   1.486   3.074   4.334  0.6358 -0.8367  0.7577
 7522SOL    HW234026   1.361   3.147   4.335  1.0095  1.6347 -0.7953
 7523SOL     OW34027   0.647   3.823   4.370 -0.5879 -0.1685 -0.4561
 7523SOL    HW134028   0.707   3.765   4.417  0.1992 -0.3451 -1.6943
 7523SOL    HW234029   0.692   3.827   4.286 -2.2983  3.0650 -1.1957
 7524SOL     OW34030   4.345   2.266   7.549  0.0276 -0.2968  0.4145
 7524SOL    HW134031   4.268   2.254   7.493 -0.1057 -0.1187  0.5585
 7524SOL    HW234032   4.347   2.186   7.601 -1.1729  0.4488  1.6341
 7525SOL     OW34033   3.229   2.938   1.870 -0.0074  0.0218  0.5219
 7525SOL    HW134034   3.186   2.921   1.786 -0.0027 -0.4490  0.6123
 7525SOL    HW234035   3.195   2.866   1.924 -1.6599 -0.7483 -1.5686
 7526SOL     OW34036   1.920   0.587   7.173  0.1752 -0.5305 -0.0091
 7526SOL    HW134037   1.935   0.501   7.213 -0.3267 -0.4553  0.3360
 7526SOL    HW234038   1.859   0.630   7.233 -0.5398 -1.9857  0.3287
 7527SOL     OW34039   1.027   1.862  15.105  0.2845  0.5109 -0.2557
 7527SOL    HW134040   0.985   1.802  15.043 -0.7963  1.8394 -0.7803
 7527SOL    HW234041   1.094   1.904  15.051  0.7237 -1.2226 -1.0521
 7528SOL     OW34042   0.270   1.757   7.815  1.1623 -0.0483 -0.4089
 7528SOL    HW134043   0.228   1.699   7.880  2.7773 -0.9272 -0.1333
 7528SOL    HW234044   0.301   1.832   7.866  2.2009 -1.1311  0.5718
 7529SOL     OW34045   4.163   0.163   3.076  0.2007  0.3710  0.8025
 7529SOL    HW134046   4.155   0.191   3.167  1.7823  0.8192  0.8020
 7529SOL    HW234047   4.188   0.245   3.032  1.7402 -0.5195  0.0548
 7530SOL     OW34048   0.789   2.104   5.567  0.5191 -0.3294  0.5946
 7530SOL    HW134049   0.830   2.190   5.559  0.0033 -0.3856 -2.8194
 7530SOL    HW234050   0.821   2.047   5.497  0.6217  0.8691 -0.3523
 7531SOL     OW34051   1.207   4.062   1.023  0.3323  0.0004 -0.5966
 7531SOL    HW134052   1.207   4.135   0.962 -2.9584 -0.5257 -1.2508
 7531SOL    HW234053   1.283   4.007   1.002 -1.2585 -1.6990 -1.9285
 7532SOL     OW34054   4.250   2.193   3.564  0.6261  0.2516  0.0269
 7532SOL    HW134055   4.158   2.204   3.588  0.7185  0.2424  0.3889
 7532SOL    HW234056   4.273   2.281   3.535 -0.5528  0.7624  0.6541
 7533SOL     OW34057   1.273   1.731  11.350  0.4787  0.2271  0.0847
 7533SOL    HW134058   1.256   1.693  11.264 -1.7561  1.6163 -0.0927
 7533SOL    HW234059   1.342   1.795  11.333  0.2370  1.0664  2.2430
 7534SOL     OW34060   4.582   3.222   5.239  0.3123 -0.3172 -0.2788
 7534SOL    HW134061   4.489   3.242   5.226  0.8211  1.7949 -0.6124
 7534SOL    HW234062   4.598   3.150   5.178 -0.4586 -0.2189 -0.6029
 7535SOL     OW34063   0.922   3.081  16.715  0.1530 -0.2578 -0.6426
 7535SOL    HW134064   0.920   2.986  16.703 -0.0062 -0.0804 -1.9630
 7535SOL    HW234065   0.858   3.096  16.785  1.4838  3.8404 -0.2655
 7536SOL     OW34066   2.436   4.138   6.291  0.3842 -0.6177  0.7706
 7536SOL    HW134067   2.473   4.067   6.240  0.0492  0.0492 -0.4100
 7536SOL    HW234068   2.460   4.211   6.234  2.5571 -1.3382  0.7793
 7537SOL     OW34069   3.493   2.574  15.418 -0.1928  0.1318  0.1201
 7537SOL    HW134070   3.457   2.536  15.498 -2.8987  1.8349 -0.3136
 7537SOL    HW234071   3.531   2.650  15.462 -1.3942  0.4451  0.6259
 7538SOL     OW34072   2.522   2.232   1.797 -0.0325 -0.1737 -0.0381
 7538SOL    HW134073   2.584   2.159   1.796 -2.3058 -2.0610 -4.2658
 7538SOL    HW234074   2.467   2.218   1.720  0.5345  1.5002 -0.7354
 7539SOL     OW34075   4.098   4.124   3.412 -0.6064  0.0353 -0.4405
 7539SOL    HW134076   4.044   4.177   3.471 -1.5787 -0.6117 -0.7570
 7539SOL    HW234077   4.071   4.155   3.326  0.9184 -1.8879 -1.6185
 7540SOL     OW34078   0.345   4.505  16.919  0.3515 -0.4355  0.2035
 7540SOL    HW134079   0.306   4.417  16.924  0.4390 -0.4344  0.9696
 7540SOL    HW234080   0.396   4.503  16.839  0.6891  0.2266  0.4054
 7541SOL     OW34081   2.291   3.479  12.511  0.2594  0.1975  0.2329
 7541SOL    HW134082   2.358   3.443  12.454  0.2347  0.4203  0.0634
 7541SOL    HW234083   2.219   3.439  12.463 -1.6188  2.2281  1.3216
 7542SOL     OW34084   0.372   2.321   4.318 -0.5474  0.5966  0.3297
 7542SOL    HW134085   0.313   2.360   4.381 -1.2906 -0.7645  0.4836
 7542SOL    HW234086   0.446   2.381   4.305 -0.2560  0.4492  1.2798
 7543SOL     OW34087   1.403   3.210  11.031 -0.1155  0.6176 -0.2225
 7543SOL    HW134088   1.311   3.195  11.009 -0.6651  0.6586  2.0499
 7543SOL    HW234089   1.410   3.300  11.062 -0.2881 -0.0379  1.7453
 7544SOL     OW34090   2.620   2.404  11.178  0.0157  0.3899  0.2422
 7544SOL    HW134091   2.539   2.440  11.214  0.9139  1.6443  0.9851
 7544SOL    HW234092   2.638   2.468  11.109 -0.3758 -0.7044 -0.8859
 7545SOL     OW34093   0.169   2.084   3.976 -0.5634 -0.2504 -0.2816
 7545SOL    HW134094   0.116   2.140   4.033 -2.1545  1.1943 -3.1625
 7545SOL    HW234095   0.161   1.997   4.015  1.9324 -0.6557 -0.6525
 7546SOL     OW34096   1.426   1.746   3.233 -0.1421  0.4054 -0.1967
 7546SOL    HW134097   1.379   1.676   3.188 -2.6975  2.5426 -0.8719
 7546SOL    HW234098   1.447   1.806   3.161 -2.1066  3.1095  1.4878
 7547SOL     OW34099   1.419   2.045   5.390 -0.3263  0.3397 -0.3304
 7547SOL    HW134100   1.493   1.987   5.404 -0.1321  0.1172 -2.3107
 7547SOL    HW234101   1.347   1.987   5.414 -0.6878  0.8170 -0.2582
 7548SOL     OW34102   4.500   1.307   5.637  0.2269  0.8220  0.1009
 7548SOL    HW134103   4.556   1.346   5.704 -1.6173 -1.2097  2.8510
 7548SOL    HW234104   4.533   1.222   5.608  0.9026  1.0792  0.1347
 7549SOL     OW34105   4.046   2.005   7.188  0.5253 -0.0933 -0.1684
 7549SOL    HW134106   4.009   2.021   7.101 -0.5872  0.0673  0.3426
 7549SOL    HW234107   4.032   1.910   7.194  1.1655 -0.1335  0.6661
 7550SOL     OW34108   3.637   3.122   4.844  0.1557 -0.3441 -0.0373
 7550SOL    HW134109   3.708   3.113   4.781 -0.7057  0.2887 -1.0942
 7550SOL    HW234110   3.560   3.085   4.802  1.6790 -3.2933 -0.2067
 7551SOL     OW34111   4.382   2.625  16.563  0.3321 -0.3019  0.0381
 7551SOL    HW134112   4.441   2.618  16.488  0.9096 -1.6448  0.6161
 7551SOL    HW234113   4.356   2.717  16.552  4.1440  0.8217  0.6077
 7552SOL     OW34114   0.931   2.659   8.187 -0.0592  0.0623 -0.2058
 7552SOL    HW134115   0.846   2.656   8.232  1.1324  0.8322  2.0592
 7552SOL    HW234116   0.900   2.612   8.109  0.6061  1.8051 -1.4932
 7553SOL     OW34117   3.892   3.568   6.032 -0.3273 -0.0327 -0.3058
 7553SOL    HW134118   3.917   3.491   5.981  0.8045 -0.3555  0.7303
 7553SOL    HW234119   3.803   3.584   6.001  1.1331  2.3468 -3.2396
 7554SOL     OW34120   0.747   0.461   5.614 -0.2666  0.6980 -0.6515
 7554SOL    HW134121   0.833   0.502   5.603  0.2675 -0.2768 -0.1820
 7554SOL    HW234122   0.746   0.451   5.709  0.8280  2.1009 -0.4921
 7555SOL     OW34123   2.855   1.837   0.405 -0.5132  0.1940  0.3997
 7555SOL    HW134124   2.812   1.751   0.406  0.0441 -0.0833  0.6293
 7555SOL    HW234125   2.904   1.835   0.323 -0.6866 -1.8325  0.3434
 7556SOL     OW34126   3.910   0.945  17.421  0.3648 -0.4787  0.0593
 7556SOL    HW134127   3.972   0.881  17.388  0.8646 -0.9400  1.9237
 7556SOL    HW234128   3.839   0.908  17.368  1.2514 -1.2982 -0.5630
 7557SOL     OW34129   1.091   1.100  12.215  0.8115 -0.9034  0.6115
 7557SOL    HW134130   1.030   1.051  12.160  0.9401 -1.0929  0.6378
 7557SOL    HW234131   1.052   1.186  12.227  1.9765  0.1992 -3.4783
 7558SOL     OW34132   1.209   0.144   9.913 -0.4154  0.4264 -0.7764
 7558SOL    HW134133   1.266   0.147   9.989 -1.1158 -0.8979 -0.1945
 7558SOL    HW234134   1.285   0.138   9.854  0.5631 -3.4572  0.9185
 7559SOL     OW34135   3.517   1.557   3.847 -0.1740  0.0102 -0.1310
 7559SOL    HW134136   3.609   1.535   3.861 -0.1199 -0.5491 -1.3928
 7559SOL    HW234137   3.515   1.553   3.752 -0.0864 -0.8476 -0.0951
 7560SOL     OW34138   1.270   1.288   6.274  0.4987  0.4017 -0.1259
 7560SOL    HW134139   1.217   1.271   6.195 -1.1839  2.4657  0.5606
 7560SOL    HW234140   1.305   1.202   6.297 -0.1799  0.6964  2.0056
 7561SOL     OW34141   1.809   2.270   0.881 -0.0796  0.5494  0.4746
 7561SOL    HW134142   1.831   2.179   0.901  2.6130  1.2045  0.4996
 7561SOL    HW234143   1.867   2.269   0.805 -1.7114 -1.1871 -0.7621
 7562SOL     OW34144   0.233   2.318   3.166  0.4704 -0.0105 -0.7470
 7562SOL    HW134145   0.186   2.392   3.205  1.5924 -0.5331  1.6177
 7562SOL    HW234146   0.239   2.264   3.245  1.8406  2.1059  0.6083
 7563SOL     OW34147   3.539   4.404   3.693  0.6652  0.2224 -0.1401
 7563SOL    HW134148   3.591   4.444   3.623 -0.2150  0.2201 -0.7894
 7563SOL    HW234149   3.460   4.380   3.645 -0.3406 -1.2434  2.2132
 7564SOL     OW34150   4.595   1.417   4.317  0.4655  0.3811  0.4297
 7564SOL    HW134151   4.565   1.381   4.400 -0.4931 -1.0420 -0.5155
 7564SOL    HW234152   4.630   1.503   4.340 -1.6599  1.9062 -1.8983
 7565SOL     OW34153   2.496   1.374  14.909 -0.0150 -0.3611 -0.6050
 7565SOL    HW134154   2.526   1.287  14.885 -1.7855 -1.3075  0.6032
 7565SOL    HW234155   2.537   1.434  14.847 -0.8559  1.2294  0.3793
 7566SOL     OW34156   2.252   2.437  10.007 -0.1965 -0.1522 -0.3616
 7566SOL    HW134157   2.328   2.413   9.955  0.0228  1.0789 -0.6073
 7566SOL    HW234158   2.192   2.369   9.977  1.4255 -1.2129 -1.1414
 7567SOL     OW34159   1.362   3.274   6.847 -0.5713 -0.6430  0.3281
 7567SOL    HW134160   1.427   3.326   6.800 -0.2603 -0.3524  1.0899
 7567SOL    HW234161   1.401   3.188   6.834  2.9940  0.7896  1.7554
 7568SOL     OW34162   4.160   2.056  17.574  0.0449  0.0692 -0.1402
 7568SOL    HW134163   4.080   2.028  17.620  0.2202 -0.6768 -0.2942
 7568SOL    HW234164   4.153   2.036  17.481 -0.5206  0.1249 -0.1100
 7569SOL     OW34165   1.811   4.676  10.177  0.2865 -0.0327  0.1518
 7569SOL    HW134166   1.740   4.719  10.130  1.0426  0.4499 -0.5598
 7569SOL    HW234167   1.772   4.607  10.230  0.0193 -2.1917 -2.8694
 7570SOL     OW34168   3.040   1.805   3.177 -0.1348 -0.3979 -1.1149
 7570SOL    HW134169   3.089   1.770   3.103  0.6936 -1.2033 -0.1726
 7570SOL    HW234170   3.017   1.730   3.232 -0.7554  0.3424 -0.3484
 7571SOL     OW34171   3.562   0.305   8.921  0.1766 -0.2495  0.0995
 7571SOL    HW134172   3.584   0.395   8.947 -0.0960  0.0794 -0.8305
 7571SOL    HW234173   3.612   0.292   8.841 -0.1614  3.1336 -0.6659
 7572SOL     OW34174   1.879   1.035   4.824  0.4726 -0.5004  0.0245
 7572SOL    HW134175   1.806   1.016   4.765  1.4185 -1.0518 -0.9744
 7572SOL    HW234176   1.925   1.108   4.783 -0.5966  0.6281  0.8377
 7573SOL     OW34177   2.022   3.412  10.452 -0.3780  0.0372  0.0566
 7573SOL    HW134178   2.007   3.471  10.526 -0.6147 -0.3074  0.2829
 7573SOL    HW234179   2.109   3.377  10.473 -1.2609 -1.1462  1.7425
 7574SOL     OW34180   1.059   1.203   2.153 -0.2407  0.0676 -0.9890
 7574SOL    HW134181   1.078   1.288   2.192 -0.0091 -1.3609  1.9605
 7574SOL    HW234182   1.086   1.139   2.219 -0.7281  1.2416  0.3369
 7575SOL     OW34183   3.234   0.023   9.758  0.1617  0.1880  0.3179
 7575SOL    HW134184   3.311   0.043   9.704 -1.7149  0.9635 -2.0469
 7575SOL    HW234185   3.215   4.653   9.757 -2.0567  0.6061  1.8310
 7576SOL     OW34186   1.820   4.321   5.400  0.4556  0.5705  0.5967
 7576SOL    HW134187   1.801   4.296   5.309  0.9926 -0.3095  0.7251
 7576SOL    HW234188   1.762   4.397   5.408  0.0635  0.3923 -0.5315
 7577SOL     OW34189   2.921   2.389   8.451 -0.1852 -0.1039  0.4837
 7577SOL    HW134190   2.830   2.412   8.471 -0.6073  0.6638 -2.2641
 7577SOL    HW234191   2.935   2.325   8.521  0.1316 -0.3732  0.1740
 7578SOL     OW34192   2.736   2.218   4.569 -0.0444  0.3954  0.4575
 7578SOL    HW134193   2.704   2.149   4.628 -0.5627  0.1518 -0.1032
 7578SOL    HW234194   2.829   2.217   4.590  0.8128 -3.4377 -3.3866
 7579SOL     OW34195   3.215   4.202   5.870 -0.0569  0.5451 -0.0629
 7579SOL    HW134196   3.120   4.192   5.876 -0.0016 -0.5092 -0.7966
 7579SOL    HW234197   3.220   4.291   5.905 -0.9158  0.2980  0.6844
 7580SOL     OW34198   1.384   2.796  12.673  0.4653  0.7979 -0.2060
 7580SOL    HW134199   1.293   2.805  12.645 -0.5193  0.4301  2.8820
 7580SOL    HW234200   1.432   2.755  12.602  0.5620  1.8704 -0.7634
 7581SOL     OW34201   1.723   3.036   4.654 -0.6927  0.1701 -0.2399
 7581SOL    HW134202   1.644   2.985   4.639  0.1467 -1.7725  1.9431
 7581SOL    HW234203   1.765   3.017   4.738 -2.4556 -1.1055  0.3615
 7582SOL     OW34204   3.730   2.872   5.518  0.5527 -0.1576 -0.3167
 7582SOL    HW134205   3.771   2.834   5.596  0.1177 -1.5402 -0.7534
 7582SOL    HW234206   3.653   2.816   5.513  1.5438 -1.5951  0.6441
 7583SOL     OW34207   0.793   2.914  17.617 -0.3446  0.7564  0.1692
 7583SOL    HW134208   0.885   2.924  17.592  0.0467 -3.0140  0.0304
 7583SOL    HW234209   0.764   2.849  17.553  1.0517 -0.3815  0.6711
 7584SOL     OW34210   3.118   4.506   9.802  0.3036  0.0203  0.2887
 7584SOL    HW134211   3.103   4.415   9.778 -0.3797  0.5358 -1.2241
 7584SOL    HW234212   3.031   4.542   9.818  0.2346 -1.5700  3.5216
 7585SOL     OW34213   2.697   1.241   1.963 -0.0484 -0.6404 -0.7241
 7585SOL    HW134214   2.680   1.219   2.055  0.7634  1.0303 -0.1743
 7585SOL    HW234215   2.720   1.157   1.922  1.9402  0.5565 -2.0362
 7586SOL     OW34216   1.253   0.805   1.431  0.3194  0.3155 -0.1608
 7586SOL    HW134217   1.201   0.727   1.450 -0.2757  0.6519 -0.4177
 7586SOL    HW234218   1.212   0.865   1.493  0.5945  0.1511  0.1823
 7587SOL     OW34219   2.165   2.576  11.215  0.5700  0.0462  0.4622
 7587SOL    HW134220   2.106   2.620  11.153  1.3615  0.8935  0.3102
 7587SOL    HW234221   2.135   2.486  11.205  1.4364 -0.4281  2.1432
 7588SOL     OW34222   3.098   3.242   1.574 -0.3290  0.1218 -0.2425
 7588SOL    HW134223   3.163   3.266   1.640 -0.1531  1.2734 -0.8293
 7588SOL    HW234224   3.141   3.180   1.515  1.1254  0.1375  0.7981
 7589SOL     OW34225   3.972   4.511   3.140 -0.8119  0.8890 -0.0396
 7589SOL    HW134226   3.902   4.552   3.089 -1.8365  0.8738  1.3572
 7589SOL    HW234227   4.050   4.535   3.091  0.2994  1.9951  2.2616
 7590SOL     OW34228   2.595   0.076   1.420 -0.0444  0.0602  0.4760
 7590SOL    HW134229   2.612   4.712   1.382  0.5475  0.1416  0.5648
 7590SOL    HW234230   2.672   0.119   1.383 -0.6545  2.6126  2.1969
 7591SOL     OW34231   3.663   3.559   7.652 -0.3284  0.7725 -0.3180
 7591SOL    HW134232   3.660   3.623   7.722  0.1969  0.6691 -0.2006
 7591SOL    HW234233   3.751   3.572   7.615  0.6944 -0.5281  1.6189
 7592SOL     OW34234   0.768   0.383   0.874 -0.3215  0.1114  0.3276
 7592SOL    HW134235   0.808   0.459   0.916  0.2135  0.4756 -0.8468
 7592SOL    HW234236   0.751   0.329   0.951  0.3513  1.7573  1.6306
 7593SOL     OW34237   4.491   2.453   4.079 -0.2239  0.3224 -0.2064
 7593SOL    HW134238   4.413   2.500   4.108  1.7594  2.6440  1.3696
 7593SOL    HW234239   4.498   2.387   4.148  0.0468  2.1431  1.5049
 7594SOL     OW34240   0.580   2.231  15.083  0.0656  0.5935  0.4573
 7594SOL    HW134241   0.523   2.256  15.157  0.7293 -0.1511  1.2186
 7594SOL    HW234242   0.532   2.269  15.010  0.0223 -1.9623 -0.8262
 7595SOL     OW34243   4.529   1.817   8.945  0.5671  0.2921 -0.1788
 7595SOL    HW134244   4.500   1.728   8.968 -1.1090  0.7341 -0.5673
 7595SOL    HW234245   4.500   1.864   9.023  0.4504 -2.0342  1.1971
 7596SOL     OW34246   3.523   3.211   1.093 -0.3766 -0.7729  0.6353
 7596SOL    HW134247   3.460   3.145   1.123  0.1433 -1.4855  0.1644
 7596SOL    HW234248   3.468   3.237   1.020  1.5948 -0.6379 -0.8064
 7597SOL     OW34249   0.955   2.981   7.654 -0.4618  0.3229  0.1727
 7597SOL    HW134250   1.038   2.999   7.610 -0.5141  0.2687  0.0513
 7597SOL    HW234251   0.978   2.945   7.740  2.0577  0.2184 -0.5225
 7598SOL     OW34252   2.552   1.260  10.031 -0.5016 -0.3655 -0.0230
 7598SOL    HW134253   2.470   1.273   9.983  0.1707  3.7233 -0.0764
 7598SOL    HW234254   2.616   1.228   9.967 -1.5984 -0.0354 -1.2997
 7599SOL     OW34255   3.133   2.179   2.610 -0.1415 -0.1130  0.4372
 7599SOL    HW134256   3.113   2.266   2.575  3.2408  0.9760  1.2320
 7599SOL    HW234257   3.211   2.188   2.665 -1.1117  1.0443  1.6506
 7600SOL     OW34258   1.921   3.914  10.088  0.1320  0.4563 -0.4157
 7600SOL    HW134259   2.010   3.941  10.109 -0.2471  0.0112  1.7890
 7600SOL    HW234260   1.903   3.971  10.013  2.6272  1.2311 -0.4310
 7601SOL     OW34261   1.085   0.021  17.658 -1.0213  0.3070 -0.6112
 7601SOL    HW134262   1.117   0.105  17.627 -0.5790  0.2931 -0.1930
 7601SOL    HW234263   1.098   0.017   0.059 -2.7314  0.7346 -0.3473
 7602SOL     OW34264   0.293   4.476  13.381  0.0435 -0.5879  0.1579
 7602SOL    HW134265   0.275   4.479  13.287  1.1587  2.1164  0.0500
 7602SOL    HW234266   0.306   4.568  13.401 -2.8307 -0.6689  2.3567
 7603SOL     OW34267   0.078   1.008   5.956 -0.7621  0.3545  0.1758
 7603SOL    HW134268   0.140   1.081   5.958 -1.4303  0.8280  2.9385
 7603SOL    HW234269   0.061   0.992   5.863  2.3144  0.0295 -0.3637
 7604SOL     OW34270   2.956   1.976   8.157 -0.3993 -0.0329 -0.1822
 7604SOL    HW134271   2.920   1.996   8.243  1.2930 -1.8092  0.9414
 7604SOL    HW234272   2.994   1.890   8.174  2.3693  0.2708 -4.6547
 7605SOL     OW34273   1.347   1.030  12.309  0.1180 -0.0912  0.3979
 7605SOL    HW134274   1.268   1.039  12.256  0.7550  1.4923 -0.2517
 7605SOL    HW234275   1.355   1.124  12.324  0.1515  0.3457 -2.5163
 7606SOL     OW34276   0.688   1.611   6.879  0.3432  0.1439 -0.6583
 7606SOL    HW134277   0.748   1.554   6.925  0.1521  0.4581 -0.0241
 7606SOL    HW234278   0.636   1.541   6.838  1.1825 -1.4827  1.0656
 7607SOL     OW34279   2.136   0.773   3.740 -0.4094 -0.1629 -0.4463
 7607SOL    HW134280   2.122   0.859   3.779 -2.4305  0.5270 -2.7308
 7607SOL    HW234281   2.073   0.723   3.790 -1.8221  0.6624 -1.3988
 7608SOL     OW34282   0.956   1.452  15.363  0.1730 -0.3809 -0.6200
 7608SOL    HW134283   0.879   1.507  15.382 -0.0135 -1.0657  0.6136
 7608SOL    HW234284   1.028   1.503  15.400  1.9215 -2.4076 -1.2803
 7609SOL     OW34285   1.301   2.026   4.074 -0.2781 -0.2937  0.9091
 7609SOL    HW134286   1.238   2.072   4.018  1.2717  2.3069  1.2896
 7609SOL    HW234287   1.374   2.008   4.016 -0.6551  0.5442  0.1773
 7610SOL     OW34288   1.250   3.963   7.924  0.1263  0.1473  0.5236
 7610SOL    HW134289   1.340   3.951   7.895  0.6425 -0.1270  2.2515
 7610SOL    HW234290   1.205   3.923   7.850  0.6716 -0.1241  0.3366
 7611SOL     OW34291   3.515   4.157  12.851  0.4252  0.1762 -0.1132
 7611SOL    HW134292   3.489   4.094  12.784 -0.5082 -0.1183  0.5254
 7611SOL    HW234293   3.605   4.174  12.823 -0.1816 -0.1851 -2.2843
 7612SOL     OW34294   2.773   0.939   6.773  0.0348 -0.1645  0.1266
 7612SOL    HW134295   2.689   0.939   6.818 -2.1049  1.3646 -3.8674
 7612SOL    HW234296   2.802   1.030   6.780  0.1529 -0.1252 -0.8562
 7613SOL     OW34297   2.528   2.278  16.767 -0.0566 -1.0535 -0.1126
 7613SOL    HW134298   2.447   2.231  16.788  0.5560 -2.3863 -0.7479
 7613SOL    HW234299   2.533   2.282  16.671 -0.1810  0.7097 -0.0304
 7614SOL     OW34300   0.046   3.315  12.408  0.0238  0.0486  0.0798
 7614SOL    HW134301   0.003   3.328  12.492  0.8336  1.5574  0.2613
 7614SOL    HW234302   0.076   3.226  12.423 -0.6024 -0.4998 -1.8873
 7615SOL     OW34303   4.302   2.840   7.664 -0.2805  0.2572  0.1247
 7615SOL    HW134304   4.245   2.764   7.672  0.2872 -0.0338  1.4889
 7615SOL    HW234305   4.378   2.819   7.718 -1.0034  0.6428  1.3051
 7616SOL     OW34306   2.691   3.183   0.781 -0.5113 -0.2544  0.0585
 7616SOL    HW134307   2.607   3.172   0.826 -1.5872  0.9170 -1.6498
 7616SOL    HW234308   2.660   3.252   0.723 -0.1443  0.6050  0.8824
 7617SOL     OW34309   2.030   2.788   9.095 -0.3976 -0.6240  0.7226
 7617SOL    HW134310   2.031   2.800   9.190 -0.3262 -3.1761  1.0414
 7617SOL    HW234311   1.988   2.872   9.074 -0.8719 -0.4284  2.5100
 7618SOL     OW34312   4.357   0.383   4.697 -0.1044  0.5852 -0.3694
 7618SOL    HW134313   4.384   0.292   4.711 -0.7047  0.3811 -0.5364
 7618SOL    HW234314   4.284   0.372   4.635 -1.3100 -0.2490  1.1890
 7619SOL     OW34315   1.833   2.583   2.362 -0.3243  0.2793 -0.3334
 7619SOL    HW134316   1.806   2.519   2.428 -0.3126 -0.0191 -0.6184
 7619SOL    HW234317   1.774   2.659   2.363 -1.1190 -0.2994 -1.9192
 7620SOL     OW34318   0.708   4.580   0.858  0.0919  0.1478  0.0700
 7620SOL    HW134319   0.701   4.573   0.763 -2.1406 -2.3530  0.4299
 7620SOL    HW234320   0.648   4.649   0.884 -0.0202 -0.1107  0.4914
 7621SOL     OW34321   4.107   2.214   8.528  0.6904 -0.0108 -0.0094
 7621SOL    HW134322   4.200   2.215   8.551  0.8491  1.5264 -0.7210
 7621SOL    HW234323   4.104   2.308   8.507  2.1674  0.1317  0.3979
 7622SOL     OW34324   0.956   1.463   3.181  0.7726  0.3369 -0.3742
 7622SOL    HW134325   0.943   1.453   3.087 -0.8034  0.6439 -0.1953
 7622SOL    HW234326   0.867   1.484   3.210  0.7613 -0.4250  0.1277
 7623SOL     OW34327   0.071   4.587   4.712 -0.3927  0.2770 -0.4404
 7623SOL    HW134328   0.042   4.665   4.758  4.0776  1.9279 -0.4186
 7623SOL    HW234329   0.152   4.622   4.677  0.1755 -1.7666 -1.2080
 7624SOL     OW34330   0.293   2.616  12.120 -0.2339  0.0873  0.0211
 7624SOL    HW134331   0.302   2.590  12.028  0.0412 -0.3495  0.1728
 7624SOL    HW234332   0.335   2.700  12.104  0.6525 -0.2632  0.5205
 7625SOL     OW34333   1.376   4.152   0.041 -0.0765  0.1538  0.0033
 7625SOL    HW134334   1.315   4.191   0.104 -1.0568 -0.6493 -0.4609
 7625SOL    HW234335   1.459   4.182   0.080  1.7872 -2.1734 -2.1929
 7626SOL     OW34336   1.523   1.391  13.893 -0.0799 -0.1675 -0.4420
 7626SOL    HW134337   1.515   1.354  13.981 -0.3217  2.5255  0.6628
 7626SOL    HW234338   1.588   1.460  13.905 -0.6789  0.3308 -0.0048
 7627SOL     OW34339   1.877   4.539  12.322 -0.3067  0.2778 -0.1205
 7627SOL    HW134340   1.885   4.558  12.229  0.9717  2.5634  0.4582
 7627SOL    HW234341   1.891   4.445  12.325 -0.6823  0.1960 -0.8159
 7628SOL     OW34342   3.947   1.006  16.199  0.1405 -0.3389 -0.5352
 7628SOL    HW134343   3.975   1.022  16.109 -0.6720 -0.2059 -0.7581
 7628SOL    HW234344   3.936   0.911  16.192  1.5974 -0.4366 -1.6267
 7629SOL     OW34345   0.513   4.169   4.431 -0.4791 -0.4242  0.5505
 7629SOL    HW134346   0.458   4.091   4.423  0.1360 -0.7194 -0.6787
 7629SOL    HW234347   0.596   4.130   4.404  0.3155  0.5949  1.5009
 7630SOL     OW34348   3.618   0.677   3.780 -0.0153 -0.3502 -0.4967
 7630SOL    HW134349   3.644   0.762   3.816  2.9105 -1.8667  1.0091
 7630SOL    HW234350   3.602   0.708   3.691 -0.5643 -0.0679 -0.3004
 7631SOL     OW34351   0.518   3.410   5.279 -0.2285 -0.1043 -0.5615
 7631SOL    HW134352   0.558   3.495   5.261 -0.4204  0.1904  0.3766
 7631SOL    HW234353   0.435   3.431   5.321 -0.2327  0.1714 -0.7083
 7632SOL     OW34354   4.472   0.206   5.828 -0.0981  0.5034 -0.1844
 7632SOL    HW134355   4.556   0.169   5.801 -0.4519 -0.3720 -0.0947
 7632SOL    HW234356   4.413   0.131   5.821  1.6756 -0.8783 -0.2843
 7633SOL     OW34357   3.179   4.453   4.141 -0.3616 -0.6226  0.9703
 7633SOL    HW134358   3.126   4.376   4.160 -0.3075 -0.2863  2.4857
 7633SOL    HW234359   3.163   4.475   4.049  1.6906 -0.4826  0.6308
 7634SOL     OW34360   2.298   1.431   9.130 -0.2523  0.5321  0.3012
 7634SOL    HW134361   2.231   1.431   9.062 -0.2258  0.3887  0.2752
 7634SOL    HW234362   2.252   1.422   9.213  1.7303  3.2158  1.7221
 7635SOL     OW34363   1.579   0.081   4.896  0.3183  0.8381 -0.0699
 7635SOL    HW134364   1.541   0.160   4.857 -1.2951  0.4247  0.6481
 7635SOL    HW234365   1.503   0.024   4.890  1.5925 -0.8478  0.0513
 7636SOL     OW34366   1.343   0.717   3.795 -0.3530 -0.0002  0.2078
 7636SOL    HW134367   1.363   0.810   3.798 -0.7305  0.1204 -1.1066
 7636SOL    HW234368   1.433   0.684   3.794  0.2441  1.6203  0.3670
 7637SOL     OW34369   0.245   4.335   7.137 -0.2104 -0.5662 -0.2049
 7637SOL    HW134370   0.290   4.251   7.131  2.5383  1.0762 -2.6681
 7637SOL    HW234371   0.159   4.299   7.162 -0.3750 -1.0379 -1.4399
 7638SOL     OW34372   4.229   3.194  17.306 -0.6337  0.3521  0.2181
 7638SOL    HW134373   4.221   3.124  17.371  1.0351 -2.4211 -2.5333
 7638SOL    HW234374   4.138   3.211  17.280 -0.0492  3.7910  0.4690
 7639SOL     OW34375   0.306   4.068   5.193  0.2444  0.4084 -0.0751
 7639SOL    HW134376   0.311   4.047   5.100  1.9527 -1.5687  0.4820
 7639SOL    HW234377   0.285   4.161   5.198  0.7944  0.4860  0.7886
 7640SOL     OW34378   4.205   0.795   9.104 -0.5232 -0.3104 -0.2966
 7640SOL    HW134379   4.180   0.850   9.030  1.5321 -1.0099 -1.5265
 7640SOL    HW234380   4.215   0.710   9.061 -0.3592  0.9594 -2.7389
 7641SOL     OW34381   0.735   2.057   7.499  0.9905 -0.3057 -0.2558
 7641SOL    HW134382   0.733   2.023   7.409  4.0444  1.6566 -1.0546
 7641SOL    HW234383   0.759   1.973   7.539 -0.7030 -0.1494  1.1074
 7642SOL     OW34384   2.395   2.983  10.905  0.3803  0.7409 -0.5047
 7642SOL    HW134385   2.455   2.910  10.919 -0.1654  0.2468 -0.7577
 7642SOL    HW234386   2.362   2.990  10.994  0.0240 -0.6408 -0.5409
 7643SOL     OW34387   0.065   1.155   8.821 -0.0291 -0.1007  0.7905
 7643SOL    HW134388   4.714   1.134   8.878 -1.1424 -0.0206 -0.6390
 7643SOL    HW234389   0.031   1.240   8.793 -2.3758 -1.3906 -0.2825
 7644SOL     OW34390   1.353   4.663   0.965 -0.2129  0.0436 -0.0959
 7644SOL    HW134391   1.306   0.010   0.919  1.4856  1.5469  0.4340
 7644SOL    HW234392   1.430   4.658   0.909  1.8079  0.2861  2.6569
 7645SOL     OW34393   0.516   3.135   5.156  0.0229  0.1941  0.1235
 7645SOL    HW134394   0.427   3.151   5.126 -0.0630 -0.5493 -0.0293
 7645SOL    HW234395   0.527   3.197   5.228  1.2427  1.1198 -0.8565
 7646SOL     OW34396   4.100   0.110   2.674  0.1867  0.5467 -0.1197
 7646SOL    HW134397   4.140   0.196   2.688  0.5827  0.3361  0.0447
 7646SOL    HW234398   4.048   0.122   2.594 -0.0808 -2.0691 -0.3291
 7647SOL     OW34399   3.594   2.578  13.708  0.3736 -0.6164 -0.4352
 7647SOL    HW134400   3.554   2.649  13.658  3.6111  0.0664 -1.9945
 7647SOL    HW234401   3.519   2.519  13.721 -0.1084  0.7694  3.0736
 7648SOL     OW34402   0.729   0.482   5.884 -0.2330  0.1364  0.2368
 7648SOL    HW134403   0.642   0.519   5.899  0.1581 -0.1963  3.4338
 7648SOL    HW234404   0.752   0.418   5.952 -0.2922 -0.7664 -0.5975
 7649SOL     OW34405   2.038   2.062   3.886  0.3921 -0.3501 -0.1437
 7649SOL    HW134406   2.039   1.970   3.914 -1.9682 -0.9322 -2.0056
 7649SOL    HW234407   2.108   2.057   3.820 -1.0051 -2.1108 -1.5019
 7650SOL     OW34408   0.149   3.736   3.233 -0.7359 -0.5947  0.0380
 7650SOL    HW134409   0.183   3.766   3.148 -2.4736  2.0498  0.2706
 7650SOL    HW234410   0.061   3.773   3.233 -0.9449 -1.0952  0.0721
 7651SOL     OW34411   3.752   2.342   7.805 -0.0293  0.6795  0.4997
 7651SOL    HW134412   3.682   2.305   7.859  1.2117  0.1049  1.7238
 7651SOL    HW234413   3.815   2.272   7.787 -0.7146  0.0432  0.5700
 7652SOL     OW34414   3.656   2.910  11.626  0.1333  0.3331 -0.4522
 7652SOL    HW134415   3.643   2.911  11.532 -1.2137  0.2537 -0.2568
 7652SOL    HW234416   3.672   2.817  11.643  0.7912  0.7320  1.1908
 7653SOL     OW34417   2.828   0.667   3.254 -0.1466 -0.4474 -0.2561
 7653SOL    HW134418   2.777   0.746   3.239 -1.3600 -1.5454 -1.9005
 7653SOL    HW234419   2.903   0.686   3.198 -0.1474 -2.4867 -0.9562
 7654SOL     OW34420   4.255   1.381   1.698  0.3265  0.3560 -0.2406
 7654SOL    HW134421   4.209   1.298   1.692 -0.3685  0.7206 -0.0156
 7654SOL    HW234422   4.177   1.437   1.696 -1.1708 -1.7802 -0.5630
 7655SOL     OW34423   1.313   1.649   2.849 -0.1101 -0.0648  0.2995
 7655SOL    HW134424   1.338   1.708   2.920 -0.7891  0.7573 -0.1361
 7655SOL    HW234425   1.226   1.685   2.830  0.5044  0.5229 -1.4123
 7656SOL     OW34426   2.360   0.133   3.453 -0.5896  0.6508 -0.6200
 7656SOL    HW134427   2.342   0.044   3.424  2.5864  0.2536 -1.4537
 7656SOL    HW234428   2.328   0.143   3.542 -1.1266  1.3311 -0.8928
 7657SOL     OW34429   4.011   0.554   2.120  0.3032 -0.1255 -0.3504
 7657SOL    HW134430   4.030   0.466   2.089 -0.1260 -0.5142  0.5026
 7657SOL    HW234431   3.980   0.538   2.209  1.9750 -1.1654  0.0423
 7658SOL     OW34432   3.584   0.006   9.200 -0.3324  0.4625  0.1293
 7658SOL    HW134433   3.571   0.090   9.244 -0.7175 -0.3133  1.4796
 7658SOL    HW234434   3.663   4.701   9.246 -1.8528 -1.5277  1.5504
 7659SOL     OW34435   1.080   0.055  16.381  0.2435 -0.3163 -0.4403
 7659SOL    HW134436   1.153   0.110  16.409  0.2976 -2.6544  4.0476
 7659SOL    HW234437   1.088   0.049  16.286  1.0999 -0.5201 -0.3564
 7660SOL     OW34438   0.780   3.707  13.382 -0.5122 -0.0246  0.4867
 7660SOL    HW134439   0.812   3.682  13.295 -1.2046 -0.4583  0.3468
 7660SOL    HW234440   0.735   3.627  13.411  0.0943 -0.8076 -0.7244
 7661SOL     OW34441   1.731   0.722   7.324 -0.0714  0.1326  0.2843
 7661SOL    HW134442   1.686   0.806   7.338  0.3589  0.4093  0.0049
 7661SOL    HW234443   1.749   0.709   7.417 -0.6498  2.0275  0.6657
 7662SOL     OW34444   3.552   4.393   2.909 -0.0922 -0.0241  0.1736
 7662SOL    HW134445   3.488   4.429   2.970  1.6599  1.1215  1.3437
 7662SOL    HW234446   3.489   4.345   2.856 -0.3675  0.5203  0.0122
 7663SOL     OW34447   2.086   2.102   1.159 -0.3935  0.0598  0.0080
 7663SOL    HW134448   2.092   2.029   1.220 -2.5852  0.1447  0.3183
 7663SOL    HW234449   2.124   2.173   1.210  0.8580  0.8529 -1.9948
 7664SOL     OW34450   4.178   2.142  15.415 -0.3958  0.3018  0.8867
 7664SOL    HW134451   4.196   2.099  15.498  0.9284  1.2290  1.0844
 7664SOL    HW234452   4.084   2.156  15.423 -0.9677 -2.8654 -0.3013
 7665SOL     OW34453   3.636   3.981   8.173  0.0028  0.0167  0.2659
 7665SOL    HW134454   3.560   4.030   8.205  1.4032  0.6674  2.5583
 7665SOL    HW234455   3.602   3.891   8.174 -1.5794  0.5796 -2.1316
 7666SOL     OW34456   0.569   1.352   6.491 -0.3063  0.2066 -0.5363
 7666SOL    HW134457   0.654   1.395   6.500  1.0494 -1.9910 -2.7104
 7666SOL    HW234458   0.527   1.400   6.420  0.0859 -0.1129 -0.9852
 7667SOL     OW34459   2.439   1.073   5.196  0.9768 -0.8254  0.1304
 7667SOL    HW134460   2.503   1.122   5.144 -0.6910  0.8729 -0.3268
 7667SOL    HW234461   2.379   1.051   5.125  2.3335 -3.9816 -0.0496
 7668SOL     OW34462   0.624   1.407  10.266 -0.6063 -0.3198 -0.2955
 7668SOL    HW134463   0.612   1.314  10.245  1.5818 -0.5254 -0.6668
 7668SOL    HW234464   0.594   1.453  10.188  0.9251  0.1077 -0.6380
 7669SOL     OW34465   2.928   4.371   4.934  0.0269 -0.4400 -0.0313
 7669SOL    HW134466   2.938   4.276   4.940 -0.0150 -0.4787 -0.5239
 7669SOL    HW234467   2.903   4.360   4.842  3.2796 -1.2768 -0.8081
 7670SOL     OW34468   4.512   3.935   6.369  0.4626 -0.1951 -0.4295
 7670SOL    HW134469   4.438   3.955   6.311  0.8157  1.4400 -0.3015
 7670SOL    HW234470   4.473   3.870   6.427 -2.2584  1.7939 -0.0404
 7671SOL     OW34471   4.270   1.051   3.821 -0.3439  0.4000 -0.2916
 7671SOL    HW134472   4.302   1.129   3.776  1.1804  1.1317  2.0301
 7671SOL    HW234473   4.314   1.062   3.906 -2.6390  1.5434  0.7314
 7672SOL     OW34474   0.586   3.758   9.697 -0.3101 -0.2283  0.0057
 7672SOL    HW134475   0.612   3.748   9.788 -0.9830  1.0514  0.3317
 7672SOL    HW234476   0.659   3.717   9.651 -0.1342  1.2436 -1.0173
 7673SOL     OW34477   3.003   0.527  14.596  0.8417 -0.3664 -0.5016
 7673SOL    HW134478   3.017   0.612  14.639 -1.1327 -1.1342  1.6665
 7673SOL    HW234479   3.093   0.505  14.574 -0.1126 -2.5919 -2.1091
 7674SOL     OW34480   1.215   4.255   7.208  0.6833 -0.2303 -0.2400
 7674SOL    HW134481   1.123   4.272   7.185  0.4685  0.9297  1.4978
 7674SOL    HW234482   1.215   4.159   7.207  1.0021 -0.2251 -2.6130
 7675SOL     OW34483   0.245   4.688  11.963 -0.4810 -0.6818 -0.2521
 7675SOL    HW134484   0.336   4.684  11.994  0.2979 -0.1478 -2.4591
 7675SOL    HW234485   0.201   4.640  12.033  1.8504 -2.6912 -0.1284
 7676SOL     OW34486   0.428   4.422  16.668 -0.1397  0.4652 -0.2720
 7676SOL    HW134487   0.441   4.351  16.732 -0.3636 -1.1687 -2.0286
 7676SOL    HW234488   0.404   4.367  16.593 -0.0392 -1.3755  1.0211
 7677SOL     OW34489   0.230   3.272   4.911  0.1424 -0.7474  0.2331
 7677SOL    HW134490   0.234   3.200   4.974  2.1020 -0.0535  0.9018
 7677SOL    HW234491   0.205   3.346   4.967  0.0195 -0.0231 -0.7888
 7678SOL     OW34492   0.103   1.684  15.886 -0.5998  0.0956  0.3090
 7678SOL    HW134493   0.135   1.725  15.966  2.3500 -1.4629 -0.0516
 7678SOL    HW234494   0.073   1.761  15.838  1.9149 -0.2714 -1.8865
 7679SOL     OW34495   0.993   3.765   7.967 -0.2807  0.3424  0.3645
 7679SOL    HW134496   1.045   3.712   8.027  2.5394  0.5199 -1.9711
 7679SOL    HW234497   1.033   3.746   7.883 -0.0385 -0.7465  0.7337
 7680SOL     OW34498   2.425   3.105   5.835 -0.1342  0.8313 -0.4222
 7680SOL    HW134499   2.490   3.036   5.832  0.7127  1.6053  0.2238
 7680SOL    HW234500   2.469   3.179   5.794 -0.7137  1.0367 -0.6804
 7681SOL     OW34501   3.302   2.534   4.268 -0.1360 -0.1902 -0.4814
 7681SOL    HW134502   3.233   2.469   4.286 -0.4046  1.1847  3.4220
 7681SOL    HW234503   3.352   2.525   4.349 -2.7106  1.0388  1.2511
 7682SOL     OW34504   0.494   1.723   4.422  0.3322  0.0855  0.0869
 7682SOL    HW134505   0.503   1.631   4.396  2.4199  0.2380  0.2571
 7682SOL    HW234506   0.464   1.763   4.341 -0.0340 -0.2538  0.0536
 7683SOL     OW34507   2.646   2.558   7.535 -0.1160 -1.0539 -0.6775
 7683SOL    HW134508   2.732   2.530   7.567  0.7661  0.9998 -1.3085
 7683SOL    HW234509   2.662   2.622   7.466  0.2234 -0.4564 -0.0488
 7684SOL     OW34510   3.497   2.991   2.510  0.0146 -0.0911  0.1891
 7684SOL    HW134511   3.491   3.065   2.570  0.4300 -0.0379  0.1659
 7684SOL    HW234512   3.510   3.033   2.425  1.3495 -0.1838  0.3412
 7685SOL     OW34513   0.211   1.371   4.076 -0.4839  0.0748  0.5872
 7685SOL    HW134514   0.237   1.311   4.147  1.0038 -0.3264 -0.2983
 7685SOL    HW234515   0.279   1.436   4.092 -0.8840  0.5948  0.1483
 7686SOL     OW34516   4.349   2.110  12.794  0.1898 -0.0951  0.1668
 7686SOL    HW134517   4.265   2.074  12.821 -0.0705  0.7942  0.5406
 7686SOL    HW234518   4.336   2.193  12.839 -0.5465 -0.3033  0.3489
 7687SOL     OW34519   2.267   3.176   7.124 -0.1402  0.0852 -0.5486
 7687SOL    HW134520   2.308   3.092   7.106  0.3992  0.6085 -1.8367
 7687SOL    HW234521   2.186   3.147   7.165  0.8617 -1.5404  0.2844
 7688SOL     OW34522   3.015   4.475   7.967 -0.5268  0.0007  0.3375
 7688SOL    HW134523   2.969   4.503   8.046 -0.2615  1.0638  0.1133
 7688SOL    HW234524   2.950   4.418   7.928 -1.2337 -1.5802  3.7791
 7689SOL     OW34525   3.597   4.066   5.508 -0.2094  0.4189 -0.4773
 7689SOL    HW134526   3.637   4.053   5.593 -0.5745  1.2976 -0.1729
 7689SOL    HW234527   3.513   4.103   5.535 -1.0400 -2.1354  0.4222
 7690SOL     OW34528   0.142   0.487   1.774 -0.3241  0.2812 -0.1085
 7690SOL    HW134529   0.236   0.466   1.780 -0.5906 -0.5046  1.1489
 7690SOL    HW234530   0.145   0.582   1.763 -1.1715  0.3874  0.6624
 7691SOL     OW34531   0.072   4.667   8.862  0.5416 -0.4501 -0.2565
 7691SOL    HW134532   4.709   4.645   8.898 -0.0423  2.1646 -0.0366
 7691SOL    HW234533   0.121   4.593   8.897  1.1592  0.3514  0.5702
 7692SOL     OW34534   3.650   0.740   6.534  0.8690 -0.3031 -0.3953
 7692SOL    HW134535   3.698   0.792   6.470  1.8424 -0.3962  0.2609
 7692SOL    HW234536   3.724   0.687   6.564 -0.3555 -0.0961  3.0372
 7693SOL     OW34537   0.063   1.675   6.384  0.0427  0.1530 -0.1626
 7693SOL    HW134538   0.136   1.614   6.394  0.5845  1.5622  4.4036
 7693SOL    HW234539   0.099   1.759   6.414  0.3205  0.0110 -0.0979
 7694SOL     OW34540   4.117   3.742   5.219 -0.0230  0.3467 -0.5881
 7694SOL    HW134541   4.021   3.738   5.220 -0.0154  0.3875  0.8669
 7694SOL    HW234542   4.142   3.659   5.179 -0.7133  0.1790 -0.6745
 7695SOL     OW34543   4.493   4.209   6.207 -0.3999 -0.0982  0.0400
 7695SOL    HW134544   4.456   4.218   6.295  1.4578 -1.2136  0.9317
 7695SOL    HW234545   4.569   4.267   6.209  0.6791 -1.4933 -0.6962
 7696SOL     OW34546   4.597   2.012   2.205 -0.4210  0.0933 -0.0959
 7696SOL    HW134547   4.623   2.052   2.288 -2.8033  0.7120  0.3705
 7696SOL    HW234548   4.675   2.016   2.150  1.2686 -1.3636  2.1806
 7697SOL     OW34549   2.542   2.052   4.106  0.3273  0.3135  0.9128
 7697SOL    HW134550   2.572   2.138   4.075  0.9160 -0.5393 -0.8645
 7697SOL    HW234551   2.620   2.002   4.085 -0.7146 -1.5939  1.5840
 7698SOL     OW34552   0.285   2.557  11.862  0.4088 -0.5161 -0.6431
 7698SOL    HW134553   0.356   2.540  11.802  1.2839  2.3664 -0.4597
 7698SOL    HW234554   0.269   2.645  11.827 -0.2260 -0.8605 -1.2204
 7699SOL     OW34555   2.319   0.505   2.060  0.4286 -0.1789 -0.1645
 7699SOL    HW134556   2.259   0.478   2.129  1.3766 -0.4557  0.5548
 7699SOL    HW234557   2.374   0.568   2.106 -3.3581  1.8768  1.5264
 7700SOL     OW34558   3.297   3.164   7.497 -0.1441 -0.2347 -0.1060
 7700SOL    HW134559   3.247   3.173   7.578  0.9458  0.9898  0.4232
 7700SOL    HW234560   3.369   3.226   7.508 -1.4520  1.4417 -1.0372
 7701SOL     OW34561   1.994   2.364   5.391 -0.4103  0.0405  0.0582
 7701SOL    HW134562   2.068   2.389   5.335  0.8008 -2.7199  0.4093
 7701SOL    HW234563   2.021   2.360   5.483  0.3581  0.0479 -0.1617
 7702SOL     OW34564   3.817   4.092   9.890  0.4478  0.1242  0.0225
 7702SOL    HW134565   3.907   4.123   9.901  0.8797 -0.9160 -0.4880
 7702SOL    HW234566   3.805   4.088   9.795  0.6927 -2.9585  0.1151
 7703SOL     OW34567   0.751   4.634  15.447 -0.0032 -0.3752 -0.1061
 7703SOL    HW134568   0.822   4.626  15.383  1.7180  0.1511  1.7545
 7703SOL    HW234569   0.794   4.656  15.529 -0.8487  0.3118  0.1509
 7704SOL     OW34570   2.372   4.595  14.905 -0.0717 -0.2660  0.2237
 7704SOL    HW134571   2.415   4.561  14.827 -0.5198 -1.5729  0.5585
 7704SOL    HW234572   2.295   4.542  14.921  0.6839 -1.7156 -1.0170
 7705SOL     OW34573   3.288   1.576  10.197  0.3520  0.5667 -0.2713
 7705SOL    HW134574   3.261   1.500  10.248  0.4364  0.1291 -0.8890
 7705SOL    HW234575   3.209   1.630  10.204 -0.5978 -0.9070  0.3259
 7706SOL     OW34576   0.322   1.357  13.387 -0.1051 -0.1054  0.0050
 7706SOL    HW134577   0.357   1.324  13.304  2.9406  0.3088  1.1389
 7706SOL    HW234578   0.235   1.387  13.361 -0.3343  0.7106  1.7112
 7707SOL     OW34579   2.800   0.147  12.766 -0.0834  0.4506 -0.5723
 7707SOL    HW134580   2.778   0.151  12.859 -0.0725  3.4338 -0.6926
 7707SOL    HW234581   2.889   0.182  12.772  0.8458 -2.0336  0.0766
 7708SOL     OW34582   1.735   4.117  10.345  0.4456  0.1815  0.2613
 7708SOL    HW134583   1.829   4.118  10.330  0.0899  0.5982 -1.9048
 7708SOL    HW234584   1.731   4.023  10.330 -1.8824  0.1822  0.9313
 7709SOL     OW34585   0.427   4.471   5.435  0.6392  0.2779 -0.0432
 7709SOL    HW134586   0.412   4.379   5.457 -0.8026  0.7113  0.7751
 7709SOL    HW234587   0.504   4.455   5.380  2.0157  0.7202  1.7788
 7710SOL     OW34588   3.365   1.902   2.284 -0.0480  0.5827 -0.3916
 7710SOL    HW134589   3.365   1.986   2.331 -0.5404 -0.1749  0.9678
 7710SOL    HW234590   3.459   1.897   2.265 -0.2351  0.1265 -1.1845
 7711SOL     OW34591   2.717   3.775   6.755  0.5178  0.0136  0.5728
 7711SOL    HW134592   2.734   3.804   6.665  1.1124  2.4370  1.4495
 7711SOL    HW234593   2.785   3.709   6.770  0.5168 -0.3500 -0.9766
 7712SOL     OW34594   1.259   1.932   2.490 -0.1004 -0.0782 -0.2550
 7712SOL    HW134595   1.213   2.009   2.456  0.7457  1.6119  2.4443
 7712SOL    HW234596   1.236   1.870   2.420 -1.5370  1.3842 -1.0712
 7713SOL     OW34597   1.726   3.000   5.253 -0.2970 -0.1380 -0.5799
 7713SOL    HW134598   1.715   2.905   5.263  1.8604 -0.1062  2.0111
 7713SOL    HW234599   1.636   3.032   5.264 -0.0127  0.8901 -1.2836
 7714SOL     OW34600   1.870   2.930   3.906 -0.2335  0.1445 -0.2689
 7714SOL    HW134601   1.935   2.999   3.896  0.7881 -0.8917 -0.7659
 7714SOL    HW234602   1.818   2.953   3.829 -1.7323 -0.8429  0.4325
 7715SOL     OW34603   3.249   0.414   3.028  0.5179 -0.0769  0.1634
 7715SOL    HW134604   3.210   0.473   2.963  0.0887 -1.2029 -0.5807
 7715SOL    HW234605   3.257   0.333   2.978 -1.9031  1.0696 -2.0705
 7716SOL     OW34606   2.485   0.088  16.827 -1.0177 -0.1365 -0.4132
 7716SOL    HW134607   2.434   0.163  16.859  0.6460  0.8436 -0.0472
 7716SOL    HW234608   2.454   0.024  16.891 -0.7048 -0.3505 -0.4791
 7717SOL     OW34609   1.222   4.398   1.326 -0.4853 -0.2572  0.2771
 7717SOL    HW134610   1.168   4.319   1.325 -0.2330 -0.4070 -1.5008
 7717SOL    HW234611   1.188   4.441   1.248 -0.7332  0.8566  0.9975
 7718SOL     OW34612   3.743   2.352   9.225  0.2374 -0.1314 -0.1033
 7718SOL    HW134613   3.799   2.388   9.294  0.4376 -4.0680  1.8065
 7718SOL    HW234614   3.700   2.284   9.277 -0.4683 -0.6883 -1.4253
 7719SOL     OW34615   4.186   0.985   8.215 -0.0350  0.0532  0.0725
 7719SOL    HW134616   4.261   1.005   8.160 -0.4605  2.0204  0.2009
 7719SOL    HW234617   4.119   1.045   8.182  0.4422 -0.3701 -1.6604
 7720SOL     OW34618   0.675   4.629   5.471 -0.3545 -0.0374  0.9724
 7720SOL    HW134619   0.684   4.691   5.398 -1.4874  0.7471  1.5056
 7720SOL    HW234620   0.671   4.544   5.426 -0.0892  0.3764  0.1603
 7721SOL     OW34621   0.506   1.555  12.582  0.2009  0.3309 -0.2561
 7721SOL    HW134622   0.465   1.632  12.620  2.5433  0.4728  2.0146
 7721SOL    HW234623   0.472   1.492  12.645  1.1822 -0.5293 -0.5906
 7722SOL     OW34624   4.706   2.973   6.168  0.0760  0.4945  0.2971
 7722SOL    HW134625   0.062   2.936   6.130 -1.0986 -3.7017  1.9282
 7722SOL    HW234626   4.709   2.923   6.250 -2.2920 -0.0485  0.0582
 7723SOL     OW34627   0.314   3.786   6.604  0.4364 -0.4791 -0.3720
 7723SOL    HW134628   0.278   3.871   6.577 -0.1832 -1.5345 -2.8175
 7723SOL    HW234629   0.375   3.772   6.531  1.6572  0.0934  0.5389
 7724SOL     OW34630   3.713   0.211   3.384 -0.2654  0.2193 -0.2131
 7724SOL    HW134631   3.774   0.277   3.352  1.2139 -0.7406  0.6569
 7724SOL    HW234632   3.697   0.258   3.466  0.8749 -0.0687  0.1678
 7725SOL     OW34633   3.315   0.110   8.417 -0.0722 -0.0536  0.1740
 7725SOL    HW134634   3.357   0.149   8.494  1.1483 -2.1976  0.5902
 7725SOL    HW234635   3.384   0.101   8.351  0.2852 -0.2173  0.5711
 7726SOL     OW34636   2.781   4.477   7.394  0.3563  0.3234 -0.0026
 7726SOL    HW134637   2.862   4.427   7.381 -0.2673 -0.2661 -1.6896
 7726SOL    HW234638   2.713   4.438   7.339 -0.0364 -1.2553  1.6009
 7727SOL     OW34639   3.137   0.033   5.634 -0.1358  0.0446 -0.0391
 7727SOL    HW134640   3.083   4.704   5.694 -0.1770 -0.0034 -0.1163
 7727SOL    HW234641   3.153   0.106   5.693  0.0537 -2.3017  2.8358
 7728SOL     OW34642   2.366   1.356   5.007  0.1751  0.1238  0.3218
 7728SOL    HW134643   2.316   1.438   5.019 -0.0890 -0.0785  0.6165
 7728SOL    HW234644   2.378   1.347   5.102 -1.4618  0.2217  0.5393
 7729SOL     OW34645   1.309   0.449   9.894  0.2458 -0.2274  0.0298
 7729SOL    HW134646   1.226   0.459   9.939  0.3912  1.7103 -0.1351
 7729SOL    HW234647   1.319   0.534   9.852  1.7177 -1.0208 -1.2306
 7730SOL     OW34648   3.477   3.801   0.586 -0.4514 -0.2454  0.2306
 7730SOL    HW134649   3.461   3.735   0.653 -0.1471 -2.8704 -2.2429
 7730SOL    HW234650   3.540   3.854   0.635  0.2866 -1.6292  0.7959
 7731SOL     OW34651   4.166   2.467   5.517  0.1461 -0.1864  0.0812
 7731SOL    HW134652   4.248   2.511   5.497 -1.1703  1.9797 -0.5976
 7731SOL    HW234653   4.101   2.511   5.462 -0.0490 -0.4616  0.0900
 7732SOL     OW34654   3.878   0.086  13.567 -0.2112 -0.2893  0.1412
 7732SOL    HW134655   3.824   0.067  13.490 -1.4411  1.5495  0.5367
 7732SOL    HW234656   3.957   0.126  13.530  1.0540 -1.5649  1.4659
 7733SOL     OW34657   2.505   2.752  11.334  0.2299 -0.4335 -0.2824
 7733SOL    HW134658   2.597   2.730  11.318  0.7599 -0.1777  2.4470
 7733SOL    HW234659   2.468   2.664  11.332  0.7313 -0.7078  2.3122
 7734SOL     OW34660   0.056   3.341   1.971  0.1526  0.1679  0.4028
 7734SOL    HW134661   0.147   3.339   1.999 -0.0095 -2.0845  0.8321
 7734SOL    HW234662   0.057   3.427   1.929 -0.8078  1.4428  2.9784
 7735SOL     OW34663   1.893   2.912   7.187 -0.0744 -0.2445 -0.4837
 7735SOL    HW134664   1.827   2.948   7.246 -0.5426 -1.2169 -0.4047
 7735SOL    HW234665   1.970   2.956   7.223  0.4607 -0.9292 -0.7814
 7736SOL     OW34666   1.576   3.537   6.261 -0.2369  0.3175 -0.1799
 7736SOL    HW134667   1.667   3.505   6.262 -0.0364  0.9315  1.9161
 7736SOL    HW234668   1.591   3.627   6.234  2.7762 -1.2528 -3.6482
 7737SOL     OW34669   1.264   4.447   4.875 -0.5779 -0.1653  0.7495
 7737SOL    HW134670   1.310   4.407   4.802 -1.1663 -1.3693  1.0420
 7737SOL    HW234671   1.326   4.425   4.945  1.4775  1.2153 -0.6468
 7738SOL     OW34672   0.453   3.980   3.423 -0.4607 -0.1306  0.4604
 7738SOL    HW134673   0.444   3.960   3.330 -0.1981 -1.7250  0.7692
 7738SOL    HW234674   0.371   3.950   3.462  0.5045 -0.2268  2.4701
 7739SOL     OW34675   0.072   1.639   7.998  0.1777 -0.1926  0.1807
 7739SOL    HW134676   0.048   1.632   8.090 -0.8844 -0.8067 -0.1475
 7739SOL    HW234677   0.051   1.731   7.985 -1.8890 -0.9436 -1.9778
 7740SOL     OW34678   0.698   3.061   7.968  0.6724  0.2049 -0.3113
 7740SOL    HW134679   0.686   3.019   8.053  1.0433 -0.8434 -0.7890
 7740SOL    HW234680   0.692   3.151   8.001  0.7391 -0.3357  1.1566
 7741SOL     OW34681   4.531   1.906   3.987  0.0137 -0.1857  0.2011
 7741SOL    HW134682   4.492   1.969   3.926 -1.8472 -1.7030 -0.1830
 7741SOL    HW234683   4.522   1.827   3.934 -0.0714  0.4183 -0.6748
 7742SOL     OW34684   1.354   1.758  13.225  0.3514  0.2194 -0.5049
 7742SOL    HW134685   1.344   1.668  13.255 -0.4676 -0.0257 -1.4964
 7742SOL    HW234686   1.274   1.801  13.256  1.5488  1.7221  0.5129
 7743SOL     OW34687   3.716   2.613   6.915  0.1392  0.2744 -1.0122
 7743SOL    HW134688   3.730   2.650   6.828  2.1808  0.0076 -0.8070
 7743SOL    HW234689   3.643   2.552   6.903  0.7753 -0.7679  0.3930
 7744SOL     OW34690   0.166   3.930   4.915 -0.3111  0.1576  0.2584
 7744SOL    HW134691   0.239   3.943   4.856 -0.3863  0.0352  0.1377
 7744SOL    HW234692   0.118   4.013   4.917 -2.2666 -0.9251 -1.7646
 7745SOL     OW34693   1.305   2.857   5.838  0.7033 -0.3768 -0.8346
 7745SOL    HW134694   1.334   2.804   5.763  0.3340  0.8588 -1.8364
 7745SOL    HW234695   1.321   2.942   5.796  0.3815  0.7527  1.3643
 7746SOL     OW34696   1.753   2.652   8.556  0.0619  0.5477  0.0708
 7746SOL    HW134697   1.716   2.653   8.644 -1.1183 -0.5378 -0.4063
 7746SOL    HW234698   1.816   2.581   8.565  0.3563  0.4873 -2.3003
 7747SOL     OW34699   1.528   0.282  17.074 -0.3365 -0.1339  0.0222
 7747SOL    HW134700   1.501   0.292  17.166 -0.3541 -1.8304  0.1962
 7747SOL    HW234701   1.444   0.271  17.030 -0.5278 -2.3324  0.9727
 7748SOL     OW34702   3.311   4.274   3.907 -0.5022  0.0615 -0.5680
 7748SOL    HW134703   3.352   4.285   3.821  1.2140 -0.2146  0.2139
 7748SOL    HW234704   3.241   4.220   3.869  0.7940 -1.3442 -0.9529
 7749SOL     OW34705   0.694   3.537   1.460 -0.1878  0.2738 -0.9614
 7749SOL    HW134706   0.722   3.577   1.542 -1.7204  0.0559 -0.3394
 7749SOL    HW234707   0.763   3.471   1.453  0.6240  1.2579 -2.3657
 7750SOL     OW34708   0.097   2.125   7.849  0.2041  0.2016  0.1643
 7750SOL    HW134709   0.171   2.145   7.791 -0.0877  0.7586 -0.0181
 7750SOL    HW234710   0.125   2.184   7.920  0.8651  0.2382 -0.1278
 7751SOL     OW34711   4.255   3.129   5.992  0.1533  0.2438 -0.2050
 7751SOL    HW134712   4.335   3.090   6.027 -1.7328 -2.3717  1.1288
 7751SOL    HW234713   4.222   3.159   6.077  0.6502  2.9763 -0.9735
 7752SOL     OW34714   1.787   0.432   3.681  0.1119  0.1651 -0.1220
 7752SOL    HW134715   1.872   0.430   3.637 -1.0843 -0.6402 -2.4225
 7752SOL    HW234716   1.743   0.403   3.601  1.2631  0.1668 -0.7600
 7753SOL     OW34717   1.058   2.459  11.784  0.1694 -0.3010 -0.6624
 7753SOL    HW134718   1.105   2.375  11.788 -1.2087 -0.9419  2.6888
 7753SOL    HW234719   1.006   2.464  11.865  2.5354 -0.8261  0.8798
 7754SOL     OW34720   2.801   2.689  14.071  0.6197  0.7997  0.5924
 7754SOL    HW134721   2.734   2.732  14.019  2.6545  3.6603  0.3426
 7754SOL    HW234722   2.798   2.752  14.143 -3.0571 -0.2058  1.2937
 7755SOL     OW34723   0.971   1.994   8.470 -0.4024 -0.9199 -0.2666
 7755SOL    HW134724   0.927   2.006   8.386 -0.4680  0.5222 -0.0229
 7755SOL    HW234725   1.036   2.064   8.461 -0.6219 -0.5028  1.2806
 7756SOL     OW34726   1.995   1.539  16.786 -0.4060  0.8025  0.6418
 7756SOL    HW134727   1.947   1.621  16.770  1.6587  1.7865 -0.5070
 7756SOL    HW234728   2.086   1.559  16.809 -0.1538  0.1390  0.2093
 7757SOL     OW34729   2.395   0.988   6.490  0.4204  0.2865 -0.6539
 7757SOL    HW134730   2.376   1.082   6.488  3.5316  0.9331 -0.0465
 7757SOL    HW234731   2.467   0.990   6.428  1.1873  1.8888  0.2829
 7758SOL     OW34732   0.786   4.525  15.788 -0.2237 -0.3843  0.3878
 7758SOL    HW134733   0.849   4.525  15.860 -2.0584 -0.1897  1.9922
 7758SOL    HW234734   0.749   4.438  15.793  0.6843 -0.7477  0.7952
 7759SOL     OW34735   2.124   0.863   7.585 -0.2185  0.1680  0.0463
 7759SOL    HW134736   2.180   0.795   7.623 -0.3981 -0.3607 -0.6335
 7759SOL    HW234737   2.139   0.943   7.635 -1.5223  0.8553 -0.6843
 7760SOL     OW34738   1.085   0.380   1.387  0.0772 -0.2939 -0.0944
 7760SOL    HW134739   1.180   0.370   1.374 -0.0618 -1.2915 -0.2900
 7760SOL    HW234740   1.066   0.323   1.461 -0.4470  1.2999  0.9987
 7761SOL     OW34741   3.566   3.542   2.488  0.5234  0.1892 -0.1690
 7761SOL    HW134742   3.585   3.624   2.532  1.1416  0.2812 -0.6173
 7761SOL    HW234743   3.472   3.558   2.475  0.5218  1.2557  1.2057
 7762SOL     OW34744   3.350   2.907   7.407  0.2853  0.0326 -0.4339
 7762SOL    HW134745   3.344   2.993   7.448  2.2056 -0.3273  0.6235
 7762SOL    HW234746   3.271   2.908   7.353  0.0926 -0.5808 -0.1629
 7763SOL     OW34747   0.907   2.287   4.636 -0.1730 -0.9063  0.0877
 7763SOL    HW134748   0.835   2.246   4.588 -0.5565  0.8767 -0.8671
 7763SOL    HW234749   0.869   2.375   4.628  1.5762  0.1298  3.2368
 7764SOL     OW34750   2.014   4.470  17.144 -0.5210  0.1441  0.3940
 7764SOL    HW134751   2.037   4.541  17.085  0.8764 -0.3239  0.3689
 7764SOL    HW234752   2.094   4.418  17.145 -0.5729 -0.0383 -3.2108
 7765SOL     OW34753   4.279   0.587   3.371 -0.0141  0.1856 -0.4731
 7765SOL    HW134754   4.220   0.650   3.329  1.2244  0.5233 -1.6716
 7765SOL    HW234755   4.338   0.577   3.297  1.5387  1.4136  0.5931
 7766SOL     OW34756   3.044   2.947   4.502  0.4941 -0.0561  0.2431
 7766SOL    HW134757   2.998   3.029   4.487 -1.7337 -1.8035 -2.6068
 7766SOL    HW234758   3.093   2.923   4.423 -0.8525  0.9068 -0.8883
 7767SOL     OW34759   0.984   4.165  10.054  0.1245 -0.0283 -0.2495
 7767SOL    HW134760   0.965   4.257  10.071 -3.1705 -0.6367 -0.7377
 7767SOL    HW234761   0.946   4.146   9.968  1.2850  0.0311 -0.7786
 7768SOL     OW34762   3.648   3.610   5.018 -0.7844  0.1637  0.0695
 7768SOL    HW134763   3.582   3.631   4.951 -1.2505 -1.7550 -0.0657
 7768SOL    HW234764   3.684   3.532   4.976  0.4925  1.1016 -0.5897
 7769SOL     OW34765   3.040   1.615   4.630  0.1896 -0.0426 -0.1513
 7769SOL    HW134766   3.095   1.693   4.629 -0.4085  0.4135  2.1474
 7769SOL    HW234767   3.034   1.602   4.725  1.1179 -0.3432 -0.1373
 7770SOL     OW34768   1.556   3.921   2.524  0.1679  0.5391 -0.2917
 7770SOL    HW134769   1.509   4.004   2.536  0.6107  0.8484 -0.7370
 7770SOL    HW234770   1.527   3.894   2.437 -0.0873  1.5343 -0.5166
 7771SOL     OW34771   2.788   2.145  16.755  0.4827 -0.0548 -0.3157
 7771SOL    HW134772   2.772   2.168  16.664 -0.0902 -2.5660 -0.8403
 7771SOL    HW234773   2.707   2.185  16.787  0.1397 -0.0662 -1.1721
 7772SOL     OW34774   0.153   4.230   6.427  0.0444 -0.0153 -0.3538
 7772SOL    HW134775   0.142   4.144   6.469  1.3853 -0.7959 -1.5865
 7772SOL    HW234776   0.059   4.246   6.423 -0.1559 -0.9031  0.5410
 7773SOL     OW34777   4.428   1.434   8.894 -0.4299  0.3416  0.1779
 7773SOL    HW134778   4.379   1.487   8.831  0.6510  0.2231 -0.7674
 7773SOL    HW234779   4.438   1.498   8.965 -1.1673  1.5717 -0.8337
 7774SOL     OW34780   1.565   3.935   0.225  0.6777 -0.3614  0.4878
 7774SOL    HW134781   1.517   3.856   0.249 -3.0744  1.5574 -0.6207
 7774SOL    HW234782   1.565   3.974   0.312 -0.6433 -4.2104  2.1995
 7775SOL     OW34783   0.528   2.317  10.989  0.1566  0.1526  0.1675
 7775SOL    HW134784   0.466   2.296  10.919 -0.6762  1.0952  0.6328
 7775SOL    HW234785   0.596   2.254  10.964  1.9211  1.6152  1.3828
 7776SOL     OW34786   3.895   4.473  14.088 -0.1905 -1.2245  0.7745
 7776SOL    HW134787   3.864   4.385  14.068 -0.5899 -0.8899 -0.1069
 7776SOL    HW234788   3.991   4.465  14.083 -0.2920 -1.8571 -0.1730
 7777SOL     OW34789   1.479   2.957   4.164 -0.0702  0.0834 -0.0446
 7777SOL    HW134790   1.412   2.924   4.104  0.3627  0.5525 -0.7868
 7777SOL    HW234791   1.528   2.875   4.168  0.5656  0.5149  1.1416
 7778SOL     OW34792   3.424   4.185   1.454 -0.0821  0.6059 -0.4836
 7778SOL    HW134793   3.412   4.091   1.469 -0.9222  0.5568 -1.4291
 7778SOL    HW234794   3.357   4.212   1.391 -1.6791  1.0680  1.3902
 7779SOL     OW34795   3.386   1.511  15.216 -0.0697  0.5511  0.3541
 7779SOL    HW134796   3.335   1.592  15.222  0.8324  1.0536  1.2960
 7779SOL    HW234797   3.420   1.492  15.304 -1.3046  0.4199  0.7945
 7780SOL     OW34798   0.933   4.544   9.137  0.0013  0.0972  0.2598
 7780SOL    HW134799   0.894   4.611   9.193 -1.8708 -2.2118  1.7267
 7780SOL    HW234800   0.949   4.470   9.196 -0.9788 -0.1904  0.1542
 7781SOL     OW34801   3.051   2.833   2.814  0.4583  0.6226  0.2371
 7781SOL    HW134802   2.989   2.858   2.883  1.1086 -1.0700  1.4337
 7781SOL    HW234803   3.134   2.870   2.843  0.0690  0.8299  1.1126
 7782SOL     OW34804   4.560   1.341  15.377  0.6358 -0.5135 -0.3050
 7782SOL    HW134805   4.593   1.383  15.298 -2.2125  1.0167 -0.6633
 7782SOL    HW234806   4.552   1.251  15.346 -1.0166 -0.6135  0.4148
 7783SOL     OW34807   4.635   3.809   9.775  0.1823 -0.1403  0.2439
 7783SOL    HW134808   4.669   3.792   9.687 -1.5688  2.2411 -0.9050
 7783SOL    HW234809   4.651   3.730   9.826 -0.4251 -0.5151 -0.1327
 7784SOL     OW34810   1.230   0.327   6.819 -0.2840 -0.5060  0.2503
 7784SOL    HW134811   1.151   0.310   6.768  0.9365 -1.0170 -1.4384
 7784SOL    HW234812   1.225   0.422   6.810  0.1504 -0.5641 -0.6437
 7785SOL     OW34813   3.030   3.653   2.728  0.5520  0.0641 -0.6061
 7785SOL    HW134814   2.991   3.596   2.661  0.0288 -1.5852  1.1059
 7785SOL    HW234815   3.048   3.730   2.674  0.8214 -0.0052 -0.6140
 7786SOL     OW34816   2.408   0.312   7.003 -0.3293  0.1096 -0.6665
 7786SOL    HW134817   2.501   0.291   7.004 -0.3428  0.0817  0.3386
 7786SOL    HW234818   2.363   0.231   7.025 -0.3784 -0.1261 -1.6265
 7787SOL     OW34819   3.909   4.156   7.989  0.3872  0.5128  0.0176
 7787SOL    HW134820   3.942   4.067   8.003  0.4416  0.0326 -3.2148
 7787SOL    HW234821   3.889   4.192   8.076  0.8868 -1.2458  0.8649
 7788SOL     OW34822   1.489   1.357  15.295  0.5303  0.1717 -0.6893
 7788SOL    HW134823   1.512   1.265  15.309  1.9514  0.8664  1.5629
 7788SOL    HW234824   1.550   1.371  15.223 -4.2231 -2.1586 -5.1362
 7789SOL     OW34825   0.587   2.875   3.285 -0.1475 -0.0760 -0.3983
 7789SOL    HW134826   0.590   2.833   3.371  1.2865  1.2043  0.1702
 7789SOL    HW234827   0.527   2.945   3.312 -0.0602 -0.3543  0.5387
 7790SOL     OW34828   1.260   0.281  15.947 -0.5123  0.2330 -0.2043
 7790SOL    HW134829   1.271   0.375  15.932  1.3995 -0.1519 -1.0904
 7790SOL    HW234830   1.295   0.264  16.034  0.8645 -0.1152 -0.8298
 7791SOL     OW34831   1.892   0.220   9.450 -0.1978 -0.2922 -0.2152
 7791SOL    HW134832   1.933   0.172   9.378  3.7666  1.5343  0.8598
 7791SOL    HW234833   1.950   0.189   9.520 -1.7784 -1.8169  0.4378
 7792SOL     OW34834   1.085   3.327   3.617  0.6654  0.2063 -0.2576
 7792SOL    HW134835   1.117   3.396   3.559 -2.0938  1.2369 -0.5314
 7792SOL    HW234836   1.013   3.285   3.571 -1.1680  0.4392  2.4118
 7793SOL     OW34837   3.677   1.316  10.214 -0.6883  0.5040 -0.4226
 7793SOL    HW134838   3.700   1.401  10.175 -0.0010 -0.0641 -1.2400
 7793SOL    HW234839   3.715   1.322  10.302  2.1735  0.1352 -1.6361
 7794SOL     OW34840   3.606   2.778   9.194 -0.1058 -0.2879  0.1798
 7794SOL    HW134841   3.621   2.702   9.137 -1.5292 -0.2956 -0.1811
 7794SOL    HW234842   3.523   2.824   9.182 -0.6441 -0.5909  2.7108
 7795SOL     OW34843   2.349   2.890  11.163  0.1490  1.0519 -0.0886
 7795SOL    HW134844   2.412   2.858  11.228  1.3916  1.5862 -1.0369
 7795SOL    HW234845   2.334   2.815  11.105  0.5962 -1.4153  2.9535
 7796SOL     OW34846   0.635   1.859  16.375 -0.2594  0.8655  0.4534
 7796SOL    HW134847   0.716   1.869  16.325 -1.1508 -1.5142 -1.4461
 7796SOL    HW234848   0.579   1.818  16.310  1.4606 -0.2657 -0.2892
 7797SOL     OW34849   0.134   0.600  13.848 -0.3527 -0.2877 -0.2684
 7797SOL    HW134850   0.184   0.681  13.855  0.1465 -0.4365 -2.1265
 7797SOL    HW234851   0.125   0.594  13.753 -0.0477 -1.1898 -0.2302
 7798SOL     OW34852   3.542   2.150   8.229  0.1122  0.2531  0.5708
 7798SOL    HW134853   3.579   2.179   8.312  0.1718 -0.6285  0.8542
 7798SOL    HW234854   3.468   2.209   8.216 -0.1798 -0.4079 -0.8444
 7799SOL     OW34855   3.375   2.203   2.739  0.6100  0.4934  0.3864
 7799SOL    HW134856   3.421   2.275   2.696 -0.9268  2.6153  2.2628
 7799SOL    HW234857   3.410   2.220   2.827  0.9879  1.1806  0.1099
 7800SOL     OW34858   0.739   0.097  16.872 -0.1865  0.4753 -0.4220
 7800SOL    HW134859   0.820   0.132  16.836  0.4420  0.4894  1.0062
 7800SOL    HW234860   0.689   0.082  16.791 -1.5637  4.1360 -0.2412
 7801SOL     OW34861   3.520   0.957  10.991 -0.1773 -0.7296 -0.5442
 7801SOL    HW134862   3.431   0.919  10.991 -1.2621  1.8043  0.7627
 7801SOL    HW234863   3.527   0.976  11.085 -0.1675  1.3743 -0.9854
 7802SOL     OW34864   3.935   1.740   7.140  0.3519 -0.0869  0.1723
 7802SOL    HW134865   3.922   1.648   7.116  0.7340  0.6943 -2.9189
 7802SOL    HW234866   3.842   1.760   7.148  0.4089  0.3685 -0.3109
 7803SOL     OW34867   3.255   2.850   8.055  0.0326  0.2786  0.2118
 7803SOL    HW134868   3.287   2.804   7.977 -0.7358  0.1231 -0.0176
 7803SOL    HW234869   3.276   2.941   8.035 -0.7192  0.5973  0.8806
 7804SOL     OW34870   3.840   0.679   4.480  0.0578  0.7581  0.6562
 7804SOL    HW134871   3.902   0.749   4.458  1.1914 -0.3422  0.3372
 7804SOL    HW234872   3.859   0.682   4.574  3.2428 -1.6054  0.1027
 7805SOL     OW34873   1.998   0.496   9.562 -0.0268 -0.0272 -0.5584
 7805SOL    HW134874   2.085   0.490   9.602  1.5518  0.5422 -3.8099
 7805SOL    HW234875   1.945   0.454   9.629 -1.3339 -1.7134 -2.6438
 7806SOL     OW34876   2.209   1.778   8.536  0.8444 -0.3659 -0.8239
 7806SOL    HW134877   2.193   1.688   8.509  4.0392 -0.4463 -2.3833
 7806SOL    HW234878   2.120   1.812   8.544  0.7308 -0.9959  0.6800
 7807SOL     OW34879   3.608   4.458   7.535  1.0645 -0.2670  0.4864
 7807SOL    HW134880   3.520   4.493   7.517  1.4309  1.7931  2.6148
 7807SOL    HW234881   3.589   4.416   7.619 -0.3675 -1.6741 -0.5397
 7808SOL     OW34882   2.182   2.386   7.714  0.9036  0.1498 -0.0160
 7808SOL    HW134883   2.276   2.404   7.711  0.6773  1.4945  0.6571
 7808SOL    HW234884   2.164   2.345   7.629 -2.8946  1.2556  0.2822
 7809SOL     OW34885   2.153   2.137   6.813 -0.3176 -0.1630  0.3243
 7809SOL    HW134886   2.215   2.145   6.740 -0.4367 -0.3799  0.2020
 7809SOL    HW234887   2.168   2.216   6.866 -0.7219  0.3907 -0.3848
 7810SOL     OW34888   0.583   1.281   0.457 -0.4067  0.4725  0.9602
 7810SOL    HW134889   0.644   1.332   0.404 -0.8697 -1.2387 -1.2035
 7810SOL    HW234890   0.611   1.192   0.436 -2.4120  0.1545 -0.3119
 7811SOL     OW34891   1.381   4.294   6.291  0.0230  0.2866  0.6603
 7811SOL    HW134892   1.313   4.228   6.286  1.5032 -1.2263  0.5216
 7811SOL    HW234893   1.342   4.351   6.224  1.9685 -0.5469 -1.1652
 7812SOL     OW34894   4.654   0.114   3.723 -0.1137  0.1404 -0.2957
 7812SOL    HW134895   4.681   0.081   3.637  1.0939 -3.1169  1.3333
 7812SOL    HW234896   4.643   0.025   3.759  4.1561 -1.0277 -1.8859
 7813SOL     OW34897   0.069   2.301  16.929 -0.2118  0.0671  0.1521
 7813SOL    HW134898   0.148   2.254  16.953 -0.1480  1.4103  2.5576
 7813SOL    HW234899   0.083   2.301  16.834 -0.8116  1.8934  0.0616
 7814SOL     OW34900   2.984   1.748   9.035 -0.3265 -0.1733  0.8585
 7814SOL    HW134901   2.929   1.761   8.958 -1.1492  1.2801  1.6807
 7814SOL    HW234902   2.977   1.831   9.082  1.1995 -0.2336  1.1967
 7815SOL     OW34903   0.237   4.472   2.812 -0.5274  0.0748  0.0419
 7815SOL    HW134904   0.285   4.538   2.763  2.4061 -1.5250  0.7624
 7815SOL    HW234905   0.281   4.464   2.897 -1.9277  2.9704  1.0135
 7816SOL     OW34906   0.569   4.196   7.518  0.0502  0.0614 -0.6659
 7816SOL    HW134907   0.536   4.183   7.607 -0.8401  3.4447 -0.4742
 7816SOL    HW234908   0.507   4.261   7.484 -0.5866 -2.1472 -3.6918
 7817SOL     OW34909   1.153   3.752   2.934 -0.0335 -0.0011  0.5375
 7817SOL    HW134910   1.158   3.766   2.839  1.3732 -1.8434  0.3518
 7817SOL    HW234911   1.238   3.713   2.954  0.2162 -0.1283 -0.7694
 7818SOL     OW34912   4.116   3.697   8.282 -0.2352  0.7918 -0.3909
 7818SOL    HW134913   4.130   3.680   8.189 -0.3972 -0.5773 -0.1707
 7818SOL    HW234914   4.077   3.616   8.315 -1.7428  1.1868 -1.2122
 7819SOL     OW34915   4.142   0.953   5.236  0.5021  0.5626 -0.1811
 7819SOL    HW134916   4.178   0.896   5.169 -2.3503  0.0296 -1.2460
 7819SOL    HW234917   4.050   0.942   5.210  0.1068 -0.7552  1.7817
 7820SOL     OW34918   0.420   2.899   6.541 -0.3752  0.8645  0.1321
 7820SOL    HW134919   0.511   2.927   6.531  0.1325 -0.4761  0.9135
 7820SOL    HW234920   0.441   2.825   6.598 -1.5200 -1.0843 -1.9533
 7821SOL     OW34921   2.624   0.486   2.362 -0.1626 -0.2744  0.0763
 7821SOL    HW134922   2.547   0.430   2.355 -0.8001  0.4222  1.6249
 7821SOL    HW234923   2.600   0.556   2.301  0.9466 -0.8278 -0.9978
 7822SOL     OW34924   1.123   3.101   7.443 -0.2193 -0.0693  0.0089
 7822SOL    HW134925   1.160   3.030   7.390  0.2774  0.0075  0.2593
 7822SOL    HW234926   1.170   3.174   7.403 -1.9091  0.8189 -0.3886
 7823SOL     OW34927   0.812   4.181   6.589  0.3961  0.7369 -0.3577
 7823SOL    HW134928   0.881   4.192   6.655  0.3160 -0.8622 -0.0009
 7823SOL    HW234929   0.866   4.180   6.511  2.0443  0.5549  0.7802
 7824SOL     OW34930   0.308   0.744   7.194 -0.0512  0.3570 -0.1056
 7824SOL    HW134931   0.237   0.712   7.248 -0.6377 -1.0158 -1.7009
 7824SOL    HW234932   0.358   0.663   7.181  1.0794  0.8443  1.1640
 7825SOL     OW34933   1.799   4.505   1.278  0.3422  0.5087 -0.2413
 7825SOL    HW134934   1.774   4.526   1.368 -0.7567  2.9807 -1.1528
 7825SOL    HW234935   1.724   4.449   1.258  0.5764 -0.9095  2.7731
 7826SOL     OW34936   2.180   3.510   9.111 -0.2686  0.0104 -0.3440
 7826SOL    HW134937   2.217   3.466   9.035 -0.6059  0.3530 -0.7076
 7826SOL    HW234938   2.260   3.515   9.164 -1.1430 -1.2125  1.1029
 7827SOL     OW34939   4.307   0.219   3.634  0.5578 -0.5537 -0.1408
 7827SOL    HW134940   4.354   0.254   3.559  0.0882 -0.4280 -0.3744
 7827SOL    HW234941   4.325   0.126   3.623  0.1637 -0.4027 -1.9339
 7828SOL     OW34942   3.760   1.231   1.797 -0.3498  0.4300  0.2066
 7828SOL    HW134943   3.820   1.305   1.809 -1.3143  1.2978 -0.2903
 7828SOL    HW234944   3.817   1.173   1.746  0.1553  0.8107  0.3258
 7829SOL     OW34945   1.987   4.192  10.291 -0.2138  0.2134  0.4780
 7829SOL    HW134946   2.047   4.256  10.254 -1.8511  0.6106 -1.5241
 7829SOL    HW234947   2.037   4.113  10.272  2.3630  1.8487  0.5515
 7830SOL     OW34948   3.693   3.028   5.840 -0.4165 -0.2042 -0.0567
 7830SOL    HW134949   3.659   2.938   5.839  0.0115 -0.3859  2.0901
 7830SOL    HW234950   3.643   3.079   5.776  1.2505  2.8226  1.0742
 7831SOL     OW34951   2.097   4.462   5.373  0.2605 -0.3980 -0.3029
 7831SOL    HW134952   2.044   4.384   5.360 -0.3559 -0.3867  2.0680
 7831SOL    HW234953   2.078   4.518   5.298 -3.9736 -0.2351  0.9167
 7832SOL     OW34954   1.479   2.580   5.375 -0.8346  0.2988 -0.0147
 7832SOL    HW134955   1.449   2.507   5.320  0.7967 -0.3551 -0.0162
 7832SOL    HW234956   1.563   2.555   5.411  0.5214  0.3077 -3.1518
 7833SOL     OW34957   3.311   0.713   0.332  0.1250  0.7787  0.2285
 7833SOL    HW134958   3.313   0.754   0.246  1.1430  0.0686 -0.0867
 7833SOL    HW234959   3.377   0.646   0.314 -1.5653 -0.4890 -1.2757
 7834SOL     OW34960   1.646   0.824  11.482 -0.4879  0.6990 -0.0442
 7834SOL    HW134961   1.623   0.913  11.507  0.0913  0.3388  1.7737
 7834SOL    HW234962   1.663   0.826  11.387 -1.3788  1.7013 -0.1821
 7835SOL     OW34963   0.593   4.005   7.971 -0.1077 -0.1597  0.0465
 7835SOL    HW134964   0.528   4.035   7.908  0.5924 -1.7136 -1.4272
 7835SOL    HW234965   0.642   4.086   7.985  2.4011 -1.8900  1.1932
 7836SOL     OW34966   1.644   2.190  12.689  0.0135  0.0125 -0.0128
 7836SOL    HW134967   1.589   2.155  12.759 -0.6954  2.6160  0.7320
 7836SOL    HW234968   1.587   2.263  12.664  0.1666  0.1874  0.1455
 7837SOL     OW34969   0.497   2.916   6.946 -0.0610  0.2130 -0.7230
 7837SOL    HW134970   0.581   2.961   6.953  0.3026 -1.0870  3.1394
 7837SOL    HW234971   0.446   2.982   6.900 -0.2361  0.4331 -0.2142
 7838SOL     OW34972   2.301   2.641   5.493 -0.2949 -0.0347 -0.4549
 7838SOL    HW134973   2.232   2.657   5.429 -1.7261  0.3405  1.1882
 7838SOL    HW234974   2.372   2.696   5.458 -0.1964  1.1052  1.5309
 7839SOL     OW34975   3.233   3.296  10.865  0.5902  0.3382 -0.0165
 7839SOL    HW134976   3.213   3.302  10.772 -1.1524 -1.4719  0.2314
 7839SOL    HW234977   3.326   3.274  10.865  0.4538 -0.2179 -1.9074
 7840SOL     OW34978   2.847   2.114  14.567 -0.1124 -0.3854 -0.4774
 7840SOL    HW134979   2.814   2.186  14.513  1.5378 -0.0430 -1.0491
 7840SOL    HW234980   2.928   2.086  14.524 -0.7897 -0.6775 -1.5801
 7841SOL     OW34981   0.566   4.027   9.529 -0.0649 -0.1543  0.4741
 7841SOL    HW134982   0.570   3.968   9.605  2.1218 -0.0190  0.4906
 7841SOL    HW234983   0.527   3.964   9.469  1.3843 -0.3893 -0.2332
 7842SOL     OW34984   2.355   0.494  10.609  0.4435 -0.3542  0.4201
 7842SOL    HW134985   2.273   0.540  10.591  1.2663  0.4881 -1.1472
 7842SOL    HW234986   2.398   0.573  10.643  1.0735 -0.4546 -0.1635
 7843SOL     OW34987   3.356   3.840   8.215  0.7177 -0.0232  0.2329
 7843SOL    HW134988   3.383   3.841   8.307 -2.0118  0.0756  1.0134
 7843SOL    HW234989   3.262   3.856   8.214  0.4010 -1.9280 -1.4391
 7844SOL     OW34990   4.504   1.889  12.684 -0.0634  0.4624 -0.2903
 7844SOL    HW134991   4.452   1.961  12.721 -0.5868 -0.6632  1.1562
 7844SOL    HW234992   4.495   1.905  12.590  0.0412 -1.9744 -0.7034
 7845SOL     OW34993   1.475   0.597   7.818 -0.0807  0.5626 -0.5640
 7845SOL    HW134994   1.553   0.652   7.823  0.0584  0.5876 -2.8525
 7845SOL    HW234995   1.398   0.654   7.814  0.3058  0.9497 -2.7535
 7846SOL     OW34996   3.320   4.294   3.155  0.9918  0.9275 -0.3771
 7846SOL    HW134997   3.329   4.380   3.112  1.9306  0.7212 -0.6021
 7846SOL    HW234998   3.244   4.308   3.210  0.2488  1.3842 -1.5022
 7847SOL     OW34999   1.465   4.479  15.394  0.1288 -0.1717  0.2229
 7847SOL    HW135000   1.403   4.490  15.465  1.3307 -0.8345  1.3793
 7847SOL    HW235001   1.403   4.448  15.327 -0.6093 -0.5746  1.0989
 7848SOL     OW35002   3.475   1.566   6.649 -0.3687  0.0476  0.6834
 7848SOL    HW135003   3.539   1.618   6.700 -0.3176  0.7591 -0.1119
 7848SOL    HW235004   3.537   1.513   6.599  0.5303  1.1141  0.6592
 7849SOL     OW35005   3.810   2.444   7.471  0.1439 -0.1208 -0.0663
 7849SOL    HW135006   3.831   2.357   7.504  0.2897 -1.1514 -2.8379
 7849SOL    HW235007   3.895   2.457   7.427  0.3670  1.3978  0.8231
 7850SOL     OW35008   1.405   3.341   3.565  0.4205 -0.3997 -0.6852
 7850SOL    HW135009   1.477   3.346   3.502 -0.5878  3.2062 -1.5082
 7850SOL    HW235010   1.449   3.288   3.632 -0.0804  0.5715  0.4079
 7851SOL     OW35011   0.570   1.744   7.702  0.1215  0.2456  0.2816
 7851SOL    HW135012   0.516   1.706   7.771  0.8737  1.9051  1.7931
 7851SOL    HW235013   0.601   1.665   7.658 -1.3994  0.2106 -0.7237
 7852SOL     OW35014   2.345   0.575   3.226 -0.3120  0.1344 -0.1882
 7852SOL    HW135015   2.253   0.596   3.210 -0.2755  0.7875  0.4623
 7852SOL    HW235016   2.386   0.661   3.230 -1.2746  0.6362 -1.2116
 7853SOL     OW35017   1.051   1.363  13.130  0.5163  0.2768 -0.2458
 7853SOL    HW135018   1.082   1.347  13.041  0.1313 -1.8603  0.0039
 7853SOL    HW235019   1.032   1.280  13.172  0.4380  1.5270  2.2028
 7854SOL     OW35020   2.905   3.345   3.478  0.5440 -0.1313  0.3844
 7854SOL    HW135021   2.882   3.380   3.392 -0.9120  0.2354  0.9265
 7854SOL    HW235022   2.952   3.266   3.450  0.0214 -0.0810 -0.6437
 7855SOL     OW35023   1.162   3.907   6.708  0.3428 -0.2283  0.3126
 7855SOL    HW135024   1.186   3.926   6.799 -1.6526 -0.3521  0.8681
 7855SOL    HW235025   1.134   3.816   6.721  2.2965 -0.7205  1.2018
 7856SOL     OW35026   3.945   1.250   5.486  0.2222 -0.3100 -0.4710
 7856SOL    HW135027   3.981   1.264   5.573 -2.0283  1.4020  0.1925
 7856SOL    HW235028   4.016   1.200   5.446 -1.7121 -0.7246 -3.3731
 7857SOL     OW35029   1.672   0.305  11.267  0.0064 -0.2253  0.0938
 7857SOL    HW135030   1.631   0.234  11.219 -2.3681  0.2111  1.4382
 7857SOL    HW235031   1.639   0.386  11.228  1.5912  0.4815  0.2185
 7858SOL     OW35032   0.349   2.473   2.380  0.2182 -0.2035 -0.0540
 7858SOL    HW135033   0.371   2.394   2.331 -0.3733  0.0926 -0.8036
 7858SOL    HW235034   0.266   2.500   2.341 -0.4535 -0.1261  1.4254
 7859SOL     OW35035   1.725   3.091   7.959 -0.4361  0.9086  0.4491
 7859SOL    HW135036   1.713   3.065   8.051 -0.5540  0.8512  0.4167
 7859SOL    HW235037   1.637   3.114   7.928 -0.2349 -0.4617 -1.1221
 7860SOL     OW35038   3.267   0.046   4.613  0.7395  0.2178  0.1097
 7860SOL    HW135039   3.253   4.679   4.582  1.6783  0.2450 -0.3992
 7860SOL    HW235040   3.246   0.031   4.705  0.5758 -1.9356 -0.2641
 7861SOL     OW35041   1.348   2.294   5.436  0.1012  0.0851  0.1082
 7861SOL    HW135042   1.402   2.304   5.357  0.6246  0.5723  0.5319
 7861SOL    HW235043   1.356   2.200   5.452 -0.2598  0.5565  3.0015
 7862SOL     OW35044   3.848   2.289   0.004 -0.1999 -0.3358  0.1650
 7862SOL    HW135045   3.866   2.357   0.070 -0.2624 -2.2348  2.1481
 7862SOL    HW235046   3.775   2.245   0.048 -0.4197  2.1545  2.3286
 7863SOL     OW35047   2.060   0.402   8.533 -0.5538 -0.5672  0.3197
 7863SOL    HW135048   1.993   0.397   8.465 -1.0034  0.1988  0.7027
 7863SOL    HW235049   2.008   0.391   8.613 -1.4090  0.0450 -0.1522
 7864SOL     OW35050   3.064   4.295   5.291  0.0508 -0.5284 -0.4276
 7864SOL    HW135051   3.108   4.379   5.307 -0.7148 -0.1087 -0.5187
 7864SOL    HW235052   2.991   4.299   5.352  0.2634  0.8068 -0.2601
 7865SOL     OW35053   0.274   0.688  15.953 -0.2595  0.2057  0.1436
 7865SOL    HW135054   0.256   0.750  15.882 -2.3303  2.1663  2.3292
 7865SOL    HW235055   0.349   0.727  15.997  0.6365  0.0599 -1.2777
 7866SOL     OW35056   3.143   1.192   4.791  0.0593 -0.0939  1.2563
 7866SOL    HW135057   3.191   1.125   4.742 -0.2246 -0.2523  1.1982
 7866SOL    HW235058   3.132   1.268   4.733 -0.7541 -0.1778  1.3071
 7867SOL     OW35059   2.967   0.055   6.449  0.2248  0.4987 -0.2204
 7867SOL    HW135060   2.953   0.029   6.540 -1.2821 -0.3741 -0.7062
 7867SOL    HW235061   2.876   0.043   6.421 -0.6287  1.3260  2.1366
 7868SOL     OW35062   1.631   2.273   7.440  0.3333  0.1893 -0.2876
 7868SOL    HW135063   1.609   2.191   7.394  1.9694 -0.0218 -0.6875
 7868SOL    HW235064   1.545   2.314   7.451  0.2708  0.5109 -1.9090
 7869SOL     OW35065   2.646   0.725   6.991 -0.2262 -0.2559  0.5413
 7869SOL    HW135066   2.591   0.789   6.946  2.1745  1.4413  0.0096
 7869SOL    HW235067   2.580   0.664   7.024  0.0834 -0.6777  0.3901
 7870SOL     OW35068   3.967   3.380  16.421  0.1056  0.1893 -0.0570
 7870SOL    HW135069   3.881   3.402  16.384 -0.1747  2.9977  2.2315
 7870SOL    HW235070   4.018   3.406  16.345 -1.7791  1.1604 -0.9787
 7871SOL     OW35071   2.113   0.538   6.575 -0.2324 -0.2278  0.2359
 7871SOL    HW135072   2.157   0.496   6.648  0.2397  0.5359  0.3919
 7871SOL    HW235073   2.164   0.619   6.569 -1.7888  0.6220 -1.7023
 7872SOL     OW35074   3.216   3.959  11.027 -0.0914  0.0817 -0.0603
 7872SOL    HW135075   3.139   3.922  10.984  0.6489  2.1817 -3.1642
 7872SOL    HW235076   3.283   3.899  10.993 -0.0472  0.6370 -0.9342
 7873SOL     OW35077   4.114   2.432  12.265  0.1234 -0.4826  0.1889
 7873SOL    HW135078   4.131   2.483  12.344  0.5226  0.9007 -0.7930
 7873SOL    HW235079   4.019   2.428  12.266  0.1260 -1.6717 -3.2439
 7874SOL     OW35080   2.950   3.308   2.655  0.3524 -1.0189 -0.0749
 7874SOL    HW135081   2.899   3.354   2.722 -1.2421  0.7508 -2.4878
 7874SOL    HW235082   3.033   3.291   2.699  1.3597 -1.2059 -2.0373
 7875SOL     OW35083   2.586   1.209   8.897  0.2336 -0.0862 -0.1107
 7875SOL    HW135084   2.606   1.268   8.824 -0.5222 -0.0091 -0.2506
 7875SOL    HW235085   2.567   1.132   8.843  0.2372 -1.6675  2.1071
 7876SOL     OW35086   3.571   3.361  14.672  0.1163  0.1732 -0.0132
 7876SOL    HW135087   3.574   3.341  14.578  1.9171 -2.9975  0.7343
 7876SOL    HW235088   3.556   3.274  14.708 -1.8820  0.7514  0.5596
 7877SOL     OW35089   3.406   2.769   6.745  0.0918 -0.2991 -0.1141
 7877SOL    HW135090   3.482   2.712   6.756  0.2748 -0.3280 -1.5690
 7877SOL    HW235091   3.367   2.767   6.833  0.5378  0.8447  0.1075
 7878SOL     OW35092   1.832   3.420   0.327 -0.2971  0.4041  0.6616
 7878SOL    HW135093   1.752   3.384   0.290 -0.3276  0.6800  0.4691
 7878SOL    HW235094   1.865   3.467   0.251 -0.8777 -0.5876 -0.2048
 7879SOL     OW35095   3.783   1.382  12.884 -0.0093 -0.4235 -0.3205
 7879SOL    HW135096   3.789   1.477  12.873 -0.1301  0.2439  5.0453
 7879SOL    HW235097   3.865   1.347  12.851  0.9753 -0.4588  2.1553
 7880SOL     OW35098   4.454   2.572   1.420  0.0609  0.1358  0.0546
 7880SOL    HW135099   4.533   2.581   1.472  0.0349  0.0112  0.1168
 7880SOL    HW235100   4.402   2.506   1.466 -2.1431  0.1788 -2.3347
 7881SOL     OW35101   4.451   4.485   7.547 -0.4256  0.4000  0.3409
 7881SOL    HW135102   4.463   4.391   7.554 -2.0868  0.3636  2.5223
 7881SOL    HW235103   4.395   4.494   7.469  1.1999  1.3440 -0.7249
 7882SOL     OW35104   2.701   4.400   6.526  0.0054  0.4226 -0.1955
 7882SOL    HW135105   2.711   4.495   6.537  2.1957  0.4787 -2.6908
 7882SOL    HW235106   2.727   4.400   6.434 -0.4116 -0.1366 -0.3087
 7883SOL     OW35107   1.612   0.532   7.155  0.0361 -0.1031  0.2537
 7883SOL    HW135108   1.651   0.612   7.191 -0.0925 -0.0944  0.3721
 7883SOL    HW235109   1.524   0.553   7.184 -0.1066 -1.3825  0.7637
 7884SOL     OW35110   3.969   2.485   5.021  0.5633  0.3633  0.0875
 7884SOL    HW135111   4.046   2.540   5.034  1.1557 -1.0703  2.6694
 7884SOL    HW235112   4.005   2.421   4.960 -1.4771  0.8187 -1.6278
 7885SOL     OW35113   3.729   4.140  16.305 -0.1822  0.2261  0.2272
 7885SOL    HW135114   3.765   4.223  16.272  0.9656 -0.6122 -0.6467
 7885SOL    HW235115   3.800   4.087  16.268 -2.0252 -3.7658  2.4747
 7886SOL     OW35116   3.257   3.358   6.871 -0.1814  0.2119 -0.0632
 7886SOL    HW135117   3.227   3.274   6.905 -0.8821  1.1687  1.6663
 7886SOL    HW235118   3.181   3.371   6.815 -0.7352  1.0268  0.8709
 7887SOL     OW35119   2.614   4.134  11.569  0.6809  0.1314 -0.8091
 7887SOL    HW135120   2.543   4.191  11.599  0.8177 -1.0786  1.8332
 7887SOL    HW235121   2.678   4.199  11.597  0.3505  0.4820 -0.8608
 7888SOL     OW35122   0.903   0.895   5.339 -0.2503 -0.5969 -0.0502
 7888SOL    HW135123   0.895   0.836   5.265 -1.4107 -0.7204  0.1715
 7888SOL    HW235124   0.992   0.872   5.364  0.0708 -0.9524 -1.5325
 7889SOL     OW35125   3.253   3.945  16.493  0.4836 -0.1064  0.8253
 7889SOL    HW135126   3.334   3.990  16.473 -2.1773  4.0409 -0.7005
 7889SOL    HW235127   3.240   3.968  16.585  0.2214 -0.5564  0.9028
 7890SOL     OW35128   2.138   1.528   3.323 -0.4161 -0.2777 -0.4058
 7890SOL    HW135129   2.140   1.612   3.369  0.5911 -1.0232  0.9088
 7890SOL    HW235130   2.175   1.470   3.391 -1.7935 -0.1598  0.4460
 7891SOL     OW35131   0.141   2.555   6.047 -0.3107  0.2384 -0.3270
 7891SOL    HW135132   0.122   2.633   6.100  0.0341  0.2354 -0.2028
 7891SOL    HW235133   0.209   2.588   5.988  1.0082  0.1373  1.1442
 7892SOL     OW35134   1.340   0.051   2.496 -0.0585  0.1788 -0.3287
 7892SOL    HW135135   1.296   4.705   2.445 -0.4863 -0.2882  0.6727
 7892SOL    HW235136   1.278   0.068   2.566 -1.1689 -0.2302 -1.2224
 7893SOL     OW35137   3.873   1.613   3.130  0.3341  0.4078 -0.1062
 7893SOL    HW135138   3.964   1.639   3.118  0.5331 -1.0294 -1.5812
 7893SOL    HW235139   3.853   1.658   3.213 -2.7433  1.3642 -1.3699
 7894SOL     OW35140   4.286   1.953   7.545  0.3969 -0.3532  0.0336
 7894SOL    HW135141   4.305   1.885   7.481  2.5897 -1.4902  1.9121
 7894SOL    HW235142   4.192   1.963   7.528  0.1564  1.6411  2.5442
 7895SOL     OW35143   2.030   1.380   8.545 -0.3830 -0.3173 -0.2079
 7895SOL    HW135144   1.953   1.434   8.529 -0.6510 -0.8620 -0.7491
 7895SOL    HW235145   1.990   1.304   8.587  0.3188 -0.7327 -0.2885
 7896SOL     OW35146   2.196   0.385   3.358 -0.4304 -0.2002 -0.3506
 7896SOL    HW135147   2.228   0.302   3.393 -2.0803 -0.6807  0.0234
 7896SOL    HW235148   2.279   0.422   3.328  0.3910 -0.9455  1.0318
 7897SOL     OW35149   0.187   2.175  12.936 -0.3976  0.1720  0.2094
 7897SOL    HW135150   0.232   2.222  12.865  0.1840 -0.5061  0.1386
 7897SOL    HW235151   0.265   2.140  12.980 -1.8084 -3.4190 -0.2295
 7898SOL     OW35152   4.531   3.026  10.995 -0.0863  0.3689 -0.4501
 7898SOL    HW135153   4.567   2.947  10.954  0.2962  0.3127 -0.0029
 7898SOL    HW235154   4.541   2.998  11.085 -0.3522 -0.5412 -0.7057
 7899SOL     OW35155   1.218   0.477   8.067 -0.2562 -0.0322 -0.4151
 7899SOL    HW135156   1.205   0.571   8.053  0.0248  0.1278  0.4019
 7899SOL    HW235157   1.251   0.482   8.157  1.2953 -2.1966 -0.8807
 7900SOL     OW35158   3.852   2.982   4.738  1.0379  0.4383  0.4795
 7900SOL    HW135159   3.937   2.947   4.712  0.3750 -2.2442  1.9029
 7900SOL    HW235160   3.819   2.936   4.815 -0.5497 -2.5389 -1.9405
 7901SOL     OW35161   1.884   2.417   2.837 -0.4456 -0.5028  0.2006
 7901SOL    HW135162   1.943   2.353   2.796  0.1779  0.9538 -1.1661
 7901SOL    HW235163   1.935   2.419   2.918 -0.7122  0.9425  0.3215
 7902SOL     OW35164   1.785   1.539   6.283 -0.0385 -0.2514  0.6189
 7902SOL    HW135165   1.837   1.619   6.288 -0.1549 -0.1132 -0.3987
 7902SOL    HW235166   1.745   1.539   6.196  0.4791 -2.4585  0.3800
 7903SOL     OW35167   2.694   4.194   0.193  0.3309  0.2313 -0.7281
 7903SOL    HW135168   2.717   4.286   0.181 -1.9494  0.8287 -0.6696
 7903SOL    HW235169   2.613   4.205   0.243 -0.0642 -0.8899 -1.1190
 7904SOL     OW35170   2.660   0.591   5.936  0.4116 -0.3227 -0.0281
 7904SOL    HW135171   2.730   0.650   5.908  0.6358 -1.2122 -1.3641
 7904SOL    HW235172   2.588   0.648   5.961 -1.2081 -2.7893  0.9295
 7905SOL     OW35173   4.091   2.867   5.909 -0.0984  0.1201  0.1983
 7905SOL    HW135174   4.039   2.851   5.830  0.6798 -2.1386  0.1480
 7905SOL    HW235175   4.053   2.948   5.944 -1.3160 -0.6961  0.7723
 7906SOL     OW35176   0.329   2.291   8.315 -0.5323 -0.1712  0.0729
 7906SOL    HW135177   0.320   2.316   8.407 -0.1452 -2.1023  0.6461
 7906SOL    HW235178   0.248   2.240   8.311  0.1365 -1.0900 -1.8410
 7907SOL     OW35179   2.962   1.357  11.801 -0.1772  0.9774 -0.3235
 7907SOL    HW135180   2.883   1.325  11.759  0.8909 -1.0781 -0.8074
 7907SOL    HW235181   2.932   1.397  11.882 -0.0937  0.1300  0.1331
 7908SOL     OW35182   0.359   3.586  12.717  0.3922 -0.0594  0.2857
 7908SOL    HW135183   0.365   3.606  12.810  1.8588  0.9672 -0.0178
 7908SOL    HW235184   0.265   3.579  12.705  0.3280 -0.6192  1.1207
 7909SOL     OW35185   3.411   3.135   8.215  0.0089  0.4716  0.1230
 7909SOL    HW135186   3.474   3.089   8.270  0.7628 -1.8291 -2.6301
 7909SOL    HW235187   3.448   3.112   8.130 -0.2624  1.1775 -0.1923
 7910SOL     OW35188   2.253   1.208  13.085  0.1878 -0.2793  0.0689
 7910SOL    HW135189   2.315   1.279  13.066 -0.2195  0.3400  1.0476
 7910SOL    HW235190   2.171   1.236  13.044 -1.5460 -1.9688  2.4041
 7911SOL     OW35191   1.672   1.923   4.746  0.0294 -0.1342 -0.0203
 7911SOL    HW135192   1.676   2.015   4.720 -0.1547 -0.3246 -0.7364
 7911SOL    HW235193   1.577   1.916   4.735 -0.1831  1.6313  0.6480
 7912SOL     OW35194   3.992   3.566  17.133 -0.3901 -0.1055  0.1450
 7912SOL    HW135195   3.937   3.566  17.212  3.4814  0.3490  2.8396
 7912SOL    HW235196   3.954   3.629  17.072 -1.5942 -0.3732  0.6203
 7913SOL     OW35197   1.443   1.421  11.921  0.2411  0.8127  0.4298
 7913SOL    HW135198   1.422   1.499  11.869  0.2826  1.2375  1.0494
 7913SOL    HW235199   1.532   1.402  11.891 -0.3553 -1.4319  0.0933
 7914SOL     OW35200   4.426   0.371   2.727 -0.0739  0.1389  0.2417
 7914SOL    HW135201   4.480   0.307   2.773  0.0098 -0.0546 -0.1246
 7914SOL    HW235202   4.495   0.431   2.695 -2.8570  3.8125  1.0934
 7915SOL     OW35203   2.770   2.554   7.957  0.3693  0.3456  0.0917
 7915SOL    HW135204   2.693   2.563   8.012 -0.6476 -2.7197 -0.8379
 7915SOL    HW235205   2.794   2.647   7.949 -1.5521  1.0770  3.0952
 7916SOL     OW35206   4.560   3.742   7.130 -0.3071 -0.3218  0.4158
 7916SOL    HW135207   4.633   3.788   7.089 -1.2396  0.4516 -0.3717
 7916SOL    HW235208   4.480   3.786   7.103  0.5538  0.5278 -0.7048
 7917SOL     OW35209   2.131   1.712  15.627 -0.6578  0.3994 -0.1323
 7917SOL    HW135210   2.213   1.664  15.637 -2.0399 -1.4510  2.2519
 7917SOL    HW235211   2.149   1.797  15.666 -0.8140  0.8540 -1.0639
 7918SOL     OW35212   2.161   1.628   7.661  0.0269  0.0318  0.2223
 7918SOL    HW135213   2.247   1.666   7.645  0.9827 -2.0798  0.4427
 7918SOL    HW235214   2.134   1.685   7.733 -2.3995 -1.1243  0.2160
 7919SOL     OW35215   3.429   2.249  11.601  0.1935  0.1658  0.4019
 7919SOL    HW135216   3.340   2.281  11.619  0.2354  1.5317 -1.8895
 7919SOL    HW235217   3.469   2.334  11.588  0.9795 -0.5110 -1.5648
 7920SOL     OW35218   1.415   4.556   1.456  0.1623  0.6487  0.2841
 7920SOL    HW135219   1.349   4.498   1.416  0.9449  0.0531 -0.1492
 7920SOL    HW235220   1.467   4.575   1.378  0.3434 -0.6211  0.0869
 7921SOL     OW35221   4.524   4.378   2.642  0.0032 -0.3059 -0.3207
 7921SOL    HW135222   4.568   4.320   2.580  1.2998  0.0390  0.2726
 7921SOL    HW235223   4.592   4.433   2.680 -0.3027  0.5612 -1.0286
 7922SOL     OW35224   1.553   2.584   1.739  0.2383  0.2453  0.5819
 7922SOL    HW135225   1.534   2.662   1.790  0.9294 -2.1090  4.4589
 7922SOL    HW235226   1.639   2.562   1.776 -1.1473 -2.4149  2.2879
 7923SOL     OW35227   2.004   1.983   5.933  0.2097  0.0527  0.1357
 7923SOL    HW135228   2.079   2.043   5.934 -0.3744  0.8268 -3.1373
 7923SOL    HW235229   1.936   2.034   5.890  0.5730  1.7919  1.6220
 7924SOL     OW35230   1.534   3.869   4.061 -0.3928  0.0346 -0.1875
 7924SOL    HW135231   1.520   3.820   3.980  1.4716 -0.3421 -0.3044
 7924SOL    HW235232   1.592   3.941   4.035  0.1232 -0.3433 -0.0908
 7925SOL     OW35233   3.183   2.031   0.856 -0.1897 -0.2358  0.1379
 7925SOL    HW135234   3.142   2.067   0.778 -0.1408  1.6505  0.9789
 7925SOL    HW235235   3.125   2.054   0.929 -1.4096 -0.4620 -0.7537
 7926SOL     OW35236   0.580   2.901   4.939 -0.2202  0.2462 -0.0259
 7926SOL    HW135237   0.619   2.954   4.870  0.0259 -0.6754 -0.5947
 7926SOL    HW235238   0.576   2.969   5.006 -1.6967  1.1971 -1.0795
 7927SOL     OW35239   3.508   1.901   1.334  0.1970  0.4078  0.4823
 7927SOL    HW135240   3.563   1.922   1.409 -0.0113 -1.1196  1.0668
 7927SOL    HW235241   3.579   1.900   1.269  0.7366 -1.6082  1.0939
 7928SOL     OW35242   2.255   4.103  12.959  0.5332 -0.2215 -0.2730
 7928SOL    HW135243   2.319   4.075  13.024  0.4570  0.0518 -0.0787
 7928SOL    HW235244   2.255   4.199  12.964  1.6676 -0.1994 -0.7164
 7929SOL     OW35245   3.566   2.362   4.210 -0.0075 -0.4589  0.6149
 7929SOL    HW135246   3.542   2.333   4.122 -0.4270 -1.2949  1.0061
 7929SOL    HW235247   3.484   2.407   4.228  0.2866  0.6713 -0.7885
 7930SOL     OW35248   1.577   1.656   0.925 -0.8189 -0.8303  0.3781
 7930SOL    HW135249   1.554   1.744   0.954  1.1118  0.6514 -2.6127
 7930SOL    HW235250   1.599   1.611   1.007 -0.5540  0.1569  0.8539
 7931SOL     OW35251   1.999   1.467   6.717 -0.6883 -0.0518  0.1343
 7931SOL    HW135252   2.068   1.528   6.745  0.3313 -0.2689 -1.9301
 7931SOL    HW235253   1.943   1.517   6.657 -2.7526 -2.3296  0.1741
 7932SOL     OW35254   2.331   0.909   7.275  0.2315 -0.2389 -0.3005
 7932SOL    HW135255   2.384   0.829   7.266  1.7886  0.6508  0.9138
 7932SOL    HW235256   2.245   0.870   7.289 -0.5751  3.0336  3.6036
 7933SOL     OW35257   1.752   0.024   1.115 -0.1239  0.6493 -0.3152
 7933SOL    HW135258   1.773   0.051   1.205  0.7575 -2.5097  0.4506
 7933SOL    HW235259   1.776   4.654   1.114 -0.3306  0.6026 -1.0941
 7934SOL     OW35260   4.627   3.461   5.836 -0.8328  0.4306 -0.3982
 7934SOL    HW135261   4.539   3.451   5.873 -1.2356 -0.4620 -1.5988
 7934SOL    HW235262   4.631   3.417   5.751 -1.8378  2.7766 -1.6423
 7935SOL     OW35263   1.743   0.267   2.907 -0.0569  0.5956 -0.3044
 7935SOL    HW135264   1.688   0.269   2.985  0.7803 -0.7008  0.3210
 7935SOL    HW235265   1.733   0.176   2.882  0.9834  0.5991 -0.7571
 7936SOL     OW35266   3.784   3.241   3.318  0.2768 -0.3027 -0.3386
 7936SOL    HW135267   3.723   3.174   3.287 -2.0207  0.8149  1.7367
 7936SOL    HW235268   3.859   3.221   3.262  0.1362 -1.6523 -0.0464
 7937SOL     OW35269   0.350   0.601   9.498 -0.0359  0.2373 -0.0004
 7937SOL    HW135270   0.290   0.674   9.507  1.0735  1.4117 -2.1096
 7937SOL    HW235271   0.406   0.641   9.431  0.4346 -0.4419 -0.0198
 7938SOL     OW35272   4.321   3.587   7.527 -0.1356  0.0553  0.2452
 7938SOL    HW135273   4.369   3.560   7.449 -1.7385 -0.4607 -0.5668
 7938SOL    HW235274   4.260   3.650   7.488  2.0258 -0.2840 -3.6582
 7939SOL     OW35275   2.063   2.065   6.550  0.5788 -0.0048 -0.0225
 7939SOL    HW135276   2.092   2.115   6.473  1.6125 -1.8631 -0.8392
 7939SOL    HW235277   2.020   2.135   6.600  1.2991  1.5235 -1.5414
 7940SOL     OW35278   2.965   3.535   5.610 -0.7790 -0.2617 -0.3024
 7940SOL    HW135279   2.914   3.604   5.653 -1.9734 -0.2614 -1.7119
 7940SOL    HW235280   3.055   3.566   5.612 -1.0657  0.3514  3.1492
 7941SOL     OW35281   3.729   0.039  14.507  0.3061  0.5265  0.2014
 7941SOL    HW135282   3.789   0.013  14.577  0.6972 -1.1541 -0.7571
 7941SOL    HW235283   3.764   0.002  14.426 -2.1981 -1.5054  0.0539
 7942SOL     OW35284   2.433   0.594   3.527 -0.9215  0.0386 -0.8411
 7942SOL    HW135285   2.511   0.639   3.560 -2.5710  1.0063  1.7566
 7942SOL    HW235286   2.431   0.619   3.434  1.4756  0.2222 -0.8438
 7943SOL     OW35287   0.471   0.620   3.111 -0.1145  0.5084  0.2005
 7943SOL    HW135288   0.439   0.653   3.195 -0.5191  0.1447  0.1903
 7943SOL    HW235289   0.498   0.698   3.063 -1.3743  0.8603  0.0609
 7944SOL     OW35290   4.570   0.483  15.793  0.2199  0.4263  0.8702
 7944SOL    HW135291   4.661   0.481  15.824  0.4549  0.2808  0.1631
 7944SOL    HW235292   4.563   0.403  15.741  1.8464  2.2914 -2.2160
 7945SOL     OW35293   3.758   2.753   0.788 -0.3659  0.1786  0.2089
 7945SOL    HW135294   3.780   2.678   0.734 -0.5653  0.4739 -0.2790
 7945SOL    HW235295   3.835   2.808   0.777 -1.1491  1.0890 -0.7398
 7946SOL     OW35296   1.323   2.645  11.271  0.6932  0.3187  0.3577
 7946SOL    HW135297   1.315   2.709  11.342  1.4233  0.7966  0.0032
 7946SOL    HW235298   1.412   2.666  11.244  0.3446 -1.6156 -2.2033
 7947SOL     OW35299   1.577   1.169   3.333 -0.4228  0.0377  0.2239
 7947SOL    HW135300   1.598   1.246   3.279  1.7651 -0.4046  0.4250
 7947SOL    HW235301   1.658   1.126   3.361 -0.0687  1.7736  1.9005
 7948SOL     OW35302   3.122   3.677  11.190 -0.4503 -0.1647  0.9184
 7948SOL    HW135303   3.138   3.769  11.171 -2.4137  0.8390  4.0469
 7948SOL    HW235304   3.151   3.638  11.107  0.6851  0.7601  0.8899
 7949SOL     OW35305   3.477   4.252   8.982 -0.3528  0.4411 -0.2079
 7949SOL    HW135306   3.450   4.338   8.948  0.2825  0.1522 -1.4205
 7949SOL    HW235307   3.561   4.273   9.022 -0.9049  2.3463 -0.0241
 7950SOL     OW35308   3.117   0.997   8.702 -0.0562 -0.5736 -0.0010
 7950SOL    HW135309   3.175   0.922   8.716  0.3068 -0.4128 -0.6704
 7950SOL    HW235310   3.120   1.038   8.789 -2.8595  0.1078 -0.2296
 7951SOL     OW35311   2.433   3.050   3.572 -0.0073 -0.6730 -0.4760
 7951SOL    HW135312   2.377   3.010   3.505  0.0866 -1.4195 -0.1179
 7951SOL    HW235313   2.414   2.997   3.650  1.4965  0.5379  0.6920
 7952SOL     OW35314   2.758   4.652   5.420  0.1840  0.2979  0.2087
 7952SOL    HW135315   2.744   4.719   5.486  2.5145  1.2690 -0.2577
 7952SOL    HW235316   2.665   4.644   5.401  0.0629 -0.3801  1.1304
 7953SOL     OW35317   3.988   1.280   3.670  0.0441  0.4620 -0.2635
 7953SOL    HW135318   4.045   1.206   3.691  0.1074  1.0808  1.7465
 7953SOL    HW235319   3.983   1.276   3.574  1.3833 -1.6140 -0.2351
 7954SOL     OW35320   0.429   4.645   4.205 -0.2010  0.3237 -0.2113
 7954SOL    HW135321   0.419   4.555   4.174  0.9471  0.2320 -0.3014
 7954SOL    HW235322   0.416   4.697   4.125  1.4222 -0.2722 -0.8488
 7955SOL     OW35323   0.366   0.710   2.782  0.3083  0.0248  0.2323
 7955SOL    HW135324   0.332   0.738   2.697  1.3272  0.0444 -0.1625
 7955SOL    HW235325   0.458   0.700   2.761  0.2467  0.9013 -0.4412
 7956SOL     OW35326   0.901   2.594   4.277 -0.9270  0.2994 -0.5455
 7956SOL    HW135327   0.969   2.532   4.248 -1.5428  0.5155 -2.4431
 7956SOL    HW235328   0.932   2.679   4.246 -2.9781  0.4042 -2.2723
 7957SOL     OW35329   4.583   3.658   8.473 -0.0104 -0.3060  0.2182
 7957SOL    HW135330   4.590   3.689   8.563  0.2698 -0.3476  0.2102
 7957SOL    HW235331   4.498   3.691   8.443  0.3427  1.0781  0.7446
 7958SOL     OW35332   1.314   1.403   4.504  0.2686  0.1231 -0.8249
 7958SOL    HW135333   1.312   1.373   4.413  1.0104 -0.8706 -0.5219
 7958SOL    HW235334   1.335   1.319   4.544 -0.3938  0.5019  0.3014
 7959SOL     OW35335   2.267   4.718   6.045 -0.6188 -0.2755  0.0999
 7959SOL    HW135336   2.228   0.080   6.065  3.1492  1.4349 -0.0412
 7959SOL    HW235337   2.320   4.703   6.123  0.0468  4.7741  0.6125
 7960SOL     OW35338   0.300   4.565   8.307  0.6359  0.2603 -0.5460
 7960SOL    HW135339   0.378   4.546   8.359  0.9940  0.2398 -1.0931
 7960SOL    HW235340   0.270   4.475   8.294 -0.0776  0.1664  1.6371
 7961SOL     OW35341   2.400   2.184   7.549  0.2234 -0.1544 -0.2099
 7961SOL    HW135342   2.448   2.247   7.603  0.6144  0.2026 -0.9662
 7961SOL    HW235343   2.391   2.242   7.473 -0.0374  0.2292  0.1146
 7962SOL     OW35344   1.741   0.098   2.491 -0.6129 -1.1691  0.7553
 7962SOL    HW135345   1.817   0.041   2.505  1.2237  0.6444 -1.7162
 7962SOL    HW235346   1.678   0.043   2.445 -2.4865  2.9982 -1.6522
 7963SOL     OW35347   3.631   3.516  17.261  0.1897  0.9484  0.3045
 7963SOL    HW135348   3.589   3.469  17.333  1.2834  0.5029  0.6518
 7963SOL    HW235349   3.720   3.536  17.291  0.0130 -0.1363  1.5721
 7964SOL     OW35350   2.375   3.258  11.135 -0.2965 -0.2509 -0.1649
 7964SOL    HW135351   2.361   3.232  11.226 -0.2284  0.0505 -0.0684
 7964SOL    HW235352   2.288   3.277  11.100 -0.6500 -1.6185 -0.0237
 7965SOL     OW35353   1.877   3.999   4.621 -0.2364 -0.7492 -0.0352
 7965SOL    HW135354   1.792   3.958   4.604 -0.9479  0.4088  0.6973
 7965SOL    HW235355   1.846   4.090   4.628  1.1930 -0.2451 -0.2500
 7966SOL     OW35356   0.362   1.953   7.967  0.3319 -0.6165 -0.0825
 7966SOL    HW135357   0.389   2.043   7.987  0.6120 -0.4420 -1.2456
 7966SOL    HW235358   0.341   1.932   8.058  0.0931 -2.3185 -0.5311
 7967SOL     OW35359   2.500   0.175   9.210 -0.5081  0.0826  0.6751
 7967SOL    HW135360   2.567   0.239   9.188  0.1885 -0.9311 -0.1516
 7967SOL    HW235361   2.554   0.097   9.226  0.8098  0.7831 -0.4081
 7968SOL     OW35362   1.348   4.259   4.672  0.6652 -0.4912  0.0413
 7968SOL    HW135363   1.341   4.287   4.581  0.7986 -1.2956 -0.2184
 7968SOL    HW235364   1.299   4.178   4.661 -0.7760  0.3686  0.1081
 7969SOL     OW35365   4.327   1.100   9.632  0.1065  0.2165 -0.2966
 7969SOL    HW135366   4.377   1.166   9.680 -0.2450  0.3638 -0.1353
 7969SOL    HW235367   4.391   1.086   9.562  0.4587 -1.3777  0.3401
 7970SOL     OW35368   0.032   1.444   3.326  0.3596 -0.1529  0.1296
 7970SOL    HW135369   4.667   1.426   3.291  0.4118 -0.3013  0.0749
 7970SOL    HW235370   0.005   1.435   3.418  1.6322 -2.3483  0.2812
 7971SOL     OW35371   0.323   1.466   8.489  0.4568  0.0235 -0.3280
 7971SOL    HW135372   0.283   1.404   8.428  0.4215 -1.0018  0.7279
 7971SOL    HW235373   0.376   1.522   8.433 -0.8599  2.0654  0.4701
 7972SOL     OW35374   3.840   3.895   7.634  0.6254  0.2468  0.1654
 7972SOL    HW135375   3.922   3.845   7.636  1.2489  1.2628 -0.1458
 7972SOL    HW235376   3.803   3.858   7.714  0.8341 -0.6223 -0.1387
 7973SOL     OW35377   0.399   4.454   0.300  0.2016 -0.4646 -0.5110
 7973SOL    HW135378   0.461   4.481   0.368 -0.2286 -0.1249 -0.2504
 7973SOL    HW235379   0.448   4.490   0.226  2.0398  0.2234  1.0155
 7974SOL     OW35380   0.395   4.472   6.815  0.6665  0.0816  0.5806
 7974SOL    HW135381   0.399   4.414   6.739 -0.1767  1.2718 -0.3667
 7974SOL    HW235382   0.460   4.419   6.863 -1.2789 -1.0995  1.8872
 7975SOL     OW35383   2.055   2.673   2.588 -0.4388 -0.3008  0.3215
 7975SOL    HW135384   1.996   2.632   2.525  0.5421  0.4552 -1.1056
 7975SOL    HW235385   2.032   2.766   2.584  1.5094  0.2620  1.7600
 7976SOL     OW35386   4.367   2.454   9.145 -0.4672  0.2896  0.2383
 7976SOL    HW135387   4.387   2.360   9.148  0.3263  0.3921 -1.7496
 7976SOL    HW235388   4.286   2.448   9.095 -0.9751 -1.8477  1.3053
 7977SOL     OW35389   4.221   4.381  10.925 -0.6203  0.4575  0.5121
 7977SOL    HW135390   4.312   4.396  10.902 -1.2177  2.0053 -0.8539
 7977SOL    HW235391   4.206   4.457  10.981 -0.7262  0.3096  0.6863
 7978SOL     OW35392   1.082   1.647   3.700 -0.2042 -0.3340  0.3140
 7978SOL    HW135393   1.032   1.650   3.618 -1.4653  0.2303  1.1102
 7978SOL    HW235394   1.044   1.572   3.745 -1.2468  0.8027  1.3476
 7979SOL     OW35395   0.741   3.625   4.791 -0.1041 -0.1369 -0.0326
 7979SOL    HW135396   0.725   3.567   4.717  0.8514  0.4464 -0.6870
 7979SOL    HW235397   0.663   3.610   4.844 -0.6468  1.0945 -0.4801
 7980SOL     OW35398   3.254   4.090  17.117  0.2127  0.2919  0.2009
 7980SOL    HW135399   3.243   4.084  17.212 -0.5972 -1.5873 -0.0108
 7980SOL    HW235400   3.162   4.085  17.092  0.8388 -1.9210 -1.6816
 7981SOL     OW35401   0.943   0.886   7.964 -0.3323  0.1558  0.6294
 7981SOL    HW135402   0.870   0.833   7.931  0.5210 -1.2904  1.0795
 7981SOL    HW235403   0.903   0.924   8.042  0.2343  3.1858 -0.5665
 7982SOL     OW35404   4.346   1.556   5.365 -0.3873 -0.0602  0.3847
 7982SOL    HW135405   4.299   1.475   5.345 -1.8233  0.9800 -0.4245
 7982SOL    HW235406   4.437   1.535   5.341 -0.2252  1.1965 -0.0681
 7983SOL     OW35407   3.521   1.859   8.180  0.2368 -0.3278 -0.0759
 7983SOL    HW135408   3.432   1.895   8.176 -0.4892 -2.3534 -2.3408
 7983SOL    HW235409   3.570   1.935   8.212 -1.2655  0.2227  0.9140
 7984SOL     OW35410   3.595   0.083   5.600  0.1083  0.2181 -0.2991
 7984SOL    HW135411   3.528   0.128   5.651 -0.0677 -1.3090  0.7830
 7984SOL    HW235412   3.547   0.003   5.581 -0.1360  0.3553 -0.2534
 7985SOL     OW35413   2.914   2.841   3.893 -0.1503 -0.1270  0.3054
 7985SOL    HW135414   2.872   2.761   3.925 -1.9456  0.9336  0.5845
 7985SOL    HW235415   2.888   2.898   3.966  0.7008  1.7329 -0.8546
 7986SOL     OW35416   4.583   1.129   9.038  0.2252  0.1290  0.1378
 7986SOL    HW135417   4.590   1.224   9.046 -0.7185  0.2105 -0.0533
 7986SOL    HW235418   4.631   1.107   9.118  1.3644 -0.2476 -0.6501
 7987SOL     OW35419   0.056   1.495   2.988  0.3935  0.0866 -0.6184
 7987SOL    HW135420   0.032   1.492   3.081 -0.2748 -1.8819 -0.8534
 7987SOL    HW235421   0.013   1.417   2.955 -1.3511  1.0864 -0.7364
 7988SOL     OW35422   2.067   3.703  16.362 -0.3815  0.1567  0.2825
 7988SOL    HW135423   1.978   3.670  16.371 -0.5916  0.9244  0.9651
 7988SOL    HW235424   2.118   3.649  16.423 -0.8952 -0.5375  0.0933
 7989SOL     OW35425   2.266   4.484  10.246  0.1895  0.0205  1.0932
 7989SOL    HW135426   2.254   4.579  10.239  1.3457  0.0623 -0.2445
 7989SOL    HW235427   2.361   4.483  10.246  0.2210  2.1646  1.0900
 7990SOL     OW35428   4.139   1.871   3.104 -0.1676 -0.0120  0.0755
 7990SOL    HW135429   4.214   1.901   3.054 -0.1229  1.2524  0.8924
 7990SOL    HW235430   4.103   1.954   3.138 -0.4873 -0.3167  0.4827
 7991SOL     OW35431   4.215   4.078   9.091 -0.0458  0.0606  0.1258
 7991SOL    HW135432   4.138   4.064   9.147 -0.0280 -0.2962  0.0600
 7991SOL    HW235433   4.264   4.107   9.168 -2.8086 -0.4022  2.0814
 7992SOL     OW35434   1.985   3.675   4.572  0.1022 -0.1371  0.0154
 7992SOL    HW135435   2.046   3.605   4.592 -1.4518 -1.7793 -1.0130
 7992SOL    HW235436   1.954   3.690   4.662 -2.9506 -0.1732 -1.0377
 7993SOL     OW35437   0.498   3.632  10.991  0.1370  0.2825  0.0900
 7993SOL    HW135438   0.577   3.615  11.043 -2.6286 -1.1870  3.8691
 7993SOL    HW235439   0.461   3.705  11.041 -0.9991  1.0707 -1.9160
 7994SOL     OW35440   3.179   2.119   1.643 -0.3758 -0.5954  0.0541
 7994SOL    HW135441   3.165   2.045   1.584  1.1884 -0.1989 -0.8444
 7994SOL    HW235442   3.095   2.147   1.677 -0.1526 -0.5683  0.5857
 7995SOL     OW35443   1.432   4.446   8.765 -0.0613 -0.0955 -0.2996
 7995SOL    HW135444   1.373   4.447   8.841  0.9404  3.2481  0.4073
 7995SOL    HW235445   1.383   4.504   8.707 -2.5061 -0.3355  1.5050
 7996SOL     OW35446   2.777   1.074   3.631  0.4399  0.4884  0.5594
 7996SOL    HW135447   2.802   1.020   3.706 -0.9050 -1.2742 -0.2544
 7996SOL    HW235448   2.819   1.156   3.655  1.0723 -0.7471  3.6349
 7997SOL     OW35449   2.218   0.197   8.462  0.4501 -0.1847  0.1883
 7997SOL    HW135450   2.153   0.164   8.400  1.1795  3.2204 -2.4011
 7997SOL    HW235451   2.164   0.256   8.515 -0.0714  0.9058 -1.5599
 7998SOL     OW35452   3.615   3.536  17.664  0.1458  0.3884  0.1895
 7998SOL    HW135453   3.593   3.617  17.617 -1.3208 -0.8635 -1.2791
 7998SOL    HW235454   3.695   3.575   0.004  0.2601 -0.7684  1.2379
 7999SOL     OW35455   3.892   2.298  10.030 -0.8907 -0.6024 -0.5827
 7999SOL    HW135456   3.935   2.238   9.969  2.4404  1.8157 -0.5788
 7999SOL    HW235457   3.911   2.255  10.113  2.1881  1.1929 -0.3633
 8000SOL     OW35458   1.823   0.018   4.977  0.2185 -0.5661  0.2644
 8000SOL    HW135459   1.746   0.050   4.931 -0.7644 -1.0520  1.5740
 8000SOL    HW235460   1.894   0.043   4.918  1.5598 -0.7360  1.7713
 8001SOL     OW35461   0.637   4.436   2.837 -0.1987 -0.0296  0.5195
 8001SOL    HW135462   0.555   4.418   2.790 -1.6267  3.1775  1.7441
 8001SOL    HW235463   0.625   4.531   2.838 -2.2019 -0.2732 -0.0843
 8002SOL     OW35464   0.041   4.169   4.865 -0.2749 -0.5068  0.0412
 8002SOL    HW135465   4.682   4.161   4.817  0.7081 -0.7638 -1.5716
 8002SOL    HW235466   0.036   4.262   4.884  1.0596 -0.5815  0.8062
 8003SOL     OW35467   0.052   3.383   4.466 -0.1457 -0.4232 -0.3370
 8003SOL    HW135468   0.094   3.355   4.385  1.2612  1.1612 -0.1591
 8003SOL    HW235469   0.110   3.339   4.528  1.0664 -0.2795 -1.3701
 8004SOL     OW35470   0.329   2.267   0.862  0.1181  0.2107 -0.7921
 8004SOL    HW135471   0.352   2.214   0.785  0.7137 -1.7437  0.7448
 8004SOL    HW235472   0.393   2.338   0.859 -0.5093  0.8125  0.3387
 8005SOL     OW35473   4.050   1.953   2.262 -0.1261 -0.5446 -0.2857
 8005SOL    HW135474   4.130   1.957   2.314 -0.3445  4.6570 -0.4042
 8005SOL    HW235475   3.996   1.904   2.325  0.6320  0.1102  0.8645
 8006SOL     OW35476   2.238   3.995  17.302  0.0362 -1.0104 -0.3864
 8006SOL    HW135477   2.265   4.076  17.346 -0.0391 -0.0283 -2.1440
 8006SOL    HW235478   2.293   4.010  17.225  0.3654 -1.0068 -0.1484
 8007SOL     OW35479   3.030   4.722  13.937 -0.2021 -0.4083  0.5178
 8007SOL    HW135480   2.975   0.056  13.885 -0.8052  0.9600  2.6796
 8007SOL    HW235481   2.974   4.677  14.001  0.8866 -0.1062  1.6833
 8008SOL     OW35482   2.110   0.680  12.499 -0.0074  0.6630  0.0809
 8008SOL    HW135483   2.114   0.723  12.585 -0.7907 -2.0280  1.4764
 8008SOL    HW235484   2.021   0.644  12.494  0.0261  0.4035  1.2274
 8009SOL     OW35485   1.050   2.987   5.273  0.6348  0.2136 -0.1154
 8009SOL    HW135486   0.987   2.916   5.274 -0.0846  0.8318 -2.4794
 8009SOL    HW235487   1.061   2.977   5.368  0.0512  1.1815  0.0525
 8010SOL     OW35488   4.518   2.547   8.921  0.3069  0.2625  0.0509
 8010SOL    HW135489   4.492   2.514   9.007  1.9721 -0.0479  0.4480
 8010SOL    HW235490   4.522   2.465   8.871  1.5774  0.5003 -0.2419
 8011SOL     OW35491   1.886   1.554  15.640 -0.0505 -0.7885 -0.2555
 8011SOL    HW135492   1.972   1.583  15.670 -1.1465  1.4623  0.7451
 8011SOL    HW235493   1.870   1.626  15.578  0.8983  2.3808  3.2170
 8012SOL     OW35494   3.485   1.230  10.050 -0.7621 -0.1121 -0.0162
 8012SOL    HW135495   3.519   1.304   9.999  0.1933 -1.1388 -0.8498
 8012SOL    HW235496   3.546   1.239  10.123  0.4049 -1.1806 -0.8692
 8013SOL     OW35497   2.384   0.775   2.825 -0.0586  0.4106  0.0626
 8013SOL    HW135498   2.371   0.854   2.877  0.2077 -1.3894  2.8729
 8013SOL    HW235499   2.471   0.799   2.792 -0.4188  2.7316  0.8038
 8014SOL     OW35500   1.430   0.915   3.441  0.1450  0.3699  0.2759
 8014SOL    HW135501   1.469   1.002   3.435 -0.2452  0.4247 -1.4894
 8014SOL    HW235502   1.441   0.891   3.349  4.3444  2.0700  0.3414
 8015SOL     OW35503   3.750   2.945   5.249 -0.2895 -0.2023  0.1960
 8015SOL    HW135504   3.762   2.926   5.342 -1.7480 -3.5886 -0.3329
 8015SOL    HW235505   3.777   2.866   5.203  1.5832  0.5051  0.0704
 8016SOL     OW35506   1.468   3.288   4.043 -0.0049  0.2064  0.1429
 8016SOL    HW135507   1.489   3.364   4.097  2.7692 -0.1170 -0.4892
 8016SOL    HW235508   1.374   3.275   4.059  0.1153  0.1270  0.7737
 8017SOL     OW35509   1.892   1.157   8.638  0.1827 -0.8246  0.0398
 8017SOL    HW135510   1.903   1.077   8.689  2.1748 -1.2493 -1.0707
 8017SOL    HW235511   1.806   1.181   8.674  0.7066 -1.5291  1.7549
 8018SOL     OW35512   2.189   2.238  14.996  0.3944  0.1897  0.1076
 8018SOL    HW135513   2.222   2.257  15.083  2.5794 -2.1743 -0.1945
 8018SOL    HW235514   2.268   2.206  14.952 -0.0910 -0.1070 -0.5440
 8019SOL     OW35515   1.290   0.293   7.866  0.4490  0.5227  0.4000
 8019SOL    HW135516   1.285   0.369   7.924  0.2115  0.2449  0.7374
 8019SOL    HW235517   1.355   0.310   7.797 -0.1423 -0.6222 -0.4275
 8020SOL     OW35518   3.177   1.997   3.353  0.1438  0.1845  0.3098
 8020SOL    HW135519   3.138   1.956   3.276  0.2448 -1.2062  0.9977
 8020SOL    HW235520   3.229   2.073   3.328  2.1978 -1.3828 -0.1070
 8021SOL     OW35521   3.998   3.116   4.091  0.1380 -0.8494  0.1107
 8021SOL    HW135522   4.001   3.044   4.154 -1.2776  0.0600  1.1998
 8021SOL    HW235523   3.904   3.118   4.075  0.1454 -0.2331  0.1595
 8022SOL     OW35524   1.275   3.988  12.478 -1.0689 -0.5123  0.3688
 8022SOL    HW135525   1.289   3.975  12.571  1.3061  2.5800  0.4068
 8022SOL    HW235526   1.336   3.924  12.442 -1.8603 -0.5683 -0.8956
 8023SOL     OW35527   0.948   2.189   2.710 -0.3744  0.0110  0.0495
 8023SOL    HW135528   0.869   2.242   2.699 -0.4337 -0.2071 -0.5496
 8023SOL    HW235529   0.984   2.183   2.622 -0.5876 -1.4137  0.0567
 8024SOL     OW35530   3.025   1.725  10.539  0.1234  0.3600 -0.2815
 8024SOL    HW135531   2.995   1.681  10.618  1.0228 -1.6117 -1.0290
 8024SOL    HW235532   2.942   1.756  10.503  0.7288 -0.0648 -2.0644
 8025SOL     OW35533   2.773   1.508   7.229 -0.2613 -0.1975 -0.2051
 8025SOL    HW135534   2.809   1.419   7.219  0.5204  0.1474 -0.4780
 8025SOL    HW235535   2.682   1.480   7.241 -0.3855 -0.9798 -2.9908
 8026SOL     OW35536   1.517   3.754   3.377 -0.8400 -0.0463 -0.8896
 8026SOL    HW135537   1.461   3.757   3.300  0.3979 -1.7413 -1.8358
 8026SOL    HW235538   1.554   3.667   3.364 -0.4047 -0.1235  0.8620
 8027SOL     OW35539   1.240   3.990   7.244  0.4750  0.0833  0.3042
 8027SOL    HW135540   1.175   3.926   7.273  0.0792  1.3026  2.0899
 8027SOL    HW235541   1.320   3.936   7.244 -1.0271 -2.1365 -0.5380
 8028SOL     OW35542   3.672   1.024   4.880  0.0711 -0.8227  0.6858
 8028SOL    HW135543   3.760   1.027   4.843  0.1279  0.0866  0.8954
 8028SOL    HW235544   3.611   1.001   4.810  1.6592 -2.3049 -0.2019
 8029SOL     OW35545   4.707   3.224   4.778 -0.4843 -0.1361 -0.2892
 8029SOL    HW135546   0.073   3.229   4.812 -1.0698  1.8862  0.9368
 8029SOL    HW235547   4.667   3.303   4.815 -0.0180  0.4799 -1.0931
 8030SOL     OW35548   4.316   3.412   4.827  0.0379  0.2844  0.2230
 8030SOL    HW135549   4.243   3.454   4.782 -0.0761 -0.6282 -0.4563
 8030SOL    HW235550   4.312   3.324   4.789  1.5082  0.3425 -0.0955
 8031SOL     OW35551   1.418   2.996   6.859  0.4239 -0.3899 -0.0826
 8031SOL    HW135552   1.408   2.924   6.797 -1.0127 -0.3138  0.0615
 8031SOL    HW235553   1.356   2.955   6.920 -0.5048  0.0178 -0.7611
 8032SOL     OW35554   0.574   2.358   3.781 -0.9343 -0.7377  0.8206
 8032SOL    HW135555   0.623   2.293   3.732  1.0336  1.2055  0.2241
 8032SOL    HW235556   0.568   2.311   3.865  0.1697  1.1294  1.9586
 8033SOL     OW35557   2.037   3.842  17.385  0.4940 -0.1268  0.0463
 8033SOL    HW135558   2.024   3.821  17.293 -1.5530  0.6452  0.1622
 8033SOL    HW235559   2.119   3.891  17.377 -1.3095  3.0260  0.5084
 8034SOL     OW35560   4.489   0.595   9.784 -0.0911  0.2507  0.4128
 8034SOL    HW135561   4.558   0.657   9.808  1.9891 -1.6198 -0.6828
 8034SOL    HW235562   4.406   0.642   9.780  0.3886  1.0344 -0.3437
 8035SOL     OW35563   2.573   1.606   0.965 -0.1213 -0.0271  0.3016
 8035SOL    HW135564   2.629   1.655   0.904  0.6363 -1.3132 -0.0545
 8035SOL    HW235565   2.627   1.527   0.976 -0.9447 -0.9049 -1.8468
 8036SOL     OW35566   2.993   1.541   2.352  0.9091  0.2202  0.6455
 8036SOL    HW135567   2.935   1.496   2.291 -1.9700  3.6979  0.8320
 8036SOL    HW235568   2.974   1.505   2.439  1.4091  1.7844  1.3980
 8037SOL     OW35569   4.310   2.547   0.551 -0.0899 -0.6029  0.0117
 8037SOL    HW135570   4.263   2.529   0.633  0.0455 -0.2494  0.1693
 8037SOL    HW235571   4.239   2.529   0.489 -0.5014  0.2655  0.2299
 8038SOL     OW35572   3.784   3.277   5.910  0.0124  0.2485 -0.5964
 8038SOL    HW135573   3.745   3.276   5.998  0.9354  0.9250 -0.1799
 8038SOL    HW235574   3.739   3.197   5.881  1.0737 -0.7365  0.4519
 8039SOL     OW35575   0.943   4.677   5.986  0.2489  0.1118  0.0090
 8039SOL    HW135576   0.861   4.657   5.941  1.0379  0.6273 -1.6644
 8039SOL    HW235577   1.002   4.703   5.915 -0.5306  2.1924  0.1185
 8040SOL     OW35578   1.367   3.906   8.336  0.1856 -0.5240  0.1685
 8040SOL    HW135579   1.420   3.980   8.307  0.4617 -1.1076 -0.8311
 8040SOL    HW235580   1.295   3.955   8.376 -0.1953 -0.7319 -0.2640
 8041SOL     OW35581   4.554   1.134   6.825 -0.3029 -0.2685 -0.1844
 8041SOL    HW135582   4.477   1.125   6.881 -0.1766  0.3129  0.0793
 8041SOL    HW235583   4.597   1.049   6.838 -0.8067 -0.7512 -1.6950
 8042SOL     OW35584   0.155   4.553  12.216  0.1691  0.4266  0.2761
 8042SOL    HW135585   0.079   4.496  12.201  0.9228 -0.7287  0.7880
 8042SOL    HW235586   0.181   4.531  12.305  0.6221  0.5902  0.1827
 8043SOL     OW35587   0.396   3.757   4.085 -0.1398 -0.5245 -0.4072
 8043SOL    HW135588   0.360   3.678   4.045  1.7209 -1.3739 -0.3973
 8043SOL    HW235589   0.469   3.721   4.135  2.0972  2.1085 -1.7718
 8044SOL     OW35590   2.839   4.011   0.048 -0.3505 -0.4456 -0.0640
 8044SOL    HW135591   2.886   3.981   0.125  0.5603 -2.4322 -1.4091
 8044SOL    HW235592   2.783   4.073   0.095 -1.1122 -2.4221  1.5887
 8045SOL     OW35593   0.498   0.739   9.290  0.1563 -0.5346 -0.0270
 8045SOL    HW135594   0.450   0.788   9.222 -1.5377 -1.2134  0.6950
 8045SOL    HW235595   0.585   0.769   9.264  0.1881 -0.9812 -0.4345
 8046SOL     OW35596   2.902   2.779   9.002  0.2281 -0.4467 -0.4631
 8046SOL    HW135597   2.828   2.806   8.948 -0.5648  1.6586  1.7040
 8046SOL    HW235598   2.951   2.736   8.932  0.3091  0.3871 -0.9214
 8047SOL     OW35599   0.020   2.066  13.234 -0.3202 -0.3609  0.1806
 8047SOL    HW135600   4.681   2.139  13.234 -0.4846 -0.4998 -1.5206
 8047SOL    HW235601   4.701   2.005  13.174  0.2014 -1.6999  1.1673
 8048SOL     OW35602   1.970   4.559   7.062 -0.0068 -0.7699 -0.2411
 8048SOL    HW135603   2.038   4.599   7.007 -0.3351  0.2919  0.1276
 8048SOL    HW235604   1.936   4.495   6.999 -0.6105 -1.3904  0.7089
 8049SOL     OW35605   3.864   1.091   3.954  0.2453 -0.2252 -0.2473
 8049SOL    HW135606   3.929   1.048   4.009 -0.4383 -0.1736  0.6044
 8049SOL    HW235607   3.866   1.181   3.986 -1.3468  0.0345 -0.8983
 8050SOL     OW35608   3.445   0.488   5.086 -0.3792  0.5133  0.0930
 8050SOL    HW135609   3.513   0.442   5.038  0.6888  1.5102  0.6452
 8050SOL    HW235610   3.450   0.452   5.174  0.0552  0.0096 -0.1371
 8051SOL     OW35611   1.292   1.187  10.982 -0.3217 -0.6757  0.6205
 8051SOL    HW135612   1.268   1.278  10.966  0.2217 -1.0103 -2.1731
 8051SOL    HW235613   1.214   1.142  10.951 -0.1142 -0.6232  0.0256
 8052SOL     OW35614   2.479   0.186   7.935 -0.2762  0.0881  0.0934
 8052SOL    HW135615   2.425   0.148   8.005 -0.7196  0.4668 -0.0446
 8052SOL    HW235616   2.479   0.277   7.962  1.3270  0.1095 -0.0136
 8053SOL     OW35617   2.632   2.970  15.814  0.0131 -0.3196 -0.3099
 8053SOL    HW135618   2.695   3.016  15.758  1.3367  0.9281  2.2178
 8053SOL    HW235619   2.559   2.962  15.752 -0.0896 -1.0315 -0.0944
 8054SOL     OW35620   2.235   0.767   0.778 -0.0528  0.4462  0.8429
 8054SOL    HW135621   2.283   0.692   0.813 -0.5393 -0.0895  0.3529
 8054SOL    HW235622   2.307   0.825   0.755 -0.7676  0.3897 -1.5325
 8055SOL     OW35623   1.176   2.556   5.846 -0.0229 -0.2257 -0.2592
 8055SOL    HW135624   1.223   2.512   5.775 -0.4716 -0.7064 -0.2604
 8055SOL    HW235625   1.209   2.646   5.834  0.5700 -0.4309 -0.1593
 8056SOL     OW35626   3.590   0.026   7.789  0.5594 -0.2128 -0.1890
 8056SOL    HW135627   3.658   4.694   7.829  1.0998 -0.3787 -1.3437
 8056SOL    HW235628   3.628   0.066   7.711 -1.2087  0.2038 -0.8459
 8057SOL     OW35629   1.255   2.891   4.021 -0.2911  0.2251  0.0775
 8057SOL    HW135630   1.182   2.952   4.031  0.9281  2.1118 -2.3344
 8057SOL    HW235631   1.232   2.828   3.953  1.4338 -0.3823  0.0573
 8058SOL     OW35632   3.030   0.535  13.948 -0.3473 -0.1057  0.2262
 8058SOL    HW135633   3.123   0.541  13.970 -1.0395  0.1369  3.1116
 8058SOL    HW235634   3.023   0.469  13.879 -0.2228  0.5336 -0.4095
 8059SOL     OW35635   4.653   2.452   4.751  0.0511 -0.7438  0.1314
 8059SOL    HW135636   4.664   2.503   4.671 -1.1539 -1.8499 -0.7462
 8059SOL    HW235637   4.715   2.501   4.806  0.1186  0.2656 -0.8364
 8060SOL     OW35638   3.626   1.071  11.751  0.5686  0.0618  0.6910
 8060SOL    HW135639   3.625   0.992  11.697 -0.4180  0.1967  0.5164
 8060SOL    HW235640   3.691   1.130  11.712  0.8595  0.5699  1.9380
 8061SOL     OW35641   4.601   0.824   8.240  0.2045 -0.3563 -0.4642
 8061SOL    HW135642   4.639   0.778   8.165  2.5852 -1.1797  1.2640
 8061SOL    HW235643   4.516   0.780   8.242  1.1332 -2.1847 -1.3387
 8062SOL     OW35644   2.057   2.765   3.336 -0.4392  0.0947  0.0531
 8062SOL    HW135645   2.022   2.850   3.362 -1.4624 -0.2836 -0.1071
 8062SOL    HW235646   2.058   2.763   3.241  3.8586 -0.3452  0.1052
 8063SOL     OW35647   2.385   3.297   3.670 -0.1603  0.6693  0.0827
 8063SOL    HW135648   2.416   3.219   3.625 -0.1278  0.9104 -0.3166
 8063SOL    HW235649   2.404   3.273   3.760 -0.6022 -0.6941 -0.1861
 8064SOL     OW35650   4.208   0.479   9.477 -0.2557  0.4917 -0.3113
 8064SOL    HW135651   4.269   0.551   9.492 -0.7175  0.7520  0.3048
 8064SOL    HW235652   4.240   0.443   9.394  2.5849  1.4241  0.3749
 8065SOL     OW35653   0.546   3.706   2.961 -0.0855 -0.4452 -0.1020
 8065SOL    HW135654   0.566   3.616   2.984  0.2423 -0.6085 -1.0359
 8065SOL    HW235655   0.466   3.693   2.910  0.2380 -3.5486  0.1817
 8066SOL     OW35656   1.886   0.281   1.782  0.1646 -0.1310  0.6710
 8066SOL    HW135657   1.933   0.311   1.859  1.0617  1.2756 -0.4267
 8066SOL    HW235658   1.938   0.209   1.744 -1.9129 -0.4386 -1.5914
 8067SOL     OW35659   4.246   2.948   8.580  0.9439  0.6045 -0.1046
 8067SOL    HW135660   4.301   3.001   8.639  1.1575  0.0489  0.1957
 8067SOL    HW235661   4.239   2.858   8.612 -1.6118  1.4840  1.8312
 8068SOL     OW35662   0.742   4.197  11.821  0.5821 -0.3291  0.1216
 8068SOL    HW135663   0.776   4.211  11.733 -2.6289  1.0933 -0.8927
 8068SOL    HW235664   0.653   4.166  11.806  1.2386 -0.9393 -2.5607
 8069SOL     OW35665   0.014   3.157   8.778  0.0344  0.1528 -0.5195
 8069SOL    HW135666   0.020   3.180   8.871  1.7222 -0.6278 -0.4325
 8069SOL    HW235667   0.075   3.223   8.743  1.2143 -0.7267 -0.1231
 8070SOL     OW35668   4.575   2.625   8.488  0.0077 -0.9555 -0.1256
 8070SOL    HW135669   4.507   2.681   8.524 -0.8330 -1.6785 -0.5575
 8070SOL    HW235670   4.647   2.683   8.466 -1.6194  1.2068  0.2403
 8071SOL     OW35671   2.204   1.959  10.108 -0.0105  0.3457  0.1225
 8071SOL    HW135672   2.150   2.022  10.156  1.3546  3.1998 -2.1043
 8071SOL    HW235673   2.279   1.941  10.165  0.1225 -0.0172 -0.1638
 8072SOL     OW35674   1.476   4.048   6.162 -0.3517  0.5261 -0.2972
 8072SOL    HW135675   1.536   4.122   6.168 -0.0861  0.3413 -0.6599
 8072SOL    HW235676   1.397   4.087   6.199 -0.5383 -1.0120  0.9218
 8073SOL     OW35677   4.162   4.690   6.545 -0.1938  0.0705 -0.4706
 8073SOL    HW135678   4.171   4.617   6.484 -3.6573 -0.5795 -0.1787
 8073SOL    HW235679   4.235   4.663   6.601 -3.0599 -0.5206  2.9683
 8074SOL     OW35680   1.151   2.169   5.080  0.0492  0.2497 -0.0233
 8074SOL    HW135681   1.130   2.213   4.999 -1.1212 -1.1538 -0.4737
 8074SOL    HW235682   1.117   2.228   5.147 -0.3897 -0.4842  0.4081
 8075SOL     OW35683   2.613   1.361   4.368  0.3862  0.1958  0.1749
 8075SOL    HW135684   2.603   1.310   4.287 -1.9460 -2.9715  2.4523
 8075SOL    HW235685   2.598   1.449   4.335 -0.7480 -0.3021 -0.6365
 8076SOL     OW35686   2.397   1.279   5.704 -0.3240  0.4424  0.1756
 8076SOL    HW135687   2.377   1.328   5.784 -0.2882 -1.5780  1.4366
 8076SOL    HW235688   2.446   1.344   5.654 -0.1545 -0.6530 -1.0887
 8077SOL     OW35689   0.284   3.927   4.307 -0.1352  0.2825 -0.7148
 8077SOL    HW135690   0.209   3.974   4.270 -1.1732 -0.4979  0.4003
 8077SOL    HW235691   0.337   3.917   4.227  0.8700 -2.1951  0.2595
 8078SOL     OW35692   0.947   1.181  11.087  0.1745  0.0017 -0.3731
 8078SOL    HW135693   1.015   1.242  11.117 -1.0901  0.0057  2.5688
 8078SOL    HW235694   0.949   1.210  10.996  1.0618  0.2278 -0.2856
 8079SOL     OW35695   0.757   0.421   6.400 -0.6469 -0.2466  0.1377
 8079SOL    HW135696   0.841   0.460   6.424 -0.7296 -1.7938  2.9488
 8079SOL    HW235697   0.721   0.408   6.488 -1.0151  1.2609  0.2202
 8080SOL     OW35698   3.442   4.166   8.210  0.0775  0.0132  0.3863
 8080SOL    HW135699   3.390   4.145   8.287 -0.0140  0.3632  0.4226
 8080SOL    HW235700   3.367   4.187   8.153 -1.4380 -0.1396  2.3249
 8081SOL     OW35701   2.095   0.272   5.058  0.2964  0.0637  0.6632
 8081SOL    HW135702   2.055   0.278   4.971  1.0529  1.8178  0.4370
 8081SOL    HW235703   2.088   0.352   5.110  0.8745  0.3211  0.3478
 8082SOL     OW35704   3.749   1.077   8.418 -0.0264 -0.1457 -0.4927
 8082SOL    HW135705   3.776   0.986   8.410 -2.1310 -0.9111  1.0783
 8082SOL    HW235706   3.737   1.100   8.326 -2.0158  0.3493 -0.1039
 8083SOL     OW35707   4.051   0.913   9.306 -0.1247  0.1701 -0.3497
 8083SOL    HW135708   4.118   0.880   9.365  0.2539  1.0588 -0.2777
 8083SOL    HW235709   4.072   0.851   9.237 -3.0563 -1.0338 -0.1746
 8084SOL     OW35710   4.588   2.209   9.875 -0.0403 -0.2305 -0.5568
 8084SOL    HW135711   4.514   2.222   9.816 -0.3209  2.8628  0.4147
 8084SOL    HW235712   4.657   2.169   9.823 -0.2326  2.0251 -2.5263
 8085SOL     OW35713   3.435   3.822  11.232  0.1043  0.4972  0.3253
 8085SOL    HW135714   3.439   3.729  11.252  0.8246  1.0259  2.6330
 8085SOL    HW235715   3.449   3.824  11.137 -2.7560 -1.4745 -0.1341
 8086SOL     OW35716   0.510   3.557   4.943 -1.4893  0.3789  0.1869
 8086SOL    HW135717   0.506   3.597   5.030  3.1108 -0.1156  0.6203
 8086SOL    HW235718   0.466   3.628   4.896 -1.8460 -0.5788 -0.9232
 8087SOL     OW35719   1.025   1.088  13.157 -0.2702  0.8875 -0.9780
 8087SOL    HW135720   1.119   1.072  13.167 -0.2611  1.9537  0.5824
 8087SOL    HW235721   0.975   1.019  13.201  0.2979  1.5975  0.7975
 8088SOL     OW35722   4.180   1.173  16.164 -0.1560 -0.1981  0.1604
 8088SOL    HW135723   4.139   1.187  16.079 -1.4090 -1.1063  0.6110
 8088SOL    HW235724   4.118   1.220  16.220 -1.9940 -0.4912 -1.6480
 8089SOL     OW35725   0.361   0.462   6.710 -0.0384  0.5117 -0.0915
 8089SOL    HW135726   0.358   0.386   6.769  1.0989  0.5373  0.0005
 8089SOL    HW235727   0.268   0.479   6.694  0.2009  1.3979 -0.5321
 8090SOL     OW35728   2.803   0.578   9.400  0.4030  0.1833 -0.1269
 8090SOL    HW135729   2.896   0.577   9.424 -0.2467 -0.9805  2.4045
 8090SOL    HW235730   2.786   0.525   9.478 -0.5017  0.2291 -0.2960
 8091SOL     OW35731   1.727   2.846   3.302 -0.2810  0.0861  0.2342
 8091SOL    HW135732   1.659   2.912   3.317  0.0400  0.9732 -2.2649
 8091SOL    HW235733   1.747   2.818   3.391 -0.2664 -0.4564  0.0630
 8092SOL     OW35734   2.976   1.611   5.283 -0.1099 -0.1719  0.4788
 8092SOL    HW135735   2.946   1.559   5.358  1.2901 -0.7231  0.6398
 8092SOL    HW235736   3.050   1.553   5.266 -1.2137 -1.7952  1.1460
 8093SOL     OW35737   2.986   3.116   4.108  0.3884  0.1972  0.3371
 8093SOL    HW135738   3.015   3.160   4.028  0.2295  0.5276  0.4601
 8093SOL    HW235739   3.072   3.087   4.137  1.2797  1.4216 -1.1442
 8094SOL     OW35740   0.731   0.626  12.495  0.2987 -0.3644 -0.1986
 8094SOL    HW135741   0.703   0.540  12.463  2.7146 -1.4690  0.6830
 8094SOL    HW235742   0.817   0.624  12.454 -0.0167  1.4295 -0.9178
 8095SOL     OW35743   2.015   3.805  12.604 -0.4864  0.3587  0.3744
 8095SOL    HW135744   1.940   3.778  12.658 -1.8587  1.6407 -0.8847
 8095SOL    HW235745   2.010   3.901  12.598 -0.9848  0.3468  0.5801
 8096SOL     OW35746   3.651   3.220   7.070  0.2786 -0.3256 -0.1572
 8096SOL    HW135747   3.698   3.147   7.112  1.6233 -0.5428 -2.0189
 8096SOL    HW235748   3.671   3.188   6.982 -2.8716  0.5859 -1.2004
 8097SOL     OW35749   4.158   1.636   2.447 -0.0754 -0.1159 -0.3024
 8097SOL    HW135750   4.214   1.652   2.523 -1.1547  1.0859  0.2483
 8097SOL    HW235751   4.184   1.552   2.409  0.1737  0.6604 -1.8387
 8098SOL     OW35752   2.672   0.897  16.344  0.0298  0.0969 -0.4963
 8098SOL    HW135753   2.596   0.852  16.380  0.3794  2.2381  2.9864
 8098SOL    HW235754   2.689   0.830  16.279 -0.9533 -0.6515  0.0270
 8099SOL     OW35755   0.141   2.875   2.687  0.1780 -0.4062 -0.3539
 8099SOL    HW135756   0.201   2.801   2.696 -1.8394 -2.1450 -1.0634
 8099SOL    HW235757   0.064   2.822   2.664  1.1556 -1.5142 -1.0481
 8100SOL     OW35758   3.986   2.816  13.985 -0.2475  0.2212  0.3419
 8100SOL    HW135759   4.067   2.769  13.964 -1.1943 -0.2469 -2.2178
 8100SOL    HW235760   4.016   2.904  13.959  2.2117 -0.8918 -0.5512
 8101SOL     OW35761   4.020   3.653  10.207 -0.0094  0.2425 -0.6058
 8101SOL    HW135762   4.023   3.590  10.279  1.2393  1.1523  0.1198
 8101SOL    HW235763   4.058   3.595  10.141  0.1069 -0.3765  0.0018
 8102SOL     OW35764   0.259   2.224   3.742 -0.4555  0.3287  0.5095
 8102SOL    HW135765   0.219   2.200   3.826 -2.3870  1.5000 -0.0774
 8102SOL    HW235766   0.179   2.231   3.689  2.3918  1.5114 -3.6188
 8103SOL     OW35767   1.592   4.361  12.559  0.3125  0.4540  0.4447
 8103SOL    HW135768   1.652   4.435  12.555  0.1693  0.5572  0.2162
 8103SOL    HW235769   1.521   4.394  12.505 -1.0395  0.6358  2.3390
 8104SOL     OW35770   4.355   3.315   1.501  0.2387  0.2479  0.5031
 8104SOL    HW135771   4.407   3.329   1.422 -0.7250 -0.2416 -0.2242
 8104SOL    HW235772   4.311   3.233   1.476 -0.9100  1.1793 -0.5231
 8105SOL     OW35773   1.675   2.935   9.040 -0.0134  0.2525 -0.0408
 8105SOL    HW135774   1.673   2.868   9.108 -1.8941 -1.2957 -1.6322
 8105SOL    HW235775   1.728   2.896   8.970 -1.4159 -1.0622 -0.3690
 8106SOL     OW35776   3.734   2.287  16.792  0.1014  0.0698  0.2290
 8106SOL    HW135777   3.658   2.334  16.758  0.5416  1.8895  1.7296
 8106SOL    HW235778   3.789   2.365  16.786 -0.7743  0.6580 -0.1948
 8107SOL     OW35779   0.321   3.836   5.346  0.6933  0.2569 -0.1284
 8107SOL    HW135780   0.319   3.915   5.293  0.9616  0.8636  0.7662
 8107SOL    HW235781   0.251   3.855   5.408  0.0837  0.9928 -1.0457
 8108SOL     OW35782   1.842   0.195  12.101 -0.3325  0.3683  0.8098
 8108SOL    HW135783   1.835   0.282  12.062 -1.5724 -0.8195 -1.5622
 8108SOL    HW235784   1.905   0.159  12.039  0.6239  2.2091  0.6932
 8109SOL     OW35785   4.244   3.077   1.049  0.0829 -0.2694 -0.0955
 8109SOL    HW135786   4.275   3.027   0.974  2.1978  1.6705 -0.5081
 8109SOL    HW235787   4.316   3.070   1.112  0.6855  0.0261 -0.7583
 8110SOL     OW35788   2.349   3.122   7.432  0.3020  0.3325 -0.7018
 8110SOL    HW135789   2.370   3.097   7.342 -1.0573 -0.5167 -0.7910
 8110SOL    HW235790   2.258   3.144   7.409 -0.0419 -1.2818 -0.8497
 8111SOL     OW35791   4.259   4.698   7.986 -0.7038 -0.4157 -0.0290
 8111SOL    HW135792   4.317   4.667   7.917 -1.2578  1.8702 -1.5143
 8111SOL    HW235793   4.310   0.053   8.009 -0.0631 -0.5577 -0.9915
 8112SOL     OW35794   1.930   3.811   6.553  0.0983  0.3979 -0.1738
 8112SOL    HW135795   2.015   3.795   6.512 -0.8057  0.1510 -1.9655
 8112SOL    HW235796   1.878   3.815   6.473 -0.6136  0.1755  0.2796
 8113SOL     OW35797   2.035   2.821   6.089 -0.1971  0.4577 -0.5477
 8113SOL    HW135798   2.018   2.869   6.171  0.0569 -0.6184  0.1343
 8113SOL    HW235799   2.118   2.778   6.110 -1.1825 -1.9883 -1.6696
 8114SOL     OW35800   3.054   3.221   3.876  0.4129 -0.0107 -0.0201
 8114SOL    HW135801   3.135   3.195   3.832  0.7851 -0.5120  0.9807
 8114SOL    HW235802   3.079   3.313   3.885 -0.3763  0.3531 -1.4813
 8115SOL     OW35803   2.455   4.254   8.584 -0.2837  0.0296  0.2966
 8115SOL    HW135804   2.421   4.250   8.494  3.4806  3.5356 -1.2678
 8115SOL    HW235805   2.372   4.255   8.631 -0.0790 -0.5996  0.6614
 8116SOL     OW35806   4.314   2.069   6.682  0.0002 -0.1647 -0.4276
 8116SOL    HW135807   4.328   2.102   6.771  0.6574  2.7176 -1.6159
 8116SOL    HW235808   4.387   2.008   6.671 -1.0047 -1.7935  1.9242
 8117SOL     OW35809   2.104   4.693  16.667 -0.5914 -0.3271  0.5252
 8117SOL    HW135810   2.039   0.016  16.615  1.3882 -1.1335 -2.6310
 8117SOL    HW235811   2.130   4.623  16.607 -0.9852 -1.5336  1.7365
 8118SOL     OW35812   1.432   0.928   4.450  0.0132  0.1566  0.4883
 8118SOL    HW135813   1.481   1.010   4.458  1.0174 -0.2803 -1.2466
 8118SOL    HW235814   1.389   0.937   4.535 -1.0589 -3.0169  0.2909
 8119SOL     OW35815   3.870   2.599   0.582 -0.8136 -0.3687  0.0978
 8119SOL    HW135816   3.785   2.588   0.541 -0.2335 -0.3373 -1.1261
 8119SOL    HW235817   3.907   2.511   0.590 -1.2789 -0.3851  2.1085
 8120SOL     OW35818   1.560   4.280   3.575  0.2185  0.3842  0.2291
 8120SOL    HW135819   1.625   4.299   3.642  1.0440 -0.4903 -0.3210
 8120SOL    HW235820   1.601   4.216   3.517 -1.3666 -1.1008  0.7326
 8121SOL     OW35821   3.098   3.769   4.654 -0.1841  0.4117  0.4473
 8121SOL    HW135822   3.065   3.858   4.646  0.3088  0.5485 -0.0682
 8121SOL    HW235823   3.193   3.774   4.644 -0.0136  0.4414  2.1095
 8122SOL     OW35824   0.573   0.309   5.108  0.1838 -0.4659  0.6995
 8122SOL    HW135825   0.647   0.353   5.066 -1.1220  1.8211  0.7892
 8122SOL    HW235826   0.520   0.282   5.033  0.1986  0.6762  0.2771
 8123SOL     OW35827   2.475   0.704   2.221  0.3160 -0.2669 -0.0552
 8123SOL    HW135828   2.403   0.722   2.282 -0.2355 -1.1238 -0.4496
 8123SOL    HW235829   2.534   0.779   2.228  0.2292 -0.1911 -0.1434
 8124SOL     OW35830   0.044   4.149  13.615 -0.0643 -0.1089  0.3118
 8124SOL    HW135831   0.037   4.238  13.580 -0.0669  0.0946  0.8168
 8124SOL    HW235832   0.103   4.170  13.688  0.9037 -0.1079 -0.4719
 8125SOL     OW35833   0.928   0.162   7.841  0.7492  0.0668 -0.1664
 8125SOL    HW135834   0.976   0.112   7.775  0.3462 -0.6743  0.0970
 8125SOL    HW235835   0.895   0.095   7.901  0.4950  0.1954 -0.1630
 8126SOL     OW35836   3.546   4.059   8.574  0.4915 -1.0740 -0.1564
 8126SOL    HW135837   3.640   4.075   8.564  0.0616  0.7636 -1.2520
 8126SOL    HW235838   3.519   4.148   8.598  0.2115 -1.2062  0.0272
 8127SOL     OW35839   4.491   3.229   4.158 -0.2268 -0.0720  0.1404
 8127SOL    HW135840   4.532   3.311   4.188 -0.7595 -0.2424  1.3369
 8127SOL    HW235841   4.398   3.244   4.174  0.2239  3.3142 -0.4848
 8128SOL     OW35842   3.754   0.543   5.147  0.3893  0.1142  0.2241
 8128SOL    HW135843   3.709   0.617   5.105  0.6657 -0.8924 -1.8417
 8128SOL    HW235844   3.815   0.590   5.204 -1.4989  1.1922  1.3599
 8129SOL     OW35845   3.504   0.780   2.826 -0.6171 -0.2760 -0.1470
 8129SOL    HW135846   3.410   0.767   2.824 -1.0771  3.4418 -1.2198
 8129SOL    HW235847   3.512   0.857   2.770  0.8029 -0.6116 -0.4292
 8130SOL     OW35848   4.587   0.762   8.814  0.3288 -0.6169 -0.2790
 8130SOL    HW135849   4.616   0.778   8.725 -2.4671  1.8658 -0.7396
 8130SOL    HW235850   4.505   0.716   8.797 -0.8187  1.0929  0.6195
 8131SOL     OW35851   3.022   1.022   2.501  0.4845 -0.5569 -0.1704
 8131SOL    HW135852   2.989   0.933   2.488  1.6461 -1.1265  0.7777
 8131SOL    HW235853   3.072   1.013   2.582  0.2321 -1.1718 -0.0817
 8132SOL     OW35854   2.881   2.159  12.777  0.4157 -0.2627  1.0816
 8132SOL    HW135855   2.802   2.105  12.773  1.4622 -1.4401 -3.1790
 8132SOL    HW235856   2.927   2.116  12.705  0.1243  0.3694  0.5153
 8133SOL     OW35857   2.972   3.978   9.857  0.0901 -0.3482  0.0057
 8133SOL    HW135858   2.994   3.957   9.766  0.7313 -0.2435  0.1355
 8133SOL    HW235859   3.057   3.971   9.899 -0.0112 -0.5439  0.1771
 8134SOL     OW35860   0.809   4.264   4.547  0.0738 -0.7496 -0.0628
 8134SOL    HW135861   0.815   4.300   4.635 -2.5059  2.7801 -1.3630
 8134SOL    HW235862   0.773   4.175   4.549 -0.2459 -0.6314 -0.7742
 8135SOL     OW35863   4.568   3.545  17.136 -0.8597 -0.0780 -0.0564
 8135SOL    HW135864   4.523   3.528  17.053  0.2486  2.7556 -1.2335
 8135SOL    HW235865   4.558   3.462  17.182  2.3363 -0.9265 -0.9274
 8136SOL     OW35866   3.713   2.375   4.998  0.3390 -0.0928 -0.1785
 8136SOL    HW135867   3.752   2.318   5.064  0.5152 -0.5963 -0.7214
 8136SOL    HW235868   3.789   2.433   4.988  0.1910 -0.0913 -1.2662
 8137SOL     OW35869   3.147   3.730  16.760  0.3357 -0.0380  0.4504
 8137SOL    HW135870   3.187   3.817  16.755  0.9834 -0.3042  0.9969
 8137SOL    HW235871   3.210   3.697  16.824  0.5203  0.9890  0.7948
 8138SOL     OW35872   1.909   2.421  10.165 -0.2423 -0.3197 -0.5762
 8138SOL    HW135873   1.845   2.350  10.155  1.5635 -1.8834 -0.9315
 8138SOL    HW235874   1.920   2.452  10.075 -2.0435 -1.0837 -1.0784
 8139SOL     OW35875   0.326   0.467   5.957 -0.0353  0.1295 -0.1050
 8139SOL    HW135876   0.315   0.401   6.026 -0.6390 -0.4278 -0.7370
 8139SOL    HW235877   0.301   0.419   5.879 -0.4320 -1.1901  0.8283
 8140SOL     OW35878   2.973   0.488   7.552 -0.0408  0.4444  0.5232
 8140SOL    HW135879   3.005   0.508   7.464 -2.0535  1.4423  0.0125
 8140SOL    HW235880   2.944   0.398   7.540 -0.0903  0.2347  2.2425
 8141SOL     OW35881   4.030   4.472   7.118 -0.2110 -0.1417 -0.0956
 8141SOL    HW135882   4.086   4.534   7.167 -0.4930 -0.1607  0.2500
 8141SOL    HW235883   3.998   4.413   7.186 -0.8249 -0.3855 -0.6008
 8142SOL     OW35884   4.434   4.216  10.784 -0.0523  0.1529 -0.1641
 8142SOL    HW135885   4.491   4.180  10.717  2.8140  0.2841  2.2049
 8142SOL    HW235886   4.446   4.310  10.772 -0.0657 -0.0936 -2.0109
 8143SOL     OW35887   2.982   2.186   8.655 -0.6816 -0.0201  0.0447
 8143SOL    HW135888   2.897   2.198   8.697 -1.1847 -2.8895 -0.2194
 8143SOL    HW235889   2.970   2.093   8.641 -0.6448 -0.4267  2.5709
 8144SOL     OW35890   4.280   3.580   6.396 -0.2332  1.2502 -0.3969
 8144SOL    HW135891   4.213   3.611   6.335  0.4618  2.2597 -0.6528
 8144SOL    HW235892   4.346   3.543   6.338 -2.7505  1.4749 -3.4271
 8145SOL     OW35893   1.176   2.769   2.221  0.1697 -0.6419  0.1780
 8145SOL    HW135894   1.108   2.704   2.203  2.1795 -2.4936 -0.7648
 8145SOL    HW235895   1.259   2.725   2.242  1.5979  2.0481  0.0808
 8146SOL     OW35896   4.246   1.002   4.811  0.0226  0.0902  0.4032
 8146SOL    HW135897   4.313   0.987   4.878 -0.3183 -0.5725  0.6014
 8146SOL    HW235898   4.243   1.096   4.828 -0.7795  0.4256 -1.5505
 8147SOL     OW35899   2.417   2.630  14.008  0.4603 -0.0660 -0.0669
 8147SOL    HW135900   2.362   2.563  13.969  1.9341 -2.9374  2.7966
 8147SOL    HW235901   2.464   2.660  13.930 -0.3257  1.2908 -0.0358
 8148SOL     OW35902   3.010   0.619   6.353 -0.7342  0.7263 -0.5947
 8148SOL    HW135903   2.971   0.538   6.385  2.1874 -1.7697 -3.3867
 8148SOL    HW235904   3.012   0.669   6.435  0.6840 -1.7507  0.8569
 8149SOL     OW35905   1.086   3.657   3.569 -0.2219  0.1617  0.1590
 8149SOL    HW135906   1.126   3.592   3.511 -0.4817  1.9097 -1.9344
 8149SOL    HW235907   1.162   3.714   3.580  1.0778 -1.3930 -0.8031
 8150SOL     OW35908   3.883   4.064  17.090 -0.1156  0.7544 -0.5047
 8150SOL    HW135909   3.963   4.090  17.136  0.9555  2.7709 -3.4348
 8150SOL    HW235910   3.846   4.149  17.067 -0.5465  0.2447 -1.6623
 8151SOL     OW35911   1.408   0.795   1.894  0.4093 -0.1018 -0.3250
 8151SOL    HW135912   1.448   0.816   1.979  1.8385 -0.8793 -0.8113
 8151SOL    HW235913   1.462   0.847   1.835  0.9889 -0.3653 -0.0292
 8152SOL     OW35914   0.944   0.131   8.370  0.2145 -0.2638 -0.0396
 8152SOL    HW135915   0.871   0.080   8.335 -2.4687  2.1119  2.1403
 8152SOL    HW235916   0.909   0.218   8.355 -0.0821 -0.0725  1.8030
 8153SOL     OW35917   2.437   1.748   6.502 -0.0447 -0.7339 -0.7273
 8153SOL    HW135918   2.367   1.686   6.482  0.5514 -1.9320  0.8346
 8153SOL    HW235919   2.469   1.723   6.589  0.7007 -0.6721 -0.9851
 8154SOL     OW35920   4.005   3.707   9.516 -0.0696  0.1308 -0.0381
 8154SOL    HW135921   3.913   3.684   9.501  0.5469 -2.1620 -0.4108
 8154SOL    HW235922   4.036   3.666   9.597 -1.8533 -2.0442 -0.4481
 8155SOL     OW35923   3.914   0.986   3.653 -0.0031  0.2775  0.6087
 8155SOL    HW135924   3.892   1.006   3.744  2.2058  0.2276  1.1537
 8155SOL    HW235925   3.834   1.022   3.615  0.0033  0.0356  0.3662
 8156SOL     OW35926   4.427   0.057   8.348  0.4220 -0.0842 -0.0204
 8156SOL    HW135927   4.490   0.120   8.313 -1.3333  0.7167 -1.7274
 8156SOL    HW235928   4.399   0.006   8.272  2.0036  1.7364 -1.8108
 8157SOL     OW35929   2.782   4.291  17.591 -0.1424 -0.5032  0.6808
 8157SOL    HW135930   2.747   4.377  17.568 -0.7569 -1.2704 -1.1773
 8157SOL    HW235931   2.706   4.243  17.624  0.7624 -1.3203  1.5851
 8158SOL     OW35932   1.044   3.301   1.021 -0.3965  0.2138  0.0461
 8158SOL    HW135933   1.119   3.360   1.018  0.0033 -0.1979  2.3202
 8158SOL    HW235934   1.001   3.333   1.100  0.2263 -1.1657  0.9430
 8159SOL     OW35935   1.989   0.363   7.326  0.6809  0.1690  0.0760
 8159SOL    HW135936   1.990   0.394   7.417 -3.7317 -0.9146  0.4895
 8159SOL    HW235937   1.935   0.285   7.325 -0.3954  0.9045  0.6728
 8160SOL     OW35938   3.321   1.816   4.433 -0.4739  0.0383  0.4871
 8160SOL    HW135939   3.338   1.750   4.500 -2.0966 -1.6540 -0.7627
 8160SOL    HW235940   3.391   1.800   4.370  1.3323 -0.1977  2.5584
 8161SOL     OW35941   2.561   2.497   7.065 -0.0568 -0.0457  0.1938
 8161SOL    HW135942   2.578   2.574   7.119 -0.5376 -1.5169  2.4425
 8161SOL    HW235943   2.639   2.441   7.073  1.7504  2.6392  1.4831
 8162SOL     OW35944   3.504   1.590   9.215  0.6192  0.2151 -0.4661
 8162SOL    HW135945   3.489   1.612   9.307 -0.4131 -1.4787 -0.2119
 8162SOL    HW235946   3.500   1.494   9.224  1.7850  0.7506  5.7896
 8163SOL     OW35947   4.430   3.901   0.331 -0.0292 -0.0024  0.1793
 8163SOL    HW135948   4.449   3.883   0.239 -0.4823  0.8481 -0.0807
 8163SOL    HW235949   4.459   3.991   0.343 -1.6076  0.6690 -0.9419
 8164SOL     OW35950   1.723   0.477   3.337  0.0908 -0.7334  0.3018
 8164SOL    HW135951   1.673   0.546   3.293  1.1128  1.5611  2.6893
 8164SOL    HW235952   1.785   0.444   3.272 -0.7528 -2.7619  0.5409
 8165SOL     OW35953   2.397   0.934  16.960  0.3525 -0.1986 -0.2393
 8165SOL    HW135954   2.445   0.915  17.041  3.6602  2.7826 -1.5392
 8165SOL    HW235955   2.458   0.985  16.908  1.7239 -2.0522 -0.4248
 8166SOL     OW35956   2.063   1.373  15.482  0.1611 -0.3254  0.1251
 8166SOL    HW135957   1.989   1.422  15.516  0.6461  0.7418 -0.3782
 8166SOL    HW235958   2.076   1.411  15.395  0.0687 -1.4781 -0.3907
 8167SOL     OW35959   2.858   1.684  11.049 -0.2754 -0.0379  0.0284
 8167SOL    HW135960   2.781   1.632  11.029  0.1704 -0.2292 -1.2023
 8167SOL    HW235961   2.840   1.704  11.141 -0.4154 -1.0951  0.2302
 8168SOL     OW35962   2.136   2.254  11.980 -0.0307 -0.0496  0.7681
 8168SOL    HW135963   2.119   2.164  12.005 -3.3652 -0.2742 -2.2665
 8168SOL    HW235964   2.098   2.306  12.051 -1.6861  1.2121 -1.0327
 8169SOL     OW35965   1.917   3.646   7.942 -0.5826 -0.3512 -0.3535
 8169SOL    HW135966   1.908   3.608   8.029 -0.9174 -1.4140 -0.8464
 8169SOL    HW235967   2.006   3.681   7.947 -0.1640 -1.6394  1.1993
 8170SOL     OW35968   4.093   2.444  14.242  0.2081  0.1379  0.4651
 8170SOL    HW135969   4.004   2.412  14.229 -1.1819  3.6040  1.5643
 8170SOL    HW235970   4.071   2.518  14.298 -0.2407  0.5892 -0.3024
 8171SOL     OW35971   1.025   0.503  11.128 -0.2709 -0.3015 -0.0041
 8171SOL    HW135972   1.080   0.544  11.195 -3.0976  1.4531  1.2680
 8171SOL    HW235973   0.945   0.556  11.132  0.0071  0.2455 -1.9593
 8172SOL     OW35974   3.374   0.666   7.141  0.1007  0.4983  0.4747
 8172SOL    HW135975   3.299   0.625   7.185 -1.0964  2.3211  0.1445
 8172SOL    HW235976   3.369   0.756   7.173 -1.5932  0.2498  0.9162
 8173SOL     OW35977   2.412   0.593   4.525 -0.0221 -0.4215 -0.1326
 8173SOL    HW135978   2.490   0.544   4.553  0.4496 -0.0387 -0.7599
 8173SOL    HW235979   2.427   0.678   4.566 -0.9116 -1.2024  1.7992
 8174SOL     OW35980   0.537   0.161  14.918  0.0800 -0.2790 -0.8489
 8174SOL    HW135981   0.578   0.177  14.833 -0.5355 -3.1028 -1.6680
 8174SOL    HW235982   0.589   0.212  14.981 -0.1825 -0.7292 -0.2731
 8175SOL     OW35983   2.719   2.084  13.021 -0.5300  0.2364 -0.3595
 8175SOL    HW135984   2.804   2.109  13.057 -0.6913  0.3356 -0.0400
 8175SOL    HW235985   2.682   2.043  13.099 -1.3584  1.3843 -0.1367
 8176SOL     OW35986   3.587   1.767   8.703  0.1489 -0.3327  0.0217
 8176SOL    HW135987   3.577   1.717   8.622 -1.1185 -1.8367  1.1427
 8176SOL    HW235988   3.683   1.764   8.703  0.2317  1.9729  0.5816
 8177SOL     OW35989   0.549   3.189   6.686  0.0598 -0.0510 -0.4619
 8177SOL    HW135990   0.578   3.100   6.670 -0.8279 -0.1360 -1.6249
 8177SOL    HW235991   0.479   3.168   6.748 -0.5762 -0.2080 -1.2400
 8178SOL     OW35992   1.335   2.477   3.969 -0.0428 -0.3326 -0.0626
 8178SOL    HW135993   1.409   2.468   3.910 -1.0267 -0.7000 -1.2404
 8178SOL    HW235994   1.281   2.548   3.933 -0.7556  0.1326  1.9048
 8179SOL     OW35995   1.381   3.586   6.547  0.0420 -0.5198  0.4165
 8179SOL    HW135996   1.366   3.598   6.453 -0.2497  0.0950  0.5403
 8179SOL    HW235997   1.291   3.560   6.564  0.2382 -1.4886  0.0034
 8180SOL     OW35998   2.603   1.810   6.983  0.3920  0.6160  0.0109
 8180SOL    HW135999   2.605   1.810   7.079 -1.8116 -2.1667  0.0108
 8180SOL    HW236000   2.678   1.870   6.972  0.7943 -0.2173 -1.7584
 8181SOL     OW36001   1.071   4.715   7.209  0.7970 -0.8345  0.1664
 8181SOL    HW136002   1.055   4.657   7.135 -0.2228 -2.1994  1.4420
 8181SOL    HW236003   1.131   0.060   7.179  1.0416 -1.7336 -1.3575
 8182SOL     OW36004   4.397   2.298   5.156  0.2122  0.5607  0.1214
 8182SOL    HW136005   4.391   2.230   5.223  3.5691 -0.4378 -0.6119
 8182SOL    HW236006   4.315   2.339   5.185 -1.2631 -1.6632 -0.8078
 8183SOL     OW36007   2.958   0.319   5.029  0.0237 -0.0586  0.4856
 8183SOL    HW136008   2.873   0.346   4.995  0.4775  1.7536  0.7451
 8183SOL    HW236009   2.935   0.266   5.105 -0.5709  1.1242  1.1415
 8184SOL     OW36010   3.737   2.748   1.840 -0.1377  0.2118  0.3381
 8184SOL    HW136011   3.666   2.723   1.898  0.9478  1.0303  2.0019
 8184SOL    HW236012   3.812   2.704   1.879 -0.0316  1.4100  1.4682
 8185SOL     OW36013   1.422   4.286   5.078  0.3656  0.3775  0.1282
 8185SOL    HW136014   1.387   4.338   5.151 -0.3853 -1.0268  0.7761
 8185SOL    HW236015   1.349   4.223   5.082  1.1633 -0.4289  1.6332
 8186SOL     OW36016   3.973   1.809   8.629  0.1850  0.8885  0.2907
 8186SOL    HW136017   3.926   1.755   8.692 -0.2058 -0.1664 -0.8876
 8186SOL    HW236018   4.026   1.735   8.597  1.3754  2.2666 -0.9253
 8187SOL     OW36019   2.767   1.470   2.775  0.0267  0.3608 -0.1918
 8187SOL    HW136020   2.842   1.520   2.742 -0.8570  1.6418 -0.2771
 8187SOL    HW236021   2.704   1.458   2.704  1.4386  1.2075 -1.6020
 8188SOL     OW36022   2.620   2.221  15.047 -0.1491  0.2021  0.0172
 8188SOL    HW136023   2.651   2.131  15.036 -0.3877  0.2427 -1.0493
 8188SOL    HW236024   2.578   2.239  14.963  0.2223  2.6648  0.3478
 8189SOL     OW36025   1.671   3.108  14.371  0.1395  0.4705  0.1114
 8189SOL    HW136026   1.617   3.148  14.302  1.5386 -0.5322 -1.5775
 8189SOL    HW236027   1.606   3.119  14.440  0.9509 -0.2951  1.0045
 8190SOL     OW36028   2.207   0.253   5.847 -0.7122  0.4131 -0.7175
 8190SOL    HW136029   2.226   0.289   5.933 -1.5847 -2.2689  0.5859
 8190SOL    HW236030   2.291   0.214   5.821 -1.5272 -1.8331  0.0056
 8191SOL     OW36031   2.386   1.690   8.094 -0.3489 -0.5099 -0.0533
 8191SOL    HW136032   2.399   1.614   8.151  1.3188  0.0962  0.3842
 8191SOL    HW236033   2.464   1.737   8.125 -1.9936  1.4965  1.0518
 8192SOL     OW36034   0.060   2.224   6.427 -0.3578  0.3584 -0.1463
 8192SOL    HW136035   0.119   2.251   6.498 -1.6096  1.9647  0.2969
 8192SOL    HW236036   0.110   2.243   6.348 -0.6095  1.8105  0.0378
 8193SOL     OW36037   2.592   3.081   2.842  0.7283 -0.3989  0.4453
 8193SOL    HW136038   2.551   3.165   2.863 -0.2591 -0.4856 -1.1825
 8193SOL    HW236039   2.569   3.023   2.914 -1.2166  1.3638  1.2477
 8194SOL     OW36040   4.351   0.764  12.493  0.3325 -0.5205  0.3480
 8194SOL    HW136041   4.377   0.743  12.583 -2.9285 -0.1665  1.3854
 8194SOL    HW236042   4.361   0.858  12.503  1.2330 -0.6917  1.1224
 8195SOL     OW36043   2.650   4.426   9.318 -0.6712 -0.3633  0.3794
 8195SOL    HW136044   2.567   4.381   9.305 -1.6371  1.0707  1.4978
 8195SOL    HW236045   2.697   4.353   9.358 -1.1752 -0.4250  0.8567
 8196SOL     OW36046   0.681   1.739  15.951 -0.1477 -0.7505 -0.1567
 8196SOL    HW136047   0.679   1.645  15.933  2.0373 -0.5699 -1.3913
 8196SOL    HW236048   0.649   1.777  15.869  1.4826 -0.0053 -0.4534
 8197SOL     OW36049   4.264   3.899  13.357 -0.1046 -0.1700  0.0446
 8197SOL    HW136050   4.252   3.919  13.264 -2.7469  1.1061  0.6671
 8197SOL    HW236051   4.193   3.837  13.373  1.0290 -1.3080  0.7140
 8198SOL     OW36052   2.075   3.878   8.127  0.1480 -0.3369 -0.2460
 8198SOL    HW136053   2.014   3.855   8.198  0.4887 -0.7366 -0.0815
 8198SOL    HW236054   2.144   3.819   8.157  0.7696 -0.0756 -1.1713
 8199SOL     OW36055   2.755   1.510   6.525  0.2557  0.3522  0.0253
 8199SOL    HW136056   2.745   1.582   6.589 -1.2025  0.5341 -0.3940
 8199SOL    HW236057   2.845   1.480   6.532 -0.3452 -1.3508  0.5415
 8200SOL     OW36058   1.887   0.302   2.218  0.6509  0.2404  0.6356
 8200SOL    HW136059   1.904   0.347   2.300  3.0652 -0.3210  0.4477
 8200SOL    HW236060   1.816   0.360   2.190  0.3715  0.4483  1.7749
 8201SOL     OW36061   3.316   0.679   7.773 -0.4663 -0.4379 -0.2966
 8201SOL    HW136062   3.318   0.635   7.688  0.7813  0.3398 -0.6689
 8201SOL    HW236063   3.398   0.729   7.771 -0.2551 -0.8744 -2.2293
 8202SOL     OW36064   3.013   4.210   6.807  0.0408 -0.3722  0.1158
 8202SOL    HW136065   2.955   4.200   6.733  0.0072 -1.0929  0.2422
 8202SOL    HW236066   2.965   4.174   6.882 -0.4393  2.5543  1.2129
 8203SOL     OW36067   0.759   3.077   7.467 -0.3854  1.0499 -0.0237
 8203SOL    HW136068   0.675   3.085   7.511 -1.2383 -0.8599 -1.3126
 8203SOL    HW236069   0.827   3.074   7.534  0.3890  1.4773 -0.7940
 8204SOL     OW36070   0.361   2.983   8.393 -0.3095  0.1398 -0.1699
 8204SOL    HW136071   0.321   3.046   8.454  1.7814 -0.0323  1.3783
 8204SOL    HW236072   0.449   3.022   8.389 -0.4386  0.4428 -0.0905
 8205SOL     OW36073   2.363   2.234   5.708 -0.4103 -0.1251 -0.1925
 8205SOL    HW136074   2.318   2.192   5.781  0.3275 -1.5266 -0.5363
 8205SOL    HW236075   2.426   2.292   5.751  0.8200 -4.1753  3.3560
 8206SOL     OW36076   3.999   0.036  13.909 -0.6844 -0.6318 -0.2294
 8206SOL    HW136077   3.947   0.073  13.980  0.9366 -1.4258  1.3511
 8206SOL    HW236078   4.080   0.022  13.957 -1.3392  1.2621  1.4248
 8207SOL     OW36079   1.499   4.665   5.525  0.3667  0.3873  0.5706
 8207SOL    HW136080   1.480   0.034   5.540 -2.6597 -0.1857  0.3224
 8207SOL    HW236081   1.524   4.665   5.433 -0.9807  0.4715  0.2015
 8208SOL     OW36082   2.618   0.555   0.724 -0.2138 -0.4423  0.0729
 8208SOL    HW136083   2.567   0.518   0.796 -0.8868  0.5971  0.1331
 8208SOL    HW236084   2.589   0.645   0.743  2.0686 -0.2301  2.6245
 8209SOL     OW36085   2.055   3.954   0.100 -0.1150  0.7617  0.1444
 8209SOL    HW136086   2.031   4.004   0.178 -0.7552  1.4521 -0.5032
 8209SOL    HW236087   2.066   3.870   0.144 -0.9185  0.6683  0.1686
 8210SOL     OW36088   4.393   2.306  15.409  0.3031 -0.2028  0.5306
 8210SOL    HW136089   4.348   2.387  15.384 -0.1499 -0.1387  1.5627
 8210SOL    HW236090   4.327   2.237  15.399 -0.2276  0.2794  0.6752
 8211SOL     OW36091   3.772   0.953   2.497 -0.0518  0.4503 -0.4825
 8211SOL    HW136092   3.767   1.027   2.435  1.4133  1.4447  0.5786
 8211SOL    HW236093   3.844   0.978   2.555 -0.9472  1.1676  0.3141
 8212SOL     OW36094   1.568   3.807   6.263  1.5980  0.0841 -0.4492
 8212SOL    HW136095   1.553   3.901   6.251  0.2720  0.0189  0.7660
 8212SOL    HW236096   1.476   3.782   6.271  0.8658  3.0632  0.5237
 8213SOL     OW36097   2.577   3.196  13.939 -0.0324 -0.0330  0.2139
 8213SOL    HW136098   2.599   3.244  13.860 -1.2629 -1.4193 -0.9720
 8213SOL    HW236099   2.665   3.204  13.977 -0.0860  1.3996  0.0183
 8214SOL     OW36100   3.710   2.146   1.034  0.3886  0.1717  0.1945
 8214SOL    HW136101   3.662   2.150   1.117 -0.8625 -2.7082 -0.4072
 8214SOL    HW236102   3.744   2.235   1.033  1.1353 -0.1048  1.3628
 8215SOL     OW36103   4.243   3.600   5.796  0.2786  0.7841 -0.5146
 8215SOL    HW136104   4.208   3.660   5.862 -0.3081  1.0588 -1.0860
 8215SOL    HW236105   4.260   3.657   5.722  3.0769  1.4054  0.6070
 8216SOL     OW36106   0.257   1.948   3.083 -0.1872 -0.5713 -0.2060
 8216SOL    HW136107   0.229   1.874   3.029  0.6188 -0.4963 -0.7399
 8216SOL    HW236108   0.275   1.921   3.173  0.3731 -0.5921 -0.3186
 8217SOL     OW36109   0.018   3.165   2.941 -0.0971 -0.2452 -0.5585
 8217SOL    HW136110   0.099   3.124   2.911 -1.0557 -1.4540 -1.4957
 8217SOL    HW236111   0.003   3.130   3.029  1.0908  0.5947 -0.0240
 8218SOL     OW36112   4.251   1.429   4.311 -0.5072  0.4886  0.5698
 8218SOL    HW136113   4.267   1.337   4.289 -1.0518  0.3980  0.5687
 8218SOL    HW236114   4.275   1.434   4.403 -0.6266 -0.4508  0.6491
 8219SOL     OW36115   0.300   4.696   9.975 -0.6114 -0.4407 -0.0839
 8219SOL    HW136116   0.295   0.041  10.043  1.0742 -1.3813  0.9830
 8219SOL    HW236117   0.386   4.659   9.994  0.5266  2.1079 -0.2725
 8220SOL     OW36118   1.153   0.535   2.475  0.0961  0.1501  0.0783
 8220SOL    HW136119   1.236   0.489   2.471 -0.6075 -0.8222 -3.6229
 8220SOL    HW236120   1.167   0.605   2.538  0.6855 -0.7147  0.9060
 8221SOL     OW36121   0.387   1.444   2.798 -0.4235 -0.0962 -0.0942
 8221SOL    HW136122   0.388   1.523   2.744  0.6832  0.4547  0.7160
 8221SOL    HW236123   0.340   1.474   2.876  1.0020  0.0296  0.7333
 8222SOL     OW36124   2.760   0.026  10.912  1.0494 -0.1281 -0.1617
 8222SOL    HW136125   2.697   0.027  10.984  1.2316  1.0537 -0.0218
 8222SOL    HW236126   2.708   4.699  10.849  1.1761  0.4451 -0.7179
 8223SOL     OW36127   0.362   3.800   9.821 -0.3886 -0.2759  0.1951
 8223SOL    HW136128   0.444   3.777   9.778 -1.0825 -3.5876  0.6510
 8223SOL    HW236129   0.332   3.711   9.843 -2.8872  0.3818 -0.4974
 8224SOL     OW36130   0.267   2.838   7.769 -0.3079 -0.1050  0.2490
 8224SOL    HW136131   0.257   2.908   7.833  0.6908 -0.4682  0.7983
 8224SOL    HW236132   0.355   2.854   7.736 -0.5027  0.2736 -0.0933
 8225SOL     OW36133   1.432   1.242   7.044 -0.9109 -0.2412  0.0557
 8225SOL    HW136134   1.415   1.285   6.960  0.4997 -0.0434 -0.1285
 8225SOL    HW236135   1.361   1.178   7.044 -1.8069  0.7691  1.6403
 8226SOL     OW36136   1.259   3.394   8.518 -0.7004  0.0824  0.4439
 8226SOL    HW136137   1.331   3.457   8.510 -0.5591 -0.2986 -1.3022
 8226SOL    HW236138   1.202   3.450   8.571  1.7293  2.2459  0.7935
 8227SOL     OW36139   4.417   1.223   6.596  0.1181 -0.0388  0.0618
 8227SOL    HW136140   4.409   1.175   6.514 -1.4382  0.1483  0.1108
 8227SOL    HW236141   4.471   1.167   6.652  1.6545 -0.7926 -2.1983
 8228SOL     OW36142   1.971   4.321   4.945  0.5033  0.2827 -0.0408
 8228SOL    HW136143   2.062   4.312   4.975 -0.0679  1.0680  1.8740
 8228SOL    HW236144   1.923   4.244   4.976  2.3794 -1.3535 -1.1662
 8229SOL     OW36145   3.551   2.967  15.139  0.0266 -0.0575  0.1445
 8229SOL    HW136146   3.458   2.976  15.159 -1.0889 -1.1340 -4.5845
 8229SOL    HW236147   3.548   2.876  15.108 -0.6635 -0.5215  1.5626
 8230SOL     OW36148   2.929   2.377   8.173 -1.3025  0.4725  0.3037
 8230SOL    HW136149   2.849   2.330   8.149  0.4161 -1.0870 -2.3322
 8230SOL    HW236150   2.913   2.407   8.262 -0.1830 -0.5748  0.8713
 8231SOL     OW36151   0.789   3.231   6.043 -0.4421  0.1563 -0.2889
 8231SOL    HW136152   0.791   3.325   6.063  2.8517  0.2205 -1.0112
 8231SOL    HW236153   0.749   3.199   6.124  1.9793  0.7784  1.1627
 8232SOL     OW36154   3.797   3.066   4.394 -0.7949  0.6991  0.1929
 8232SOL    HW136155   3.720   3.035   4.440  1.0263 -2.7980  0.8987
 8232SOL    HW236156   3.799   3.161   4.407  0.6805  0.5979  0.7680
 8233SOL     OW36157   2.914   0.340   2.290  0.7316 -0.0461  0.6691
 8233SOL    HW136158   2.875   0.334   2.377 -0.1178  1.3164  0.3850
 8233SOL    HW236159   2.961   0.257   2.287  0.0716 -0.3904 -0.3579
 8234SOL     OW36160   0.766   0.069  13.577 -0.4304  0.3382 -0.1038
 8234SOL    HW136161   0.677   0.053  13.545 -0.6970  1.7666 -0.0620
 8234SOL    HW236162   0.827   0.055  13.505 -0.0612 -0.8372  0.4315
 8235SOL     OW36163   3.904   2.026   8.470 -0.0616 -0.1373 -0.3960
 8235SOL    HW136164   3.918   1.966   8.543 -2.2932 -0.8698 -0.5644
 8235SOL    HW236165   3.973   2.092   8.484 -1.3062  1.2051 -0.5376
 8236SOL     OW36166   2.667   0.903   3.253  0.0107  0.3859  0.5184
 8236SOL    HW136167   2.607   0.956   3.304 -0.0979  0.5178  0.2558
 8236SOL    HW236168   2.692   0.955   3.176  0.0870 -1.8613 -0.9906
 8237SOL     OW36169   4.319   0.604   2.169 -0.6019  0.1682  0.0456
 8237SOL    HW136170   4.289   0.515   2.150 -1.4640  0.1180  1.6701
 8237SOL    HW236171   4.403   0.602   2.123 -0.3367 -1.1755  0.5851
 8238SOL     OW36172   1.162   0.789  11.310 -0.2725  0.1597  0.8738
 8238SOL    HW136173   1.080   0.829  11.337 -1.8534 -1.0179 -2.2003
 8238SOL    HW236174   1.193   0.740  11.386 -1.4186 -1.9758 -0.0345
 8239SOL     OW36175   3.488   4.543   4.528 -0.6102 -0.1339  0.4215
 8239SOL    HW136176   3.407   4.543   4.580 -1.8994 -0.4102 -1.5880
 8239SOL    HW236177   3.444   4.569   4.447  1.0024 -0.4370 -0.5451
 8240SOL     OW36178   2.531   3.326   0.633  0.0122  0.2401 -0.1019
 8240SOL    HW136179   2.587   3.401   0.610  0.0331  0.3146  0.1920
 8240SOL    HW236180   2.459   3.336   0.570  0.0977 -0.1976 -0.2724
 8241SOL     OW36181   3.348   0.712   5.363 -0.1619  0.1451 -0.3523
 8241SOL    HW136182   3.376   0.802   5.346  0.2785 -0.1129 -0.9720
 8241SOL    HW236183   3.419   0.683   5.420 -0.6194 -1.4860 -0.6229
 8242SOL     OW36184   1.290   1.615   4.822  0.2864  0.2501 -0.8134
 8242SOL    HW136185   1.370   1.565   4.838 -1.3288 -2.3055 -0.7237
 8242SOL    HW236186   1.299   1.652   4.734  0.2609  1.1527 -0.4392
 8243SOL     OW36187   2.990   1.382   1.300 -0.0580 -0.2499  0.2109
 8243SOL    HW136188   2.985   1.346   1.211 -0.8526 -0.5407  0.3735
 8243SOL    HW236189   3.080   1.362   1.327  0.2238  0.6105 -0.0913
 8244SOL     OW36190   2.426   2.906   4.394  0.4540 -0.0354  0.2191
 8244SOL    HW136191   2.350   2.881   4.447  0.0569 -1.5953 -1.0855
 8244SOL    HW236192   2.389   2.964   4.328  1.5262  0.5013  0.0926
 8245SOL     OW36193   2.520   1.663   8.598 -0.6130  0.0126 -0.3006
 8245SOL    HW136194   2.561   1.715   8.667  1.4743 -0.3322 -1.2895
 8245SOL    HW236195   2.432   1.701   8.598 -1.4163 -1.8620  2.5185
 8246SOL     OW36196   0.516   1.230   4.837 -0.2469  0.0290 -0.2912
 8246SOL    HW136197   0.479   1.173   4.769  0.5982  0.3699 -1.0441
 8246SOL    HW236198   0.600   1.186   4.846  0.9330  2.5523  1.0010
 8247SOL     OW36199   1.895   2.300   7.315 -0.5405  0.2130 -0.0541
 8247SOL    HW136200   1.823   2.307   7.378  0.2888 -0.9635  1.0352
 8247SOL    HW236201   1.848   2.302   7.231  1.2635  1.1704 -1.0370
 8248SOL     OW36202   0.640   2.521   8.705  0.0439 -0.3795  0.3176
 8248SOL    HW136203   0.654   2.528   8.799  0.4522 -2.1869  0.3844
 8248SOL    HW236204   0.552   2.559   8.699  0.7993  1.4985  1.1139
 8249SOL     OW36205   4.345   1.052   6.947  0.1631 -0.2805  0.8920
 8249SOL    HW136206   4.261   1.055   6.903  1.0796 -1.1157 -0.9180
 8249SOL    HW236207   4.354   0.958   6.963  0.1538 -0.8254 -2.3611
 8250SOL     OW36208   1.891   2.255   3.775 -0.3212 -0.2390  0.4041
 8250SOL    HW136209   1.896   2.341   3.816 -3.6994  0.0380  0.3081
 8250SOL    HW236210   1.958   2.208   3.824  0.5419 -0.3201 -0.8778
 8251SOL     OW36211   2.479   4.336   5.245 -0.1778  0.1161 -0.6709
 8251SOL    HW136212   2.395   4.292   5.237  0.4808 -0.7074 -3.0392
 8251SOL    HW236213   2.457   4.417   5.292 -0.0603 -0.0988 -0.2378
 8252SOL     OW36214   3.831   0.764  16.997 -0.6585 -0.2887  0.1132
 8252SOL    HW136215   3.840   0.703  17.070 -0.9272  0.1904  0.5447
 8252SOL    HW236216   3.922   0.793  16.988 -0.5726 -0.8147 -0.7632
 8253SOL     OW36217   1.689   0.097   9.946  0.4168  0.1703  0.1396
 8253SOL    HW136218   1.671   0.185   9.912  1.7917  0.4438  0.1496
 8253SOL    HW236219   1.626   0.052   9.889  1.8033 -0.5531 -0.8175
 8254SOL     OW36220   2.858   3.674   3.340  0.0127  0.6309 -0.3774
 8254SOL    HW136221   2.867   3.702   3.249  1.8784  1.7522  0.1491
 8254SOL    HW236222   2.864   3.580   3.320  0.4206  0.4524  0.5738
 8255SOL     OW36223   0.629   3.655   2.435 -0.5047  0.2500 -0.0671
 8255SOL    HW136224   0.582   3.711   2.497 -2.1449 -0.6903 -0.4405
 8255SOL    HW236225   0.636   3.719   2.364 -0.0440 -0.8849 -1.0477
 8256SOL     OW36226   3.694   0.180  16.647  0.3334 -0.4582 -0.3437
 8256SOL    HW136227   3.694   0.211  16.556 -0.3987  0.6513  0.0350
 8256SOL    HW236228   3.781   0.210  16.674  0.2525 -0.6815  0.1630
 8257SOL     OW36229   2.666   3.579   7.591  0.4419 -0.4622  0.1078
 8257SOL    HW136230   2.700   3.589   7.502 -2.2155  1.1971 -0.7340
 8257SOL    HW236231   2.583   3.534   7.576 -0.1984  0.3097  1.2635
 8258SOL     OW36232   4.243   3.030   4.913 -0.6019  0.4034  0.0530
 8258SOL    HW136233   4.291   3.073   4.842  1.4415  1.0482  1.8167
 8258SOL    HW236234   4.235   3.101   4.977 -2.3046  0.3368 -0.0886
 8259SOL     OW36235   2.072   4.101  15.708  0.0964 -0.0895  0.2949
 8259SOL    HW136236   2.071   4.010  15.679 -0.5352  0.8011 -2.4628
 8259SOL    HW236237   1.997   4.089  15.767 -0.8072 -0.9613 -1.0324
 8260SOL     OW36238   4.629   4.544   5.177 -0.2633 -0.6740  0.2825
 8260SOL    HW136239   4.688   4.529   5.252  0.1341 -1.5418 -0.2060
 8260SOL    HW236240   4.567   4.484   5.219  0.1639 -1.8868 -0.8127
 8261SOL     OW36241   3.920   1.440   1.705 -0.0562  0.2007  0.2303
 8261SOL    HW136242   3.928   1.533   1.727 -0.1812  0.3993 -0.5495
 8261SOL    HW236243   3.877   1.456   1.621 -1.3641  0.5771  0.9526
 8262SOL     OW36244   1.261   2.040  14.604  0.0735  0.8539 -0.2127
 8262SOL    HW136245   1.268   1.968  14.541  1.1209  0.1621  0.6880
 8262SOL    HW236246   1.173   2.035  14.641  0.7717  1.2534  1.5093
 8263SOL     OW36247   3.345   1.400   4.509  0.0196 -0.0725  0.2646
 8263SOL    HW136248   3.374   1.462   4.576  1.6747 -0.4212 -0.1038
 8263SOL    HW236249   3.262   1.370   4.546 -0.0359 -2.6472 -1.9490
 8264SOL     OW36250   4.233   2.024  11.907 -0.0442  0.2823 -0.2579
 8264SOL    HW136251   4.141   1.996  11.908 -0.6140  2.0650 -2.2410
 8264SOL    HW236252   4.229   2.076  11.987 -0.7465 -0.8192  0.4188
 8265SOL     OW36253   1.534   3.221   3.781  0.3605  0.1563 -0.0075
 8265SOL    HW136254   1.517   3.237   3.874 -2.5680  1.4819 -0.7696
 8265SOL    HW236255   1.603   3.285   3.767 -1.2208  1.4594 -1.9059
 8266SOL     OW36256   1.759   2.696   5.698 -0.3672 -0.2990 -0.0947
 8266SOL    HW136257   1.759   2.698   5.794  0.5561  0.3327 -0.1069
 8266SOL    HW236258   1.827   2.631   5.680 -1.1148 -0.6744 -1.4632
 8267SOL     OW36259   3.365   2.861   9.097  0.5640  0.1002 -0.5931
 8267SOL    HW136260   3.279   2.879   9.136  0.9110 -0.9751  0.6366
 8267SOL    HW236261   3.345   2.810   9.018  1.4088 -0.8505 -0.1980
 8268SOL     OW36262   4.565   3.682   0.889  0.5809 -0.0864 -0.8262
 8268SOL    HW136263   4.485   3.698   0.938  0.1996 -0.6931 -1.2491
 8268SOL    HW236264   4.525   3.639   0.813 -0.6704  0.2239 -0.3416
 8269SOL     OW36265   1.022   1.496   0.804  0.1293 -0.2493  0.6799
 8269SOL    HW136266   1.117   1.496   0.814  0.1616  1.7428  0.2590
 8269SOL    HW236267   1.007   1.550   0.726  0.7074 -4.4453 -2.3588
 8270SOL     OW36268   4.348   1.120  17.457  0.3887 -0.1134  0.4455
 8270SOL    HW136269   4.287   1.073  17.401  0.3460 -0.3397  0.6794
 8270SOL    HW236270   4.297   1.137  17.536 -0.4980 -1.1522  0.0871
 8271SOL     OW36271   3.903   2.126  15.380  0.3359  0.2388 -0.5762
 8271SOL    HW136272   3.825   2.180  15.367 -1.0195 -1.6912 -0.4575
 8271SOL    HW236273   3.879   2.105  15.471 -4.5884  0.7883 -1.7617
 8272SOL     OW36274   0.767   0.826  14.825 -0.0490  0.3283  0.2510
 8272SOL    HW136275   0.697   0.774  14.866 -0.1105  0.0728 -0.1801
 8272SOL    HW236276   0.735   0.915  14.841 -1.0453  0.0704 -0.2732
 8273SOL     OW36277   1.512   4.355   8.045 -0.8846 -0.5417 -0.6256
 8273SOL    HW136278   1.435   4.299   8.049 -2.0221  1.0745  0.2238
 8273SOL    HW236279   1.584   4.295   8.062 -0.9696 -0.1551  1.0612
 8274SOL     OW36280   1.439   2.263  16.153 -0.1356  0.3667  0.3621
 8274SOL    HW136281   1.534   2.271  16.153  0.0089 -1.4149  1.5171
 8274SOL    HW236282   1.433   2.171  16.179 -2.5780  1.2749  3.0960
 8275SOL     OW36283   4.009   4.598  12.103 -0.2378  0.4668 -0.0320
 8275SOL    HW136284   4.064   4.653  12.159  0.7735 -1.0210  0.4364
 8275SOL    HW236285   4.020   4.506  12.127 -1.2711  0.8135  1.7452
 8276SOL     OW36286   2.924   4.332  16.351 -0.8246 -0.5151  0.3156
 8276SOL    HW136287   3.004   4.301  16.309 -1.7068 -1.1386 -0.9086
 8276SOL    HW236288   2.919   4.427  16.344  1.2901 -0.4444 -0.3024
 8277SOL     OW36289   1.343   4.159   8.124  0.0468  0.4599  0.5366
 8277SOL    HW136290   1.395   4.116   8.191 -0.7991 -1.6571 -0.1757
 8277SOL    HW236291   1.308   4.085   8.075  0.3583 -0.4497  1.6958
 8278SOL     OW36292   2.924   1.820   6.404  0.4311 -0.0980 -0.5029
 8278SOL    HW136293   2.953   1.729   6.405 -0.2455 -0.3131 -0.7556
 8278SOL    HW236294   2.952   1.842   6.493  0.0080 -2.7506  0.2725
 8279SOL     OW36295   2.080   1.092  10.399  0.2999 -0.4494 -0.0602
 8279SOL    HW136296   2.085   1.003  10.436  0.2619 -0.0176  0.9748
 8279SOL    HW236297   1.985   1.101  10.408  0.7317  1.1332  2.8017
 8280SOL     OW36298   2.200   4.118   6.043  0.0331  0.5576  0.2062
 8280SOL    HW136299   2.159   4.196   6.081 -0.7892 -0.0234  0.5135
 8280SOL    HW236300   2.185   4.058   6.116  0.0662 -0.5658 -0.7073
 8281SOL     OW36301   4.001   4.331   7.773  0.0723  0.2881 -0.0064
 8281SOL    HW136302   3.992   4.259   7.835 -2.2097  2.9324  2.7035
 8281SOL    HW236303   3.989   4.414   7.818 -0.3331 -0.1728  0.7378
 8282SOL     OW36304   3.237   0.164  16.959  0.2630 -0.1130 -0.1910
 8282SOL    HW136305   3.177   0.098  16.994 -0.8407  0.9898 -0.0072
 8282SOL    HW236306   3.213   0.168  16.866 -0.5892  1.6932  0.1026
 8283SOL     OW36307   1.174   0.798   7.493 -0.1951 -0.5145  0.3047
 8283SOL    HW136308   1.256   0.839   7.465  0.0042 -1.4432 -0.4850
 8283SOL    HW236309   1.144   0.766   7.408  2.1673 -0.0348 -0.7044
 8284SOL     OW36310   0.898   4.112   5.600 -0.0732  0.6641  0.6076
 8284SOL    HW136311   0.929   4.027   5.571  1.2320  1.7412 -1.1418
 8284SOL    HW236312   0.944   4.168   5.538  0.8914  0.1570  0.8712
 8285SOL     OW36313   3.619   0.485   7.585  0.3341  0.0093 -0.2299
 8285SOL    HW136314   3.609   0.578   7.608 -1.5058 -0.4717  0.9900
 8285SOL    HW236315   3.528   0.463   7.564  0.1688 -0.2383  0.7234
 8286SOL     OW36316   1.702   0.065   9.613  0.2088  0.3470 -1.0050
 8286SOL    HW136317   1.762   0.034   9.681 -2.8233 -0.8350  1.1404
 8286SOL    HW236318   1.758   0.130   9.571 -1.8900  2.1613 -0.9779
 8287SOL     OW36319   1.382   0.680   9.784 -0.6242 -0.4544 -0.2746
 8287SOL    HW136320   1.403   0.741   9.712 -0.2685  0.3105  0.4750
 8287SOL    HW236321   1.371   0.740   9.858 -2.0853 -1.7837  0.5718
 8288SOL     OW36322   0.057   3.885  10.222  0.1383  0.1732 -0.5858
 8288SOL    HW136323   4.722   3.867  10.296  1.3498  1.9319  0.7829
 8288SOL    HW236324   0.086   3.974  10.243 -1.6891  0.7772 -0.6166
 8289SOL     OW36325   4.011   0.745   9.603  0.1087  0.2542 -0.6787
 8289SOL    HW136326   4.089   0.770   9.554  0.5113 -0.0731 -0.2056
 8289SOL    HW236327   4.010   0.799   9.682  2.9972  3.0773 -2.5415
 8290SOL     OW36328   4.577   2.077   0.947  0.7131  0.5779 -0.2317
 8290SOL    HW136329   4.641   2.053   0.881  0.0067 -1.8666 -0.0131
 8290SOL    HW236330   4.584   2.173   0.953 -0.8661  0.6132  1.2697
 8291SOL     OW36331   0.128   2.494  15.843  0.4948 -0.1532  0.0246
 8291SOL    HW136332   0.182   2.502  15.922 -0.6171 -0.2477  0.7966
 8291SOL    HW236333   0.162   2.565  15.789  0.3343 -0.3762 -0.3659
 8292SOL     OW36334   1.697   0.011   2.772  0.1144  0.4075  0.5156
 8292SOL    HW136335   1.727   0.021   2.682 -0.1272  0.6966  0.4656
 8292SOL    HW236336   1.637   4.660   2.758 -0.4272  1.4246 -2.5783
 8293SOL     OW36337   4.686   3.774  15.819  0.0401 -0.0238 -0.4052
 8293SOL    HW136338   0.040   3.828  15.803 -0.2308  0.7035  0.7477
 8293SOL    HW236339   4.652   3.810  15.901  0.4641 -1.9825  0.6078
 8294SOL     OW36340   4.698   0.128   7.867  0.4570 -0.8422  0.0784
 8294SOL    HW136341   0.013   0.133   7.780  0.6987 -2.2083  0.1068
 8294SOL    HW236342   4.694   0.220   7.893 -1.0154 -0.5350 -1.2504
 8295SOL     OW36343   1.732   3.556  16.130 -0.6939  0.5370  0.3581
 8295SOL    HW136344   1.761   3.611  16.057 -3.1918 -0.5656 -1.4752
 8295SOL    HW236345   1.770   3.471  16.108 -2.4708 -0.4139  0.9821
 8296SOL     OW36346   3.554   2.472  14.351 -0.6621  0.1614 -0.7764
 8296SOL    HW136347   3.542   2.475  14.446  2.2078 -1.8188 -0.3387
 8296SOL    HW236348   3.560   2.376  14.343 -1.5666  0.0463  0.0012
 8297SOL     OW36349   0.172   2.580  15.362 -0.2930  0.2493  0.1802
 8297SOL    HW136350   0.129   2.649  15.312 -1.0226 -0.7209 -0.5319
 8297SOL    HW236351   0.098   2.538  15.405 -1.2795 -0.2333 -1.9935
 8298SOL     OW36352   3.371   3.527   2.749 -0.3530 -0.0958 -0.2003
 8298SOL    HW136353   3.330   3.573   2.676  0.3303  2.2290  0.8927
 8298SOL    HW236354   3.339   3.573   2.827  0.5711 -2.3831  1.5315
 8299SOL     OW36355   2.329   0.446   7.651 -0.2909  0.1105 -0.1114
 8299SOL    HW136356   2.372   0.398   7.580 -1.4058  2.2364 -2.2311
 8299SOL    HW236357   2.310   0.381   7.719 -1.1873 -0.1611 -0.6267
 8300SOL     OW36358   0.357   4.646   3.005 -0.2176  0.0482 -0.2642
 8300SOL    HW136359   0.419   4.708   2.967 -0.8378  0.2202 -0.9964
 8300SOL    HW236360   0.273   4.672   2.967  0.1879 -2.0379 -2.6491
 8301SOL     OW36361   2.322   3.870   5.999  0.5923  0.2507 -0.4805
 8301SOL    HW136362   2.296   3.961   5.987 -1.9027 -0.0920  2.2887
 8301SOL    HW236363   2.256   3.824   5.946 -0.2991 -1.5516  2.1791
 8302SOL     OW36364   1.555   1.851   5.105 -0.2392  0.2052  0.2620
 8302SOL    HW136365   1.487   1.916   5.087 -0.7630 -0.3184  0.3454
 8302SOL    HW236366   1.620   1.897   5.156  1.7545 -0.0107 -2.0768
 8303SOL     OW36367   3.118   2.979   7.264 -0.0325 -0.3331  0.3326
 8303SOL    HW136368   3.023   2.979   7.252 -0.3028  1.6120  2.5634
 8303SOL    HW236369   3.148   3.023   7.184 -0.0222 -0.7847  0.0874
 8304SOL     OW36370   3.604   2.106   3.810  0.5979 -0.4537 -0.3375
 8304SOL    HW136371   3.546   2.037   3.778 -0.5559  0.3024  0.1597
 8304SOL    HW236372   3.687   2.084   3.766  0.5662  0.8072 -1.0605
 8305SOL     OW36373   1.909   1.410   4.531 -0.4538  0.1681  0.1473
 8305SOL    HW136374   1.903   1.355   4.453  3.1686  0.2389 -0.1785
 8305SOL    HW236375   1.933   1.491   4.486  2.0670  0.8549  2.6935
 8306SOL     OW36376   4.154   1.368  10.361  0.4912 -0.3327 -0.6769
 8306SOL    HW136377   4.226   1.357  10.423  0.2031 -0.4950 -0.3735
 8306SOL    HW236378   4.101   1.434  10.405  1.3790 -0.3830  0.4616
 8307SOL     OW36379   2.615   4.633   3.281  0.4556 -0.0426 -0.2751
 8307SOL    HW136380   2.637   0.004   3.285 -1.9266  0.3398  4.0030
 8307SOL    HW236381   2.562   4.627   3.202 -1.4501  2.7136  0.7914
 8308SOL     OW36382   3.563   0.810   4.396  0.4369 -0.3576  0.2414
 8308SOL    HW136383   3.645   0.776   4.432  1.5714  2.6754  0.5406
 8308SOL    HW236384   3.555   0.750   4.323 -0.8768  0.3273 -0.1830
 8309SOL     OW36385   1.248   4.078  12.832  0.0459  0.3910  0.4653
 8309SOL    HW136386   1.306   4.133  12.779 -0.4574 -0.7970 -1.3266
 8309SOL    HW236387   1.301   3.998  12.826  0.6189  0.6744  1.6487
 8310SOL     OW36388   4.015   3.286   6.249  0.3445 -0.1660 -0.1367
 8310SOL    HW136389   4.061   3.272   6.332 -1.0994 -0.0727  0.6738
 8310SOL    HW236390   3.946   3.345   6.279 -0.2845 -0.6855 -0.5423
 8311SOL     OW36391   0.621   4.255   9.410 -0.1023 -0.1255  0.1620
 8311SOL    HW136392   0.584   4.191   9.471 -0.3685 -0.4034 -0.2928
 8311SOL    HW236393   0.668   4.192   9.355  0.0351 -0.9495  1.2157
 8312SOL     OW36394   0.952   4.387   2.742  0.1792  1.1451 -0.3793
 8312SOL    HW136395   1.003   4.463   2.713  1.8121 -0.7075 -2.3858
 8312SOL    HW236396   0.910   4.358   2.661  0.3965 -0.0046 -0.0715
 8313SOL     OW36397   3.638   1.569   2.259 -0.4817  0.1468  0.4975
 8313SOL    HW136398   3.727   1.573   2.224  0.1501  0.0838  2.1099
 8313SOL    HW236399   3.595   1.655   2.250  0.5958  0.6269 -0.0959
 8314SOL     OW36400   4.616   1.939   8.729 -0.0681  0.2871 -0.0235
 8314SOL    HW136401   4.611   1.870   8.663 -2.4251 -0.9078  1.4065
 8314SOL    HW236402   4.574   1.888   8.798  4.1519 -0.3806  2.0402
 8315SOL     OW36403   4.712   1.895   7.503 -0.4438  0.1230 -0.6112
 8315SOL    HW136404   4.649   1.824   7.514  0.0248  0.0314  1.4209
 8315SOL    HW236405   0.010   1.888   7.410  0.0846  1.4448 -0.5976
 8316SOL     OW36406   0.439   1.066   7.452  0.3239  0.4986  0.0095
 8316SOL    HW136407   0.389   1.060   7.533  1.3615 -1.4637  0.5059
 8316SOL    HW236408   0.490   1.147   7.462 -1.4974  1.5783  0.5615
 8317SOL     OW36409   1.168   4.270  13.599  0.0477 -0.0402 -0.9317
 8317SOL    HW136410   1.257   4.265  13.565  0.2555 -2.5695 -0.0370
 8317SOL    HW236411   1.141   4.181  13.574  3.1298 -0.6316 -2.0792
 8318SOL     OW36412   3.318   3.372   5.715  0.3821 -0.0929 -0.5906
 8318SOL    HW136413   3.234   3.327   5.704  0.0525  0.4223 -0.1586
 8318SOL    HW236414   3.319   3.440   5.648  0.4541  2.0463  1.5771
 8319SOL     OW36415   0.289   3.718   8.782  0.2723 -0.2905 -0.3511
 8319SOL    HW136416   0.283   3.797   8.728 -1.0889  0.5221  0.9691
 8319SOL    HW236417   0.270   3.761   8.865  1.2853 -1.6199  0.5617
 8320SOL     OW36418   0.134   3.648   6.963 -0.1006 -0.2649 -0.5711
 8320SOL    HW136419   0.040   3.634   6.946 -0.1812 -0.5904  0.1359
 8320SOL    HW236420   0.168   3.565   6.996  0.2593 -0.6956 -2.0187
 8321SOL     OW36421   3.667   2.935   8.593 -0.1054  0.1119  0.1172
 8321SOL    HW136422   3.645   2.992   8.519 -2.3062  0.4395  1.0282
 8321SOL    HW236423   3.625   2.981   8.666 -0.1727 -1.8636  1.3208
 8322SOL     OW36424   4.215   3.166   2.239  0.3763 -0.6194  0.1744
 8322SOL    HW136425   4.227   3.246   2.188  0.0854 -2.6796 -3.1116
 8322SOL    HW236426   4.278   3.183   2.308  0.2728  0.7587 -0.0796
 8323SOL     OW36427   1.302   1.145  11.491 -0.4745  0.1756  0.4909
 8323SOL    HW136428   1.267   1.137  11.403 -1.1105 -0.4665  0.7947
 8323SOL    HW236429   1.396   1.160  11.479 -0.4099 -2.5585 -2.4840
 8324SOL     OW36430   1.961   1.733   4.722  0.2226  0.0979 -0.1699
 8324SOL    HW136431   2.052   1.761   4.735  0.9037 -1.5054 -1.4523
 8324SOL    HW236432   1.932   1.797   4.658 -0.6494  0.3536  0.4771
 8325SOL     OW36433   3.021   4.235  17.223  0.0221 -0.0516  0.7846
 8325SOL    HW136434   3.031   4.165  17.287 -0.5468 -1.2845 -0.4642
 8325SOL    HW236435   2.955   4.196  17.165 -0.2270 -0.7053  1.5068
 8326SOL     OW36436   2.089   0.919   4.936  0.2071 -0.5799  0.4187
 8326SOL    HW136437   2.095   1.008   4.971  2.2487 -0.2103 -0.8747
 8326SOL    HW236438   2.034   0.935   4.860 -0.3953 -1.7806  0.6060
 8327SOL     OW36439   3.031   3.755   4.289  0.0939 -0.0404  0.3395
 8327SOL    HW136440   2.980   3.748   4.369 -0.4536 -1.7918 -0.1637
 8327SOL    HW236441   3.024   3.669   4.246  1.3989  0.5288 -1.0283
 8328SOL     OW36442   3.565   4.187   0.603  0.1832 -0.2426 -0.0514
 8328SOL    HW136443   3.563   4.241   0.682  2.3224  0.2304 -0.3275
 8328SOL    HW236444   3.491   4.221   0.552 -1.5927 -1.9783  1.4013
 8329SOL     OW36445   0.436   3.787   2.618 -0.2119 -0.2328  0.4124
 8329SOL    HW136446   0.377   3.734   2.671 -0.6520  1.0944  1.2582
 8329SOL    HW236447   0.434   3.865   2.674  1.0977  0.0743  0.0135
 8330SOL     OW36448   1.066   1.684   5.928 -0.5618 -0.2564 -0.2457
 8330SOL    HW136449   1.035   1.754   5.870 -0.7987  0.8978  1.2745
 8330SOL    HW236450   1.132   1.744   5.963 -0.0512 -2.2444  2.1852
 8331SOL     OW36451   2.173   1.191   6.997 -0.0055  0.2541  0.0865
 8331SOL    HW136452   2.108   1.129   7.030 -1.0909  1.7996  0.8391
 8331SOL    HW236453   2.145   1.278   7.027 -1.3608 -0.1417  0.0016
 8332SOL     OW36454   1.380   3.734   9.541  0.4683 -0.4149  0.0214
 8332SOL    HW136455   1.428   3.710   9.621  0.9847 -1.3497 -0.5619
 8332SOL    HW236456   1.404   3.659   9.486  2.6606 -0.6114  1.2366
 8333SOL     OW36457   4.078   1.094   9.050  0.6347 -0.0473 -0.3624
 8333SOL    HW136458   3.987   1.092   9.077  1.4240  1.5968  2.4711
 8333SOL    HW236459   4.086   1.039   8.973 -0.4325  0.2588 -0.6886
 8334SOL     OW36460   1.961   3.668   6.109  0.0089 -0.0359 -0.0552
 8334SOL    HW136461   1.991   3.705   6.025 -1.3714  0.7981 -0.1780
 8334SOL    HW236462   2.034   3.696   6.165  0.4661 -1.2284 -0.0483
 8335SOL     OW36463   4.189   0.163   2.330 -0.2049 -0.3001  0.6464
 8335SOL    HW136464   4.270   0.171   2.380  0.7196  1.6047 -1.1578
 8335SOL    HW236465   4.196   0.217   2.251 -0.1097  0.4910  1.2015
 8336SOL     OW36466   4.181   2.356  15.676  0.0244  0.1982  0.0097
 8336SOL    HW136467   4.100   2.360  15.624 -2.0031 -0.3994  3.0672
 8336SOL    HW236468   4.208   2.446  15.663  1.2103 -0.0869  0.5266
 8337SOL     OW36469   3.956   2.366  10.391 -0.2846 -0.5290  0.3306
 8337SOL    HW136470   3.995   2.312  10.323  0.5103 -1.2672  1.3825
 8337SOL    HW236471   3.964   2.304  10.463 -3.7782 -0.5140  0.7337
 8338SOL     OW36472   0.224   2.718  15.689 -0.0389 -0.0826 -0.1039
 8338SOL    HW136473   0.246   2.799  15.736 -0.0342 -0.0896 -0.0939
 8338SOL    HW236474   0.274   2.729  15.608  0.4297 -1.0945  0.0400
 8339SOL     OW36475   3.050   2.975  11.711  0.8015 -0.1075 -0.1835
 8339SOL    HW136476   3.093   2.891  11.697  0.5648 -0.5730  1.8550
 8339SOL    HW236477   3.071   2.987  11.804 -1.2594 -0.4273  0.3103
 8340SOL     OW36478   1.330   1.017   3.673  0.3286 -0.0705  0.4331
 8340SOL    HW136479   1.302   1.103   3.644 -0.5336 -0.2812  0.6248
 8340SOL    HW236480   1.358   0.977   3.590 -1.2117  0.4207 -0.3222
 8341SOL     OW36481   4.146   1.768  16.042  0.6666 -0.1980 -0.7565
 8341SOL    HW136482   4.100   1.839  16.087  1.8709 -0.7696  1.3570
 8341SOL    HW236483   4.220   1.761  16.102  0.8431  0.7299 -0.8786
 8342SOL     OW36484   2.602   1.740   5.648 -0.0439 -0.6422  0.2323
 8342SOL    HW136485   2.674   1.771   5.594  0.6765 -1.0550  0.9575
 8342SOL    HW236486   2.559   1.825   5.649  1.8498  0.3064  0.6442
 8343SOL     OW36487   1.975   1.179  15.099 -0.0468  0.2613 -0.1620
 8343SOL    HW136488   1.892   1.214  15.067 -1.1207 -0.5359  1.7769
 8343SOL    HW236489   2.021   1.249  15.145 -0.3302 -1.0961  2.2050
 8344SOL     OW36490   1.249   0.690  11.587 -0.1428 -0.2783  0.7879
 8344SOL    HW136491   1.302   0.648  11.520 -0.5031  1.7088 -0.7445
 8344SOL    HW236492   1.221   0.605  11.622  0.3495 -0.6692  0.2280
 8345SOL     OW36493   2.594   3.564  12.670 -0.0954  0.0901  0.2299
 8345SOL    HW136494   2.587   3.643  12.616  0.8806 -0.1175 -0.2089
 8345SOL    HW236495   2.531   3.599  12.732 -0.9740 -0.0531 -0.5766
 8346SOL     OW36496   1.809   3.664  16.379 -0.4380 -0.4200  0.0056
 8346SOL    HW136497   1.786   3.641  16.289  0.6858 -1.9974  0.1355
 8346SOL    HW236498   1.731   3.644  16.430  1.1601 -1.8357  1.9107
 8347SOL     OW36499   1.342   0.312   2.710  0.1644 -0.0743  0.2311
 8347SOL    HW136500   1.258   0.289   2.749  2.0895 -0.7083  3.9638
 8347SOL    HW236501   1.404   0.241   2.727 -0.1233  0.5401  3.7952
 8348SOL     OW36502   2.032   1.868   7.510  0.6622  0.1330 -1.0512
 8348SOL    HW136503   2.042   1.962   7.498 -3.4735  0.6157 -0.7164
 8348SOL    HW236504   2.116   1.842   7.472  0.6836  0.6997 -1.3876
 8349SOL     OW36505   0.269   3.029   7.962  0.0921  0.5523 -0.6879
 8349SOL    HW136506   0.263   3.117   8.000  1.6801  1.0610 -1.6011
 8349SOL    HW236507   0.311   2.966   8.021  0.3162  0.5370 -0.8649
 8350SOL     OW36508   2.300   1.949  13.877  0.3593  0.2331  0.2509
 8350SOL    HW136509   2.232   1.963  13.942  0.2920  1.4397 -0.0741
 8350SOL    HW236510   2.343   1.869  13.908 -1.4407 -1.5457 -1.8555
 8351SOL     OW36511   3.840   3.769   5.149  0.0100  0.2650 -0.4624
 8351SOL    HW136512   3.775   3.765   5.219  1.3440 -0.0534  0.7494
 8351SOL    HW236513   3.782   3.739   5.080  0.6870  0.5873 -1.1756
 8352SOL     OW36514   1.201   0.414  16.357 -0.3382  0.0492 -0.4996
 8352SOL    HW136515   1.123   0.417  16.302 -1.7788  1.1238  1.6232
 8352SOL    HW236516   1.169   0.382  16.441 -0.4843  1.4450 -0.0290
 8353SOL     OW36517   2.757   4.412   6.251  0.1756 -0.5494 -0.5062
 8353SOL    HW136518   2.736   4.472   6.180  0.7185 -0.4047 -0.5440
 8353SOL    HW236519   2.852   4.423   6.263 -0.0418  1.2806 -0.4870
 8354SOL     OW36520   0.102   4.549   6.141  0.2079  0.2101  0.7192
 8354SOL    HW136521   0.191   4.536   6.109  1.2051  1.3721  3.0537
 8354SOL    HW236522   0.093   4.644   6.150 -0.2843  0.2338 -0.0445
 8355SOL     OW36523   3.304   4.197   9.210 -0.3074  0.6425 -0.5815
 8355SOL    HW136524   3.339   4.219   9.124  1.6817 -0.3165 -0.0263
 8355SOL    HW236525   3.251   4.121   9.186 -0.6838  0.2691  1.4097
 8356SOL     OW36526   3.268   2.091   4.116  0.7026 -0.1651 -0.5793
 8356SOL    HW136527   3.221   2.020   4.160 -0.2784  0.6628 -0.3115
 8356SOL    HW236528   3.354   2.049   4.118  0.0600 -1.4552 -0.0685
 8357SOL     OW36529   4.627   0.199   8.226  0.1706 -0.2553  0.0533
 8357SOL    HW136530   4.636   0.279   8.278 -2.7506  1.2320 -1.7340
 8357SOL    HW236531   4.711   0.152   8.230 -0.1136 -0.9534 -1.9467
 8358SOL     OW36532   0.687   0.352  15.080  0.0840 -0.6333 -0.5576
 8358SOL    HW136533   0.763   0.308  15.116 -0.6698 -0.7362  0.8934
 8358SOL    HW236534   0.660   0.407  15.154 -0.3074 -2.0306  0.3206
 8359SOL     OW36535   3.507   2.544   7.345 -0.0401 -0.5530 -0.0184
 8359SOL    HW136536   3.507   2.599   7.423 -0.2691 -0.3015 -0.1949
 8359SOL    HW236537   3.594   2.507   7.332  0.2533 -0.4551  1.6981
 8360SOL     OW36538   3.078   2.305   5.531 -0.4160  0.2821 -0.3597
 8360SOL    HW136539   3.042   2.264   5.610  1.1775 -0.6099 -0.0953
 8360SOL    HW236540   3.130   2.226   5.512 -0.9468 -0.1291 -0.0791
 8361SOL     OW36541   1.983   2.474   3.089  0.0261  0.0793 -0.2881
 8361SOL    HW136542   1.958   2.382   3.090  0.9111 -0.1491  1.2160
 8361SOL    HW236543   1.925   2.514   3.154  0.9287 -0.0792  0.6169
 8362SOL     OW36544   2.840   0.221  11.179 -0.6282 -0.2172  0.2232
 8362SOL    HW136545   2.788   0.179  11.247  0.9477 -1.2755  0.7619
 8362SOL    HW236546   2.829   0.157  11.109 -1.8607 -0.6417  0.8095
 8363SOL     OW36547   2.970   3.798   7.231 -0.4045  0.3734  0.2464
 8363SOL    HW136548   3.064   3.795   7.210 -0.3038 -0.1483  0.7716
 8363SOL    HW236549   2.941   3.879   7.190  3.5214  2.0175  0.7029
 8364SOL     OW36550   2.484   2.401   4.287 -0.0475 -0.3782  0.1981
 8364SOL    HW136551   2.491   2.454   4.367 -1.8005 -2.4204  1.7277
 8364SOL    HW236552   2.577   2.384   4.280 -0.5988 -3.3137  0.0956
 8365SOL     OW36553   0.570   3.472   7.828  0.6762 -0.4010 -0.0266
 8365SOL    HW136554   0.515   3.550   7.825  2.2064  0.7096  1.4020
 8365SOL    HW236555   0.657   3.511   7.821  0.8306 -0.9192 -1.0857
 8366SOL     OW36556   4.290   2.567   1.944  0.5544  0.2194 -0.0336
 8366SOL    HW136557   4.281   2.509   2.019  1.4275 -2.7214 -2.2112
 8366SOL    HW236558   4.385   2.576   1.936  0.5849 -1.1072 -1.0772
 8367SOL     OW36559   0.538   4.668   8.737  0.6844  0.1562  0.0370
 8367SOL    HW136560   0.585   0.021   8.770  1.6018 -0.8619  1.0624
 8367SOL    HW236561   0.470   4.718   8.692  0.3120 -1.4843 -1.1973
 8368SOL     OW36562   3.324   0.504  14.860  0.1619 -0.0815  0.6378
 8368SOL    HW136563   3.298   0.477  14.772  1.3498 -1.5313  0.7275
 8368SOL    HW236564   3.259   0.570  14.882 -0.9586 -0.4012 -1.6950
 8369SOL     OW36565   2.577   0.401  11.801  1.1785  0.5274 -0.1839
 8369SOL    HW136566   2.646   0.384  11.736  0.2328  0.2278 -1.1025
 8369SOL    HW236567   2.614   0.373  11.885 -0.9543  0.2215  0.6505
 8370SOL     OW36568   1.359   3.545   9.809  0.7289  0.0452 -0.2862
 8370SOL    HW136569   1.431   3.608   9.798  1.9981 -1.2243  0.8163
 8370SOL    HW236570   1.409   3.464   9.814  1.1269  0.3266  0.3256
 8371SOL     OW36571   4.452   0.067  14.760 -0.3656 -0.8654  0.1826
 8371SOL    HW136572   4.478   0.017  14.683  0.2870  1.1545 -0.9174
 8371SOL    HW236573   4.361   0.065  14.730 -0.4537  0.5296  0.3549
 8372SOL     OW36574   1.331   0.066   6.781  0.0717  0.3335 -0.0809
 8372SOL    HW136575   1.287   4.704   6.779  0.3355  0.2188 -1.0360
 8372SOL    HW236576   1.263   0.132   6.794  0.3043  0.8434 -1.4644
 8373SOL     OW36577   3.012   1.627   2.786  0.1939 -0.1455 -0.2599
 8373SOL    HW136578   3.013   1.645   2.880  2.3666  2.0534 -0.6985
 8373SOL    HW236579   3.006   1.720   2.761 -0.6206  0.4595  2.2032
 8374SOL     OW36580   4.554   1.530   2.569  0.5707  0.4234  0.5749
 8374SOL    HW136581   4.518   1.516   2.481 -0.7425  0.2924  1.1420
 8374SOL    HW236582   4.606   1.603   2.536  0.6742 -0.2973 -0.8512
 8375SOL     OW36583   3.228   1.159  16.150 -0.3479  0.4113  0.0826
 8375SOL    HW136584   3.186   1.203  16.076  2.0850  0.4939 -1.2873
 8375SOL    HW236585   3.312   1.206  16.151  0.0470 -0.3075  0.6368
 8376SOL     OW36586   4.347   1.234   7.421 -0.0034  0.0240  0.1554
 8376SOL    HW136587   4.333   1.199   7.333 -1.9655 -0.9602  0.8516
 8376SOL    HW236588   4.276   1.296   7.434 -1.5859 -1.6897 -0.2582
 8377SOL     OW36589   4.437   0.664   4.356 -0.5121 -0.2179 -0.2087
 8377SOL    HW136590   4.352   0.682   4.315 -0.7253  0.2519  0.4263
 8377SOL    HW236591   4.462   0.587   4.305  1.0696 -1.3629  2.2873
 8378SOL     OW36592   1.925   0.781  11.471  0.2258 -0.0340  0.1347
 8378SOL    HW136593   1.830   0.789  11.485  0.0853  1.3814 -1.6048
 8378SOL    HW236594   1.932   0.698  11.425 -1.5155 -0.6430  0.9693
 8379SOL     OW36595   3.119   1.284  13.234  0.5314  0.1292 -0.2050
 8379SOL    HW136596   3.067   1.297  13.155  0.4278  0.9177 -0.0078
 8379SOL    HW236597   3.131   1.373  13.268  1.4411  0.8931 -2.5408
 8380SOL     OW36598   2.782   2.207   6.550  0.4465  0.7382  0.1227
 8380SOL    HW136599   2.728   2.205   6.471 -1.6164  1.8353  1.4748
 8380SOL    HW236600   2.765   2.291   6.593 -0.2028  0.7266 -0.1070
 8381SOL     OW36601   0.253   1.625   6.818  0.2675 -1.1685 -0.0953
 8381SOL    HW136602   0.259   1.694   6.751 -1.6190 -0.5822  0.3255
 8381SOL    HW236603   0.325   1.566   6.795  2.7078  1.3742  0.9575
 8382SOL     OW36604   0.056   4.246   3.683  0.3653 -0.4125 -0.4123
 8382SOL    HW136605   0.110   4.169   3.700  3.3887  2.3739  2.5411
 8382SOL    HW236606   0.053   4.260   3.588  1.4048  0.1933 -0.3547
 8383SOL     OW36607   1.965   2.349   7.999  0.3386  0.1408  0.0129
 8383SOL    HW136608   1.986   2.280   7.936  0.7919  0.2014  0.0978
 8383SOL    HW236609   2.051   2.386   8.020 -0.3447  0.8714  1.5480
 8384SOL     OW36610   3.007   1.571   6.378  0.1046 -0.3957  0.3692
 8384SOL    HW136611   3.084   1.561   6.434  1.1984 -1.6741 -1.3912
 8384SOL    HW236612   3.030   1.515   6.304 -0.1789  0.2580 -0.2136
 8385SOL     OW36613   3.364   2.680  15.715  0.4498  0.3377 -0.2351
 8385SOL    HW136614   3.313   2.625  15.656  1.5648 -0.8559 -0.0723
 8385SOL    HW236615   3.327   2.660  15.801 -0.5548  1.8416 -0.3022
 8386SOL     OW36616   2.341   1.325   5.307  0.6749 -0.0341  0.0151
 8386SOL    HW136617   2.246   1.330   5.316  0.6186 -0.3562 -0.4138
 8386SOL    HW236618   2.353   1.239   5.347 -0.4431 -0.2643 -0.1381
 8387SOL     OW36619   2.289   3.037   5.481  0.0540 -0.0526 -0.0172
 8387SOL    HW136620   2.261   3.106   5.421  0.2996  0.4665  0.4613
 8387SOL    HW236621   2.296   2.963   5.421 -1.4449  0.0936 -0.3556
 8388SOL     OW36622   2.498   2.377  13.415  0.2250  0.1355 -0.4711
 8388SOL    HW136623   2.551   2.330  13.480 -0.8537  0.2417  0.4890
 8388SOL    HW236624   2.539   2.340  13.337 -0.2349 -0.8064 -0.2704
 8389SOL     OW36625   4.285   3.381  12.438 -0.4960  0.1941  0.2652
 8389SOL    HW136626   4.340   3.327  12.494 -1.3063 -1.1172 -0.2263
 8389SOL    HW236627   4.209   3.385  12.496 -0.8628 -0.3473 -0.1870
 8390SOL     OW36628   0.783   1.679  15.336 -0.3152 -0.5357 -0.1589
 8390SOL    HW136629   0.826   1.762  15.357 -0.3727 -0.5548  0.0387
 8390SOL    HW236630   0.696   1.713  15.318 -0.9149 -1.3452  1.1512
 8391SOL     OW36631   1.110   2.243   4.476  0.1608  0.0727  0.2079
 8391SOL    HW136632   1.034   2.249   4.535 -0.5268  1.0493 -0.7628
 8391SOL    HW236633   1.072   2.241   4.388 -0.8096  1.1658  0.5958
 8392SOL     OW36634   2.892   0.762   1.645 -0.0307  0.6818 -0.4007
 8392SOL    HW136635   2.896   0.805   1.560 -4.2241  0.2250 -0.8562
 8392SOL    HW236636   2.859   0.674   1.625 -2.0445  1.1487  0.8660
 8393SOL     OW36637   4.497   3.019   7.104 -0.3001  0.1234  0.6524
 8393SOL    HW136638   4.589   3.005   7.122 -0.3627 -1.5484 -0.3554
 8393SOL    HW236639   4.464   2.931   7.121 -0.8870  0.0544 -0.7676
 8394SOL     OW36640   1.044   3.553   4.576  0.2625 -0.2130 -0.0192
 8394SOL    HW136641   1.122   3.513   4.539  0.6049  0.7908 -0.3799
 8394SOL    HW236642   0.966   3.498   4.566 -1.3031  2.0080 -0.0058
 8395SOL     OW36643   1.978   4.602   2.293  0.0518  0.0669 -0.1262
 8395SOL    HW136644   2.041   4.556   2.237 -0.9572 -1.5158  0.0112
 8395SOL    HW236645   2.008   4.579   2.381 -0.4595  1.5137  0.4130
 8396SOL     OW36646   3.545   2.308   3.373 -0.0712  0.3280 -0.1807
 8396SOL    HW136647   3.556   2.298   3.467 -1.4023 -0.8013 -0.1417
 8396SOL    HW236648   3.571   2.400   3.371 -0.7942  0.5310 -0.3595
 8397SOL     OW36649   3.407   1.827   9.734  0.4859 -0.5803 -0.3222
 8397SOL    HW136650   3.475   1.792   9.791  1.7414 -0.1968 -1.5917
 8397SOL    HW236651   3.447   1.899   9.684  1.6991  0.3347  2.0002
 8398SOL     OW36652   1.779   0.729   7.595 -0.0733 -0.6504 -0.0559
 8398SOL    HW136653   1.870   0.760   7.601 -0.4723  0.6818 -1.0416
 8398SOL    HW236654   1.731   0.801   7.636 -2.3156 -2.4387  0.4303
 8399SOL     OW36655   0.330   4.083   7.166  0.3250  0.0132  0.1339
 8399SOL    HW136656   0.368   4.032   7.095  0.2486  1.4842 -0.9513
 8399SOL    HW236657   0.339   4.025   7.242 -0.3065  0.2455  0.3923
 8400SOL     OW36658   2.573   2.839   8.064 -0.3154  0.1789 -0.3655
 8400SOL    HW136659   2.557   2.928   8.094 -2.9708 -1.1682  2.2075
 8400SOL    HW236660   2.667   2.843   8.046 -0.7467  0.4454 -2.6157
 8401SOL     OW36661   1.834   3.858   0.268  0.0379 -0.1121 -0.7979
 8401SOL    HW136662   1.878   3.900   0.342 -0.2748 -0.9180 -0.1535
 8401SOL    HW236663   1.772   3.924   0.236  1.1604  1.0902 -0.4949
 8402SOL     OW36664   2.492   0.022   5.390  0.2874  0.5182 -0.5705
 8402SOL    HW136665   2.449   0.048   5.309 -1.4649  0.1112  0.2164
 8402SOL    HW236666   2.534   0.107   5.403  1.5641 -0.2050 -0.0242
 8403SOL     OW36667   3.825   2.373  14.261 -0.7008 -0.1945 -0.7448
 8403SOL    HW136668   3.818   2.284  14.226  2.6102 -0.5612 -0.4579
 8403SOL    HW236669   3.807   2.364  14.355  0.7425 -0.6989 -0.5112
 8404SOL     OW36670   0.381   3.287  13.605 -0.0782  0.0044 -0.0421
 8404SOL    HW136671   0.290   3.315  13.615 -0.6220 -1.0111 -2.1375
 8404SOL    HW236672   0.434   3.365  13.624  0.3382  0.0850 -1.5510
 8405SOL     OW36673   2.488   1.652   4.443 -0.2304 -0.0829 -0.4855
 8405SOL    HW136674   2.572   1.692   4.418  0.8238 -1.4098  0.9211
 8405SOL    HW236675   2.454   1.637   4.355 -0.8390 -1.9617  0.0798
 8406SOL     OW36676   3.797   3.855   3.909 -0.1263 -0.2470 -0.1614
 8406SOL    HW136677   3.855   3.902   3.850  0.2477 -1.4336 -0.7487
 8406SOL    HW236678   3.814   3.767   3.875 -1.3077  0.4542 -2.6153
 8407SOL     OW36679   2.087   2.846  14.555  0.5301 -0.1681 -0.6120
 8407SOL    HW136680   2.158   2.781  14.556 -0.2342 -0.9975 -0.4197
 8407SOL    HW236681   2.117   2.906  14.623  2.2161 -0.5659 -0.9794
 8408SOL     OW36682   4.240   0.290   7.860 -0.4300 -0.2427  0.0843
 8408SOL    HW136683   4.224   0.211   7.808 -0.4173  1.1014 -1.9387
 8408SOL    HW236684   4.326   0.265   7.895 -0.2698 -0.5235 -0.5124
 8409SOL     OW36685   1.413   1.022   4.993 -0.1011  0.5925  0.0048
 8409SOL    HW136686   1.480   1.084   4.964 -1.3870  1.7599 -0.4468
 8409SOL    HW236687   1.459   0.939   5.007 -0.0351  0.9229  1.7054
 8410SOL     OW36688   3.014   1.391   6.173 -0.0922 -0.0785 -0.4221
 8410SOL    HW136689   3.104   1.416   6.151 -0.4462 -0.1258 -1.9666
 8410SOL    HW236690   2.986   1.342   6.095  3.9968 -1.7926 -0.8084
 8411SOL     OW36691   2.336   3.825  12.416 -0.3114 -0.0315  0.3732
 8411SOL    HW136692   2.414   3.836  12.470 -0.8832  0.7445  1.0395
 8411SOL    HW236693   2.301   3.914  12.427  0.5363  0.4471 -0.8266
 8412SOL     OW36694   0.345   4.227   8.640  0.6353 -0.5551 -0.1725
 8412SOL    HW136695   0.432   4.252   8.609 -0.1439  0.4327 -1.5406
 8412SOL    HW236696   0.307   4.314   8.650 -2.6181 -2.4850  4.0668
 8413SOL     OW36697   0.548   1.507  13.541  0.2210  0.0650 -0.1233
 8413SOL    HW136698   0.477   1.447  13.521  0.8314 -0.4341 -0.7666
 8413SOL    HW236699   0.575   1.546  13.458  1.1071 -1.7299 -0.6703
 8414SOL     OW36700   2.249   2.995   8.556 -0.0655 -0.2953  0.6064
 8414SOL    HW136701   2.212   3.057   8.619 -1.2730  1.0212 -1.3870
 8414SOL    HW236702   2.248   2.914   8.606 -0.9954 -0.9286 -0.4428
 8415SOL     OW36703   2.001   0.900   3.184  0.1931 -0.3465 -0.0289
 8415SOL    HW136704   1.964   0.959   3.118 -0.5946 -1.4224 -0.5377
 8415SOL    HW236705   2.091   0.933   3.184  0.2723 -0.5687  0.7540
 8416SOL     OW36706   3.470   2.799   2.887  0.0464 -0.4201 -0.2390
 8416SOL    HW136707   3.481   2.707   2.911  0.6199 -0.0523  0.8833
 8416SOL    HW236708   3.483   2.796   2.792 -0.7607 -0.6112 -0.3442
 8417SOL     OW36709   0.353   2.757  15.427 -0.2484 -0.1233  0.1480
 8417SOL    HW136710   0.353   2.803  15.343 -1.3772  0.0585  0.2441
 8417SOL    HW236711   0.302   2.678  15.411 -2.1955  0.7207  2.2208
 8418SOL     OW36712   0.346   2.877  11.308  0.4838 -0.3610 -0.3280
 8418SOL    HW136713   0.416   2.941  11.320 -0.0570  0.7116 -3.1135
 8418SOL    HW236714   0.286   2.919  11.370 -2.6067  0.0385 -3.6422
 8419SOL     OW36715   2.975   1.723   3.789 -0.7939  0.0078 -0.5066
 8419SOL    HW136716   3.015   1.705   3.874  0.3167  2.8664 -0.4343
 8419SOL    HW236717   2.890   1.682   3.809  0.0911 -1.3204  0.5218
 8420SOL     OW36718   3.334   0.865  16.145  0.5895 -0.4522  0.0507
 8420SOL    HW136719   3.274   0.940  16.149  1.0369 -0.2276  2.4802
 8420SOL    HW236720   3.406   0.917  16.109  0.2097 -1.5562 -2.2755
 8421SOL     OW36721   2.308   0.365   6.684  0.4311  0.1754 -0.2751
 8421SOL    HW136722   2.388   0.417   6.695  0.4749  0.2159 -0.7542
 8421SOL    HW236723   2.298   0.325   6.770  1.0014  1.6255  0.4629
 8422SOL     OW36724   2.128   3.063   4.320  0.3021 -0.3331 -0.1452
 8422SOL    HW136725   2.152   2.985   4.370 -1.4098 -0.0338  1.1268
 8422SOL    HW236726   2.033   3.058   4.330  0.3121  2.4410  1.4270
 8423SOL     OW36727   0.484   1.401   1.412 -0.2629  0.5700 -0.4477
 8423SOL    HW136728   0.413   1.417   1.349  0.4520  1.7209 -0.9559
 8423SOL    HW236729   0.428   1.398   1.490  0.9198  0.4516  0.3816
 8424SOL     OW36730   0.577   3.641   3.750  0.1411  0.0809  0.2744
 8424SOL    HW136731   0.590   3.675   3.661  0.2035 -1.1197 -0.1648
 8424SOL    HW236732   0.574   3.729   3.789 -0.5273  0.9249 -1.6729
 8425SOL     OW36733   4.188   1.454  13.538 -0.1363  0.1013 -0.5154
 8425SOL    HW136734   4.117   1.403  13.499 -0.0879  2.3178 -3.5256
 8425SOL    HW236735   4.133   1.496  13.605 -0.0306 -0.0879 -0.3138
 8426SOL     OW36736   1.881   1.410   2.608 -0.5046  0.7106 -0.1457
 8426SOL    HW136737   1.793   1.389   2.575 -0.4531 -1.4469  1.1145
 8426SOL    HW236738   1.925   1.446   2.531  0.6571  0.7406  0.5443
 8427SOL     OW36739   0.390   3.156   6.933  0.2445  0.0999  0.2920
 8427SOL    HW136740   0.408   3.197   7.018 -0.8406  0.5721  0.2956
 8427SOL    HW236741   0.294   3.163   6.930  0.3486  0.7865 -1.4877
 8428SOL     OW36742   1.527   4.593   6.638 -0.0021 -0.3515  0.6040
 8428SOL    HW136743   1.456   4.637   6.684 -0.6246 -0.0594 -0.6338
 8428SOL    HW236744   1.478   4.579   6.557  0.5271 -3.0444  0.7363
 8429SOL     OW36745   1.809   3.786   7.743  0.2046 -0.1151 -0.0509
 8429SOL    HW136746   1.851   3.732   7.810  1.1197 -1.6469 -1.8896
 8429SOL    HW236747   1.827   3.875   7.776 -4.0353  1.2990 -1.5007
 8430SOL     OW36748   4.580   4.466   5.786 -0.0279 -0.3578 -0.3181
 8430SOL    HW136749   4.579   4.414   5.706 -0.5794 -0.1252 -0.4666
 8430SOL    HW236750   4.674   4.480   5.798 -0.0015 -1.0319  0.2264
 8431SOL     OW36751   0.279   1.938   6.770  0.4639 -0.6533 -0.5814
 8431SOL    HW136752   0.294   1.992   6.847  1.2295  0.2924 -1.3963
 8431SOL    HW236753   0.359   1.884   6.765 -0.4438 -2.0892  0.4332
 8432SOL     OW36754   3.679   1.111   3.591  0.1235 -0.0259 -0.1376
 8432SOL    HW136755   3.686   1.178   3.658  1.3111  0.0973 -0.3782
 8432SOL    HW236756   3.657   1.167   3.517 -0.2035 -0.4478 -0.3580
 8433SOL     OW36757   4.047   4.216   2.885 -0.0793  0.0953 -0.3192
 8433SOL    HW136758   4.002   4.265   2.817 -3.2311 -2.6940 -0.2642
 8433SOL    HW236759   3.968   4.173   2.918  1.6245 -1.4685  1.7424
 8434SOL     OW36760   3.528   0.660  15.392  0.0849  0.4700 -0.2297
 8434SOL    HW136761   3.440   0.689  15.417  0.0789  0.2542 -0.0063
 8434SOL    HW236762   3.518   0.624  15.304  2.0849  0.0735 -0.2962
 8435SOL     OW36763   3.827   0.183   6.418  0.2634  0.0855  0.3131
 8435SOL    HW136764   3.865   0.096   6.407 -2.1352 -0.7020 -1.8078
 8435SOL    HW236765   3.747   0.160   6.465 -0.3346 -1.4547 -1.4660
 8436SOL     OW36766   3.077   1.143   9.541  0.2955 -0.6362 -0.0702
 8436SOL    HW136767   2.991   1.178   9.515  0.5005  0.1146  0.2745
 8436SOL    HW236768   3.106   1.104   9.459 -0.5815 -0.3705 -0.5079
 8437SOL     OW36769   1.164   4.043  11.679  0.1811 -0.6870 -0.6524
 8437SOL    HW136770   1.233   4.085  11.626  1.0104 -0.5235  0.5478
 8437SOL    HW236771   1.203   3.982  11.742  0.8424  0.4876  0.0936
 8438SOL     OW36772   0.492   3.929   6.998  0.2131  0.2018  0.2295
 8438SOL    HW136773   0.546   3.906   7.073  0.5647 -1.4571 -0.5438
 8438SOL    HW236774   0.456   3.845   6.970 -3.3437  2.0067 -0.6727
 8439SOL     OW36775   2.803   4.409   7.698  0.2955  0.1357 -0.1282
 8439SOL    HW136776   2.775   4.426   7.609  0.3597  2.2161  0.2490
 8439SOL    HW236777   2.726   4.434   7.749  0.2598  0.4299 -0.3296
 8440SOL     OW36778   2.068   1.831  10.370 -0.2653 -0.1282 -0.2066
 8440SOL    HW136779   1.976   1.854  10.362  0.1503  1.1085 -1.6628
 8440SOL    HW236780   2.081   1.862  10.460 -0.7124  0.1156 -0.2246
 8441SOL     OW36781   3.097   3.377   7.313  0.1581  0.2468  0.1650
 8441SOL    HW136782   3.116   3.441   7.382  0.7217  0.0600  0.1768
 8441SOL    HW236783   3.062   3.313   7.375 -0.2752 -1.4220 -1.8358
 8442SOL     OW36784   4.420   3.744   6.565 -0.2989 -0.1997 -0.3446
 8442SOL    HW136785   4.355   3.682   6.534  1.7391 -1.6086 -1.7614
 8442SOL    HW236786   4.465   3.684   6.625 -0.1677 -0.0988 -0.3407
 8443SOL     OW36787   2.382   0.364   2.364 -0.2425  0.3644  0.0009
 8443SOL    HW136788   2.374   0.311   2.285  1.3772  0.6019 -0.3257
 8443SOL    HW236789   2.328   0.315   2.427 -0.9291 -0.1394 -0.9824
 8444SOL     OW36790   2.488   1.001   3.974 -0.0227 -0.0842  0.0130
 8444SOL    HW136791   2.459   0.975   3.887  0.0770  2.1711 -0.7002
 8444SOL    HW236792   2.406   0.982   4.019  0.1755  0.2658  0.5140
 8445SOL     OW36793   3.997   2.704  15.595  0.0142  0.4538 -0.1872
 8445SOL    HW136794   4.001   2.665  15.508  1.0017  2.2689 -0.9593
 8445SOL    HW236795   4.078   2.666  15.629 -0.1955 -2.1149 -2.6065
 8446SOL     OW36796   4.396   3.606   5.313 -0.5224  0.2275  0.1824
 8446SOL    HW136797   4.361   3.631   5.227 -0.1244  0.2326  0.0231
 8446SOL    HW236798   4.370   3.515   5.326  3.0712 -1.0079 -1.4186
 8447SOL     OW36799   0.615   4.539   6.441  0.1266 -0.2120  0.0458
 8447SOL    HW136800   0.706   4.516   6.463 -0.3662 -0.9372  1.3435
 8447SOL    HW236801   0.595   4.476   6.371 -1.7692 -0.1687  0.5542
 8448SOL     OW36802   4.654   1.690   6.613 -0.0475  0.1658 -0.7053
 8448SOL    HW136803   4.623   1.602   6.594  0.4481  0.5371 -3.3393
 8448SOL    HW236804   4.719   1.687   6.543  1.5977  0.1614  0.8200
 8449SOL     OW36805   0.434   2.713  14.625  0.1143 -0.1629 -0.4245
 8449SOL    HW136806   0.404   2.677  14.709 -1.1840  2.0862  0.0729
 8449SOL    HW236807   0.381   2.653  14.572  1.8990 -2.9821  0.9521
 8450SOL     OW36808   1.613   2.221   3.405 -0.1383 -0.4990 -0.1586
 8450SOL    HW136809   1.551   2.152   3.383  2.6416 -2.3353 -2.2791
 8450SOL    HW236810   1.673   2.170   3.459 -1.0168 -2.2940 -0.8829
 8451SOL     OW36811   2.877   2.619   1.312  0.0556 -0.0298  0.1877
 8451SOL    HW136812   2.807   2.598   1.374  0.0781 -1.3347 -0.2193
 8451SOL    HW236813   2.882   2.713   1.331 -0.4391 -0.0474  0.4056
 8452SOL     OW36814   1.193   0.855   4.958  0.1977 -0.0276  0.5911
 8452SOL    HW136815   1.203   0.865   4.863 -0.6119 -2.4835  0.2325
 8452SOL    HW236816   1.257   0.920   4.986  1.6374 -0.9697 -0.5034
 8453SOL     OW36817   4.266   0.978   4.529 -0.2155 -0.2678  0.1433
 8453SOL    HW136818   4.286   0.972   4.622  2.5472  0.3161 -0.3986
 8453SOL    HW236819   4.355   0.959   4.496 -0.1646  0.3740 -0.0826
 8454SOL     OW36820   3.558   2.278   1.235  0.5115 -0.1824  0.6365
 8454SOL    HW136821   3.555   2.311   1.325  2.2494  1.6501  0.0357
 8454SOL    HW236822   3.470   2.297   1.204  0.9810  1.5311  0.3534
 8455SOL     OW36823   3.219   3.606  10.945 -0.2652 -0.5068 -0.2598
 8455SOL    HW136824   3.196   3.648  10.862 -2.3183  1.2867  1.2199
 8455SOL    HW236825   3.225   3.515  10.917 -0.2151 -0.8845  0.9781
 8456SOL     OW36826   3.914   3.212  17.653  0.2712 -0.8863 -0.3325
 8456SOL    HW136827   3.820   3.225  17.647  0.4353  0.7527  0.6998
 8456SOL    HW236828   3.921   3.207   0.054  0.3477  0.1410 -0.2910
 8457SOL     OW36829   2.706   2.520   5.500 -0.1284 -0.2685 -0.1594
 8457SOL    HW136830   2.758   2.457   5.449 -1.4585 -1.7155  0.2637
 8457SOL    HW236831   2.621   2.476   5.496  0.6154 -1.9649  2.8378
 8458SOL     OW36832   2.746   0.157  15.982  0.1886  0.2208 -0.0935
 8458SOL    HW136833   2.740   0.200  16.067  2.1262 -0.3364  0.3257
 8458SOL    HW236834   2.754   0.241  15.935  0.5580  0.3659  0.2286
 8459SOL     OW36835   2.280   1.123  15.234  0.5044 -0.4165  0.2190
 8459SOL    HW136836   2.307   1.212  15.259  0.6923 -0.6296  0.7665
 8459SOL    HW236837   2.294   1.081  15.319  0.6001  0.8434  0.8330
 8460SOL     OW36838   2.026   4.144   0.881  0.5211 -0.1618 -0.3660
 8460SOL    HW136839   1.948   4.184   0.919  0.4683  0.2486 -0.9079
 8460SOL    HW236840   1.986   4.099   0.807 -0.1811  1.7368 -1.1188
 8461SOL     OW36841   4.295   2.822   6.123 -0.1893  0.7788 -0.3143
 8461SOL    HW136842   4.271   2.834   6.031  1.5936 -0.0243 -0.8773
 8461SOL    HW236843   4.332   2.907   6.147  0.5782  0.5313 -0.6363
 8462SOL     OW36844   2.066   1.953  12.071 -0.4881 -0.7309  0.3845
 8462SOL    HW136845   2.056   1.938  12.165  3.1087  1.9685  1.2295
 8462SOL    HW236846   2.157   1.943  12.043  0.1672  1.0342  1.8635
 8463SOL     OW36847   1.988   1.412   0.953  0.5091  0.3351 -0.5483
 8463SOL    HW136848   1.910   1.371   0.989  1.5245 -1.0087  0.1367
 8463SOL    HW236849   2.037   1.432   1.033  0.8200 -0.9545 -0.4213
 8464SOL     OW36850   4.480   2.295   1.775  0.1910  0.2160  0.4730
 8464SOL    HW136851   4.574   2.308   1.788  0.3581 -0.9979  0.4639
 8464SOL    HW236852   4.446   2.381   1.800  1.1260  0.3425  1.2923
 8465SOL     OW36853   3.713   4.603   6.659 -0.1047  0.2947  0.0643
 8465SOL    HW136854   3.808   4.617   6.666  0.1120 -1.2455  0.1518
 8465SOL    HW236855   3.710   4.508   6.647 -1.7650  0.3213  0.2901
 8466SOL     OW36856   1.273   0.962   6.102 -0.1356  0.2286  0.1018
 8466SOL    HW136857   1.354   0.975   6.052 -0.0871  1.5046  0.5284
 8466SOL    HW236858   1.303   0.990   6.188 -0.6903 -1.6162  0.8871
 8467SOL     OW36859   1.899   0.141   5.203  0.0549  0.2162 -0.4168
 8467SOL    HW136860   1.970   0.196   5.170  1.3659 -1.2162  0.0118
 8467SOL    HW236861   1.892   0.068   5.141  1.4212 -0.5924  0.4074
 8468SOL     OW36862   1.887   3.611   4.326 -0.4299 -0.4982  0.2227
 8468SOL    HW136863   1.918   3.628   4.414  1.8475  0.9127 -0.8610
 8468SOL    HW236864   1.807   3.664   4.322  0.1904  0.4989  1.1408
 8469SOL     OW36865   0.165   1.565   7.597  0.5762 -0.0284  0.4154
 8469SOL    HW136866   0.215   1.645   7.613  0.7822  0.0550 -0.7120
 8469SOL    HW236867   0.079   1.603   7.579  0.4319 -0.4388  0.2439
 8470SOL     OW36868   1.831   1.940   8.399 -0.0724  0.1879 -0.2825
 8470SOL    HW136869   1.906   2.000   8.404  1.0166 -1.1153 -1.2632
 8470SOL    HW236870   1.848   1.875   8.332  0.4634  0.2329 -0.1877
 8471SOL     OW36871   0.794   2.636   4.011  0.2185 -0.3836  0.3824
 8471SOL    HW136872   0.865   2.699   4.000 -3.3074  3.4168 -0.6722
 8471SOL    HW236873   0.819   2.597   4.094  1.3635  0.8894  0.6371
 8472SOL     OW36874   4.701   4.304   8.144 -0.7741 -0.7891 -0.0177
 8472SOL    HW136875   4.686   4.348   8.228  0.5255  3.1405 -1.8782
 8472SOL    HW236876   0.004   4.218   8.179 -0.7062 -2.0168 -3.0907
 8473SOL     OW36877   0.599   2.241  10.296 -0.2058 -0.1400 -0.2480
 8473SOL    HW136878   0.575   2.249  10.388  2.1144 -2.2513  0.5577
 8473SOL    HW236879   0.665   2.310  10.304  1.0216 -1.7260  3.2940
 8474SOL     OW36880   1.402   2.604  14.328 -0.1122 -0.4395  0.5255
 8474SOL    HW136881   1.378   2.693  14.354  1.1444  0.0676 -0.0623
 8474SOL    HW236882   1.315   2.565  14.326 -0.6295  0.6319  1.9107
 8475SOL     OW36883   0.674   2.939   8.196 -0.2042 -0.1723  0.2784
 8475SOL    HW136884   0.643   2.974   8.280 -2.3773  0.9302 -1.0007
 8475SOL    HW236885   0.752   2.892   8.227 -0.3705 -0.0953  0.8052
 8476SOL     OW36886   2.354   1.680  14.247  0.3537  0.1343 -0.4474
 8476SOL    HW136887   2.294   1.710  14.178  0.8031  1.5306 -0.2375
 8476SOL    HW236888   2.367   1.589  14.224  1.6936 -0.2761  1.9014
 8477SOL     OW36889   4.104   0.737   3.871 -0.7543  0.2503 -0.3189
 8477SOL    HW136890   4.161   0.814   3.866 -1.0780  0.5215  0.2338
 8477SOL    HW236891   4.127   0.700   3.785  0.8140  0.7136 -0.1049
 8478SOL     OW36892   2.428   4.615   1.603 -0.2574  0.0329  0.3579
 8478SOL    HW136893   2.403   4.565   1.525 -0.3876 -0.2020  0.5474
 8478SOL    HW236894   2.510   4.658   1.578  1.0848 -2.6756  0.0894
 8479SOL     OW36895   1.251   0.633   5.567 -0.0857  0.0952 -0.2182
 8479SOL    HW136896   1.319   0.643   5.501  0.4461 -0.2439  0.2822
 8479SOL    HW236897   1.304   0.638   5.647 -0.9738 -0.6463  0.4196
 8480SOL     OW36898   3.662   3.633   5.898 -0.6133  0.4689  0.0803
 8480SOL    HW136899   3.607   3.701   5.860 -0.7164  1.4302  1.9355
 8480SOL    HW236900   3.604   3.558   5.914 -1.7342  1.3499  0.1823
 8481SOL     OW36901   4.444   1.076   5.882  0.0378 -0.0310  0.9009
 8481SOL    HW136902   4.367   1.126   5.856 -0.1449 -0.4326  0.6695
 8481SOL    HW236903   4.504   1.150   5.876  0.0427 -0.0093  1.1938
 8482SOL     OW36904   1.595   0.894   9.245 -0.2947  0.3823  0.2440
 8482SOL    HW136905   1.576   0.957   9.314  0.6304  2.5038 -1.4627
 8482SOL    HW236906   1.539   0.821   9.272 -0.7548  0.0293 -1.6642
 8483SOL     OW36907   0.408   1.096   2.176 -0.7085 -0.4188  0.3914
 8483SOL    HW136908   0.453   1.166   2.225  0.0562 -1.2964  0.9315
 8483SOL    HW236909   0.316   1.123   2.177 -0.3502  0.9439 -1.4752
 8484SOL     OW36910   3.103   2.748   9.425  0.3405  0.1601  0.7937
 8484SOL    HW136911   3.145   2.807   9.488  0.3596  0.6040  0.3703
 8484SOL    HW236912   3.068   2.677   9.478 -0.5321 -0.3785 -0.5011
 8485SOL     OW36913   0.993   2.460   2.418 -0.1727 -0.3591 -0.2958
 8485SOL    HW136914   0.982   2.417   2.333  0.5481 -0.5869 -0.2681
 8485SOL    HW236915   1.088   2.462   2.426 -0.0995  0.6233 -1.4375
 8486SOL     OW36916   2.661   4.187   2.834 -0.1887 -1.0576 -0.4095
 8486SOL    HW136917   2.733   4.249   2.847 -0.8474 -0.1113 -1.2163
 8486SOL    HW236918   2.584   4.243   2.842 -0.0664 -0.9743  0.1836
 8487SOL     OW36919   4.443   1.957   7.222 -0.1004 -0.3796 -0.4032
 8487SOL    HW136920   4.527   1.993   7.192  0.1476  0.7040  1.6184
 8487SOL    HW236921   4.425   2.001   7.305  0.4190 -1.0356  0.0654
 8488SOL     OW36922   4.679   3.229   7.496  0.0373  0.8100 -0.0768
 8488SOL    HW136923   0.013   3.152   7.493  0.1264  0.8149  1.2387
 8488SOL    HW236924   4.591   3.193   7.486 -0.1649  1.2396  0.1226
 8489SOL     OW36925   4.574   3.172   5.872  0.4570  0.4065 -0.3867
 8489SOL    HW136926   4.644   3.111   5.895  1.5661  1.6434 -0.5021
 8489SOL    HW236927   4.560   3.214   5.957  1.0334 -2.0863  0.9540
 8490SOL     OW36928   1.641   3.818   4.935 -0.3174 -0.1299 -0.2113
 8490SOL    HW136929   1.572   3.881   4.914 -0.3241 -0.4357 -1.1415
 8490SOL    HW236930   1.590   3.763   4.993 -0.7692 -0.2042 -0.6810
 8491SOL     OW36931   0.736   3.021   1.403  0.3107  0.0116 -0.1392
 8491SOL    HW136932   0.780   3.046   1.322 -0.9640 -0.3246 -0.9332
 8491SOL    HW236933   0.659   3.078   1.400  0.9456  0.8449 -0.7864
 8492SOL     OW36934   2.120   1.257   5.544 -0.6965  0.0988  0.1067
 8492SOL    HW136935   2.151   1.347   5.544  0.1515 -0.1953  0.6282
 8492SOL    HW236936   2.110   1.260   5.639  0.3964 -0.3469  0.2362
 8493SOL     OW36937   1.017   4.260   5.329 -0.4834  0.1329  0.2076
 8493SOL    HW136938   1.046   4.342   5.291  1.3472 -0.5738  0.0779
 8493SOL    HW236939   1.059   4.265   5.415  0.4156  0.3324 -0.2539
 8494SOL     OW36940   2.756   4.070  13.525  0.1300  0.1355 -0.2621
 8494SOL    HW136941   2.780   4.043  13.437  0.8423 -2.2615  0.6666
 8494SOL    HW236942   2.779   3.994  13.578 -2.1799  1.3468  2.4722
 8495SOL     OW36943   0.132   3.076   2.264 -0.4226 -0.3115 -0.4777
 8495SOL    HW136944   0.148   3.168   2.284 -2.0372 -0.1867  0.2412
 8495SOL    HW236945   0.217   3.036   2.282 -1.0807 -1.5239 -0.0531
 8496SOL     OW36946   0.831   2.860   6.791 -0.3263  0.0959 -0.0645
 8496SOL    HW136947   0.831   2.837   6.884  1.0120  2.0632  0.4378
 8496SOL    HW236948   0.926   2.869   6.778  0.0338 -1.7157  1.2673
 8497SOL     OW36949   0.176   1.584   6.089  0.1710 -0.1613  0.3191
 8497SOL    HW136950   0.155   1.670   6.052 -1.4750 -1.2782 -1.3676
 8497SOL    HW236951   0.089   1.559   6.119 -0.8593  2.6601 -0.3185
 8498SOL     OW36952   3.028   1.828   6.690 -0.1957 -0.6287  0.6737
 8498SOL    HW136953   3.102   1.781   6.728 -1.7394 -3.3257  0.3644
 8498SOL    HW236954   3.071   1.912   6.700  0.6027 -0.9641  0.0290
 8499SOL     OW36955   0.634   4.393   9.123 -0.5094 -0.1229 -0.1254
 8499SOL    HW136956   0.589   4.477   9.111  1.1318  1.1423  2.5882
 8499SOL    HW236957   0.562   4.331   9.114  0.4887 -1.1850 -0.7811
 8500SOL     OW36958   0.874   2.601   7.223  0.3811 -0.3766  0.0982
 8500SOL    HW136959   0.870   2.635   7.313 -1.6030  0.6372 -0.3537
 8500SOL    HW236960   0.966   2.577   7.219  0.2611 -1.0820  1.7579
 8501SOL     OW36961   1.510   4.228   9.213 -0.0608 -0.0798  0.1364
 8501SOL    HW136962   1.533   4.149   9.163 -1.5097  0.6049 -1.6492
 8501SOL    HW236963   1.494   4.191   9.300 -1.0248 -1.3029 -0.5511
 8502SOL     OW36964   0.944   0.716   6.832  0.3793  0.5200 -0.2808
 8502SOL    HW136965   0.933   0.757   6.746 -2.6240 -0.4376 -0.3589
 8502SOL    HW236966   1.032   0.678   6.826 -0.0566 -0.7144  1.0584
 8503SOL     OW36967   2.055   4.073   8.444  0.0555  0.1654  0.4566
 8503SOL    HW136968   1.990   4.014   8.481  1.0708 -0.2009  1.6276
 8503SOL    HW236969   2.025   4.163   8.461 -0.6337  0.2232 -1.0026
 8504SOL     OW36970   2.706   1.512   7.874 -0.2641  0.8311 -0.5975
 8504SOL    HW136971   2.787   1.505   7.924 -1.0872 -2.6295  0.2051
 8504SOL    HW236972   2.736   1.563   7.799  0.2935 -0.8086 -1.4572
 8505SOL     OW36973   2.790   0.419   2.570  0.1521  0.4566 -0.1636
 8505SOL    HW136974   2.753   0.471   2.498 -0.7566 -0.6938 -0.5299
 8505SOL    HW236975   2.884   0.418   2.550  0.1677  1.5227 -0.1545
 8506SOL     OW36976   0.184   0.428   3.459  0.0663 -0.3044 -0.1093
 8506SOL    HW136977   0.250   0.432   3.529  0.6036 -1.5765 -0.5485
 8506SOL    HW236978   0.103   0.443   3.508  0.2636  0.0665  0.1062
 8507SOL     OW36979   2.527   0.612   9.712  0.1344 -0.2765  0.0032
 8507SOL    HW136980   2.525   0.678   9.643  2.8482 -1.1510 -0.9194
 8507SOL    HW236981   2.564   0.533   9.673 -0.1726  0.3377 -1.5071
 8508SOL     OW36982   0.207   0.116  10.894  0.0175 -0.0444 -0.2603
 8508SOL    HW136983   0.160   0.058  10.954 -0.8833  0.8191 -0.1308
 8508SOL    HW236984   0.197   0.194  10.948  1.2569  1.1013 -1.6670
 8509SOL     OW36985   2.394   3.234   9.146  0.2628  1.0261 -0.2272
 8509SOL    HW136986   2.325   3.170   9.128 -0.7764  1.8899  0.6669
 8509SOL    HW236987   2.373   3.266   9.234  0.5443  2.0431 -0.5265
 8510SOL     OW36988   2.223   0.131   6.875  0.9555  0.7673 -0.2214
 8510SOL    HW136989   2.308   0.096   6.901  0.7353 -0.4787 -1.1880
 8510SOL    HW236990   2.201   0.065   6.810  0.4825  0.3347  0.3759
 8511SOL     OW36991   3.395   1.325   2.599 -0.2411 -0.5664 -0.2329
 8511SOL    HW136992   3.411   1.300   2.508 -0.4672  0.5191 -0.5704
 8511SOL    HW236993   3.428   1.414   2.586 -1.5844 -0.2727 -1.6654
 8512SOL     OW36994   0.652   1.482   8.768 -0.0849 -0.7600  0.2873
 8512SOL    HW136995   0.566   1.466   8.729 -0.2642 -1.1746  0.8584
 8512SOL    HW236996   0.649   1.432   8.849  1.8423 -2.1735 -0.5044
 8513SOL     OW36997   1.726   1.358  11.880  0.1018 -0.1661  0.3894
 8513SOL    HW136998   1.760   1.371  11.969  2.5161 -1.0533 -0.4037
 8513SOL    HW236999   1.789   1.304  11.832  2.5983  2.9443  0.1454
 8514SOL     OW37000   0.654   3.365  14.450 -0.1993  0.3240  0.0248
 8514SOL    HW137001   0.617   3.277  14.454  0.1914  0.1044 -1.4549
 8514SOL    HW237002   0.618   3.411  14.526 -0.4642 -1.6674  1.0902
 8515SOL     OW37003   3.003   0.178  11.927  0.3745  0.3808  0.0594
 8515SOL    HW137004   2.933   0.126  11.888 -0.1802 -0.1373  1.7646
 8515SOL    HW237005   2.956   0.218  12.000 -0.3786 -0.2415 -0.0838
 8516SOL     OW37006   0.767   3.315   5.330  0.3013  0.5176 -0.7853
 8516SOL    HW137007   0.681   3.344   5.301 -0.4945 -1.0067  0.0591
 8516SOL    HW237008   0.727   3.251   5.390 -1.3676  2.4635  0.1523
 8517SOL     OW37009   3.284   2.811   4.429  0.0495  0.2430  0.3314
 8517SOL    HW137010   3.257   2.757   4.355  0.4775 -0.4003  0.6485
 8517SOL    HW237011   3.372   2.842   4.409 -0.5669  2.3106  0.7595
 8518SOL     OW37012   3.204   2.721   6.532  0.3464 -0.1506 -0.6247
 8518SOL    HW137013   3.153   2.771   6.597  0.1954 -1.7949  0.5218
 8518SOL    HW237014   3.292   2.729   6.569  0.1527  1.1349 -0.4119
 8519SOL     OW37015   2.064   4.020  14.788  0.8337  0.0618 -0.2880
 8519SOL    HW137016   2.117   3.987  14.715 -1.3008  0.8555 -2.2174
 8519SOL    HW237017   2.003   4.067  14.731  2.6598  3.4930  0.6318
 8520SOL     OW37018   3.216   1.446  16.122 -0.9535 -0.2398  0.4732
 8520SOL    HW137019   3.143   1.489  16.166 -1.2925  0.5948 -0.8832
 8520SOL    HW237020   3.240   1.530  16.083  1.2202 -0.2927  1.6994
 8521SOL     OW37021   3.847   4.018  16.627  0.1586  0.1373 -0.0708
 8521SOL    HW137022   3.799   4.071  16.691  0.1037  1.5406 -1.2798
 8521SOL    HW237023   3.787   3.960  16.582  0.0698 -2.2058  3.0936
 8522SOL     OW37024   1.530   3.979   0.488  0.3523  0.4732 -0.4292
 8522SOL    HW137025   1.601   4.024   0.534  0.6835 -0.1633 -0.3163
 8522SOL    HW237026   1.464   3.978   0.557  0.0398 -0.1263 -0.7366
 8523SOL     OW37027   1.439   3.488  14.084 -0.3218  0.4694 -0.5348
 8523SOL    HW137028   1.529   3.521  14.089  0.0697 -0.9485  2.0216
 8523SOL    HW237029   1.390   3.560  14.125 -1.3683 -0.4791 -0.0988
 8524SOL     OW37030   0.900   1.959  15.333 -0.4051 -0.0363 -0.3983
 8524SOL    HW137031   0.837   1.973  15.262 -0.6098 -1.5550 -0.5155
 8524SOL    HW237032   0.970   1.921  15.281 -0.0271 -0.4710  0.4261
 8525SOL     OW37033   0.721   0.715   7.872  0.1187 -0.1685 -0.2474
 8525SOL    HW137034   0.735   0.686   7.782  1.5836  0.4095 -0.1994
 8525SOL    HW237035   0.667   0.793   7.853 -1.6985 -1.5120 -0.6066
 8526SOL     OW37036   2.730   2.304   4.290  0.2833 -0.0176  0.3714
 8526SOL    HW137037   2.803   2.365   4.297 -0.6064  1.1317 -0.3239
 8526SOL    HW237038   2.742   2.249   4.367  0.5861 -1.4370 -0.6967
 8527SOL     OW37039   4.716   3.106   0.576 -0.3139 -0.0285  0.0328
 8527SOL    HW137040   4.622   3.091   0.576 -0.8458  3.5599  0.1147
 8527SOL    HW237041   0.027   3.078   0.491  1.8077  3.8060 -0.3893
 8528SOL     OW37042   0.610   1.767   8.567  0.2148  0.7116 -0.2273
 8528SOL    HW137043   0.529   1.737   8.610  1.3970 -0.7614  1.0156
 8528SOL    HW237044   0.634   1.817   8.645 -0.0248 -0.2793  0.4886
 8529SOL     OW37045   2.933   1.145   8.050 -0.0544 -0.1348  0.5295
 8529SOL    HW137046   2.892   1.107   7.972 -0.9284 -1.3237  1.5517
 8529SOL    HW237047   2.896   1.094   8.122  0.3423 -0.8216  0.2530
 8530SOL     OW37048   4.674   3.020  12.035  0.6748 -0.0436 -0.4459
 8530SOL    HW137049   4.604   3.052  11.978 -0.1384 -1.2386 -0.1108
 8530SOL    HW237050   0.014   3.092  12.027  2.6275 -1.8545 -1.6888
 8531SOL     OW37051   2.246   0.077   9.399  0.9947  0.0566 -0.1980
 8531SOL    HW137052   2.274   0.082   9.490 -0.3913  0.6430  0.1942
 8531SOL    HW237053   2.192   4.722   9.413  0.3133  0.3831 -1.0032
 8532SOL     OW37054   4.093   0.615  12.574 -0.2691  0.0417 -0.3292
 8532SOL    HW137055   4.176   0.662  12.566 -0.8676  1.2605  0.7298
 8532SOL    HW237056   4.054   0.643  12.656  0.8381  0.3506  0.0856
 8533SOL     OW37057   0.232   3.756   4.569  0.2062  0.0317  0.0191
 8533SOL    HW137058   0.182   3.815   4.512 -1.7443 -2.7058 -1.0667
 8533SOL    HW237059   0.161   3.704   4.606  1.0025 -0.3062  1.0821
 8534SOL     OW37060   4.398   3.008  10.315 -0.0654  0.5618  0.2279
 8534SOL    HW137061   4.416   3.084  10.371  0.1778 -0.2952  1.3237
 8534SOL    HW237062   4.305   3.022  10.295  0.0685  3.1930  1.3572
 8535SOL     OW37063   1.297   1.931   6.831  0.0381  0.2446 -0.1108
 8535SOL    HW137064   1.292   1.949   6.925 -0.3462 -0.1791 -0.0475
 8535SOL    HW237065   1.332   1.842   6.826  0.7916  0.6696 -2.4118
 8536SOL     OW37066   3.241   0.232   0.889  0.0486  0.3350  0.5488
 8536SOL    HW137067   3.262   0.320   0.857  3.3144 -0.3329  0.8382
 8536SOL    HW237068   3.164   0.241   0.944 -0.6726  1.4592 -0.6419
 8537SOL     OW37069   1.290   1.573  11.114  0.5449  0.2586  0.5707
 8537SOL    HW137070   1.223   1.538  11.055 -0.7472 -0.7055  2.5793
 8537SOL    HW237071   1.370   1.552  11.066  1.3718  0.2990  1.9412
 8538SOL     OW37072   4.455   2.693   8.154 -0.3502 -0.0758  0.0537
 8538SOL    HW137073   4.417   2.676   8.068 -0.4123 -0.9731  0.2653
 8538SOL    HW237074   4.526   2.630   8.161  1.4405  1.7131 -2.0726
 8539SOL     OW37075   3.784   1.665   3.490 -0.0493  0.1955  0.4533
 8539SOL    HW137076   3.808   1.636   3.578 -2.2643  1.5482  1.5127
 8539SOL    HW237077   3.850   1.731   3.468  0.1106  1.7325  5.4138
 8540SOL     OW37078   0.651   2.072  10.912 -0.5099 -0.1388  0.0243
 8540SOL    HW137079   0.574   2.036  10.869  0.6202 -1.7001 -0.7107
 8540SOL    HW237080   0.648   2.040  11.003 -2.5141  1.2436  0.4317
 8541SOL     OW37081   3.492   4.695  11.039  0.0687  0.2151  0.3103
 8541SOL    HW137082   3.587   4.702  11.036  0.0552  0.7928  1.1703
 8541SOL    HW237083   3.466   0.064  11.033 -1.0801  0.0069  2.2653
 8542SOL     OW37084   1.612   1.794  16.373 -0.5144 -1.1212  0.2500
 8542SOL    HW137085   1.549   1.821  16.440  0.2986 -1.8863  1.3293
 8542SOL    HW237086   1.578   1.705  16.361  0.0101 -1.4433  1.1457
 8543SOL     OW37087   4.170   0.893   3.612  0.2629  0.0412 -0.8431
 8543SOL    HW137088   4.202   0.971   3.657 -0.0950  0.8515 -1.9781
 8543SOL    HW237089   4.075   0.900   3.612  0.5023  3.3154 -0.6267
 8544SOL     OW37090   2.437   1.863   5.393 -0.1856  0.0663 -1.0095
 8544SOL    HW137091   2.492   1.894   5.465 -0.7664  0.8509 -0.9077
 8544SOL    HW237092   2.446   1.768   5.406 -1.4237 -0.0301 -0.7880
 8545SOL     OW37093   0.029   2.024   0.689  0.2064  0.0193 -0.1014
 8545SOL    HW137094   0.116   2.037   0.652 -0.3135 -1.2935 -1.8512
 8545SOL    HW237095   4.697   2.099   0.668  0.5406 -0.0145 -1.0902
 8546SOL     OW37096   2.180   0.643   7.098 -0.4126  0.2237  0.1538
 8546SOL    HW137097   2.092   0.622   7.068 -0.4189  1.2266 -0.5348
 8546SOL    HW237098   2.146   0.673   7.183 -0.7839  1.8421 -0.5676
 8547SOL     OW37099   1.134   2.193   3.956  0.2748  0.0213 -0.3863
 8547SOL    HW137100   1.171   2.220   3.872 -1.5406 -1.9950 -1.8326
 8547SOL    HW237101   1.062   2.137   3.928  2.1726 -1.0419 -3.2094
 8548SOL     OW37102   1.991   1.878  14.402  0.4062  0.0863  0.3290
 8548SOL    HW137103   1.937   1.950  14.435 -1.6149 -0.3348 -1.9988
 8548SOL    HW237104   1.981   1.807  14.465 -3.3560  2.1260  2.0058
 8549SOL     OW37105   3.805   4.147   5.951  0.5496  0.4998 -0.3367
 8549SOL    HW137106   3.711   4.147   5.934  0.6865 -0.5692 -1.1377
 8549SOL    HW237107   3.807   4.151   6.047 -0.0944  1.9941 -0.3843
 8550SOL     OW37108   2.128   4.297   6.793 -0.0417 -0.3190  0.4603
 8550SOL    HW137109   2.066   4.352   6.745  1.2494  0.5938 -0.1616
 8550SOL    HW237110   2.096   4.295   6.883  1.0825 -1.1232  0.8507
 8551SOL     OW37111   4.445   0.580   3.911 -0.2261 -0.0000 -0.1014
 8551SOL    HW137112   4.474   0.507   3.855 -0.4609  0.0238 -0.2553
 8551SOL    HW237113   4.443   0.536   3.996 -0.5087 -1.0491 -0.6394
 8552SOL     OW37114   4.454   1.010  12.558  0.2278 -0.0184  0.1116
 8552SOL    HW137115   4.486   1.066  12.487 -3.0518  1.2215 -0.3951
 8552SOL    HW237116   4.537   0.980  12.596 -0.0155  0.8276  1.3277
 8553SOL     OW37117   4.508   3.796   7.743  0.1597 -0.0450  0.4618
 8553SOL    HW137118   4.572   3.734   7.710 -0.0432  0.2701 -0.5075
 8553SOL    HW237119   4.490   3.748   7.824  0.1027  1.9375  1.6167
 8554SOL     OW37120   3.303   0.892   5.021 -0.4252  0.2165  0.1545
 8554SOL    HW137121   3.288   0.886   4.927 -1.4432  0.3765  0.3072
 8554SOL    HW237122   3.271   0.804   5.038  0.6296 -0.0230  0.9630
 8555SOL     OW37123   0.512   1.942  15.367  0.1396 -0.3594  0.7449
 8555SOL    HW137124   0.474   1.854  15.372 -0.4665 -0.1744 -0.6609
 8555SOL    HW237125   0.572   1.947  15.293 -2.4414  2.9922 -1.0780
 8556SOL     OW37126   0.380   3.997   2.779 -0.4315 -0.5210  0.0294
 8556SOL    HW137127   0.407   4.054   2.852 -0.8674 -0.7922  0.3986
 8556SOL    HW237128   0.397   4.053   2.703  1.3196 -2.0440 -0.6994
 8557SOL     OW37129   1.284   2.421   2.866  0.0114 -0.0575  0.5988
 8557SOL    HW137130   1.281   2.492   2.801  1.2116 -0.0760  0.5258
 8557SOL    HW237131   1.193   2.392   2.871 -0.2902  0.6515 -0.4773
 8558SOL     OW37132   1.242   0.166   4.557  0.2679 -0.5391 -0.2648
 8558SOL    HW137133   1.150   0.138   4.547  0.7950 -1.9538 -1.2331
 8558SOL    HW237134   1.287   0.084   4.578  0.7923 -0.8469 -2.5985
 8559SOL     OW37135   4.667   3.167   3.908 -0.3542  0.2665  0.4387
 8559SOL    HW137136   4.650   3.238   3.846 -0.3851 -0.1688 -0.0501
 8559SOL    HW237137   4.594   3.176   3.969  0.5963  1.1014  1.4564
 8560SOL     OW37138   1.599   3.392   5.980  1.0874  0.2577  0.1388
 8560SOL    HW137139   1.669   3.443   5.938  1.5391 -2.1466 -1.9829
 8560SOL    HW237140   1.527   3.456   5.983  1.0587  0.1964  0.6769
 8561SOL     OW37141   1.520   3.200   7.793  0.8184  0.5766 -0.3370
 8561SOL    HW137142   1.544   3.194   7.700  2.9534  2.3812  0.0851
 8561SOL    HW237143   1.542   3.290   7.818  1.6588 -0.3919  2.4239
 8562SOL     OW37144   0.179   0.950   5.024 -0.2620 -0.4223  0.0559
 8562SOL    HW137145   0.270   0.924   5.039  0.1397  0.5197 -0.7794
 8562SOL    HW237146   0.130   0.870   5.042 -0.1041 -0.5066  0.1092
 8563SOL     OW37147   4.528   2.098  15.738  0.7540 -0.8460 -0.1316
 8563SOL    HW137148   4.533   2.119  15.831  0.0071  1.1040 -0.5127
 8563SOL    HW237149   4.595   2.030  15.731  0.5186 -1.2617  1.6185
 8564SOL     OW37150   0.246   3.721   5.039  0.1831  0.3461  0.0356
 8564SOL    HW137151   0.196   3.711   5.121  1.2433 -0.2302  0.6112
 8564SOL    HW237152   0.198   3.797   5.008  0.8977  0.3599 -1.0239
 8565SOL     OW37153   1.689   0.791   8.496 -0.0221 -0.6953 -0.2851
 8565SOL    HW137154   1.777   0.754   8.489  0.0075 -0.4125 -1.4300
 8565SOL    HW237155   1.668   0.778   8.588  1.5634  0.4465  0.2440
 8566SOL     OW37156   2.874   4.383   3.150 -0.2053  0.4003  0.3699
 8566SOL    HW137157   2.897   4.475   3.165 -0.4731  0.7654 -1.5126
 8566SOL    HW237158   2.794   4.379   3.202 -0.8573  1.2329 -0.5621
 8567SOL     OW37159   0.274   2.965   5.407 -0.2894 -0.3864 -0.3728
 8567SOL    HW137160   0.283   3.054   5.373 -2.3767  0.2747  0.7927
 8567SOL    HW237161   0.330   2.956   5.484 -1.0854 -1.5341  0.0739
 8568SOL     OW37162   3.803   0.332  14.586  0.1193  0.2552  0.4192
 8568SOL    HW137163   3.820   0.241  14.561 -0.7352  0.0004  0.7516
 8568SOL    HW237164   3.781   0.329  14.679  3.6460  0.6610  1.2699
 8569SOL     OW37165   2.246   2.968   3.769 -0.1805 -0.3726  0.2637
 8569SOL    HW137166   2.279   2.946   3.856 -1.6446  0.3416  0.9988
 8569SOL    HW237167   2.196   3.044   3.798 -1.1356 -0.5659 -0.8668
 8570SOL     OW37168   4.451   1.391   2.322 -0.1105  0.7667  0.5116
 8570SOL    HW137169   4.358   1.388   2.342  0.2532 -0.6865  2.0085
 8570SOL    HW237170   4.453   1.358   2.232  2.0749  1.9504  0.1123
 8571SOL     OW37171   2.710   2.875   8.599  0.1852  0.2746  0.0212
 8571SOL    HW137172   2.665   2.853   8.681 -0.4833  0.6344 -0.2498
 8571SOL    HW237173   2.788   2.909   8.642  1.2522 -2.2544  0.0696
 8572SOL     OW37174   0.085   0.405   4.653  0.5319 -0.3836 -0.4355
 8572SOL    HW137175   0.052   0.462   4.722  0.4999  0.6768 -1.3318
 8572SOL    HW237176   0.014   0.391   4.590 -0.7890  0.3019  0.8969
 8573SOL     OW37177   2.730   2.262   1.586  0.1237  0.0604 -0.1047
 8573SOL    HW137178   2.655   2.240   1.530 -0.9721  0.4438  1.2165
 8573SOL    HW237179   2.805   2.275   1.528  0.2341  0.3807  0.1135
 8574SOL     OW37180   3.475   3.255   0.602 -0.3662  0.3436 -0.2824
 8574SOL    HW137181   3.433   3.174   0.574  1.2774 -0.4733 -0.4289
 8574SOL    HW237182   3.438   3.282   0.686 -0.8982  0.0987 -0.4423
 8575SOL     OW37183   3.913   4.251   4.692  0.0146 -0.0831  0.2265
 8575SOL    HW137184   3.871   4.265   4.776  0.2474  0.0860  0.3156
 8575SOL    HW237185   3.914   4.156   4.687 -0.5907 -0.0120 -1.2475
 8576SOL     OW37186   1.613   3.572   2.623  0.0621 -0.3232 -0.5919
 8576SOL    HW137187   1.695   3.526   2.642  0.8156  0.0657 -2.8420
 8576SOL    HW237188   1.616   3.650   2.678 -1.4838 -0.7515  0.0830
 8577SOL     OW37189   3.903   1.267   6.449 -0.2520  0.3079  0.1978
 8577SOL    HW137190   3.950   1.347   6.429  0.6012 -0.0606  0.7335
 8577SOL    HW237191   3.971   1.200   6.459  0.9569  1.3745 -0.8931
 8578SOL     OW37192   0.199   1.294  14.224  0.1195 -0.0447  0.9285
 8578SOL    HW137193   0.231   1.357  14.288 -0.5159  0.0391  1.1606
 8578SOL    HW237194   0.131   1.253  14.278  0.5166  2.4323  3.3394
 8579SOL     OW37195   1.893   3.803   3.005  0.0968  0.0627 -0.1485
 8579SOL    HW137196   1.956   3.776   2.939 -0.3972  0.8337 -0.9447
 8579SOL    HW237197   1.913   3.748   3.080 -0.7482  0.1904  0.1660
 8580SOL     OW37198   2.232   1.594  13.145  0.5863 -0.0656  0.9395
 8580SOL    HW137199   2.248   1.554  13.230  1.4157 -0.5852  0.5386
 8580SOL    HW237200   2.137   1.604  13.157  0.6937  0.6423  1.1670
 8581SOL     OW37201   3.739   1.434  10.714  0.3199 -0.0447  0.1344
 8581SOL    HW137202   3.776   1.426  10.802 -1.3577 -1.8768  0.6572
 8581SOL    HW237203   3.650   1.447  10.745 -0.1387  0.6217 -1.4693
 8582SOL     OW37204   4.062   1.320   8.899  0.2853 -0.7345 -0.2463
 8582SOL    HW137205   4.077   1.253   8.965 -2.0532 -0.0108  0.9960
 8582SOL    HW237206   3.968   1.313   8.884 -0.0650  1.4872  1.0408
 8583SOL     OW37207   0.180   0.898   8.605  0.4146 -0.3971 -0.0142
 8583SOL    HW137208   0.233   0.820   8.624 -0.5127 -1.1479 -0.5408
 8583SOL    HW237209   0.186   0.935   8.693 -0.1036 -0.3372 -0.0056
 8584SOL     OW37210   2.306   1.469   5.889  0.1847 -0.0652  0.4753
 8584SOL    HW137211   2.229   1.415   5.910 -0.8187  1.0077 -0.4251
 8584SOL    HW237212   2.327   1.508   5.974  2.0415 -1.6435  0.7273
 8585SOL     OW37213   0.637   2.317   5.219 -0.0869  0.3972  0.3351
 8585SOL    HW137214   0.653   2.243   5.160  0.7177  0.1684  0.8416
 8585SOL    HW237215   0.611   2.379   5.150 -1.7869 -0.3153  0.3431
 8586SOL     OW37216   3.906   1.963   1.079  0.2848 -0.1062 -0.7062
 8586SOL    HW137217   3.851   2.030   1.040  1.2009  0.2379 -1.4091
 8586SOL    HW237218   3.994   2.001   1.069  0.1958  0.1295 -0.5888
 8587SOL     OW37219   2.556   1.566  17.182  0.0644 -0.7975 -0.0761
 8587SOL    HW137220   2.609   1.537  17.257 -1.3575 -1.1482  0.8066
 8587SOL    HW237221   2.610   1.640  17.155 -0.4494  0.4347  2.3130
 8588SOL     OW37222   0.553   4.538   3.221  0.1369 -0.0107  0.2134
 8588SOL    HW137223   0.565   4.631   3.207  1.9460 -0.4911 -1.4518
 8588SOL    HW237224   0.599   4.495   3.148  0.5833 -0.3840  0.7165
 8589SOL     OW37225   0.966   4.715  12.345  0.2028 -0.2643  0.1025
 8589SOL    HW137226   1.053   4.683  12.368  0.9444  0.8371 -1.1547
 8589SOL    HW237227   0.938   4.640  12.291  0.5173 -0.2996 -0.0096
 8590SOL     OW37228   2.408   1.699  12.941 -0.0195 -0.2292 -0.1838
 8590SOL    HW137229   2.359   1.707  13.023  0.2569 -1.0029  0.0605
 8590SOL    HW237230   2.349   1.635  12.902  0.0881 -1.4519  1.6508
 8591SOL     OW37231   3.658   1.186   0.656  0.0481 -0.1305 -0.1805
 8591SOL    HW137232   3.710   1.263   0.678  0.5241 -0.6493  0.5008
 8591SOL    HW237233   3.661   1.186   0.560 -1.6280 -1.4857 -0.2546
 8592SOL     OW37234   1.991   1.171   8.049  0.3515 -0.0729  0.6233
 8592SOL    HW137235   1.960   1.080   8.049 -0.6749  0.2837 -0.3072
 8592SOL    HW237236   1.945   1.205   7.973  0.2649  0.0333  0.7239
 8593SOL     OW37237   3.081   0.527   2.842 -0.3624  0.1468 -0.5217
 8593SOL    HW137238   3.060   0.483   2.759  0.2862  1.6708 -1.4908
 8593SOL    HW237239   3.139   0.600   2.819  0.7171  0.0702  2.0465
 8594SOL     OW37240   0.858   1.818   3.018 -0.0984 -1.0868 -0.1464
 8594SOL    HW137241   0.930   1.881   3.019  0.2312 -1.4952  1.4639
 8594SOL    HW237242   0.779   1.870   3.030  1.2079  0.5346  1.2727
 8595SOL     OW37243   2.593   2.878   0.858 -0.0698  0.6864 -0.5146
 8595SOL    HW137244   2.572   2.850   0.769  0.2492  1.5783 -0.8678
 8595SOL    HW237245   2.625   2.967   0.846 -0.0701  0.6311 -0.9395
 8596SOL     OW37246   3.469   2.577   3.937  0.5719  0.3724  0.5475
 8596SOL    HW137247   3.462   2.565   3.842  1.8255  1.3606  0.3310
 8596SOL    HW237248   3.437   2.489   3.957 -1.1686  0.7743 -0.4917
 8597SOL     OW37249   4.177   3.628   2.884  0.4940 -0.1098  0.7242
 8597SOL    HW137250   4.087   3.602   2.903  0.9471 -2.8069 -0.9579
 8597SOL    HW237251   4.208   3.549   2.841  0.7129  0.1059  0.4842
 8598SOL     OW37252   4.355   3.622  10.103  0.1407  0.0665  0.2702
 8598SOL    HW137253   4.433   3.605  10.155  0.4028 -0.5757 -0.3300
 8598SOL    HW237254   4.359   3.715  10.081  1.8644 -0.2895 -0.8831
 8599SOL     OW37255   2.414   2.487   3.474 -0.0398  0.2098  0.0924
 8599SOL    HW137256   2.423   2.420   3.407 -1.3970  1.0242 -0.9079
 8599SOL    HW237257   2.322   2.513   3.471 -0.1931 -0.4763 -0.8644
 8600SOL     OW37258   3.597   3.587  14.825 -0.2183  0.1930  0.1696
 8600SOL    HW137259   3.594   3.520  14.757 -1.5198 -0.3368  0.7447
 8600SOL    HW237260   3.590   3.667  14.773 -4.0760 -0.2813 -0.0690
 8601SOL     OW37261   1.879   3.965  17.579 -0.4174 -0.3312  0.0565
 8601SOL    HW137262   1.941   3.970  17.652  0.6565 -0.2017 -0.8563
 8601SOL    HW237263   1.928   3.911  17.517 -0.3462 -2.5919  2.0691
 8602SOL     OW37264   4.646   2.761   9.114 -0.2963 -0.6998  0.0578
 8602SOL    HW137265   4.577   2.814   9.154  0.7576  1.6757 -1.2874
 8602SOL    HW237266   4.612   2.747   9.026 -0.0490 -0.4996 -0.0679
 8603SOL     OW37267   1.947   2.723   2.050 -0.4240  0.1197  0.0832
 8603SOL    HW137268   1.968   2.795   2.110  1.4830 -0.3382 -0.0536
 8603SOL    HW237269   1.994   2.751   1.972 -0.5225  0.7293  0.2419
 8604SOL     OW37270   3.256   1.967   8.227  0.1813  0.2716 -0.7332
 8604SOL    HW137271   3.213   2.049   8.202 -0.1347  0.9832  2.2125
 8604SOL    HW237272   3.193   1.932   8.289 -0.1853  0.4432 -1.0050
 8605SOL     OW37273   3.675   4.108   7.617 -0.3930 -0.1756 -0.4640
 8605SOL    HW137274   3.689   4.135   7.708  2.8846 -2.3694 -0.3130
 8605SOL    HW237275   3.718   4.024   7.601 -0.5643  0.0534 -2.0512
 8606SOL     OW37276   1.871   3.079   5.664 -0.2167 -0.2173 -0.1692
 8606SOL    HW137277   1.913   3.056   5.747  0.2473  2.9707  0.4504
 8606SOL    HW237278   1.937   3.140   5.632  0.6790 -0.3385  1.4395
 8607SOL     OW37279   3.123   3.370   0.644  0.0831 -0.1318 -0.4565
 8607SOL    HW137280   3.097   3.278   0.652 -0.9814  0.0435 -1.8725
 8607SOL    HW237281   3.045   3.405   0.688  1.1921  1.4168  0.2864
 8608SOL     OW37282   1.202   0.752   3.372  0.4993 -0.1718 -0.2047
 8608SOL    HW137283   1.131   0.715   3.425 -0.5683  0.8861 -0.8989
 8608SOL    HW237284   1.241   0.812   3.435  0.8775 -0.0133 -0.5902
 8609SOL     OW37285   4.230   3.396   4.429  0.2621  0.1191  0.1347
 8609SOL    HW137286   4.165   3.328   4.444 -2.3403  2.5836 -0.1093
 8609SOL    HW237287   4.246   3.372   4.338  0.0866 -0.9878  0.3934
 8610SOL     OW37288   1.052   4.400   7.967 -0.3051 -0.2202 -0.0518
 8610SOL    HW137289   0.981   4.414   7.905 -1.7700  0.5567  1.8041
 8610SOL    HW237290   1.123   4.422   7.906  0.0323  0.4230  0.5800
 8611SOL     OW37291   0.399   3.571   9.541 -0.0248  0.5294  0.0573
 8611SOL    HW137292   0.472   3.557   9.480  0.5634  1.1656  0.6176
 8611SOL    HW237293   0.428   3.655   9.575 -0.0090  1.0660 -1.2859
 8612SOL     OW37294   0.145   3.573   3.744  0.2809 -0.1684  0.0952
 8612SOL    HW137295   0.222   3.529   3.708  0.5940  1.7231 -1.5243
 8612SOL    HW237296   0.078   3.520   3.700  0.9894 -0.8334 -0.1763
 8613SOL     OW37297   0.083   2.133   4.291 -0.1086  0.1452 -0.5628
 8613SOL    HW137298   0.026   2.058   4.272 -0.8166  0.7350 -0.7686
 8613SOL    HW237299   0.017   2.194   4.323  0.0829  0.1507 -0.1797
 8614SOL     OW37300   0.948   0.460   2.682 -0.4428  0.4672 -0.1764
 8614SOL    HW137301   0.944   0.386   2.621 -1.2995 -0.7542  1.3650
 8614SOL    HW237302   0.966   0.531   2.620  0.2795 -1.4802 -2.1806
 8615SOL     OW37303   2.617   2.203   0.776  0.2482  0.1822  0.9248
 8615SOL    HW137304   2.560   2.137   0.737  0.2953  0.4809  0.3509
 8615SOL    HW237305   2.614   2.272   0.711  0.3602 -1.4193 -0.7845
 8616SOL     OW37306   2.780   3.251   3.768 -0.0420  0.0365 -0.2847
 8616SOL    HW137307   2.774   3.216   3.679  1.6557  1.1649 -0.8342
 8616SOL    HW237308   2.874   3.261   3.782 -0.4910 -1.8280  4.1365
 8617SOL     OW37309   1.266   3.486   2.641  0.4404 -0.1599  0.2203
 8617SOL    HW137310   1.307   3.573   2.634  0.3368 -0.0638  0.7957
 8617SOL    HW237311   1.201   3.495   2.571  1.2421  0.1075 -0.4813
 8618SOL     OW37312   2.244   3.740   3.419 -0.1349 -0.3212  0.1776
 8618SOL    HW137313   2.228   3.779   3.505 -0.8990 -0.6847  0.1964
 8618SOL    HW237314   2.324   3.689   3.431  1.3416  1.9938  0.3604
 8619SOL     OW37315   1.661   0.391   9.297 -0.0753  0.0561 -0.1663
 8619SOL    HW137316   1.569   0.409   9.312 -0.1189 -0.4069  0.1187
 8619SOL    HW237317   1.655   0.300   9.267  0.3007 -0.9912  2.9520
 8620SOL     OW37318   2.797   2.477   2.124  0.0922 -0.7445 -0.7856
 8620SOL    HW137319   2.864   2.411   2.106  1.2624  0.3885 -0.5632
 8620SOL    HW237320   2.739   2.420   2.175  0.4641  0.2944  0.8246
 8621SOL     OW37321   2.236   0.655   4.833  0.3820  0.1626 -0.1929
 8621SOL    HW137322   2.310   0.606   4.868 -0.0015 -1.1497 -1.2281
 8621SOL    HW237323   2.286   0.736   4.821  0.7784  0.2245  1.9142
 8622SOL     OW37324   0.480   1.160   2.914  0.1100 -0.0193 -0.6593
 8622SOL    HW137325   0.444   1.072   2.920  0.5380 -0.3850 -3.1091
 8622SOL    HW237326   0.455   1.186   2.825  0.6754  0.3404 -0.7192
 8623SOL     OW37327   2.582   3.114   7.125 -0.7505  0.7593  0.2424
 8623SOL    HW137328   2.526   3.040   7.148 -0.1264  0.4781  0.8705
 8623SOL    HW237329   2.607   3.142   7.213 -0.8316  0.2385  0.4289
 8624SOL     OW37330   1.486   4.486   0.056  0.6862  0.0161  0.5618
 8624SOL    HW137331   1.545   4.441   0.115  2.0219 -0.2155 -0.9532
 8624SOL    HW237332   1.512   4.461  17.661  0.7662 -2.1558  1.2158
 8625SOL     OW37333   3.708   3.401   5.670 -0.2239 -0.8361  1.2817
 8625SOL    HW137334   3.708   3.376   5.762  0.2209  0.1278  1.5442
 8625SOL    HW237335   3.757   3.331   5.626 -1.2474 -0.0327 -1.1286
 8626SOL     OW37336   1.315   2.563   9.998  0.1311 -0.2803  0.1669
 8626SOL    HW137337   1.288   2.523  10.080 -0.3388 -0.0803  0.1113
 8626SOL    HW237338   1.237   2.613   9.975 -0.1105 -0.3990  0.7412
 8627SOL     OW37339   0.019   2.992   7.222  0.1602  0.0292  0.0128
 8627SOL    HW137340   0.070   3.019   7.299  1.1165  1.7416 -1.2146
 8627SOL    HW237341   0.093   2.971   7.165  1.8225  1.3202  1.6563
 8628SOL     OW37342   3.309   0.923   4.437 -0.4646  0.6817 -0.0513
 8628SOL    HW137343   3.393   0.882   4.417 -0.5458  1.0041 -1.0576
 8628SOL    HW237344   3.253   0.847   4.425 -1.5555  1.5232 -0.2889
 8629SOL     OW37345   2.620   2.375  10.268  0.1471  0.1890  0.2647
 8629SOL    HW137346   2.690   2.384  10.333  2.2573 -1.1958 -1.8363
 8629SOL    HW237347   2.628   2.453  10.213 -0.5686 -0.4622 -0.7472
 8630SOL     OW37348   2.890   3.781  13.297  0.1285  0.1400  0.6177
 8630SOL    HW137349   2.875   3.876  13.304  0.1266  0.3913 -3.0870
 8630SOL    HW237350   2.817   3.758  13.240  0.3314  3.3590 -0.9356
 8631SOL     OW37351   3.201   1.381   7.252  0.2352 -0.1724 -0.2295
 8631SOL    HW137352   3.170   1.457   7.301 -0.2038 -1.0968  0.9265
 8631SOL    HW237353   3.194   1.418   7.164  2.2222  2.4197  0.7030
 8632SOL     OW37354   1.727   1.168  13.417  0.3374 -0.5198  0.6350
 8632SOL    HW137355   1.724   1.256  13.378  3.3052 -1.2142 -1.1591
 8632SOL    HW237356   1.676   1.191  13.495  1.1299 -0.6520  1.1924
 8633SOL     OW37357   4.416   4.453   8.322 -0.4327 -0.0681 -0.0199
 8633SOL    HW137358   4.485   4.386   8.326 -1.5449 -1.1452  0.8783
 8633SOL    HW237359   4.469   4.531   8.303 -1.0545  0.6477  1.1694
 8634SOL     OW37360   0.108   4.442  11.310  0.5813  0.3269 -0.2109
 8634SOL    HW137361   0.035   4.444  11.248 -1.5838  1.4608  2.3568
 8634SOL    HW237362   0.068   4.384  11.376  2.1673 -1.7051 -1.0459
 8635SOL     OW37363   3.863   1.431   8.094  0.0675 -0.8396 -0.3029
 8635SOL    HW137364   3.873   1.526   8.088  1.4193 -1.0028 -0.6208
 8635SOL    HW237365   3.862   1.410   8.001  1.4463 -1.8567 -0.0810
 8636SOL     OW37366   0.620   2.572   7.509 -0.6165 -0.3143  0.5671
 8636SOL    HW137367   0.676   2.555   7.585 -1.7625 -0.8121  1.3044
 8636SOL    HW237368   0.535   2.575   7.552 -1.5654 -0.5560 -1.2962
 8637SOL     OW37369   1.833   0.134   7.369 -0.2316  0.0455 -0.0126
 8637SOL    HW137370   1.783   0.158   7.290 -1.3588 -0.7688  0.4437
 8637SOL    HW237371   1.823   0.039   7.372 -0.0037 -0.0544 -2.1558
 8638SOL     OW37372   0.271   3.656  13.460  0.6105 -0.1640 -0.3354
 8638SOL    HW137373   0.288   3.737  13.411 -0.8882  0.6692  0.5544
 8638SOL    HW237374   0.177   3.648  13.445  0.1633 -0.6563  2.7131
 8639SOL     OW37375   4.503   2.422   7.321  0.5027  0.6497  0.4628
 8639SOL    HW137376   4.458   2.347   7.361  2.5361 -0.3737  0.8721
 8639SOL    HW237377   4.452   2.495   7.354  0.0690  0.1487  0.9017
 8640SOL     OW37378   4.671   1.556   7.116 -0.2460  0.1146 -0.0256
 8640SOL    HW137379   4.671   1.494   7.043 -1.8671  1.7476 -1.4059
 8640SOL    HW237380   4.620   1.510   7.182  0.8265  1.2368  1.5728
 8641SOL     OW37381   0.157   3.890   2.951  0.2648 -0.2946 -0.5875
 8641SOL    HW137382   0.216   3.964   2.957  1.0995 -1.0457  0.3859
 8641SOL    HW237383   0.173   3.862   2.860 -0.8614 -2.4128 -0.1381
 8642SOL     OW37384   0.714   2.969   7.218  0.1474 -0.3818 -0.3577
 8642SOL    HW137385   0.713   2.990   7.311  3.0433 -2.6596  0.1713
 8642SOL    HW237386   0.786   2.908   7.203  1.1108  0.1667  2.1203
 8643SOL     OW37387   3.302   2.541  17.011 -0.3972  0.1608 -0.2379
 8643SOL    HW137388   3.252   2.592  16.948 -0.7161 -0.0267 -0.1350
 8643SOL    HW237389   3.365   2.604  17.045 -1.4183  0.3725  1.2693
 8644SOL     OW37390   1.302   1.114  13.109  0.1849  0.4421 -0.0454
 8644SOL    HW137391   1.366   1.185  13.102 -0.2373  0.6410 -1.9772
 8644SOL    HW237392   1.359   1.048  13.149 -0.1212  1.9517  2.8677
 8645SOL     OW37393   2.689   2.604   8.278  0.4229 -0.4709  0.1559
 8645SOL    HW137394   2.611   2.566   8.237 -0.2654  1.4454 -0.3216
 8645SOL    HW237395   2.667   2.593   8.370 -1.8858 -0.4155 -0.3862
 8646SOL     OW37396   3.814   2.039   7.673 -0.2242 -0.0292 -0.5583
 8646SOL    HW137397   3.825   1.946   7.656 -0.3516 -0.0936 -0.2907
 8646SOL    HW237398   3.852   2.035   7.761 -0.6285 -1.8957 -0.4696
 8647SOL     OW37399   0.931   2.619   2.871  0.2218 -0.1085 -0.1126
 8647SOL    HW137400   0.984   2.539   2.867 -1.4764 -1.1754 -1.2104
 8647SOL    HW237401   0.871   2.606   2.798 -0.0256  0.9699 -0.0959
 8648SOL     OW37402   1.675   4.503  15.101  0.1386 -0.4856 -0.1307
 8648SOL    HW137403   1.700   4.419  15.140  0.3022 -0.5968 -0.4744
 8648SOL    HW237404   1.752   4.523  15.048 -0.0347  2.2915  0.6642
 8649SOL     OW37405   0.844   4.181   7.414 -0.3548 -0.2642 -0.1148
 8649SOL    HW137406   0.774   4.219   7.467  0.9261  2.1466 -0.1541
 8649SOL    HW237407   0.861   4.100   7.461 -0.8561 -0.7147 -0.7001
 8650SOL     OW37408   0.235   2.099   6.992  0.6548  0.0558  0.0145
 8650SOL    HW137409   0.233   2.194   6.981  0.7472  0.2979  2.0025
 8650SOL    HW237410   0.215   2.095   7.086  0.2732 -2.2150 -0.1543
 8651SOL     OW37411   0.804   3.375   8.970  0.3025  0.2128 -0.4125
 8651SOL    HW137412   0.798   3.449   8.911  0.0311 -0.3608 -1.0983
 8651SOL    HW237413   0.761   3.408   9.049  1.4795 -1.5010  0.9418
 8652SOL     OW37414   4.089   3.639   6.227  0.3764 -0.2325  0.3914
 8652SOL    HW137415   4.011   3.596   6.193 -1.4650  1.3536  2.6450
 8652SOL    HW237416   4.110   3.697   6.153  2.0941  0.4603  1.4262
 8653SOL     OW37417   2.012   0.467   7.597  0.6104  0.1773 -0.0949
 8653SOL    HW137418   2.102   0.492   7.620  0.1782  1.5108  0.1331
 8653SOL    HW237419   1.971   0.474   7.683  1.4347 -1.9403  0.4865
 8654SOL     OW37420   2.306   4.398   3.199  0.4923  0.4449 -0.5777
 8654SOL    HW137421   2.303   4.303   3.211  3.7909  0.4361  0.1960
 8654SOL    HW237422   2.388   4.419   3.244  0.1071  0.2310  0.2284
 8655SOL     OW37423   2.419   3.147   3.144 -0.7118  0.0343 -0.0963
 8655SOL    HW137424   2.415   3.181   3.054  1.5265  0.4392 -0.0565
 8655SOL    HW237425   2.480   3.074   3.142 -0.4854  0.1892  1.4160
 8656SOL     OW37426   0.310   1.936   2.711 -0.0442 -0.0388  0.2763
 8656SOL    HW137427   0.224   1.926   2.753 -0.3184  1.0631 -0.0236
 8656SOL    HW237428   0.305   2.008   2.649 -1.3977 -0.6418 -0.3272
 8657SOL     OW37429   2.151   3.740   6.318 -0.2054 -0.6352 -0.0969
 8657SOL    HW137430   2.150   3.836   6.317  2.3463 -0.5826  1.5929
 8657SOL    HW237431   2.235   3.733   6.364 -0.2501  0.7035  0.1762
 8658SOL     OW37432   0.067   3.592   5.566  0.3148 -0.1275 -0.5389
 8658SOL    HW137433   0.143   3.556   5.520  0.2961 -1.8049  0.7125
 8658SOL    HW237434   4.719   3.560   5.510 -0.1755 -0.1757  0.1083
 8659SOL     OW37435   1.268   4.318   7.773 -0.0349 -0.6341  0.0953
 8659SOL    HW137436   1.361   4.302   7.785 -0.4126 -1.1256  2.3526
 8659SOL    HW237437   1.261   4.413   7.782 -1.0967 -0.6511 -0.5677
 8660SOL     OW37438   1.837   0.212   7.638 -0.0845 -0.1796 -0.5851
 8660SOL    HW137439   1.824   0.306   7.624 -2.2877 -0.3446  0.4236
 8660SOL    HW237440   1.829   0.176   7.550  1.2176 -0.7133 -0.4843
 8661SOL     OW37441   2.743   1.202   2.722 -0.0944 -0.0451 -0.0516
 8661SOL    HW137442   2.759   1.290   2.756  0.2480 -0.7265  1.5865
 8661SOL    HW237443   2.649   1.198   2.736 -0.1358 -0.7915 -0.5324
 8662SOL     OW37444   3.831   0.037  15.727 -0.4699  0.1441  0.1136
 8662SOL    HW137445   3.774   4.684  15.716 -0.4092  0.0206  0.6814
 8662SOL    HW237446   3.820   0.078  15.641 -1.5016 -0.4765 -0.0418
 8663SOL     OW37447   4.677   4.004   9.188 -0.2523  0.3543 -0.0280
 8663SOL    HW137448   4.611   3.965   9.246  1.5332 -1.9407  0.4452
 8663SOL    HW237449   4.702   3.923   9.144 -0.5341  1.7598 -2.7553
 8664SOL     OW37450   2.945   0.383  16.279  0.7453 -0.5017 -0.3201
 8664SOL    HW137451   2.965   0.353  16.190  3.1957 -0.1811  0.1195
 8664SOL    HW237452   2.860   0.346  16.302 -0.4299  2.5606  0.3160
 8665SOL     OW37453   2.342   1.257   6.290 -0.1183 -0.4365  0.6096
 8665SOL    HW137454   2.269   1.305   6.330  1.1002  0.7235  1.4566
 8665SOL    HW237455   2.424   1.287   6.331  2.3257 -3.9780 -1.6968
 8666SOL     OW37456   2.324   0.559   5.161  0.4364  0.3266  0.1941
 8666SOL    HW137457   2.330   0.526   5.071  2.0833  0.2075  0.3421
 8666SOL    HW237458   2.260   0.500   5.200  1.1647  2.0655  3.9948
 8667SOL     OW37459   3.534   3.129   3.754  0.1381 -0.8707 -0.6863
 8667SOL    HW137460   3.454   3.076   3.754 -1.0379  0.9289 -0.1208
 8667SOL    HW237461   3.563   3.087   3.836 -2.0986 -1.9495 -0.4569
 8668SOL     OW37462   0.098   1.415   0.609 -0.2375 -0.1962 -0.0836
 8668SOL    HW137463   0.011   1.432   0.573 -0.0094  1.7851  0.2591
 8668SOL    HW237464   0.146   1.456   0.536  0.7672  2.4230  2.0426
 8669SOL     OW37465   1.513   0.193   0.559  0.0621 -0.1745 -0.1956
 8669SOL    HW137466   1.558   0.226   0.637  0.2831 -1.5867  0.2752
 8669SOL    HW237467   1.574   0.134   0.513  0.5975 -1.2119  1.8338
 8670SOL     OW37468   0.144   1.738  10.858 -0.1332 -0.2609  0.0978
 8670SOL    HW137469   0.151   1.826  10.893 -1.7747 -0.2186  0.3397
 8670SOL    HW237470   0.115   1.749  10.767 -1.2789  1.1580  0.6226
 8671SOL     OW37471   1.190   3.385   4.048  0.1626 -0.3872  0.7290
 8671SOL    HW137472   1.107   3.358   4.009 -0.1028 -0.2181  1.1733
 8671SOL    HW237473   1.218   3.433   3.970  0.6404  0.6226  1.5170
 8672SOL     OW37474   3.882   1.478   9.915  0.0899  0.1241  0.2529
 8672SOL    HW137475   3.962   1.496   9.965  0.3239 -0.8615  0.2538
 8672SOL    HW237476   3.918   1.433   9.838 -1.0587 -0.1622 -0.1194
 8673SOL     OW37477   3.022   4.590   3.473  0.6735  0.2919  0.1545
 8673SOL    HW137478   3.068   4.506   3.473 -0.3956 -0.3060  2.5934
 8673SOL    HW237479   2.979   4.599   3.388  3.4382 -0.5351 -1.3165
 8674SOL     OW37480   2.331   2.162  12.748  0.2843  0.1727 -0.0450
 8674SOL    HW137481   2.328   2.071  12.778  0.3074 -0.0183 -0.6384
 8674SOL    HW237482   2.423   2.178  12.769  0.1571 -1.7028  1.9278
 8675SOL     OW37483   2.750   3.905   8.407  0.0641 -0.4797 -0.1169
 8675SOL    HW137484   2.679   3.928   8.347 -0.8735 -0.0447  1.1517
 8675SOL    HW237485   2.800   3.847   8.351 -0.9244  0.0630 -1.5733
 8676SOL     OW37486   1.160   3.123   6.060 -0.0810 -0.2747  0.2410
 8676SOL    HW137487   1.254   3.135   6.076 -0.0131  1.7711 -1.7702
 8676SOL    HW237488   1.147   3.155   5.971 -3.2838 -3.1655 -0.3246
 8677SOL     OW37489   4.209   2.684  13.896 -0.0316  0.4676 -0.3369
 8677SOL    HW137490   4.269   2.618  13.861 -0.8119 -0.2541 -0.3058
 8677SOL    HW237491   4.216   2.752  13.828 -1.8654  1.9028  0.9178
 8678SOL     OW37492   2.886   2.706   1.810 -0.4784  0.4847  0.6584
 8678SOL    HW137493   2.962   2.705   1.867 -0.7699 -1.4788  0.9991
 8678SOL    HW237494   2.895   2.621   1.767  1.9093  0.3989  1.3673
 8679SOL     OW37495   2.811   1.334   8.375  0.3844  0.0405  0.6050
 8679SOL    HW137496   2.881   1.272   8.352 -0.3411  0.0236 -1.5029
 8679SOL    HW237497   2.730   1.283   8.370 -2.0803  4.1687 -0.7852
 8680SOL     OW37498   4.334   4.328  10.252 -0.1264  0.3603 -0.5192
 8680SOL    HW137499   4.321   4.423  10.255 -1.7607  0.1070  0.1015
 8680SOL    HW237500   4.244   4.303  10.271  0.0166  1.4441  1.5648
 8681SOL     OW37501   0.018   0.499  12.706  0.6385 -0.0663 -0.0961
 8681SOL    HW137502   4.659   0.549  12.714 -0.1647 -1.3504 -0.3488
 8681SOL    HW237503   0.074   0.551  12.763  0.3822 -0.7521  0.7858
 8682SOL     OW37504   0.599   3.291   4.822 -0.5380 -0.3584  0.3696
 8682SOL    HW137505   0.569   3.325   4.907  0.3648 -1.5090  1.1553
 8682SOL    HW237506   0.566   3.355   4.759  1.3465 -0.2078 -0.4465
 8683SOL     OW37507   2.793   0.816   2.487 -0.1325 -0.0972 -0.1502
 8683SOL    HW137508   2.847   0.768   2.426  0.4919  0.1768  0.1828
 8683SOL    HW237509   2.747   0.878   2.431 -1.0784 -0.7235 -0.0584
 8684SOL     OW37510   3.290   2.323   1.134  0.0496 -0.1175 -0.3907
 8684SOL    HW137511   3.238   2.248   1.162 -0.2690  0.6464  1.0331
 8684SOL    HW237512   3.226   2.369   1.080 -0.4011  0.5918  0.7574
 8685SOL     OW37513   4.419   2.716  15.003  0.5618  0.0787 -0.7014
 8685SOL    HW137514   4.483   2.720  15.074  0.6993  0.7793 -0.8591
 8685SOL    HW237515   4.369   2.636  15.014  1.0657 -0.1511 -0.1144
 8686SOL     OW37516   3.937   2.105   2.623  0.5352 -0.2804 -0.1612
 8686SOL    HW137517   3.914   2.017   2.654  0.9508  0.2104  1.5418
 8686SOL    HW237518   3.956   2.141   2.710 -2.0119 -3.4477  1.7589
 8687SOL     OW37519   4.255   3.007  17.538  0.0548 -0.0406 -0.4144
 8687SOL    HW137520   4.305   2.965  17.608 -1.2431 -3.1154 -1.3453
 8687SOL    HW237521   4.166   3.002  17.572  0.8818 -5.8000  0.7887
 8688SOL     OW37522   1.655   3.302  15.761  0.0511  0.2626  0.1697
 8688SOL    HW137523   1.655   3.228  15.700 -0.1282  1.0570 -0.7922
 8688SOL    HW237524   1.708   3.372  15.723 -2.5313  1.8539 -0.5356
 8689SOL     OW37525   0.979   3.093   6.982 -0.0991  0.2440  0.3700
 8689SOL    HW137526   1.040   3.129   7.046 -0.8116  1.6272  0.2621
 8689SOL    HW237527   0.943   3.017   7.029  0.3124  0.3540  0.8597
 8690SOL     OW37528   3.459   0.515   6.462 -0.4711  0.0591 -0.4965
 8690SOL    HW137529   3.476   0.453   6.532 -0.7777  2.2097  1.4833
 8690SOL    HW237530   3.519   0.581   6.498 -1.5304  1.8532 -1.9804
 8691SOL     OW37531   3.457   2.530   0.981 -1.1462 -0.0841 -0.4093
 8691SOL    HW137532   3.504   2.604   1.021  0.7013 -0.6044 -1.6138
 8691SOL    HW237533   3.401   2.490   1.047  0.5305 -2.9724 -0.7207
 8692SOL     OW37534   3.743   2.378  14.975  0.5198 -0.2360 -0.4665
 8692SOL    HW137535   3.652   2.391  14.948  0.4566 -0.0847 -0.1866
 8692SOL    HW237536   3.738   2.292  15.018 -2.5109 -1.2110 -2.8214
 8693SOL     OW37537   2.919   0.756   7.048  0.1068 -0.0617 -0.6933
 8693SOL    HW137538   2.940   0.677   7.097  1.2785  1.8757  1.9444
 8693SOL    HW237539   2.824   0.752   7.037 -0.0202 -3.6200  1.6324
 8694SOL     OW37540   1.170   2.845   3.703  0.0813 -0.3591  0.3074
 8694SOL    HW137541   1.167   2.937   3.730  1.1392 -0.1946 -0.1532
 8694SOL    HW237542   1.125   2.848   3.618 -0.5345  2.0344  0.7108
 8695SOL     OW37543   0.445   1.928  10.815  0.3814 -0.1607  0.0819
 8695SOL    HW137544   0.447   1.940  10.720 -2.2827 -2.7504 -0.3203
 8695SOL    HW237545   0.485   1.841  10.812  0.1006 -0.3544  2.2202
 8696SOL     OW37546   3.749   0.816   3.271 -0.2381  0.0255 -0.4014
 8696SOL    HW137547   3.662   0.822   3.231  0.8297  0.8444 -2.6115
 8696SOL    HW237548   3.783   0.901   3.242  1.2296 -0.2926  0.3998
 8697SOL     OW37549   0.552   0.278  16.373 -0.3317 -0.0089  0.8912
 8697SOL    HW137550   0.604   0.356  16.394  0.6089 -0.7423  1.2661
 8697SOL    HW237551   0.511   0.314  16.294  2.5843  0.1151 -0.5729
 8698SOL     OW37552   1.752   3.432   2.052  0.2397  0.2634 -0.1870
 8698SOL    HW137553   1.848   3.433   2.041 -0.0419  1.8462 -2.5071
 8698SOL    HW237554   1.727   3.428   1.959  2.0752 -0.1338 -0.6692
 8699SOL     OW37555   1.446   3.825   6.991 -0.0577  0.8342  0.1595
 8699SOL    HW137556   1.460   3.825   7.086 -1.1551 -2.5404  0.3215
 8699SOL    HW237557   1.488   3.744   6.964 -1.5093  0.0588  0.2513
 8700SOL     OW37558   3.034   1.737   8.318 -0.2027 -0.0847  0.8144
 8700SOL    HW137559   2.975   1.704   8.251 -0.2275 -0.4042  0.9940
 8700SOL    HW237560   3.011   1.678   8.390  0.6389 -2.1435 -0.6194
 8701SOL     OW37561   1.278   0.415   8.884  0.0101  0.1636 -0.3364
 8701SOL    HW137562   1.305   0.373   8.802  0.0995  0.0961 -0.2721
 8701SOL    HW237563   1.287   0.349   8.952 -0.4500 -1.2060 -1.5990
 8702SOL     OW37564   2.521   4.670   2.338 -0.3034 -0.2814  0.3024
 8702SOL    HW137565   2.490   0.037   2.325 -0.1393 -0.0208  1.7646
 8702SOL    HW237566   2.577   4.693   2.412  0.8448 -0.6994 -0.4430
 8703SOL     OW37567   3.165   4.514   5.040 -0.6699 -0.4986 -0.7425
 8703SOL    HW137568   3.211   4.443   5.084 -1.6036 -1.2746 -1.0220
 8703SOL    HW237569   3.085   4.472   5.010 -1.0747 -1.7285  2.1253
 8704SOL     OW37570   0.597   2.910  14.798 -0.2049  0.2666 -0.2330
 8704SOL    HW137571   0.650   2.867  14.866 -2.0265 -2.0054 -0.2379
 8704SOL    HW237572   0.561   2.837  14.747 -1.6551  0.5201  0.4394
 8705SOL     OW37573   0.807   0.355   9.720 -0.0560 -0.2165  0.3571
 8705SOL    HW137574   0.727   0.344   9.771  0.2996 -2.2668  0.4742
 8705SOL    HW237575   0.879   0.312   9.766 -1.8277 -1.2320  2.1697
 8706SOL     OW37576   0.454   3.139  12.851  0.5642  0.3676  0.5253
 8706SOL    HW137577   0.527   3.198  12.871  0.0102  1.2008  0.1054
 8706SOL    HW237578   0.435   3.155  12.759  0.2493  0.3473  0.5873
 8707SOL     OW37579   4.452   4.626   7.220 -0.8882 -0.2104  0.2848
 8707SOL    HW137580   4.541   4.607   7.192 -0.8501 -0.9976  0.9354
 8707SOL    HW237581   4.402   4.564   7.165  0.8697 -1.6786  0.3522
 8708SOL     OW37582   1.339   4.278  14.343  0.3908  0.1393 -0.0476
 8708SOL    HW137583   1.245   4.297  14.351  0.2436 -0.7884  0.4856
 8708SOL    HW237584   1.337   4.192  14.385  0.0575 -0.5525 -1.4785
 8709SOL     OW37585   3.358   0.997   3.307  0.2402  0.1325  0.2955
 8709SOL    HW137586   3.309   0.966   3.383 -0.0512  1.3003  0.5722
 8709SOL    HW237587   3.373   0.919   3.252 -1.8143  0.1085 -0.1994
 8710SOL     OW37588   1.663   1.273  13.669 -0.2880 -0.1907 -0.2823
 8710SOL    HW137589   1.614   1.318  13.737  0.7030  0.8415 -0.2466
 8710SOL    HW237590   1.739   1.246  13.722 -1.6704 -1.8830  0.8469
 8711SOL     OW37591   1.718   0.114   0.150  0.2228  0.6894  0.0751
 8711SOL    HW137592   1.758   0.031   0.127  0.3675  0.3059  1.6709
 8711SOL    HW237593   1.627   0.088   0.142  0.6236 -0.4007 -0.8707
 8712SOL     OW37594   0.575   2.240   5.623  0.1625  0.4294 -0.1353
 8712SOL    HW137595   0.649   2.185   5.598 -0.8469 -2.0098  2.2063
 8712SOL    HW237596   0.515   2.235   5.548 -1.9020  0.6622  1.4956
 8713SOL     OW37597   2.889   1.447   5.500  0.1070 -0.4476 -0.2406
 8713SOL    HW137598   2.921   1.394   5.573 -1.1871 -0.9277 -0.0215
 8713SOL    HW237599   2.849   1.377   5.448 -2.8850  0.0609  1.4289
 8714SOL     OW37600   2.723   4.612   4.817 -0.4753 -0.3947 -0.0077
 8714SOL    HW137601   2.741   4.601   4.910 -0.9196 -2.3702 -0.1633
 8714SOL    HW237602   2.679   4.529   4.803 -2.3390  0.7135 -0.7711
 8715SOL     OW37603   3.297   3.642   3.005 -0.4700  0.8471 -0.3122
 8715SOL    HW137604   3.392   3.650   2.993 -0.3386 -0.0339  0.1238
 8715SOL    HW237605   3.273   3.734   2.994 -0.7947  0.8428  0.3469
 8716SOL     OW37606   1.980   4.498   9.764  0.1343  0.0620 -0.6552
 8716SOL    HW137607   2.055   4.439   9.771  1.2598  1.2991 -2.1359
 8716SOL    HW237608   1.917   4.462   9.827  0.0324  1.0857 -0.1756
 8717SOL     OW37609   0.587   1.419  11.638  0.3387 -0.2538  0.5473
 8717SOL    HW137610   0.614   1.511  11.639 -3.2280  0.7838 -1.0872
 8717SOL    HW237611   0.678   1.387  11.634 -0.2024 -1.6806 -0.6112
 8718SOL     OW37612   1.087   1.606   7.327 -0.2735  0.0790  0.0503
 8718SOL    HW137613   1.154   1.562   7.274 -0.3193  2.5200 -2.0322
 8718SOL    HW237614   1.041   1.525   7.348 -0.1604  0.2517  0.9817
 8719SOL     OW37615   4.036   1.633  13.687 -0.5479 -0.1137 -0.4983
 8719SOL    HW137616   4.002   1.719  13.711  1.5088  0.9034 -1.2673
 8719SOL    HW237617   4.060   1.582  13.764 -1.4107  0.8372  0.3986
 8720SOL     OW37618   4.638   3.464   5.364  0.4829 -0.0560 -0.8960
 8720SOL    HW137619   4.619   3.381   5.320  1.8683 -1.1221  0.4707
 8720SOL    HW237620   4.556   3.508   5.342 -0.5378 -1.4861  0.0239
 8721SOL     OW37621   4.534   1.090  15.263  0.1175  0.0867  0.3591
 8721SOL    HW137622   4.571   1.021  15.318  0.5515 -1.8092 -2.3023
 8721SOL    HW237623   4.454   1.043  15.238  0.4776 -0.6753  0.6426
 8722SOL     OW37624   2.608   3.671  14.438  0.4162  0.3754 -0.2913
 8722SOL    HW137625   2.687   3.690  14.487  0.9075 -2.3238 -0.0565
 8722SOL    HW237626   2.626   3.578  14.422  1.2912  0.1525  2.0119
 8723SOL     OW37627   1.415   0.351   2.439 -0.7377 -0.2929 -0.1857
 8723SOL    HW137628   1.410   0.286   2.369  0.4775  0.4186 -0.9184
 8723SOL    HW237629   1.372   0.313   2.516  2.2391 -0.4766  1.3929
 8724SOL     OW37630   0.326   1.129   3.414 -0.3764  0.1071  0.6119
 8724SOL    HW137631   0.376   1.202   3.378 -0.6468 -0.1607 -0.3057
 8724SOL    HW237632   0.338   1.064   3.345 -1.5656  2.3261 -1.6962
 8725SOL     OW37633   3.380   1.251   3.636 -0.1242  0.0615 -0.1238
 8725SOL    HW137634   3.339   1.165   3.648 -0.6428  0.3685  0.2780
 8725SOL    HW237635   3.400   1.249   3.542  0.5954  2.1001 -0.0015
 8726SOL     OW37636   2.941   1.216   5.938  0.1175  0.2927 -0.3086
 8726SOL    HW137637   2.980   1.156   6.002  2.0397  2.0312  0.1456
 8726SOL    HW237638   2.850   1.186   5.940 -0.0872  0.9320 -0.0214
 8727SOL     OW37639   4.708   1.413   2.108  0.7321 -0.2503  0.2945
 8727SOL    HW137640   4.674   1.485   2.055 -0.1093 -0.7696  0.1300
 8727SOL    HW237641   4.636   1.349   2.108  0.8032 -0.3311 -1.2261
 8728SOL     OW37642   2.798   2.572   0.751  0.5139  0.2407 -0.1320
 8728SOL    HW137643   2.732   2.598   0.687 -0.1816  0.8603  0.8418
 8728SOL    HW237644   2.822   2.486   0.716  0.0629 -0.8279  2.1728
 8729SOL     OW37645   2.983   4.632   7.162 -0.3596  0.6717 -0.0965
 8729SOL    HW137646   2.990   4.662   7.253  1.1096 -2.1857  0.7168
 8729SOL    HW237647   3.026   4.547   7.168 -2.2294 -0.3995 -1.9350
 8730SOL     OW37648   0.719   0.895   4.148 -0.0081  0.4590 -0.1500
 8730SOL    HW137649   0.686   0.904   4.237 -0.7925 -0.2226 -0.3661
 8730SOL    HW237650   0.656   0.833   4.110 -2.6462  2.5289  0.8189
 8731SOL     OW37651   3.589   2.413   8.385  0.2239  0.0621  0.0194
 8731SOL    HW137652   3.495   2.402   8.370  0.0538 -0.1630  1.2747
 8731SOL    HW237653   3.584   2.504   8.412  0.3629  0.2813 -0.6775
 8732SOL     OW37654   0.148   3.060  11.176 -0.3340  0.0858  0.5438
 8732SOL    HW137655   0.057   3.041  11.195 -1.4994  3.8310 -1.1480
 8732SOL    HW237656   0.197   2.984  11.207 -0.2559  0.0687  0.3752
 8733SOL     OW37657   4.017   3.155   8.637 -0.3514  0.7294 -0.3661
 8733SOL    HW137658   3.974   3.218   8.696  1.2874  1.0691  0.4483
 8733SOL    HW237659   4.111   3.167   8.646 -0.4592  1.0019  0.4066
 8734SOL     OW37660   0.792   3.592   5.410 -0.2732 -0.0104  0.3698
 8734SOL    HW137661   0.698   3.574   5.402  0.1279 -2.2553  0.6085
 8734SOL    HW237662   0.820   3.502   5.428 -0.1076  0.1090  0.7025
 8735SOL     OW37663   4.045   1.079   9.597 -0.0398  0.6297 -0.0856
 8735SOL    HW137664   4.042   1.091   9.502 -1.3989 -2.0210 -0.3705
 8735SOL    HW237665   4.140   1.085   9.613 -0.1038 -3.7072  2.0444
 8736SOL     OW37666   1.878   2.978   3.111  0.1558  1.0163 -0.0874
 8736SOL    HW137667   1.934   2.915   3.067 -0.3102 -0.6898  1.7565
 8736SOL    HW237668   1.807   2.921   3.141  0.0119 -0.4801 -3.3650
 8737SOL     OW37669   1.605   3.921  10.019 -0.7159  0.0671  0.0327
 8737SOL    HW137670   1.550   3.921   9.940 -1.3002  2.2434  0.4436
 8737SOL    HW237671   1.589   4.006  10.059 -0.3975  0.2542 -0.2474
 8738SOL     OW37672   0.536   0.440   5.343  0.4512 -0.4648  0.1099
 8738SOL    HW137673   0.551   0.411   5.253 -2.0738 -0.3206 -0.3537
 8738SOL    HW237674   0.537   0.359   5.396 -2.7402 -0.9529 -0.6264
 8739SOL     OW37675   1.786   3.547  15.686  0.2649 -0.3370  0.6729
 8739SOL    HW137676   1.827   3.505  15.610 -1.6124  2.8093 -2.0985
 8739SOL    HW237677   1.746   3.627  15.653  0.6091  0.1289  1.3778
 8740SOL     OW37678   2.305   4.708   5.665 -0.6543  0.3763 -0.0271
 8740SOL    HW137679   2.301   4.631   5.608 -1.3094  2.0401 -2.2252
 8740SOL    HW237680   2.254   0.050   5.617  0.8019  1.3271 -0.2834
 8741SOL     OW37681   1.371   1.817  16.493  0.2388  1.1100 -0.1275
 8741SOL    HW137682   1.310   1.753  16.455  0.8313 -0.7483  2.0141
 8741SOL    HW237683   1.309   1.881  16.527 -1.1149 -0.9460  1.2430
 8742SOL     OW37684   3.479   0.871   8.287 -0.1141  0.1164 -0.0015
 8742SOL    HW137685   3.399   0.900   8.332 -0.2952 -0.0070 -0.2418
 8742SOL    HW237686   3.538   0.864   8.362  0.7514 -5.3410 -1.2456
 8743SOL     OW37687   1.721   3.840   8.354  0.0674  0.0691 -0.0403
 8743SOL    HW137688   1.751   3.899   8.423  1.2159 -0.7391  0.1553
 8743SOL    HW237689   1.805   3.797   8.340  0.0906 -0.3040  1.2368
 8744SOL     OW37690   4.551   3.870  11.441  0.5118 -0.6097  0.4427
 8744SOL    HW137691   4.583   3.823  11.364  0.3206 -1.1709  0.7112
 8744SOL    HW237692   4.615   3.837  11.503  2.1222 -2.9301 -2.4571
 8745SOL     OW37693   3.692   1.170   5.459  0.1693  0.0106  0.0894
 8745SOL    HW137694   3.780   1.205   5.471  0.5175 -0.6448 -0.5209
 8745SOL    HW237695   3.673   1.224   5.383 -2.0554 -1.0493 -0.1086
 8746SOL     OW37696   3.698   2.818   8.093  0.1079  0.0902 -0.2850
 8746SOL    HW137697   3.621   2.761   8.086  0.6966 -0.7146 -0.1951
 8746SOL    HW237698   3.710   2.838   8.000 -2.9294  0.0976 -0.6690
 8747SOL     OW37699   1.833   2.853  16.758 -0.6951 -0.3413 -0.4767
 8747SOL    HW137700   1.761   2.885  16.811  0.8759  1.5933  0.4947
 8747SOL    HW237701   1.884   2.934  16.748 -1.7972  0.2621 -1.2291
 8748SOL     OW37702   3.934   2.628   1.235 -0.3139  0.4669  0.1590
 8748SOL    HW137703   3.965   2.629   1.325 -3.2141  0.0001  1.1718
 8748SOL    HW237704   3.920   2.533   1.231  2.5656 -0.0576  3.2113
 8749SOL     OW37705   3.069   0.009   8.129 -0.0901  0.5580 -0.1774
 8749SOL    HW137706   3.053   0.030   8.220 -0.9331  3.0971 -0.9189
 8749SOL    HW237707   3.083   0.090   8.081 -0.1525  1.3400  1.1424
 8750SOL     OW37708   2.863   2.052   6.104  0.2248 -0.2124  0.2800
 8750SOL    HW137709   2.769   2.047   6.084 -0.0647  0.7578  1.4219
 8750SOL    HW237710   2.899   1.973   6.064  3.5486  0.6833  1.5761
 8751SOL     OW37711   3.537   0.931  15.463  0.2709  0.0822  0.3429
 8751SOL    HW137712   3.562   0.965  15.377 -1.7960  0.1954 -0.2018
 8751SOL    HW237713   3.544   0.838  15.439  0.8335  0.0170  0.7626
 8752SOL     OW37714   3.939   2.271   0.463 -0.0718  0.1003  0.2591
 8752SOL    HW137715   4.022   2.224   0.453 -0.2979 -0.3519  0.5528
 8752SOL    HW237716   3.905   2.209   0.527 -1.1473  0.0055 -0.4141
 8753SOL     OW37717   2.329   2.393   4.723  0.1289 -0.1102  0.1665
 8753SOL    HW137718   2.323   2.297   4.731 -2.0110  0.0514  0.5996
 8753SOL    HW237719   2.414   2.401   4.681 -0.2842 -1.9792 -1.0441
 8754SOL     OW37720   4.189   1.537   8.743 -0.5111 -0.4418  0.1323
 8754SOL    HW137721   4.131   1.481   8.692  0.1567  0.8337 -1.9914
 8754SOL    HW237722   4.157   1.508   8.829  0.2593 -0.1546  0.5170
 8755SOL     OW37723   4.298   0.464  14.647 -0.7416  0.3270  0.0195
 8755SOL    HW137724   4.321   0.476  14.555 -1.8365  1.2423 -0.1271
 8755SOL    HW237725   4.238   0.391  14.634  0.3588 -0.6441  0.3622
 8756SOL     OW37726   0.917   2.448   3.317  0.0003 -0.3976  0.8288
 8756SOL    HW137727   0.957   2.534   3.304  0.6346 -1.0248 -1.3270
 8756SOL    HW237728   0.835   2.458   3.268  0.7053 -0.8756 -0.4600
 8757SOL     OW37729   0.242   3.865  14.281  0.3290 -0.7350 -0.1904
 8757SOL    HW137730   0.238   3.930  14.351  0.1513 -1.0983  0.1376
 8757SOL    HW237731   0.333   3.873  14.253  0.0142 -1.7677 -1.5145
 8758SOL     OW37732   2.377   2.540   0.086  0.1115 -0.0175  0.4968
 8758SOL    HW137733   2.340   2.505   0.005 -2.2203  2.2541  0.5732
 8758SOL    HW237734   2.458   2.565   0.041  1.4733 -1.7943  1.9748
 8759SOL     OW37735   4.201   2.556  17.078 -0.3726  0.1141 -0.3586
 8759SOL    HW137736   4.231   2.561  16.987 -0.6960 -1.6011 -0.5593
 8759SOL    HW237737   4.107   2.569  17.065  0.1871  2.3620 -2.1478
 8760SOL     OW37738   0.131   2.554   4.258  0.1692  0.4394 -0.3401
 8760SOL    HW137739   0.220   2.586   4.274 -0.0772  0.7333  0.4652
 8760SOL    HW237740   0.114   2.529   4.349  1.0765 -0.7441 -0.4943
 8761SOL     OW37741   4.571   3.963   5.002 -0.1423 -0.1917  0.4501
 8761SOL    HW137742   4.501   4.024   4.981  1.1961  0.8900 -0.7831
 8761SOL    HW237743   4.644   4.023   4.994 -1.7907  1.9655  1.5926
 8762SOL     OW37744   2.165   4.482   7.978  0.0216  0.2906 -0.6586
 8762SOL    HW137745   2.079   4.490   7.936  0.5194  1.8435 -1.3612
 8762SOL    HW237746   2.217   4.482   7.898  0.7753 -0.1542 -0.1625
 8763SOL     OW37747   0.648   4.128   5.690  0.2436 -0.1651  0.6437
 8763SOL    HW137748   0.722   4.123   5.629 -0.3596 -0.0995 -0.0898
 8763SOL    HW237749   0.624   4.038   5.711  0.1720 -0.4431 -0.5929
 8764SOL     OW37750   2.976   3.534   7.675  0.1731  0.1781  0.1179
 8764SOL    HW137751   3.007   3.571   7.592 -2.0180  0.7531 -0.4297
 8764SOL    HW237752   2.969   3.613   7.728  2.1090 -0.6372  1.5848
 8765SOL     OW37753   0.271   1.445  14.462 -0.1679 -0.1956 -0.1089
 8765SOL    HW137754   0.347   1.470  14.515 -0.0314 -1.0218  0.0837
 8765SOL    HW237755   0.254   1.520  14.406  0.8843 -0.3798 -0.6778
 8766SOL     OW37756   1.714   2.210  16.286 -0.4974  0.0664  0.0341
 8766SOL    HW137757   1.802   2.248  16.290 -0.6067  0.4591 -1.2063
 8766SOL    HW237758   1.733   2.134  16.232  0.4405 -0.4179  1.0399
 8767SOL     OW37759   0.626   1.144  11.588  0.6219 -0.0669 -0.5470
 8767SOL    HW137760   0.551   1.087  11.604  0.4202 -0.3838 -2.6370
 8767SOL    HW237761   0.581   1.218  11.547  2.0008  1.1337  0.0712
 8768SOL     OW37762   1.845   4.423  16.534  0.3401 -0.1848 -0.3873
 8768SOL    HW137763   1.913   4.447  16.470 -0.4640  3.2648  0.0800
 8768SOL    HW237764   1.904   4.369  16.587 -1.0950 -0.9228  0.4516
 8769SOL     OW37765   1.432   4.632   6.352  0.3847 -0.7732 -0.2634
 8769SOL    HW137766   1.354   4.589   6.387 -0.6212 -0.6028 -2.3275
 8769SOL    HW237767   1.419   4.714   6.400 -2.4859 -1.8405  0.7388
 8770SOL     OW37768   0.010   2.542   6.642  0.7729 -0.5584 -0.3175
 8770SOL    HW137769   4.682   2.560   6.563  1.0532  0.6649 -0.2240
 8770SOL    HW237770   4.719   2.447   6.645 -0.6465 -0.3362 -0.1778
 8771SOL     OW37771   1.904   1.086   9.403  0.3091 -0.2804 -0.0985
 8771SOL    HW137772   1.993   1.094   9.437 -0.0911  0.5235  0.7792
 8771SOL    HW237773   1.927   1.050   9.318  0.7737 -0.4037  0.0792
 8772SOL     OW37774   2.989   1.186   0.776 -0.1463 -0.2700 -0.0179
 8772SOL    HW137775   2.989   1.116   0.710 -1.5053  1.0333 -1.3945
 8772SOL    HW237776   3.081   1.211   0.764 -0.6592  1.7290  0.2283
 8773SOL     OW37777   4.620   4.415   0.268  0.5049  0.2246  0.1976
 8773SOL    HW137778   4.707   4.430   0.304  0.2277  0.4518  0.7594
 8773SOL    HW237779   4.633   4.337   0.213 -1.1903 -0.4388  0.7196
 8774SOL     OW37780   4.183   2.557   3.019  0.2420 -0.0363 -0.7943
 8774SOL    HW137781   4.211   2.549   3.110 -2.3877  1.0254  0.1059
 8774SOL    HW237782   4.262   2.529   2.973 -0.2575 -1.2344 -0.9426
 8775SOL     OW37783   1.601   3.120  13.937 -0.0993  0.0880  0.4173
 8775SOL    HW137784   1.676   3.164  13.977 -0.7318  1.2823  0.2838
 8775SOL    HW237785   1.645   3.074  13.866 -2.7498  0.0883 -1.2130
 8776SOL     OW37786   1.135   0.270   3.111  0.1390 -0.1635  0.0010
 8776SOL    HW137787   1.127   0.257   3.017  1.7083 -0.1288 -0.1380
 8776SOL    HW237788   1.130   0.365   3.121  0.5214 -0.1531  0.1147
 8777SOL     OW37789   0.336   2.923  15.199  0.6576  0.0287  0.1295
 8777SOL    HW137790   0.381   3.006  15.187 -1.1521  0.9900  0.1345
 8777SOL    HW237791   0.296   2.923  15.112 -1.1492  3.6905  0.9955
 8778SOL     OW37792   2.835   1.638   0.709  0.6152 -0.8299  0.5032
 8778SOL    HW137793   2.787   1.560   0.738 -2.1266  0.1055 -1.4974
 8778SOL    HW237794   2.865   1.599   0.626  1.5705  0.4539  0.2533
 8779SOL     OW37795   4.155   0.808   2.785 -0.0108  0.1109  0.5465
 8779SOL    HW137796   4.190   0.742   2.845 -0.4523 -1.1675 -0.6060
 8779SOL    HW237797   4.077   0.761   2.753  0.5197 -1.4123  1.5105
 8780SOL     OW37798   0.949   1.601  10.166 -0.7567 -0.0062  0.6899
 8780SOL    HW137799   0.880   1.665  10.148  1.0529  1.8018  0.1661
 8780SOL    HW237800   1.023   1.661  10.159 -0.8047 -0.1437 -1.1004
 8781SOL     OW37801   1.481   4.652  13.437  0.0693 -0.2716  0.0837
 8781SOL    HW137802   1.516   4.619  13.519  0.1081 -1.2384 -0.3144
 8781SOL    HW237803   1.532   4.598  13.376 -1.3543 -1.3930 -0.0992
 8782SOL     OW37804   0.223   2.377   4.577  0.0405  0.0643 -1.1050
 8782SOL    HW137805   0.288   2.427   4.625 -0.2803 -0.0031 -0.6037
 8782SOL    HW237806   0.213   2.294   4.625  0.4454  0.2297 -0.7410
 8783SOL     OW37807   1.239   4.405   3.950  1.0072 -0.3044 -1.1181
 8783SOL    HW137808   1.322   4.416   3.903  0.8344 -0.6663 -1.5046
 8783SOL    HW237809   1.188   4.478   3.917 -0.0031 -0.3450  0.3727
 8784SOL     OW37810   1.635   2.849  15.293 -0.1727  0.3256 -0.4421
 8784SOL    HW137811   1.592   2.933  15.279 -1.1173  0.0253  0.6929
 8784SOL    HW237812   1.688   2.864  15.371 -3.1370  0.2381  1.5878
 8785SOL     OW37813   0.407   2.212   5.397  0.2587 -0.6396  0.1451
 8785SOL    HW137814   0.376   2.145   5.337  0.5759  1.1260 -1.9690
 8785SOL    HW237815   0.453   2.268   5.335 -0.9140  1.1713  0.9135
 8786SOL     OW37816   2.679   1.658   4.051  0.5092  0.2818  0.4659
 8786SOL    HW137817   2.696   1.601   3.975 -0.9771 -1.1811  1.2268
 8786SOL    HW237818   2.713   1.598   4.118 -0.9041  0.3087  1.2130
 8787SOL     OW37819   4.609   2.776  17.224  0.3205  0.2543 -0.1320
 8787SOL    HW137820   4.628   2.773  17.130  3.5344 -0.0157  0.5331
 8787SOL    HW237821   4.695   2.810  17.248  0.7375 -0.4170 -0.6723
 8788SOL     OW37822   4.389   4.258   6.470  0.1199 -0.1259 -0.0023
 8788SOL    HW137823   4.321   4.317   6.503 -0.2826  0.6929 -2.3064
 8788SOL    HW237824   4.393   4.187   6.534  3.1864  1.0850  1.1994
 8789SOL     OW37825   1.121   1.620   8.993 -0.6160 -0.7686  0.0123
 8789SOL    HW137826   1.045   1.647   9.045 -0.3408  1.6131 -0.8582
 8789SOL    HW237827   1.169   1.577   9.064  0.1403 -1.8993 -1.1820
 8790SOL     OW37828   3.555   4.270   4.587  0.2303 -0.6089  0.2984
 8790SOL    HW137829   3.520   4.223   4.512 -2.1421  1.5724  0.0379
 8790SOL    HW237830   3.540   4.359   4.555 -1.3280 -1.2462 -0.7642
 8791SOL     OW37831   1.474   3.172   7.216 -0.4404 -0.2927  0.5162
 8791SOL    HW137832   1.427   3.228   7.277  1.1462  1.7864 -0.1761
 8791SOL    HW237833   1.446   3.088   7.254 -0.7975  0.9834  3.0708
 8792SOL     OW37834   3.540   4.674   5.048 -0.0053  0.5380 -0.3400
 8792SOL    HW137835   3.562   4.612   4.979  0.7792 -0.4422  0.8005
 8792SOL    HW237836   3.520   0.031   4.999  1.7957  0.7912 -0.6527
 8793SOL     OW37837   0.098   2.665   2.223 -0.1529  0.6312  0.4189
 8793SOL    HW137838   0.104   2.590   2.281 -2.8696 -0.4230 -0.6560
 8793SOL    HW237839   0.007   2.694   2.233 -0.5261  0.2165 -1.7391
 8794SOL     OW37840   3.042   4.311   9.594  0.2122 -0.9170  0.2029
 8794SOL    HW137841   3.013   4.307   9.502 -0.7487  0.1575  0.4586
 8794SOL    HW237842   3.137   4.320   9.584  0.2209 -0.5892  0.6009
 8795SOL     OW37843   4.417   2.462   6.535  0.5579  0.0954 -0.4039
 8795SOL    HW137844   4.387   2.512   6.459 -0.7124  0.6960  0.5020
 8795SOL    HW237845   4.450   2.386   6.487 -1.7819 -1.8947  1.1508
 8796SOL     OW37846   0.691   2.261   8.593 -0.8538  0.4806 -0.1772
 8796SOL    HW137847   0.786   2.257   8.605 -0.6309  0.6136 -1.8720
 8796SOL    HW237848   0.657   2.329   8.652 -0.2260  2.0535 -1.6278
 8797SOL     OW37849   2.959   2.782   6.399 -0.0690 -0.1801  0.0390
 8797SOL    HW137850   2.902   2.772   6.476  2.4393 -2.5270  1.5925
 8797SOL    HW237851   3.040   2.756   6.443 -0.1715 -0.2228  0.2063
 8798SOL     OW37852   3.500   2.542   5.062  0.3391  0.2903  0.7381
 8798SOL    HW137853   3.583   2.495   5.050  0.6280  1.4884 -2.0832
 8798SOL    HW237854   3.489   2.523   5.155  0.0499 -1.0309  0.4389
 8799SOL     OW37855   3.526   2.039   4.155  0.0384 -0.0759 -0.0579
 8799SOL    HW137856   3.537   1.966   4.094 -1.0072 -0.3078  0.0366
 8799SOL    HW237857   3.612   2.052   4.196  0.1014 -0.1550 -0.1641
 8800SOL     OW37858   0.752   0.067  15.722 -0.1962 -0.7801  0.1643
 8800SOL    HW137859   0.785   0.121  15.794 -3.0350  2.2849 -0.8162
 8800SOL    HW237860   0.749   4.703  15.760 -0.5907 -0.2051  1.4552
 8801SOL     OW37861   2.852   3.715   8.247  0.1253  0.0805 -0.2061
 8801SOL    HW137862   2.865   3.621   8.249  1.4191  0.3048  1.8714
 8801SOL    HW237863   2.769   3.719   8.198 -0.8991 -2.5894  1.3610
 8802SOL     OW37864   4.517   2.169  11.273 -0.1019  0.0988 -0.0576
 8802SOL    HW137865   4.530   2.127  11.187 -1.4684  0.9139 -0.6626
 8802SOL    HW237866   4.580   2.127  11.331  0.3171  0.5423 -0.2035
 8803SOL     OW37867   0.271   3.811   0.871  0.1545  0.2717 -0.4223
 8803SOL    HW137868   0.300   3.794   0.781  2.8605 -0.3758  0.5793
 8803SOL    HW237869   0.311   3.897   0.880  0.5558 -0.1093  1.3715
 8804SOL     OW37870   2.773   4.526  10.753  0.1448 -0.4899  0.3564
 8804SOL    HW137871   2.821   4.513  10.671  1.1974 -2.0811  1.2126
 8804SOL    HW237872   2.850   4.523  10.810 -1.1279 -0.4240  2.0654
 8805SOL     OW37873   2.812   0.098  11.740 -1.0242 -0.7008 -0.0697
 8805SOL    HW137874   2.790   0.184  11.703 -0.1400 -0.8608 -0.9750
 8805SOL    HW237875   2.855   0.063  11.662 -0.1825 -0.8051  0.4364
 8806SOL     OW37876   4.658   0.914   6.145 -0.4130 -0.2249 -0.4136
 8806SOL    HW137877   4.689   0.968   6.072 -0.2426 -0.7780 -0.7603
 8806SOL    HW237878   4.707   0.833   6.131 -1.5109 -0.4219 -3.0765
 8807SOL     OW37879   1.435   3.986  17.530  0.4043 -0.0299 -0.6101
 8807SOL    HW137880   1.509   3.935  17.561 -0.0947  0.7310  1.8563
 8807SOL    HW237881   1.422   4.042  17.607 -2.0235  1.4257 -2.0669
 8808SOL     OW37882   2.954   3.546   1.824 -0.0223  0.6859  0.1201
 8808SOL    HW137883   2.883   3.495   1.864  0.3070  1.5602  1.7921
 8808SOL    HW237884   2.907   3.593   1.755 -0.6707  2.3476  1.7108
 8809SOL     OW37885   3.337   3.279   6.184 -0.1870 -1.1557  0.1233
 8809SOL    HW137886   3.298   3.199   6.148  0.7593 -1.7654  0.4306
 8809SOL    HW237887   3.267   3.344   6.185 -0.4004 -1.3764 -0.8410
 8810SOL     OW37888   3.544   3.373  15.044  0.4841 -0.1114  0.9075
 8810SOL    HW137889   3.511   3.304  14.987  0.8802  0.5154 -0.0822
 8810SOL    HW237890   3.484   3.362  15.117 -0.0367  0.0313  0.5009
 8811SOL     OW37891   3.369   4.166  12.417 -0.6783  0.1607 -0.0753
 8811SOL    HW137892   3.422   4.121  12.483 -0.6805  0.9666  0.4787
 8811SOL    HW237893   3.392   4.125  12.333  1.5732 -0.3507  0.7805
 8812SOL     OW37894   1.438   4.147  12.314 -0.2923 -0.1297  0.2192
 8812SOL    HW137895   1.416   4.226  12.363  1.1919  0.9129 -0.7594
 8812SOL    HW237896   1.388   4.077  12.355 -2.2863  1.2957  0.2310
 8813SOL     OW37897   2.491   1.520   6.088 -0.1521 -0.5283 -0.5611
 8813SOL    HW137898   2.558   1.477   6.142  1.5130 -0.7403 -2.7551
 8813SOL    HW237899   2.541   1.588   6.043  2.0241 -1.0872  1.0153
 8814SOL     OW37900   2.021   1.347   9.343  0.5296 -0.4773 -0.1582
 8814SOL    HW137901   1.927   1.344   9.361  0.9403  0.1340  2.0327
 8814SOL    HW237902   2.023   1.273   9.283 -0.4542 -1.7887  1.4182
 8815SOL     OW37903   0.448   3.055   7.342  0.6323 -0.1249 -0.2945
 8815SOL    HW137904   0.436   3.145   7.312  2.7165  0.3886  0.3606
 8815SOL    HW237905   0.495   3.013   7.269 -0.9571 -2.9525  0.3072
 8816SOL     OW37906   3.573   3.782  15.510  1.0176  0.1465 -0.0678
 8816SOL    HW137907   3.558   3.720  15.580 -0.4851 -0.5057 -0.9738
 8816SOL    HW237908   3.613   3.859  15.550  4.4002 -2.0533  0.7818
 8817SOL     OW37909   3.468   2.247   7.386 -0.2350 -0.2195 -0.4631
 8817SOL    HW137910   3.484   2.313   7.455  1.3375 -1.2913  0.1868
 8817SOL    HW237911   3.505   2.170   7.429 -1.9887  0.6718  2.6892
 8818SOL     OW37912   1.582   1.132   4.500  0.3101 -0.2333  0.0577
 8818SOL    HW137913   1.614   1.221   4.518 -2.8728  0.8419  0.3971
 8818SOL    HW237914   1.590   1.095   4.588 -0.3553  1.6560  0.9229
 8819SOL     OW37915   2.040   1.209   4.676  0.2610  0.4499  0.0127
 8819SOL    HW137916   2.131   1.230   4.693  0.1602  2.6826 -2.1832
 8819SOL    HW237917   2.013   1.277   4.614 -0.3138  0.5026  0.3241
 8820SOL     OW37918   3.838   3.640   0.670 -0.0341 -0.1045  0.7928
 8820SOL    HW137919   3.764   3.580   0.674  0.8659 -1.1489  1.5421
 8820SOL    HW237920   3.898   3.588   0.616  0.3079  1.2015 -0.1237
 8821SOL     OW37921   3.468   2.431  17.224  0.1661 -0.3393  0.2602
 8821SOL    HW137922   3.423   2.470  17.149  1.1557  0.3663  0.0237
 8821SOL    HW237923   3.466   2.500  17.290  0.2290  1.4936 -1.6197
 8822SOL     OW37924   3.827   3.853   3.018 -0.3830 -0.5639  0.8832
 8822SOL    HW137925   3.826   3.949   3.011 -1.6522 -0.6044  0.4983
 8822SOL    HW237926   3.860   3.827   2.932 -0.2616  3.5856 -0.3569
 8823SOL     OW37927   0.914   1.946   9.006  0.2670 -0.4421 -0.0262
 8823SOL    HW137928   0.893   1.969   8.916 -0.5418  0.1594  0.3235
 8823SOL    HW237929   0.842   1.885   9.020  1.0971 -0.8652  2.3990
 8824SOL     OW37930   2.029   0.848   4.226  0.0784 -0.1730  0.2069
 8824SOL    HW137931   1.973   0.894   4.289 -0.8721  0.3311 -1.0106
 8824SOL    HW237932   1.982   0.870   4.145  2.3309 -0.4343 -1.1591
 8825SOL     OW37933   3.373   1.822  16.257  0.1594 -0.3682 -0.0375
 8825SOL    HW137934   3.360   1.804  16.164 -0.8796  0.3182 -0.0214
 8825SOL    HW237935   3.290   1.792  16.295  0.8920  0.6087  2.3539
 8826SOL     OW37936   1.730   4.481  17.158 -0.2979  0.4013  0.2676
 8826SOL    HW137937   1.819   4.471  17.126 -1.0445  0.4857 -1.8738
 8826SOL    HW237938   1.743   4.477  17.253  1.2519  1.0747  0.0766
 8827SOL     OW37939   0.185   0.756   5.468 -0.3134  0.0842 -0.2895
 8827SOL    HW137940   0.247   0.732   5.399 -2.1866 -2.9643 -0.9186
 8827SOL    HW237941   0.184   0.850   5.450 -3.2750 -0.3718 -2.4275
 8828SOL     OW37942   1.174   4.200   8.970  0.4211 -0.5300  0.4051
 8828SOL    HW137943   1.233   4.167   8.902 -1.3184 -0.3738 -1.1801
 8828SOL    HW237944   1.161   4.116   9.013  1.9481 -0.7729  0.4221
 8829SOL     OW37945   2.863   3.209   6.120  0.1835  0.2698 -0.7133
 8829SOL    HW137946   2.919   3.138   6.151  0.4491  0.1301 -1.5129
 8829SOL    HW237947   2.906   3.262   6.052 -0.1321  1.3841 -0.0473
 8830SOL     OW37948   3.542   0.489   5.970  0.3131 -0.5229 -0.3849
 8830SOL    HW137949   3.467   0.463   6.023  0.6627  1.2624  0.9972
 8830SOL    HW237950   3.600   0.536   6.030  0.9661 -0.1789 -1.2973
 8831SOL     OW37951   2.035   1.860   9.739  0.4418 -0.5970 -0.4127
 8831SOL    HW137952   2.001   1.949   9.726 -0.9370 -1.7138 -4.2017
 8831SOL    HW237953   1.964   1.823   9.792  0.7605  0.6303  0.8781
 8832SOL     OW37954   2.747   0.482   3.639 -0.1537 -0.6971 -0.3638
 8832SOL    HW137955   2.766   0.445   3.553  1.4763  0.9461 -0.7090
 8832SOL    HW237956   2.742   0.575   3.618  0.2207  0.2675  3.8189
 8833SOL     OW37957   0.007   0.133   4.694  0.0396  0.5501 -0.2067
 8833SOL    HW137958   4.643   0.166   4.675 -0.5801 -0.9406  0.0334
 8833SOL    HW237959   0.060   0.212   4.684  0.4981  0.1428 -0.9930
 8834SOL     OW37960   0.094   0.666   5.829 -0.4404  0.0142 -0.3355
 8834SOL    HW137961   0.133   0.730   5.769  1.0526 -0.0444  0.5619
 8834SOL    HW237962   0.171   0.609   5.823  0.1474  0.7905 -0.2054
 8835SOL     OW37963   2.603   0.868   2.721 -0.4633  0.3194  0.8416
 8835SOL    HW137964   2.676   0.808   2.738  1.5112  2.0919 -1.4883
 8835SOL    HW237965   2.645   0.926   2.659 -1.2089 -0.7418 -0.6480
 8836SOL     OW37966   0.537   1.829   6.725  0.3966 -0.2278 -0.3480
 8836SOL    HW137967   0.569   1.876   6.803 -0.0035 -0.6395  0.0677
 8836SOL    HW237968   0.566   1.739   6.735  2.0131  0.1501 -1.7929
 8837SOL     OW37969   1.776   2.045  14.572  0.0369 -0.0090 -0.2927
 8837SOL    HW137970   1.761   2.139  14.585  0.1378  0.0667 -0.7153
 8837SOL    HW237971   1.733   2.036  14.487 -0.8518  2.5324 -0.1189
 8838SOL     OW37972   0.375   4.714  10.726 -0.3756 -0.2074  0.3454
 8838SOL    HW137973   0.314   4.654  10.684  0.4715 -0.3667 -0.6397
 8838SOL    HW237974   0.310   0.034  10.781  0.7510  0.0048  1.5268
 8839SOL     OW37975   2.682   2.318   2.459  0.2497  0.1902  0.3751
 8839SOL    HW137976   2.623   2.275   2.522  1.2436  1.2500  2.0278
 8839SOL    HW237977   2.710   2.246   2.402  0.4330 -3.1027  4.6067
 8840SOL     OW37978   0.014   1.652   5.667 -0.0084 -0.5519  0.2721
 8840SOL    HW137979   0.089   1.593   5.674  0.6599  0.2023 -0.4808
 8840SOL    HW237980   4.710   1.646   5.758  0.3342  0.1342  0.4215
 8841SOL     OW37981   0.540   2.509   2.777  0.4518  0.3256 -0.0363
 8841SOL    HW137982   0.490   2.482   2.853 -1.2452  0.0354 -1.2422
 8841SOL    HW237983   0.589   2.431   2.753 -0.4223  0.5242 -2.5212
 8842SOL     OW37984   2.702   1.548  17.433 -0.5672 -0.5058 -0.3727
 8842SOL    HW137985   2.645   1.472  17.442 -0.4000 -0.7982 -1.9349
 8842SOL    HW237986   2.786   1.507  17.456 -0.9785 -0.4316  1.2601
 8843SOL     OW37987   2.571   1.103  14.856  0.3428 -0.0391 -0.1087
 8843SOL    HW137988   2.653   1.067  14.823  0.7300  0.8137 -0.0760
 8843SOL    HW237989   2.512   1.080  14.785 -0.3559  0.7978  0.2005
 8844SOL     OW37990   3.374   3.185   5.287  0.3609  0.0158  0.4125
 8844SOL    HW137991   3.441   3.171   5.219 -0.0700 -1.9125  0.3844
 8844SOL    HW237992   3.354   3.277   5.267  0.9999 -0.0142 -0.3822
 8845SOL     OW37993   4.292   2.816  16.379 -0.1547  0.2383  0.2526
 8845SOL    HW137994   4.328   2.905  16.387 -1.0469  0.5115  1.1314
 8845SOL    HW237995   4.287   2.793  16.286  0.7325  2.4317 -0.3462
 8846SOL     OW37996   2.763   0.539   4.192  0.4579  0.0996 -0.2583
 8846SOL    HW137997   2.838   0.481   4.208  0.8637  1.2120  1.8965
 8846SOL    HW237998   2.781   0.557   4.100 -2.3074  1.5027 -0.5156
 8847SOL     OW37999   4.111   3.821   4.950  0.6126  0.0531 -0.4526
 8847SOL    HW138000   4.059   3.748   4.916  1.4668 -1.3639  1.3319
 8847SOL    HW238001   4.112   3.806   5.044 -1.0253  1.5381 -0.1991
 8848SOL     OW38002   0.794   0.581   6.990 -0.0250  0.0698 -0.5299
 8848SOL    HW138003   0.706   0.585   6.951 -0.0200  2.5491 -0.2738
 8848SOL    HW238004   0.841   0.638   6.929 -0.2297 -0.2257 -0.9695
 8849SOL     OW38005   2.332   2.017   3.659 -0.4390 -0.2178  0.0007
 8849SOL    HW138006   2.396   2.081   3.692  1.6864 -0.5151 -3.5814
 8849SOL    HW238007   2.352   2.023   3.566  1.8379 -1.4401  0.4041
 8850SOL     OW38008   2.837   3.742   4.486 -0.6030  0.0690  0.1931
 8850SOL    HW138009   2.750   3.724   4.452 -1.1051  0.0588  1.5022
 8850SOL    HW238010   2.856   3.667   4.541 -0.5879 -0.4464 -0.5179
 8851SOL     OW38011   3.406   1.486   9.934  0.0328 -0.0130  0.8454
 8851SOL    HW138012   3.341   1.477  10.005  0.0360 -0.3374  0.8074
 8851SOL    HW238013   3.379   1.428   9.863 -0.3474  0.9572  0.1983
 8852SOL     OW38014   1.429   2.174   2.433 -0.2096  0.9268  0.3023
 8852SOL    HW138015   1.384   2.090   2.442  1.9805 -0.6065 -3.3162
 8852SOL    HW238016   1.359   2.239   2.439  2.3855  3.7531 -0.5992
 8853SOL     OW38017   3.372   1.573   0.798  0.3177 -0.3308  0.0439
 8853SOL    HW138018   3.430   1.497   0.797 -0.7542 -1.1455  0.0145
 8853SOL    HW238019   3.417   1.632   0.859 -0.5397  1.0478 -0.6584
 8854SOL     OW38020   2.800   1.836   4.902 -0.1952  0.0492  0.2447
 8854SOL    HW138021   2.777   1.793   4.820 -1.2298  0.9174  0.0808
 8854SOL    HW238022   2.758   1.920   4.886 -0.0261  0.4846  2.0986
 8855SOL     OW38023   2.856   1.268   9.445 -0.2100 -0.3123  0.1011
 8855SOL    HW138024   2.779   1.223   9.410 -0.6647  0.4926  0.0725
 8855SOL    HW238025   2.872   1.340   9.384 -0.5047 -0.3919 -0.0710
 8856SOL     OW38026   0.295   3.548   5.416 -0.1408 -0.0216  0.0804
 8856SOL    HW138027   0.361   3.589   5.472  0.7761 -1.0008 -0.2889
 8856SOL    HW238028   0.267   3.628   5.370  1.1607  0.0729 -0.5587
 8857SOL     OW38029   3.375   4.148   1.025 -0.3548 -0.5159  0.4466
 8857SOL    HW138030   3.387   4.226   1.080 -0.5678  0.2482 -0.6011
 8857SOL    HW238031   3.467   4.124   1.039 -0.1298  0.0444 -0.0359
 8858SOL     OW38032   3.015   4.284   3.574  0.2419  0.2224 -0.3826
 8858SOL    HW138033   2.927   4.253   3.596  0.9493 -1.6669 -0.2097
 8858SOL    HW238034   3.007   4.293   3.479  2.4526 -3.5404 -0.9436
 8859SOL     OW38035   3.611   2.045  16.358  0.3215  0.4359  0.1872
 8859SOL    HW138036   3.652   2.046  16.445  1.0371 -0.8039 -0.1547
 8859SOL    HW238037   3.519   2.060  16.383 -0.5136 -0.7514 -2.1986
 8860SOL     OW38038   2.337   1.308  16.108 -0.2057  0.1433 -0.1681
 8860SOL    HW138039   2.281   1.249  16.058  1.6911  0.4226 -2.6175
 8860SOL    HW238040   2.321   1.270  16.194 -0.1748 -2.4452 -1.3111
 8861SOL     OW38041   2.873   0.146   9.362  0.3822 -0.1092  0.0994
 8861SOL    HW138042   2.857   0.174   9.452  1.4069  0.4029  0.1129
 8861SOL    HW238043   2.916   0.224   9.327  0.0179 -0.3202 -0.8103
 8862SOL     OW38044   1.015   2.368   2.925  0.1441  0.0508  0.3872
 8862SOL    HW138045   1.004   2.298   2.860 -1.1819 -1.3667  2.1184
 8862SOL    HW238046   0.931   2.358   2.970  0.8588 -2.4613  1.1726
 8863SOL     OW38047   3.330   4.006   3.157  0.5712  0.2216  0.1765
 8863SOL    HW138048   3.287   3.984   3.075 -1.0580 -1.5523  1.5386
 8863SOL    HW238049   3.316   4.101   3.160  0.3493  0.2265 -1.0502
 8864SOL     OW38050   4.551   4.565   6.267  0.5292  0.1935  0.0659
 8864SOL    HW138051   4.456   4.554   6.261 -0.0133  3.8180  1.5909
 8864SOL    HW238052   4.573   4.575   6.174 -2.2067 -0.4670 -0.6735
 8865SOL     OW38053   2.611   3.296  12.639  0.2786 -0.0580  0.7411
 8865SOL    HW138054   2.621   3.389  12.659 -2.0318 -0.0992  2.0318
 8865SOL    HW238055   2.682   3.245  12.678  0.0466 -0.2241  0.9416
 8866SOL     OW38056   0.448   0.430   2.493  0.1038  0.0766  0.6454
 8866SOL    HW138057   0.517   0.437   2.560  1.7180  1.0513 -1.1214
 8866SOL    HW238058   0.488   0.370   2.430  1.5824  2.0476 -0.2986
 8867SOL     OW38059   1.595   2.795   4.760 -0.7349  0.3082  0.2854
 8867SOL    HW138060   1.551   2.780   4.677 -1.4458  3.4805  0.0731
 8867SOL    HW238061   1.549   2.738   4.822 -0.9429 -0.4111 -0.5416
 8868SOL     OW38062   2.616   2.819   5.726  0.2659 -0.6126 -0.1739
 8868SOL    HW138063   2.692   2.762   5.723 -0.7980 -2.1660  2.0927
 8868SOL    HW238064   2.603   2.827   5.632  1.7871 -1.0408 -0.4077
 8869SOL     OW38065   1.374   2.503   3.443 -0.4032  0.6723  0.4950
 8869SOL    HW138066   1.341   2.432   3.388  0.3788 -0.1080  1.0241
 8869SOL    HW238067   1.346   2.581   3.396 -2.5090  0.7535  1.9192
 8870SOL     OW38068   0.898   4.137   0.832 -0.2835  0.6904 -0.1545
 8870SOL    HW138069   0.917   4.222   0.871 -5.0159  1.1950  0.9861
 8870SOL    HW238070   0.953   4.130   0.753  0.6961  0.1542  0.5758
 8871SOL     OW38071   3.738   2.447   0.994  0.1526 -0.4443  0.9014
 8871SOL    HW138072   3.648   2.481   0.994  0.6314  0.8411 -0.9235
 8871SOL    HW238073   3.761   2.452   1.087  0.3561 -0.1198  0.8312
 8872SOL     OW38074   4.064   1.436   6.926 -0.3710 -0.3911  0.0898
 8872SOL    HW138075   4.008   1.503   6.887 -0.4623 -1.9019 -2.4037
 8872SOL    HW238076   4.032   1.366   6.870 -1.3918 -0.5646  0.8890
 8873SOL     OW38077   2.645   0.186  12.083 -0.1514 -0.8128 -0.7461
 8873SOL    HW138078   2.552   0.169  12.069 -0.6348  0.2513  1.1101
 8873SOL    HW238079   2.688   0.103  12.059  0.9129 -0.2841 -0.6889
 8874SOL     OW38080   0.282   3.389   9.669  0.5120  0.0904  0.1719
 8874SOL    HW138081   0.315   3.362   9.755 -1.1369 -1.2907  0.3794
 8874SOL    HW238082   0.329   3.470   9.651 -0.3354  1.0933  2.4251
 8875SOL     OW38083   1.944   0.866   5.340 -0.4256  0.1752  0.3951
 8875SOL    HW138084   2.014   0.921   5.376 -0.6901  0.8079 -0.0527
 8875SOL    HW238085   1.868   0.920   5.361  0.9620  2.0908  0.5512
 8876SOL     OW38086   1.118   4.310  13.260 -0.3843 -0.1845 -0.4852
 8876SOL    HW138087   1.168   4.246  13.209  0.4938 -0.4670  0.7307
 8876SOL    HW238088   1.100   4.381  13.198  1.0151 -1.4215 -2.2964
 8877SOL     OW38089   0.386   2.786   4.106  0.9758 -0.3119  0.1631
 8877SOL    HW138090   0.403   2.725   4.178  0.2578  0.6397  1.1411
 8877SOL    HW238091   0.473   2.826   4.103  0.3070  0.9885 -2.0202
 8878SOL     OW38092   0.544   1.105   8.375  0.8668 -0.7918  0.1072
 8878SOL    HW138093   0.570   1.063   8.457 -0.5370  0.9323  1.4527
 8878SOL    HW238094   0.449   1.107   8.388  0.9640  0.8589  0.6142
 8879SOL     OW38095   3.485   4.160   4.152  0.4665 -0.2468  0.1360
 8879SOL    HW138096   3.438   4.168   4.069  0.9476  0.5800 -0.0534
 8879SOL    HW238097   3.548   4.097   4.119 -0.8977 -2.1715  1.1878
 8880SOL     OW38098   4.318   2.400   7.058  0.1842  0.0786 -0.1981
 8880SOL    HW138099   4.381   2.386   6.987 -1.5342 -0.7231 -1.5799
 8880SOL    HW238100   4.369   2.463   7.108  1.5171 -0.7008 -0.5628
 8881SOL     OW38101   3.752   2.220   9.670  0.4695  0.1655  0.3246
 8881SOL    HW138102   3.772   2.311   9.693  2.4303 -0.7316  2.1899
 8881SOL    HW238103   3.814   2.169   9.722  0.8185  0.6656  0.4006
 8882SOL     OW38104   2.965   1.573  16.126 -0.0675 -0.1958 -0.2483
 8882SOL    HW138105   2.895   1.513  16.102  1.3276 -2.1306  0.5059
 8882SOL    HW238106   2.986   1.621  16.046  2.9136 -1.8718 -0.4579
 8883SOL     OW38107   3.250   3.588   0.596 -0.7281  0.2879 -0.3392
 8883SOL    HW138108   3.204   3.505   0.599 -0.5249  0.3320  4.3492
 8883SOL    HW238109   3.308   3.568   0.523  1.6291  0.6286  1.4413
 8884SOL     OW38110   3.195   0.419   3.671 -0.1450 -0.5126 -0.3985
 8884SOL    HW138111   3.137   0.346   3.649  0.5478 -0.6854 -1.6824
 8884SOL    HW238112   3.262   0.384   3.730 -2.1653 -0.5638  1.8581
 8885SOL     OW38113   3.795   3.455  15.036  0.5849 -0.0755  0.0324
 8885SOL    HW138114   3.795   3.506  15.117  0.2026  1.5330 -0.9725
 8885SOL    HW238115   3.699   3.457  15.035  0.5672 -0.7718  0.2470
 8886SOL     OW38116   1.582   0.968  13.223  0.0519  0.3415 -0.3577
 8886SOL    HW138117   1.646   0.962  13.152  2.2055  0.2301  1.5755
 8886SOL    HW238118   1.615   1.049  13.260  0.5134 -0.0690  0.1392
 8887SOL     OW38119   2.496   0.735  10.638  0.3752 -0.1639 -0.6940
 8887SOL    HW138120   2.525   0.825  10.650 -2.3392  0.5834  0.2617
 8887SOL    HW238121   2.583   0.695  10.642  1.1321  1.4817 -1.0138
 8888SOL     OW38122   1.875   3.276   1.608 -0.2201  0.5885 -0.0491
 8888SOL    HW138123   1.961   3.250   1.640 -1.0102 -0.6249  1.0726
 8888SOL    HW238124   1.877   3.367   1.638 -0.1085  0.8796 -0.9343
 8889SOL     OW38125   0.210   0.533   8.505 -0.0368 -0.1552 -0.1212
 8889SOL    HW138126   0.219   0.501   8.595  0.4860 -1.5621 -0.6684
 8889SOL    HW238127   0.169   0.618   8.522 -1.2056 -1.1284  1.8552
 8890SOL     OW38128   3.796   4.637   5.528 -0.0917  0.2099  0.5160
 8890SOL    HW138129   3.732   4.697   5.565  1.3794  2.0471  0.0992
 8890SOL    HW238130   3.878   4.673   5.563 -0.5038  0.3110  1.3686
 8891SOL     OW38131   4.627   3.223   8.083  0.1432 -0.2273  0.8865
 8891SOL    HW138132   4.658   3.183   8.164  0.1225 -0.8537  0.5820
 8891SOL    HW238133   4.712   3.228   8.040 -0.3363 -1.2286 -0.2059
 8892SOL     OW38134   3.278   1.389   5.609  0.1316  0.3673 -0.1063
 8892SOL    HW138135   3.191   1.358   5.636  0.3082 -0.1287 -0.0980
 8892SOL    HW238136   3.301   1.432   5.691 -0.1213 -0.8177  0.5935
 8893SOL     OW38137   3.583   1.111  14.005  0.4962  0.1151  0.0119
 8893SOL    HW138138   3.561   1.204  14.006 -0.7686 -0.1770  0.3917
 8893SOL    HW238139   3.505   1.066  13.971  0.0131 -0.0881  1.3733
 8894SOL     OW38140   3.071   4.122   2.802 -0.3255 -0.1826 -0.0838
 8894SOL    HW138141   3.009   4.100   2.733  0.0147  0.8281 -0.7166
 8894SOL    HW238142   3.011   4.177   2.853 -0.1720 -0.9190  0.8801
 8895SOL     OW38143   0.225   1.345   3.795  0.0525 -0.2847 -0.0875
 8895SOL    HW138144   0.299   1.406   3.796  1.5162 -2.0425 -0.5565
 8895SOL    HW238145   0.199   1.346   3.887 -3.1271  3.7004 -1.0792
 8896SOL     OW38146   1.066   1.077  16.023 -0.0491  1.0145 -0.3748
 8896SOL    HW138147   1.125   1.118  15.959 -3.5044  2.3389 -2.7449
 8896SOL    HW238148   1.048   0.994  15.979  2.1540  1.0504 -1.3310
 8897SOL     OW38149   3.068   1.450  13.756  0.2361 -0.2854 -0.6051
 8897SOL    HW138150   3.138   1.401  13.713  0.1238  0.7590 -1.9805
 8897SOL    HW238151   3.069   1.531  13.705  2.1013 -1.3262 -2.2059
 8898SOL     OW38152   4.374   2.999   0.120  0.3302  0.5875  1.0011
 8898SOL    HW138153   4.331   3.039   0.195  0.9911  0.7789  1.2765
 8898SOL    HW238154   4.442   3.064   0.102  0.4471 -0.1270 -1.1359
 8899SOL     OW38155   0.902   0.584   9.565  0.1887 -0.5998 -1.0601
 8899SOL    HW138156   0.925   0.558   9.475  1.1353  0.0220 -0.9943
 8899SOL    HW238157   0.849   0.509   9.593 -1.0910  0.5640 -0.3801
 8900SOL     OW38158   3.663   0.113   5.242  0.2008 -0.0858 -0.9782
 8900SOL    HW138159   3.750   0.072   5.233 -0.2473 -1.0152 -1.0829
 8900SOL    HW238160   3.598   0.054   5.204 -1.4609  1.6070 -0.7424
 8901SOL     OW38161   4.429   2.737   5.184  0.1425 -0.1141 -0.2603
 8901SOL    HW138162   4.399   2.723   5.273 -0.8381  1.9686 -0.2709
 8901SOL    HW238163   4.518   2.703   5.183 -0.7685 -2.5899  1.6340
 8902SOL     OW38164   1.612   1.543  16.628  0.2733  0.2240  0.0725
 8902SOL    HW138165   1.528   1.586  16.643  0.0721 -0.1641  0.0605
 8902SOL    HW238166   1.611   1.518  16.536 -0.7515 -1.4081  0.5233
 8903SOL     OW38167   3.298   1.533   1.590  0.2875 -0.1597 -0.2159
 8903SOL    HW138168   3.271   1.609   1.539 -0.1746  0.7146  1.3334
 8903SOL    HW238169   3.356   1.572   1.655 -0.8071  2.2390 -0.6770
 8904SOL     OW38170   3.402   1.625   2.699 -0.7678  0.3562  0.1701
 8904SOL    HW138171   3.468   1.590   2.640 -0.0649 -1.3552  1.9621
 8904SOL    HW238172   3.416   1.719   2.691 -2.4899  0.7085  1.1274
 8905SOL     OW38173   0.679   3.484  13.477 -0.1090 -0.4387  0.5901
 8905SOL    HW138174   0.734   3.443  13.544 -0.6657  1.5264  2.2941
 8905SOL    HW238175   0.603   3.503  13.532 -0.0474 -0.0762  0.5498
 8906SOL     OW38176   4.662   2.669   4.968 -1.0538 -0.2527 -0.2784
 8906SOL    HW138177   4.680   2.750   4.921  0.2902  1.5787  3.3646
 8906SOL    HW238178   0.003   2.686   5.037 -1.3406 -0.3753  0.0143
 8907SOL     OW38179   1.001   3.045   3.994  0.0410 -0.3250 -0.7093
 8907SOL    HW138180   1.005   3.139   3.980 -2.2725  0.2839  2.7245
 8907SOL    HW238181   0.941   3.016   3.926  0.1289  1.3753 -1.5121
 8908SOL     OW38182   2.851   3.114   5.174  0.4973  0.3510 -0.6507
 8908SOL    HW138183   2.839   3.209   5.167  2.0181  0.5281 -0.7417
 8908SOL    HW238184   2.943   3.120   5.201  0.4932 -0.7396 -0.3785
 8909SOL     OW38185   1.076   4.438   1.666  0.8273  0.1040 -0.4436
 8909SOL    HW138186   1.111   4.353   1.691  0.9955  0.2529 -0.1609
 8909SOL    HW238187   1.157   4.475   1.633  0.1336  1.2602 -0.8530
 8910SOL     OW38188   4.039   1.656  11.161  0.6749 -0.0077  0.1192
 8910SOL    HW138189   4.059   1.598  11.234  0.8905 -0.9227 -0.6608
 8910SOL    HW238190   4.127   1.690  11.141  1.1252 -0.8345  0.6792
 8911SOL     OW38191   0.195   0.508   2.568 -0.6553  0.0648 -0.4471
 8911SOL    HW138192   0.205   0.602   2.585 -0.0440  0.1170 -1.0832
 8911SOL    HW238193   0.284   0.486   2.541 -0.7426 -3.1520  1.9538
 8912SOL     OW38194   2.343   0.106   8.138  0.1044 -0.6817 -1.1432
 8912SOL    HW138195   2.340   0.151   8.222  1.5831 -1.9812 -0.3711
 8912SOL    HW238196   2.356   0.013   8.161 -2.4789 -0.8784 -0.5111
 8913SOL     OW38197   1.359   2.433  10.234 -0.0865 -0.7919  0.1598
 8913SOL    HW138198   1.436   2.484  10.259 -1.0196  1.0273 -0.7404
 8913SOL    HW238199   1.410   2.358  10.201 -0.1704 -0.4417 -0.7434
 8914SOL     OW38200   2.983   1.709  17.546 -0.5406 -0.0131 -0.1697
 8914SOL    HW138201   3.035   1.789  17.544 -0.7661  0.1464  0.4036
 8914SOL    HW238202   3.013   1.663  17.467  1.8866 -0.8764  1.2466
 8915SOL     OW38203   0.450   0.426  16.144 -0.4130  0.2361  0.1915
 8915SOL    HW138204   0.356   0.431  16.160 -0.4183 -1.0924  0.5853
 8915SOL    HW238205   0.482   0.516  16.139  1.5693 -0.6339 -2.6019
 8916SOL     OW38206   4.366   4.304   8.665  0.1378  0.0581 -0.6884
 8916SOL    HW138207   4.395   4.337   8.750 -1.6993  1.2138 -0.5114
 8916SOL    HW238208   4.280   4.343   8.650  1.3034  2.1315 -1.9577
 8917SOL     OW38209   3.855   2.935  14.448 -0.1750 -0.5786  0.1691
 8917SOL    HW138210   3.949   2.929  14.434 -0.4080  0.0539 -1.7133
 8917SOL    HW238211   3.846   2.928  14.543 -1.7209 -1.7790 -0.0666
 8918SOL     OW38212   4.177   4.066   4.431 -0.2181 -0.2406 -0.1502
 8918SOL    HW138213   4.164   4.073   4.336  0.2400 -1.4987 -0.3152
 8918SOL    HW238214   4.119   4.000   4.469  0.1146 -0.0423  0.7018
 8919SOL     OW38215   0.299   0.429   3.022  0.2189  1.0959  0.2994
 8919SOL    HW138216   0.330   0.518   3.009  1.8334  0.7102  1.5222
 8919SOL    HW238217   0.228   0.457   3.079 -0.4782 -1.9408  0.9230
 8920SOL     OW38218   3.786   2.682   6.660  0.0388 -0.1571 -0.3821
 8920SOL    HW138219   3.742   2.767   6.653  0.2841  0.1703  1.8729
 8920SOL    HW238220   3.825   2.663   6.575 -1.6275 -1.2443 -0.8916
 8921SOL     OW38221   1.986   4.515   0.665  0.2223 -0.2534  0.5397
 8921SOL    HW138222   2.006   4.503   0.572  1.4790 -0.1813  0.8091
 8921SOL    HW238223   1.903   4.467   0.665  0.3844 -0.5475 -0.6103
 8922SOL     OW38224   4.633   3.908   4.723 -0.3133 -0.2109  0.4534
 8922SOL    HW138225   4.677   3.922   4.807  0.2010 -1.0810  0.3350
 8922SOL    HW238226   4.548   3.950   4.735 -0.7086 -1.1708  1.0502
 8923SOL     OW38227   4.676   3.079  17.687 -0.5144  0.3254  0.1862
 8923SOL    HW138228   0.011   3.005   0.009 -0.3327  1.0529  3.0327
 8923SOL    HW238229   4.628   3.053  17.609  0.4491 -0.9782  0.0213
 8924SOL     OW38230   1.234   4.191   2.820 -0.1773  0.5624 -0.2285
 8924SOL    HW138231   1.159   4.134   2.841 -0.9085  0.6205 -2.7430
 8924SOL    HW238232   1.204   4.278   2.847  0.6193  1.4233 -2.1161
 8925SOL     OW38233   3.810   2.865  15.390  0.2583  0.0396  0.2866
 8925SOL    HW138234   3.717   2.846  15.401 -0.0452  1.7976  0.7893
 8925SOL    HW238235   3.800   2.928  15.318 -1.1792  1.3545  1.6538
 8926SOL     OW38236   4.084   2.533   7.439 -0.1170  0.0280 -0.1662
 8926SOL    HW138237   4.151   2.489   7.386 -0.1688 -0.6478  0.3352
 8926SOL    HW238238   4.098   2.622   7.407  0.6698 -0.6320 -1.6687
 8927SOL     OW38239   1.319   0.477   3.272 -0.1045 -0.8854  0.0274
 8927SOL    HW138240   1.245   0.536   3.287 -1.4596 -2.5413 -0.1053
 8927SOL    HW238241   1.332   0.498   3.179 -0.7575  1.0496  0.3740
 8928SOL     OW38242   3.788   3.729   4.431  0.6519 -0.5865 -0.1348
 8928SOL    HW138243   3.739   3.761   4.356  0.8335 -1.7056 -0.7112
 8928SOL    HW238244   3.744   3.781   4.499  0.1125  2.5431 -2.8656
 8929SOL     OW38245   2.510   0.419   8.112  0.5830  0.5750  0.4029
 8929SOL    HW138246   2.594   0.378   8.134 -0.1053 -0.9512  0.2049
 8929SOL    HW238247   2.538   0.509   8.098  1.1008 -0.1698 -3.3826
 8930SOL     OW38248   0.216   3.986   8.281 -0.0707 -0.0043 -0.0603
 8930SOL    HW138249   0.204   3.897   8.313  0.1918  0.2817  0.8502
 8930SOL    HW238250   0.137   4.026   8.318 -1.1718 -1.4786 -0.8454
 8931SOL     OW38251   1.157   4.172   6.696 -0.2553  0.3140  0.2875
 8931SOL    HW138252   1.146   4.078   6.701  0.3463  0.1246 -2.0996
 8931SOL    HW238253   1.220   4.175   6.624  0.5289 -0.3745  0.9461
 8932SOL     OW38254   4.470   0.921  10.080  0.1129 -0.0068 -0.6010
 8932SOL    HW138255   4.387   0.880  10.103 -0.1917  0.1968 -1.3365
 8932SOL    HW238256   4.460   1.002  10.129  1.2787  0.9672 -1.9941
 8933SOL     OW38257   4.504   4.087   6.855 -0.3950  0.3294  0.2233
 8933SOL    HW138258   4.469   4.089   6.766 -1.1506  2.1596  0.5484
 8933SOL    HW238259   4.595   4.062   6.840  0.0242  1.8629  0.1463
 8934SOL     OW38260   0.661   0.179  15.346 -0.1544 -0.0983 -0.1684
 8934SOL    HW138261   0.745   0.182  15.299  0.7360  0.6097  1.4562
 8934SOL    HW238262   0.677   0.213  15.434 -1.2342  0.2608 -0.1218
 8935SOL     OW38263   1.827   1.757   6.971 -0.0514  0.4539  0.5557
 8935SOL    HW138264   1.802   1.679   7.021 -1.4331 -0.0974 -1.0153
 8935SOL    HW238265   1.796   1.728   6.886  0.5298 -0.0267  0.5125
 8936SOL     OW38266   2.424   2.724   2.971  0.0384  0.1124  0.8841
 8936SOL    HW138267   2.367   2.677   2.911  1.9646 -0.2935 -0.6526
 8936SOL    HW238268   2.487   2.663   3.008  1.1404 -0.7103 -2.2987
 8937SOL     OW38269   3.463   1.608   1.833 -0.1243  0.1705  0.2653
 8937SOL    HW138270   3.476   1.519   1.864 -2.0911 -0.4216 -0.5767
 8937SOL    HW238271   3.553   1.637   1.848  0.3767 -1.9034  1.2421
 8938SOL     OW38272   1.021   0.514   4.322  0.5121  0.3574  0.2441
 8938SOL    HW138273   1.054   0.473   4.243 -1.9018  1.7260 -1.4861
 8938SOL    HW238274   0.971   0.438   4.351 -0.1530 -0.1351 -2.2328
 8939SOL     OW38275   3.123   2.974   5.592 -0.5711 -0.3191 -0.1452
 8939SOL    HW138276   3.161   2.893   5.626  0.5734  0.3550  0.1558
 8939SOL    HW238277   3.143   3.034   5.663  2.1582 -1.3471 -0.0459
 8940SOL     OW38278   1.459   4.220   7.423  0.4297 -1.0377 -0.4563
 8940SOL    HW138279   1.405   4.172   7.486 -1.4871  1.9907  0.1657
 8940SOL    HW238280   1.402   4.194   7.351 -0.5684  1.6275 -0.6174
 8941SOL     OW38281   4.121   2.455   8.426 -0.3377 -0.1593  0.0366
 8941SOL    HW138282   4.060   2.523   8.399  1.3374  1.6362  0.7875
 8941SOL    HW238283   4.189   2.454   8.359  0.4590 -1.2119  0.8552
 8942SOL     OW38284   0.952   2.939   8.286 -0.2062  0.0651  0.5539
 8942SOL    HW138285   1.035   2.957   8.243  0.6316 -0.3184  2.0360
 8942SOL    HW238286   0.953   2.846   8.264  0.8185  0.3617 -0.6641
 8943SOL     OW38287   0.333   0.669   5.669 -0.8008 -0.0545 -0.1382
 8943SOL    HW138288   0.311   0.577   5.684  0.3151 -0.1975  0.6415
 8943SOL    HW238289   0.291   0.685   5.585 -0.8178 -0.4466 -0.2049
 8944SOL     OW38290   0.482   3.947  10.176  0.2539  0.3818  0.0533
 8944SOL    HW138291   0.534   4.025  10.196 -0.4667  0.7789  0.3495
 8944SOL    HW238292   0.422   3.992  10.117 -1.9569 -2.8446 -0.1235
 8945SOL     OW38293   4.550   2.641   1.937 -0.0223 -0.1898 -0.4471
 8945SOL    HW138294   4.642   2.638   1.910  0.8094  2.0217  2.0675
 8945SOL    HW238295   4.549   2.691   2.019  0.8284 -0.7083 -0.1215
 8946SOL     OW38296   3.717   3.012   3.558 -0.1967 -0.5133 -0.2263
 8946SOL    HW138297   3.681   3.078   3.617 -3.0726 -1.8089 -0.5174
 8946SOL    HW238298   3.808   3.008   3.588 -0.6511  1.0861  1.2846
 8947SOL     OW38299   0.553   1.794  14.718  0.0178 -0.0319  0.0626
 8947SOL    HW138300   0.472   1.817  14.763 -0.5941 -0.5738 -0.7748
 8947SOL    HW238301   0.616   1.804  14.789  3.4647  1.3701 -3.2088
 8948SOL     OW38302   1.511   1.524   6.527 -0.6254  0.4702  0.4553
 8948SOL    HW138303   1.439   1.541   6.466 -1.7563  0.1687  1.7230
 8948SOL    HW238304   1.513   1.429   6.511  0.2095  0.3775  1.1556
 8949SOL     OW38305   0.842   2.278  11.906  0.2011  0.6402 -0.3781
 8949SOL    HW138306   0.883   2.349  11.954 -0.8945 -0.2717  1.9421
 8949SOL    HW238307   0.754   2.313  11.890  0.9536  3.1963  1.0694
 8950SOL     OW38308   3.708   0.506   5.709 -0.4642  0.4101  0.1790
 8950SOL    HW138309   3.645   0.508   5.781 -0.6563 -0.5611  0.0374
 8950SOL    HW238310   3.778   0.557   5.749 -0.5219  1.2155 -0.7414
 8951SOL     OW38311   2.803   2.233   7.556  0.6666  0.3706  0.7190
 8951SOL    HW138312   2.740   2.252   7.626 -0.0502 -0.6465  0.3492
 8951SOL    HW238313   2.861   2.304   7.584  0.2951  1.5418 -1.4584
 8952SOL     OW38314   0.370   3.668  12.969 -0.3863  0.4337 -0.5232
 8952SOL    HW138315   0.333   3.658  13.056  0.4446 -2.9694 -0.5475
 8952SOL    HW238316   0.415   3.752  12.975 -1.9391  1.0533  2.3686
 8953SOL     OW38317   3.321   2.411   8.333  0.1453  0.5566  0.0262
 8953SOL    HW138318   3.266   2.341   8.298 -0.3132  0.4827  0.8917
 8953SOL    HW238319   3.257   2.482   8.341  1.2327  1.5912 -0.5482
 8954SOL     OW38320   4.167   3.625   8.025 -0.6332  0.2394  0.5653
 8954SOL    HW138321   4.192   3.657   7.938  0.9838  0.1773  1.0049
 8954SOL    HW238322   4.165   3.533   8.001 -1.5742  0.2026  0.7656
 8955SOL     OW38323   4.074   0.761   6.829 -0.2395  0.0158 -0.6344
 8955SOL    HW138324   4.127   0.739   6.906 -0.5580 -0.6935 -0.6185
 8955SOL    HW238325   4.000   0.797   6.878  0.0270 -0.8453  0.4060
 8956SOL     OW38326   1.182   1.118   1.029 -0.4087 -0.1302 -0.1267
 8956SOL    HW138327   1.116   1.070   1.080 -0.7224  0.2137 -0.2054
 8956SOL    HW238328   1.200   1.053   0.962  1.3452  0.8246 -0.5859
 8957SOL     OW38329   0.430   0.119   3.617  0.1478 -0.0215 -0.3762
 8957SOL    HW138330   0.430   0.151   3.527  2.7248  1.4354  0.1655
 8957SOL    HW238331   0.514   0.075   3.616 -0.3416 -1.0096  1.3272
 8958SOL     OW38332   4.517   3.002   5.081 -0.1225 -0.2119  0.4161
 8958SOL    HW138333   4.434   3.043   5.057  0.6345  0.0277 -1.7285
 8958SOL    HW238334   4.498   2.908   5.084  0.8561 -0.4634 -1.5454
 8959SOL     OW38335   4.234   3.719   9.024 -0.3049 -0.4062 -0.7516
 8959SOL    HW138336   4.234   3.731   9.119  1.3054 -0.0075 -0.7895
 8959SOL    HW238337   4.313   3.665   9.014 -0.8634 -1.3546 -0.0357
 8960SOL     OW38338   2.468   1.012   2.417  0.3157 -0.3949  0.5071
 8960SOL    HW138339   2.547   1.026   2.364 -0.5267  2.1192 -0.0736
 8960SOL    HW238340   2.491   1.080   2.481 -0.8298 -0.3294  0.8385
 8961SOL     OW38341   3.728   1.838   9.618 -0.2191 -0.5886  0.4299
 8961SOL    HW138342   3.750   1.827   9.710 -0.3466 -1.8158  0.3170
 8961SOL    HW238343   3.772   1.763   9.578 -0.6498  0.2096 -1.5295
 8962SOL     OW38344   1.119   2.831  12.586 -0.6613  0.1869  0.0304
 8962SOL    HW138345   1.132   2.807  12.494  0.7483  1.0965 -0.0188
 8962SOL    HW238346   1.038   2.881  12.576 -1.1967 -0.3049  2.1080
 8963SOL     OW38347   0.564   2.473   5.795 -0.3321 -0.2138  0.0660
 8963SOL    HW138348   0.583   2.433   5.880  0.8042 -1.5924 -0.8464
 8963SOL    HW238349   0.550   2.393   5.744  1.5020 -2.4969  3.1419
 8964SOL     OW38350   1.227   1.183   7.558 -0.0087  0.5245  0.4499
 8964SOL    HW138351   1.247   1.221   7.472 -0.8588 -1.7042 -0.7324
 8964SOL    HW238352   1.277   1.104   7.540  0.0178  0.3221  1.4315
 8965SOL     OW38353   3.038   0.314  16.020  0.1359 -0.2847 -0.3226
 8965SOL    HW138354   3.052   0.396  15.973  1.7514  0.6325  1.7600
 8965SOL    HW238355   3.081   0.248  15.965 -0.2036 -0.6643 -0.1352
 8966SOL     OW38356   2.623   3.279  13.664  0.2313  0.6598  0.6019
 8966SOL    HW138357   2.568   3.214  13.620 -0.8074  1.0248  1.3772
 8966SOL    HW238358   2.574   3.360  13.660 -0.8760  0.0656  2.2545
 8967SOL     OW38359   1.731   1.843   6.017 -0.0367  0.2344  0.6070
 8967SOL    HW138360   1.773   1.789   5.949  3.3390  0.3492  2.6085
 8967SOL    HW238361   1.802   1.855   6.080 -0.1908  1.4724  0.5353
 8968SOL     OW38362   2.201   2.837   4.527 -0.0169 -0.0107  0.9422
 8968SOL    HW138363   2.212   2.826   4.621  0.5474  1.5053  1.0435
 8968SOL    HW238364   2.110   2.807   4.523  0.1596 -0.6412  1.6962
 8969SOL     OW38365   4.151   2.657   1.000 -0.1962 -0.5468  0.1538
 8969SOL    HW138366   4.073   2.676   1.053  0.3479  0.8591  0.4353
 8969SOL    HW238367   4.226   2.682   1.054 -0.6648  2.6199 -0.6794
 8970SOL     OW38368   3.160   0.004  13.223  0.1487  0.4168  0.7667
 8970SOL    HW138369   3.176   0.032  13.133 -0.9448  0.5717  0.6106
 8970SOL    HW238370   3.066   0.023  13.223 -0.5236 -2.9001  1.3825
 8971SOL     OW38371   4.357   1.636   5.835 -0.3823 -0.2028  0.0112
 8971SOL    HW138372   4.275   1.677   5.808  0.3968  0.2343 -1.6775
 8971SOL    HW238373   4.406   1.624   5.754 -2.2879 -0.7194 -1.0625
 8972SOL     OW38374   2.347   1.429  17.084 -0.2628 -0.5372  0.2014
 8972SOL    HW138375   2.296   1.488  17.029  0.1653 -0.4952 -0.1510
 8972SOL    HW238376   2.420   1.473  17.127 -0.4425  0.1537 -0.2056
 8973SOL     OW38377   2.298   3.018  12.466  0.7129  0.4755  0.3514
 8973SOL    HW138378   2.226   3.073  12.497  0.6308  2.1028 -2.7418
 8973SOL    HW238379   2.321   2.970  12.546 -1.5817 -0.3299  0.5446
 8974SOL     OW38380   4.608   3.047   2.393  0.5096 -0.9160  0.1433
 8974SOL    HW138381   4.614   3.110   2.322 -0.4612  0.2536  1.0788
 8974SOL    HW238382   4.701   3.036   2.410  0.6402  0.0343  0.0376
 8975SOL     OW38383   2.459   3.429   0.903  0.5103  0.0486 -0.3825
 8975SOL    HW138384   2.462   3.444   0.809  1.2384 -1.1869 -0.5552
 8975SOL    HW238385   2.484   3.337   0.910 -0.1870  0.0800  2.5309
 8976SOL     OW38386   2.502   1.519   8.971 -0.0483  0.2301 -0.3845
 8976SOL    HW138387   2.545   1.433   8.964  0.6313  0.7214 -2.3585
 8976SOL    HW238388   2.434   1.495   9.033  0.3650 -1.2698 -0.5061
 8977SOL     OW38389   2.828   4.625  14.101  0.5741  0.1404  0.1015
 8977SOL    HW138390   2.733   4.618  14.094  0.5016  0.7032  0.5166
 8977SOL    HW238391   2.849   4.532  14.092  1.2949  0.3566 -0.4870
 8978SOL     OW38392   4.429   4.020   8.588 -0.4108 -0.6433 -0.3271
 8978SOL    HW138393   4.397   4.080   8.521 -0.4388 -2.4288 -1.9365
 8978SOL    HW238394   4.464   4.079   8.654 -1.1598 -1.1484  0.5224
 8979SOL     OW38395   2.772   1.012   7.865 -0.1472 -0.4010  0.0786
 8979SOL    HW138396   2.696   1.008   7.923  1.0692 -0.5350  1.6581
 8979SOL    HW238397   2.737   1.082   7.811  0.9880 -1.9769 -2.7055
 8980SOL     OW38398   0.285   0.370   7.470  0.3624  0.2071 -0.6121
 8980SOL    HW138399   0.336   0.408   7.541  0.4024 -2.6023  0.8401
 8980SOL    HW238400   0.204   0.363   7.521  2.2026 -2.6590  1.8610
 8981SOL     OW38401   0.436   3.672   4.419  0.3987  0.2312 -0.0393
 8981SOL    HW138402   0.493   3.748   4.404  2.0419 -0.4385  2.8913
 8981SOL    HW238403   0.374   3.709   4.483 -0.6331  1.8598 -1.9606
 8982SOL     OW38404   1.757   3.781   7.194 -0.5462  0.0157 -0.0020
 8982SOL    HW138405   1.776   3.736   7.111 -1.9780  1.5551 -1.1535
 8982SOL    HW238406   1.827   3.748   7.250  1.4084  0.6666 -2.0590
 8983SOL     OW38407   1.411   3.694   7.967 -0.2532  0.1517 -0.1779
 8983SOL    HW138408   1.466   3.695   8.046 -0.1009  1.9878 -0.3237
 8983SOL    HW238409   1.326   3.677   8.007  0.3820  2.3829  2.0938
 8984SOL     OW38410   0.727   0.911   1.405 -0.0038 -0.2682  0.0735
 8984SOL    HW138411   0.691   0.836   1.359  0.2938 -0.1757 -0.3070
 8984SOL    HW238412   0.659   0.976   1.390  0.0441 -0.1178  0.5052
 8985SOL     OW38413   3.049   2.368   0.346  0.0342 -0.1024 -0.1074
 8985SOL    HW138414   3.030   2.443   0.402  2.4274  1.6321 -1.6119
 8985SOL    HW238415   3.142   2.360   0.367 -0.1999  2.2664  1.8137
 8986SOL     OW38416   2.567   0.944   7.575 -0.0474  0.1723  0.5990
 8986SOL    HW138417   2.589   0.893   7.653  0.0447 -1.5628 -0.5644
 8986SOL    HW238418   2.488   0.990   7.604  0.9267  0.4520  2.8716
 8987SOL     OW38419   0.064   0.009   3.006  0.7998  0.4007 -0.3585
 8987SOL    HW138420   0.008   4.672   3.057  0.4941  0.9065 -0.0979
 8987SOL    HW238421   0.042   4.703   2.917  0.7475  2.1140 -0.9047
 8988SOL     OW38422   3.885   4.694  14.272 -0.4563 -0.1157 -0.2608
 8988SOL    HW138423   3.884   4.605  14.236 -2.7297 -0.4528  0.6599
 8988SOL    HW238424   3.848   0.019  14.197 -1.3542 -1.2805 -0.5595
 8989SOL     OW38425   0.631   0.136   6.327 -0.1887  0.1153 -0.5754
 8989SOL    HW138426   0.651   0.112   6.417  1.3410  1.3263 -0.5956
 8989SOL    HW238427   0.638   0.231   6.329  2.4794 -0.1524  1.6829
 8990SOL     OW38428   2.749   2.538   1.568  0.1561  0.6359 -0.0829
 8990SOL    HW138429   2.725   2.446   1.574  0.6434  0.4439 -1.0605
 8990SOL    HW238430   2.685   2.570   1.632  0.8914  1.7061  0.1254
 8991SOL     OW38431   3.703   1.753   1.872 -0.0533 -0.0152 -0.3151
 8991SOL    HW138432   3.671   1.832   1.915  0.4084 -1.4429  2.6555
 8991SOL    HW238433   3.784   1.773   1.824  0.3880  3.2111  1.8070
 8992SOL     OW38434   0.481   4.720   0.178  0.4367 -0.0013  0.2285
 8992SOL    HW138435   0.426   0.064   0.219 -0.1702  1.2932 -2.6582
 8992SOL    HW238436   0.562   0.041   0.153 -0.4895  1.3710 -0.4421
 8993SOL     OW38437   0.246   4.575   5.044 -0.2179  0.1845 -0.2264
 8993SOL    HW138438   0.187   4.650   5.051 -0.1352  0.2938 -0.6992
 8993SOL    HW238439   0.325   4.617   5.079 -0.9569  0.9058  0.5974
 8994SOL     OW38440   1.779   3.923   8.607  0.8494 -0.2368 -0.1641
 8994SOL    HW138441   1.834   3.906   8.684 -1.3022 -0.4697  1.3041
 8994SOL    HW238442   1.712   3.856   8.620  1.2685 -0.7108 -0.4296
 8995SOL     OW38443   4.594   3.555  10.212 -0.0083  0.3837  0.4476
 8995SOL    HW138444   4.616   3.468  10.180  1.9528  0.7764  0.7017
 8995SOL    HW238445   4.668   3.606  10.178 -1.4553  0.1896 -3.0320
 8996SOL     OW38446   2.048   1.439  15.189  0.1921  0.0889  0.2220
 8996SOL    HW138447   2.066   1.532  15.203 -1.8129  0.8002 -1.9044
 8996SOL    HW238448   2.124   1.422  15.133  0.1287 -0.4783  0.3094
 8997SOL     OW38449   2.029   3.203   3.850  0.0745  0.0675 -0.3813
 8997SOL    HW138450   1.992   3.206   3.938 -1.3575 -0.9415 -0.9461
 8997SOL    HW238451   2.043   3.295   3.829  1.9930  0.1929  1.4222
 8998SOL     OW38452   1.997   4.715   2.579  0.2680  0.1133 -0.2144
 8998SOL    HW138453   2.066   4.665   2.623 -0.4103 -2.6011 -2.1967
 8998SOL    HW238454   2.006   0.067   2.637  1.1851  1.1235 -1.6781
 8999SOL     OW38455   1.914   0.679   2.754  0.3998  0.3584 -0.2190
 8999SOL    HW138456   1.885   0.655   2.667  0.0988  0.1272 -0.0540
 8999SOL    HW238457   2.007   0.691   2.732  0.9035 -1.9352  0.7019
 9000SOL     OW38458   2.361   4.513   5.444 -0.0114 -0.1881 -0.3363
 9000SOL    HW138459   2.398   4.599   5.426  1.1374 -0.2143  1.8828
 9000SOL    HW238460   2.278   4.520   5.396  0.7846 -3.4534 -2.2207
 9001SOL     OW38461   0.107   3.143   2.626  0.1883 -0.1213  0.2705
 9001SOL    HW138462   0.194   3.182   2.632  1.2297 -2.5655  0.9358
 9001SOL    HW238463   0.124   3.050   2.638 -0.6085 -0.2424  0.4448
 9002SOL     OW38464   3.912   4.649   6.394 -0.0471  0.3042 -0.1987
 9002SOL    HW138465   3.871   4.570   6.359  1.1541 -1.3468  2.1187
 9002SOL    HW238466   3.966   4.618   6.467 -2.8936 -1.8653  0.9900
 9003SOL     OW38467   0.184   3.366   4.157 -0.0118  0.3307 -0.1212
 9003SOL    HW138468   0.206   3.288   4.106  0.1006  0.5158 -0.3553
 9003SOL    HW238469   0.249   3.365   4.226  1.1108 -0.0916 -1.1922
 9004SOL     OW38470   3.700   1.236   1.462 -0.1276 -0.0505  0.3728
 9004SOL    HW138471   3.722   1.284   1.542 -0.3444 -2.9425  2.1671
 9004SOL    HW238472   3.787   1.201   1.443 -0.7070 -0.3663 -1.7375
 9005SOL     OW38473   3.814   2.691   2.652 -0.2760 -0.1843 -0.3710
 9005SOL    HW138474   3.841   2.643   2.574 -0.5507  0.0120 -0.5856
 9005SOL    HW238475   3.856   2.652   2.729 -1.1759  1.3493  0.8989
 9006SOL     OW38476   1.314   1.122  15.610  0.5397  0.0858  0.3283
 9006SOL    HW138477   1.403   1.132  15.577  0.4181 -0.8558 -0.3030
 9006SOL    HW238478   1.277   1.072  15.537 -2.0809  0.6042  1.3165
 9007SOL     OW38479   4.172   3.918   2.840  0.4338  0.2890  0.4201
 9007SOL    HW138480   4.196   3.828   2.818  2.3393  0.9183 -0.0791
 9007SOL    HW238481   4.079   3.904   2.820 -0.5396  3.3308  2.6803
 9008SOL     OW38482   0.963   0.857  13.293 -0.1774 -0.2455  0.1389
 9008SOL    HW138483   1.037   0.797  13.287 -1.6715 -2.6012  5.1358
 9008SOL    HW238484   0.969   0.895  13.381  2.0210 -0.8849  0.2647
 9009SOL     OW38485   3.901   4.484   1.411  0.0472 -0.5943 -0.1261
 9009SOL    HW138486   3.829   4.424   1.396 -0.6605 -0.1651  1.5656
 9009SOL    HW238487   3.871   4.527   1.491 -3.7606 -2.5642 -0.4935
 9010SOL     OW38488   1.473   1.305   5.889 -0.3059  0.1163  0.4464
 9010SOL    HW138489   1.535   1.363   5.845 -0.1025  1.0697  1.9945
 9010SOL    HW238490   1.397   1.362   5.890  0.6971  1.4488  0.2735
 9011SOL     OW38491   4.163   0.271   3.314  0.2112 -0.1152  0.3767
 9011SOL    HW138492   4.251   0.293   3.346  0.1234 -0.0809  0.5978
 9011SOL    HW238493   4.114   0.284   3.396  0.9423  0.4046  0.7323
 9012SOL     OW38494   4.373   2.479  13.843  0.3655 -0.0452 -0.5926
 9012SOL    HW138495   4.426   2.427  13.903  0.7904  0.0852 -0.8615
 9012SOL    HW238496   4.381   2.435  13.758 -1.3933  1.8519 -1.7522
 9013SOL     OW38497   3.197   2.492   5.346  1.0477  0.1603  0.4635
 9013SOL    HW138498   3.137   2.434   5.392 -0.6553  1.8077  0.3287
 9013SOL    HW238499   3.271   2.434   5.327  2.1898  1.3708  1.1962
 9014SOL     OW38500   4.236   2.677   8.621 -0.2803  0.3000 -0.4222
 9014SOL    HW138501   4.222   2.583   8.623  0.0778  0.2337 -1.1875
 9014SOL    HW238502   4.252   2.696   8.529  1.5549 -0.3940 -0.2313
 9015SOL     OW38503   3.892   0.470  16.096 -0.2859 -0.2702 -0.1685
 9015SOL    HW138504   3.966   0.428  16.140 -2.4759 -2.1213  1.7120
 9015SOL    HW238505   3.830   0.460  16.169  0.1013  2.3430  0.5311
 9016SOL     OW38506   3.026   2.047   6.329  0.1685  0.2830  0.4907
 9016SOL    HW138507   2.960   2.082   6.269  1.0314 -0.1769 -0.7385
 9016SOL    HW238508   2.999   1.956   6.342 -2.3936  0.6079 -2.5637
 9017SOL     OW38509   1.071   0.414  12.464  0.0087  0.1457  0.9215
 9017SOL    HW138510   1.081   0.378  12.552  0.9756 -1.6857  0.0401
 9017SOL    HW238511   1.036   0.503  12.473  1.1332  0.4805  1.9979
 9018SOL     OW38512   0.562   1.992   2.754 -0.3611 -0.1061  0.4705
 9018SOL    HW138513   0.475   1.954   2.750  0.0329 -0.7366 -1.7197
 9018SOL    HW238514   0.614   1.947   2.820  1.4617  1.6761  0.2757
 9019SOL     OW38515   2.827   2.399  10.449 -0.0037  0.4928 -0.1681
 9019SOL    HW138516   2.915   2.435  10.454  1.0733 -2.1807 -0.3114
 9019SOL    HW238517   2.848   2.306  10.445 -2.2593 -0.0707  1.0946
 9020SOL     OW38518   2.795   1.775  12.159 -0.0611  0.1522 -0.4266
 9020SOL    HW138519   2.704   1.798  12.144  0.0559  1.3026  0.6475
 9020SOL    HW238520   2.819   1.703  12.100  2.1495  0.1811  0.4217
 9021SOL     OW38521   3.828   4.503   4.095 -0.1647  0.4829  0.1613
 9021SOL    HW138522   3.761   4.448   4.135 -0.9639  1.6459  0.4190
 9021SOL    HW238523   3.791   4.590   4.107  0.7985  1.2868 -2.6627
 9022SOL     OW38524   2.371   2.921  12.721 -0.2651 -0.1601  0.2238
 9022SOL    HW138525   2.412   2.951  12.802  1.0445 -2.1956  0.3041
 9022SOL    HW238526   2.283   2.913  12.759 -0.1242  0.0490  0.5966
 9023SOL     OW38527   3.975   0.334   3.526 -0.3802 -0.1084 -0.0816
 9023SOL    HW138528   3.920   0.411   3.511 -0.6887 -0.4200 -0.5219
 9023SOL    HW238529   3.983   0.346   3.621  0.9560 -2.0309  0.0477
 9024SOL     OW38530   3.589   1.512   2.522  0.4801 -0.4052  0.0961
 9024SOL    HW138531   3.678   1.545   2.541 -0.0634 -0.0201  2.0226
 9024SOL    HW238532   3.586   1.515   2.427  0.1896  1.8258  0.1620
 9025SOL     OW38533   2.280   0.145   7.708  0.0758 -0.5705 -0.0749
 9025SOL    HW138534   2.197   0.109   7.737 -0.3134  0.7179  0.4322
 9025SOL    HW238535   2.335   0.122   7.783  1.0424  0.9633 -0.2996
 9026SOL     OW38536   0.447   2.101   4.571  0.3479  0.8015  0.2238
 9026SOL    HW138537   0.432   2.066   4.484 -0.0320 -1.4220  1.1851
 9026SOL    HW238538   0.438   2.020   4.621  2.0492  1.0629  0.9395
 9027SOL     OW38539   2.501   3.466  16.964 -0.0677  0.7971  0.1228
 9027SOL    HW138540   2.490   3.419  17.047 -1.2725  1.2870  0.2404
 9027SOL    HW238541   2.593   3.447  16.946  0.5075  3.5990  0.0889
 9028SOL     OW38542   3.096   4.175  12.478  0.3591 -0.4715 -0.5727
 9028SOL    HW138543   3.130   4.217  12.557 -2.0392  0.8590 -0.2458
 9028SOL    HW238544   3.183   4.164  12.440  0.9229  2.0847 -0.0433
 9029SOL     OW38545   3.970   0.799   8.248 -0.7606  0.3957 -0.2725
 9029SOL    HW138546   3.924   0.785   8.166 -2.2828 -0.0004  0.6521
 9029SOL    HW238547   4.037   0.866   8.232 -0.8764  0.3416 -0.9655
 9030SOL     OW38548   3.104   3.890   6.866  0.0254 -0.5509 -0.2279
 9030SOL    HW138549   3.181   3.875   6.920 -0.2411 -1.3816 -0.0799
 9030SOL    HW238550   3.048   3.947   6.918  1.8732 -0.2800  1.4695
 9031SOL     OW38551   3.434   1.832   7.919 -0.4355  0.0043  0.3449
 9031SOL    HW138552   3.498   1.776   7.875  1.6960  1.5256  1.5248
 9031SOL    HW238553   3.462   1.832   8.010 -0.0459 -1.0494  0.2265
 9032SOL     OW38554   0.260   3.021  13.941  0.0834  0.2691  0.6196
 9032SOL    HW138555   0.209   2.941  13.945 -0.3736  0.7013  3.5537
 9032SOL    HW238556   0.193   3.089  13.945 -1.2094 -0.8474 -2.3840
 9033SOL     OW38557   4.312   1.338  11.317 -0.3512  0.0239  0.6570
 9033SOL    HW138558   4.301   1.243  11.320  1.1708 -0.2201 -1.4316
 9033SOL    HW238559   4.230   1.369  11.356 -0.1196  0.8585  0.4863
 9034SOL     OW38560   3.283   4.100   9.481 -0.2184 -0.4404 -0.0928
 9034SOL    HW138561   3.265   4.190   9.510 -2.2162  0.0138 -2.7960
 9034SOL    HW238562   3.316   4.118   9.393 -1.7241 -0.5275 -0.6720
 9035SOL     OW38563   0.590   2.322  13.071 -0.0477  0.3695 -0.2788
 9035SOL    HW138564   0.520   2.275  13.026  0.0658  0.7275 -0.8259
 9035SOL    HW238565   0.554   2.410  13.074  0.6315  0.6477 -0.2883
 9036SOL     OW38566   0.394   1.093  16.083 -0.0706  0.1301 -0.0950
 9036SOL    HW138567   0.437   1.022  16.129  0.7488  0.5397 -0.2363
 9036SOL    HW238568   0.306   1.061  16.103 -0.0382  0.0319 -0.1096
 9037SOL     OW38569   4.050   2.034  14.739 -0.3132 -0.2971 -0.6556
 9037SOL    HW138570   4.023   2.125  14.727  1.9035  0.5770  0.9506
 9037SOL    HW238571   4.118   2.049  14.804  0.0747 -1.3288 -0.8239
 9038SOL     OW38572   0.989   1.500   4.529  0.2326 -0.3149 -0.1358
 9038SOL    HW138573   0.929   1.449   4.584 -1.1096 -0.4884 -1.7953
 9038SOL    HW238574   1.074   1.475   4.567 -0.0645  0.1098  0.8100
 9039SOL     OW38575   0.100   2.833   3.551  1.1136  0.1319 -0.0673
 9039SOL    HW138576   0.041   2.897   3.512  0.5340  0.1780  0.8847
 9039SOL    HW238577   0.076   2.851   3.642  0.0482 -1.3824 -0.0422
 9040SOL     OW38578   4.584   1.980  12.425  0.0165 -0.0743  0.1910
 9040SOL    HW138579   4.628   1.921  12.364  0.3652 -1.6433  1.9589
 9040SOL    HW238580   4.546   2.049  12.371 -0.7921 -0.1290  0.6946
 9041SOL     OW38581   2.535   1.815  12.097  0.4974  0.1376  0.0274
 9041SOL    HW138582   2.491   1.803  12.013  0.8241 -0.2604 -0.0836
 9041SOL    HW238583   2.475   1.882  12.129  1.4633 -0.2404  2.6008
 9042SOL     OW38584   0.229   2.413   5.455 -0.1935 -0.0123 -0.4441
 9042SOL    HW138585   0.274   2.329   5.465  1.8139  1.0926 -0.2243
 9042SOL    HW238586   0.147   2.377   5.490  0.7191 -0.6961  1.0131
 9043SOL     OW38587   0.411   0.584  16.613 -0.4016  0.0051  0.2724
 9043SOL    HW138588   0.380   0.528  16.542 -0.4630 -1.5309  1.4780
 9043SOL    HW238589   0.426   0.662  16.561 -0.5539 -0.4322 -0.4213
 9044SOL     OW38590   4.407   2.129  17.545  0.5842  0.1781  0.0106
 9044SOL    HW138591   4.322   2.102  17.580  0.1145  1.5072 -0.1228
 9044SOL    HW238592   4.375   2.210  17.506  0.0243 -0.6849 -1.3292
 9045SOL     OW38593   0.365   1.375  11.029  0.4141 -0.0826  0.3623
 9045SOL    HW138594   0.358   1.394  10.936 -1.5949  1.0397  0.7285
 9045SOL    HW238595   0.380   1.280  11.033  0.7463  0.0151  1.3931
 9046SOL     OW38596   3.838   2.594   5.588  0.0368  0.6934  0.9348
 9046SOL    HW138597   3.859   2.506   5.618 -1.8185 -0.2577 -0.5223
 9046SOL    HW238598   3.889   2.593   5.506 -1.4019  4.4300 -0.0251
 9047SOL     OW38599   1.024   2.222   3.188  0.3101  0.1321  0.3380
 9047SOL    HW138600   0.985   2.298   3.231  0.4681  1.0632 -1.1772
 9047SOL    HW238601   1.117   2.242   3.204  0.4407  1.5928 -2.2862
 9048SOL     OW38602   4.719   3.300   1.406 -0.0901  0.4378 -0.2387
 9048SOL    HW138603   4.642   3.315   1.351 -1.4862  1.0527  1.8571
 9048SOL    HW238604   4.683   3.220   1.446  0.4163  0.6408  0.6174
 9049SOL     OW38605   2.603   2.242   0.066  0.3176  0.2072 -0.5915
 9049SOL    HW138606   2.517   2.207   0.044  0.4974 -0.0768 -0.8366
 9049SOL    HW238607   2.655   2.192   0.003 -1.3084 -0.1591 -1.6299
 9050SOL     OW38608   2.574   1.417  12.095  0.4661 -0.1890  0.2021
 9050SOL    HW138609   2.585   1.330  12.133 -0.0247  0.9608  3.0272
 9050SOL    HW238610   2.558   1.400  12.002 -0.0466 -1.2849  0.4871
 9051SOL     OW38611   2.036   0.857  14.957 -0.7592  0.2534  0.6244
 9051SOL    HW138612   1.964   0.836  14.897  0.7876 -2.5608 -0.2259
 9051SOL    HW238613   2.057   0.776  15.004 -2.3187  0.6639  2.0261
 9052SOL     OW38614   0.925   0.023   8.644 -0.7956  0.3596  0.9649
 9052SOL    HW138615   0.904   4.654   8.658  1.3383 -0.3353 -0.5245
 9052SOL    HW238616   0.948   0.015   8.552  1.6946 -0.3750  1.6712
 9053SOL     OW38617   1.857   1.633   5.847  0.5702 -0.1893 -0.2943
 9053SOL    HW138618   1.860   1.612   5.753 -1.7642 -1.4045 -0.0937
 9053SOL    HW238619   1.946   1.655   5.874  0.9551 -0.6888 -1.1348
 9054SOL     OW38620   3.010   3.991   9.573  0.0687 -0.1345  0.4540
 9054SOL    HW138621   3.082   4.036   9.529 -1.0577  0.6697 -0.5865
 9054SOL    HW238622   2.964   3.963   9.494  0.4245  0.0928  0.1696
 9055SOL     OW38623   2.849   2.554   8.769 -0.4145 -0.2389  0.0343
 9055SOL    HW138624   2.770   2.501   8.779 -1.0959  1.1967  2.2989
 9055SOL    HW238625   2.914   2.496   8.807 -0.4288  1.6761  3.0148
 9056SOL     OW38626   1.536   3.788   4.559  0.5191 -0.0268 -0.1064
 9056SOL    HW138627   1.499   3.735   4.630 -0.6619  0.4020 -0.4122
 9056SOL    HW238628   1.611   3.739   4.525  1.2984  0.9985  0.0997
 9057SOL     OW38629   2.470   2.419   7.683  0.7318 -0.7725  0.8118
 9057SOL    HW138630   2.537   2.386   7.744 -0.2922 -0.8356  1.9073
 9057SOL    HW238631   2.526   2.480   7.635 -0.3405 -0.2504  0.2288
 9058SOL     OW38632   1.872   0.726  16.591  0.2956  0.4010  0.2679
 9058SOL    HW138633   1.815   0.773  16.651 -1.4602  0.1834 -1.2462
 9058SOL    HW238634   1.871   0.791  16.520  1.6203 -0.4363 -0.5214
 9059SOL     OW38635   0.081   2.118   8.332  0.0921  0.4921  0.2296
 9059SOL    HW138636   0.074   2.209   8.303 -0.9721  0.6507  1.0201
 9059SOL    HW238637   0.066   2.137   8.425  1.5812  0.9991  0.3669
 9060SOL     OW38638   1.794   3.751  12.715  0.2480 -0.0621 -0.0286
 9060SOL    HW138639   1.766   3.818  12.652  0.7822  0.5075  0.3408
 9060SOL    HW238640   1.716   3.697  12.722 -0.1771  0.4088 -1.0416
 9061SOL     OW38641   2.321   1.290  15.465  0.0815  0.1238 -0.2762
 9061SOL    HW138642   2.247   1.351  15.471 -1.0263 -1.2553 -0.0585
 9061SOL    HW238643   2.286   1.212  15.506 -1.2689  0.6581 -0.4197
 9062SOL     OW38644   4.071   0.800   2.027  0.2052  0.2942  0.0180
 9062SOL    HW138645   4.065   0.709   2.055  0.2783  0.3733  0.2890
 9062SOL    HW238646   4.068   0.847   2.110 -0.0212  1.2473 -0.5297
 9063SOL     OW38647   3.073   2.375  14.499 -0.1192 -0.0793  0.3152
 9063SOL    HW138648   3.104   2.345  14.414  4.9985 -0.1603  2.2145
 9063SOL    HW238649   3.007   2.309  14.523 -0.9750  1.0028  0.9652
 9064SOL     OW38650   1.754   4.265  12.349  0.4733  0.1730 -0.6919
 9064SOL    HW138651   1.733   4.203  12.419 -0.5128  0.2939 -0.8731
 9064SOL    HW238652   1.678   4.324  12.344  1.5248  1.4938 -1.2095
 9065SOL     OW38653   2.528   1.872   0.594  0.3027  0.0610 -0.1220
 9065SOL    HW138654   2.469   1.929   0.545 -1.0757 -0.9669  0.3396
 9065SOL    HW238655   2.484   1.787   0.588 -0.7887  0.7269 -1.4539
 9066SOL     OW38656   2.032   1.174   0.741 -0.0584 -0.3518 -0.4461
 9066SOL    HW138657   2.019   1.268   0.746  1.6577 -0.0925 -0.9877
 9066SOL    HW238658   1.976   1.138   0.809 -2.2798  0.9620 -1.5769
 9067SOL     OW38659   1.948   1.800  13.425  0.3362 -0.4846 -0.1208
 9067SOL    HW138660   1.955   1.705  13.420  3.3869 -0.3241  1.3295
 9067SOL    HW238661   1.871   1.811  13.369 -0.2406  1.3617  1.0533
 9068SOL     OW38662   0.672   2.961   6.578 -0.3002  0.8344 -0.6728
 9068SOL    HW138663   0.731   2.935   6.650 -1.5360 -0.5570 -0.1544
 9068SOL    HW238664   0.745   2.971   6.517  0.0231 -2.3889 -0.8420
 9069SOL     OW38665   3.196   1.405  12.938  0.5604  0.3916 -0.6043
 9069SOL    HW138666   3.146   1.448  13.007  0.9200 -1.4933  0.8158
 9069SOL    HW238667   3.127   1.406  12.871 -0.6588  0.2582  0.6393
 9070SOL     OW38668   0.988   2.829   4.174  0.6362 -0.3367  0.1225
 9070SOL    HW138669   1.022   2.875   4.098 -1.9779  0.5578 -0.4924
 9070SOL    HW238670   0.970   2.908   4.225 -0.4800  0.2916 -1.2649
 9071SOL     OW38671   3.996   3.914  10.117  0.4370  0.4664  0.1653
 9071SOL    HW138672   4.089   3.934  10.129  0.5563  0.1764 -0.2737
 9071SOL    HW238673   3.991   3.820  10.136 -1.5710  0.2049 -1.5812
 9072SOL     OW38674   0.489   4.675   6.645  0.4008  0.0815 -0.1419
 9072SOL    HW138675   0.450   4.600   6.691  0.5878 -0.6395 -1.1500
 9072SOL    HW238676   0.523   4.632   6.566 -0.9532 -0.7284 -0.2950
 9073SOL     OW38677   4.026   2.746   8.395  0.4754 -0.7585  0.3922
 9073SOL    HW138678   4.011   2.758   8.489  1.0103 -2.0315  0.6394
 9073SOL    HW238679   4.112   2.786   8.383  0.4025 -0.0428  2.2057
 9074SOL     OW38680   2.452   1.144  11.991  0.0003  0.0413  0.0294
 9074SOL    HW138681   2.474   1.062  11.947  0.3696 -0.5256  1.2699
 9074SOL    HW238682   2.505   1.127  12.069  0.9891 -0.6918 -0.8026
 9075SOL     OW38683   2.049   4.514   7.310 -0.0564 -0.0667  0.2997
 9075SOL    HW138684   1.978   4.461   7.345 -0.1278  0.0227  0.2898
 9075SOL    HW238685   2.009   4.537   7.227  0.3305  0.1082  0.1590
 9076SOL     OW38686   2.563   3.597   2.445  0.1762  0.3549  0.2591
 9076SOL    HW138687   2.561   3.540   2.368 -1.2777 -0.4898  0.9165
 9076SOL    HW238688   2.512   3.550   2.511  2.2607  0.1468  1.7107
 9077SOL     OW38689   2.246   2.784  10.314 -0.1401 -0.3271  0.4409
 9077SOL    HW138690   2.266   2.716  10.249 -1.1752  1.0176 -1.3062
 9077SOL    HW238691   2.286   2.745  10.392  2.2633 -0.7023 -0.9608
 9078SOL     OW38692   1.674   3.771   0.960 -0.4534 -0.0468  0.4118
 9078SOL    HW138693   1.632   3.691   0.993 -0.3759 -0.2353  0.0623
 9078SOL    HW238694   1.695   3.743   0.871 -0.2370  1.7918 -0.1149
 9079SOL     OW38695   2.971   4.712   6.729  0.1614  0.3814  0.4263
 9079SOL    HW138696   3.016   4.635   6.694 -2.1609 -1.0040  0.4786
 9079SOL    HW238697   2.887   4.674   6.754  0.0419  0.0213 -0.5054
 9080SOL     OW38698   1.485   0.016   0.130 -0.3572  0.0662  0.1478
 9080SOL    HW138699   1.407   0.013   0.185 -1.3992 -0.6052 -1.3679
 9080SOL    HW238700   1.473   4.656   0.084 -0.6337 -1.2118  2.5256
 9081SOL     OW38701   1.090   1.806  13.335  0.0451 -0.0616 -0.0034
 9081SOL    HW138702   1.039   1.787  13.256  1.7142  0.0659 -1.1076
 9081SOL    HW238703   1.028   1.782  13.405 -0.3820  0.2730 -0.2681
 9082SOL     OW38704   0.916   3.110  11.654  0.3272 -0.2260 -0.0829
 9082SOL    HW138705   0.983   3.162  11.699 -1.0815  1.7672 -0.2767
 9082SOL    HW238706   0.966   3.028  11.648  1.7765  0.5517  1.3348
 9083SOL     OW38707   3.038   4.201   4.112 -0.3667 -0.3801 -0.1523
 9083SOL    HW138708   3.097   4.145   4.063 -0.5380 -1.9038  1.3912
 9083SOL    HW238709   2.961   4.210   4.056 -0.3714 -0.1825 -0.1136
 9084SOL     OW38710   1.243   1.159  11.966 -0.1256 -0.3790 -0.2808
 9084SOL    HW138711   1.256   1.237  11.912 -1.8865  1.5639  2.1140
 9084SOL    HW238712   1.270   1.188  12.053  2.2483  0.2595 -1.2302
 9085SOL     OW38713   3.282   2.734   8.841  0.2524 -0.2598  0.9494
 9085SOL    HW138714   3.328   2.650   8.839 -1.2592 -1.0713  0.1526
 9085SOL    HW238715   3.215   2.712   8.775  0.7289 -1.3944  0.8357
 9086SOL     OW38716   0.546   4.155   3.740 -0.0340  0.0715 -0.7722
 9086SOL    HW138717   0.641   4.155   3.754 -0.2529  1.9151  0.5843
 9086SOL    HW238718   0.533   4.245   3.711  3.3927  1.2082  1.2735
 9087SOL     OW38719   3.906   3.329   0.490 -0.0370  0.0497  0.2735
 9087SOL    HW138720   3.840   3.275   0.535 -2.3922  1.0519 -2.0013
 9087SOL    HW238721   3.961   3.348   0.566 -0.3315  0.2857  0.4256
 9088SOL     OW38722   2.630   4.694   6.807  0.7307  0.6172 -0.7372
 9088SOL    HW138723   2.679   4.686   6.890 -0.6136  1.7369  0.1678
 9088SOL    HW238724   2.657   0.062   6.792  2.2966  0.2463 -0.2792
 9089SOL     OW38725   0.004   3.935   6.801 -0.0118  0.4353 -0.5673
 9089SOL    HW138726   0.046   3.925   6.887  0.6927 -2.2488 -1.2261
 9089SOL    HW238727   4.713   3.844   6.778  1.1190  0.1696 -0.2352
 9090SOL     OW38728   0.831   3.387   2.719  0.0852 -0.0125 -1.2880
 9090SOL    HW138729   0.801   3.339   2.796  0.8084  0.4484 -0.7207
 9090SOL    HW238730   0.912   3.421   2.755 -0.9726  0.8243  0.3059
 9091SOL     OW38731   2.943   1.734   5.697 -0.1540 -0.4452  0.2544
 9091SOL    HW138732   2.878   1.744   5.628 -0.3616  1.9184  0.8026
 9091SOL    HW238733   2.918   1.648   5.732 -0.5831 -0.6778 -0.6169
 9092SOL     OW38734   2.379   4.367   9.390 -0.6894 -0.2901  0.0599
 9092SOL    HW138735   2.375   4.274   9.410 -1.3220 -0.1861  0.4194
 9092SOL    HW238736   2.285   4.378   9.381 -0.7199 -0.6306 -0.0262
 9093SOL     OW38737   3.994   0.290   0.539 -0.5755  0.5948  0.4542
 9093SOL    HW138738   4.050   0.259   0.468  0.2447  0.8934  0.9678
 9093SOL    HW238739   4.009   0.233   0.614 -0.2074  0.0986  0.0013
 9094SOL     OW38740   4.230   3.297   7.282 -0.0216 -0.0184  0.0241
 9094SOL    HW138741   4.297   3.364   7.277 -0.5784  0.5991  0.8063
 9094SOL    HW238742   4.177   3.331   7.210 -1.5859 -0.8706  0.7476
 9095SOL     OW38743   1.450   3.985  16.674 -0.3023 -0.0997 -0.3476
 9095SOL    HW138744   1.406   4.065  16.703  0.8760  0.3156  0.2875
 9095SOL    HW238745   1.541   4.013  16.665 -0.2773  0.1977  0.8374
 9096SOL     OW38746   2.139   3.482   3.827  0.1687 -1.0838 -0.3629
 9096SOL    HW138747   2.076   3.547   3.858  2.1868  0.5540  0.2795
 9096SOL    HW238748   2.180   3.457   3.909 -2.7350 -0.1707  1.3476
 9097SOL     OW38749   4.042   4.152   8.404  0.3110  0.4053 -0.4948
 9097SOL    HW138750   4.013   4.070   8.366 -3.0893  0.1346  2.7335
 9097SOL    HW238751   4.138   4.144   8.402  0.4593  1.8280  0.4832
 9098SOL     OW38752   3.237   1.090  12.048 -0.5105  0.2707  0.1076
 9098SOL    HW138753   3.237   1.174  12.001  1.1776  0.2094 -0.0182
 9098SOL    HW238754   3.244   1.028  11.975 -1.7822 -2.7326  2.5388
 9099SOL     OW38755   1.286   1.514   7.183 -0.3103  0.1431 -0.2098
 9099SOL    HW138756   1.353   1.582   7.174  2.1655 -2.5239 -1.8418
 9099SOL    HW238757   1.255   1.503   7.093  0.2728 -1.3218 -0.2335
 9100SOL     OW38758   3.278   0.985   3.841 -0.0416 -0.1675  0.1181
 9100SOL    HW138759   3.356   1.033   3.866  0.5080 -1.5461  1.0106
 9100SOL    HW238760   3.269   0.909   3.898  2.0745 -1.4557 -1.2473
 9101SOL     OW38761   0.846   4.293   9.012  1.2161  0.3352 -0.2265
 9101SOL    HW138762   0.915   4.360   9.017  0.5656  1.0992 -1.7581
 9101SOL    HW238763   0.779   4.332   9.068 -0.4705 -3.1098  0.1547
 9102SOL     OW38764   2.682   2.409  15.208  0.3459 -0.6419 -0.0014
 9102SOL    HW138765   2.670   2.340  15.143  1.5416  0.1887 -1.0892
 9102SOL    HW238766   2.625   2.366  15.272  0.5078 -1.8426 -0.6552
 9103SOL     OW38767   2.109   2.836  16.974 -0.6522  0.2260 -0.3641
 9103SOL    HW138768   2.124   2.828  17.069  1.5492  2.4403 -0.5200
 9103SOL    HW238769   2.025   2.791  16.969 -0.8183  0.4405  0.4557
 9104SOL     OW38770   2.080   4.378  10.081 -0.2472  0.4730  0.0235
 9104SOL    HW138771   2.151   4.432  10.116 -1.5883  2.8468 -0.8989
 9104SOL    HW238772   2.121   4.344  10.001  0.5056  0.4128  0.4313
 9105SOL     OW38773   1.388   2.440   6.269  0.4679 -0.2774 -0.2898
 9105SOL    HW138774   1.438   2.503   6.218  2.2088 -1.3774  0.0350
 9105SOL    HW238775   1.309   2.440   6.215  1.8626  1.4024 -2.3292
 9106SOL     OW38776   1.697   4.041   4.373 -0.2964  0.0542  0.0433
 9106SOL    HW138777   1.696   4.111   4.308 -1.1746 -0.0986 -0.1094
 9106SOL    HW238778   1.639   4.069   4.443  1.5561  0.9097  1.2305
 9107SOL     OW38779   0.948   3.292   4.752 -1.3136 -0.0553  0.4883
 9107SOL    HW138780   1.011   3.227   4.721  0.8247  2.1324  0.1602
 9107SOL    HW238781   0.971   3.297   4.845 -0.5452 -0.0459  0.2974
 9108SOL     OW38782   2.810   2.097   0.502  0.0883  0.1848 -0.1475
 9108SOL    HW138783   2.821   2.004   0.484 -2.9382 -0.4131  1.0703
 9108SOL    HW238784   2.724   2.087   0.543  0.1697  1.7844  0.3954
 9109SOL     OW38785   2.840   0.145   6.005 -0.0131 -0.1493 -0.3286
 9109SOL    HW138786   2.839   0.224   5.950  0.0968  1.4085  1.8899
 9109SOL    HW238787   2.764   0.161   6.061 -0.1560  2.3142 -1.2294
 9110SOL     OW38788   1.909   4.719  15.104  0.4414  0.2983 -0.1027
 9110SOL    HW138789   1.944   0.043  15.029 -0.0997  0.3138 -0.3403
 9110SOL    HW238790   1.953   4.637  15.082  1.2546  1.0699 -1.3650
 9111SOL     OW38791   0.934   1.371   7.844  0.4229 -0.1223  0.4612
 9111SOL    HW138792   0.935   1.292   7.789 -2.2730 -0.3525  0.7480
 9111SOL    HW238793   0.965   1.330   7.925 -0.0228  0.6156  1.0024
 9112SOL     OW38794   4.583   4.003   4.309 -0.4855  0.5865  0.4465
 9112SOL    HW138795   4.536   3.931   4.351  1.6125 -1.7350 -1.1927
 9112SOL    HW238796   4.616   3.974   4.223 -1.9096  2.3581 -0.7054
 9113SOL     OW38797   0.923   4.086  15.591 -0.1796  0.4505 -0.4331
 9113SOL    HW138798   0.997   4.026  15.582 -0.9530 -0.1330 -3.1788
 9113SOL    HW238799   0.859   4.049  15.529  2.4987 -0.4400 -2.6926
 9114SOL     OW38800   4.182   2.479   0.246  0.4165  0.1558  0.4795
 9114SOL    HW138801   4.200   2.573   0.241 -0.4924  0.3392  0.6902
 9114SOL    HW238802   4.228   2.450   0.167  0.5030  1.0743  0.1908
 9115SOL     OW38803   1.437   4.490   7.439  0.0479  0.2555  0.1373
 9115SOL    HW138804   1.426   4.396   7.421  0.6125  0.2678 -0.2645
 9115SOL    HW238805   1.522   4.511   7.401 -0.7962 -2.2629 -3.1805
 9116SOL     OW38806   4.175   0.370  16.208  0.0625  0.0644  0.6248
 9116SOL    HW138807   4.217   0.436  16.152  0.1396 -0.4879  0.0358
 9116SOL    HW238808   4.159   0.414  16.292  0.9974 -0.0463  0.8546
 9117SOL     OW38809   3.047   1.902   7.005 -0.0551  0.8963 -0.0927
 9117SOL    HW138810   3.117   1.858   7.053  0.1748  0.1797 -1.0696
 9117SOL    HW238811   3.015   1.823   6.959  0.3733 -0.3866  1.8174
 9118SOL     OW38812   4.612   2.287   6.724  0.2957  0.6781 -0.5643
 9118SOL    HW138813   4.665   2.228   6.778  0.6476 -1.3399 -3.1312
 9118SOL    HW238814   4.582   2.217   6.666  0.7909 -1.6209  1.9762
 9119SOL     OW38815   1.786   1.026   8.367 -0.1035 -0.0656 -0.4781
 9119SOL    HW138816   1.703   0.981   8.387 -1.3533  1.0082 -3.2460
 9119SOL    HW238817   1.846   1.008   8.439 -2.3552 -3.0268  0.6865
 9120SOL     OW38818   3.939   3.098  11.812 -0.6131 -0.4815  0.3997
 9120SOL    HW138819   3.962   3.048  11.890 -0.1358  0.7729  1.0596
 9120SOL    HW238820   3.999   3.169  11.833 -1.9674  1.2357 -1.4815
 9121SOL     OW38821   4.719   1.071   8.063 -0.1351  0.5759  0.1034
 9121SOL    HW138822   0.035   1.071   7.976 -3.8009  0.1777 -1.5419
 9121SOL    HW238823   0.065   1.028   8.114 -2.0215 -2.3230  0.1930
 9122SOL     OW38824   3.181   0.009  12.697  0.5380  0.0477  0.4358
 9122SOL    HW138825   3.252   4.671  12.682  1.7687  1.2698  1.3179
 9122SOL    HW238826   3.201   0.076  12.631  1.6682 -0.1912  0.5396
 9123SOL     OW38827   2.076   1.596  12.569 -0.5780 -0.1735 -0.4756
 9123SOL    HW138828   2.136   1.538  12.522 -1.0059 -0.1666 -1.0359
 9123SOL    HW238829   2.113   1.684  12.560 -2.6424  0.8377  0.7972
 9124SOL     OW38830   0.368   3.576   9.989 -0.0599 -0.3224 -0.8311
 9124SOL    HW138831   0.356   3.482   9.983  0.3958 -0.3065 -2.0222
 9124SOL    HW238832   0.431   3.584  10.060 -2.6881  0.9765  1.3781
 9125SOL     OW38833   4.293   3.719   5.536  0.2612 -0.6372  0.2446
 9125SOL    HW138834   4.347   3.663   5.480  1.2228 -1.7474  2.2811
 9125SOL    HW238835   4.321   3.804   5.503  0.0178 -0.4119  0.6253
 9126SOL     OW38836   0.839   1.089   2.941 -0.1764 -0.1408 -0.9308
 9126SOL    HW138837   0.910   1.034   2.907 -0.8387  0.1282 -2.7344
 9126SOL    HW238838   0.804   1.118   2.857  1.4064  2.9487 -0.5449
 9127SOL     OW38839   4.107   2.864   4.681  0.6146  0.5627 -0.3262
 9127SOL    HW138840   4.086   2.774   4.705  0.0165  1.5426  2.8392
 9127SOL    HW238841   4.178   2.876   4.744  1.5516 -3.3282 -0.6197
 9128SOL     OW38842   4.411   1.637   2.932  0.0610 -0.3181 -0.2128
 9128SOL    HW138843   4.416   1.556   2.982 -0.6685 -0.5267 -0.4727
 9128SOL    HW238844   4.449   1.698   2.995  0.8465 -0.2280 -0.7727
 9129SOL     OW38845   2.092   1.500   1.588 -0.2209  0.4418  0.1668
 9129SOL    HW138846   2.013   1.528   1.635  0.1141 -1.0618  1.6074
 9129SOL    HW238847   2.106   1.410   1.616 -1.4342 -0.0088 -0.6687
 9130SOL     OW38848   1.159   3.586   8.097 -0.5864  0.2845  0.2468
 9130SOL    HW138849   1.203   3.513   8.140  0.3936 -0.0461 -1.3352
 9130SOL    HW238850   1.162   3.557   8.006 -3.6300 -0.1289  0.2479
 9131SOL     OW38851   0.851   2.297   0.919  0.1240  0.4399  0.1984
 9131SOL    HW138852   0.862   2.328   0.829 -0.9739 -2.9597 -1.0948
 9131SOL    HW238853   0.879   2.369   0.976 -0.6585  0.9555 -0.0608
 9132SOL     OW38854   4.135   3.264   8.920 -0.1266  0.0555  0.1576
 9132SOL    HW138855   4.121   3.178   8.959  1.4620 -1.5720 -2.8399
 9132SOL    HW238856   4.230   3.278   8.920 -0.2985  1.2904 -1.4953
 9133SOL     OW38857   3.627   2.642   8.527 -0.2073 -0.5375  0.3694
 9133SOL    HW138858   3.661   2.730   8.510  0.3524 -0.9058 -0.3525
 9133SOL    HW238859   3.632   2.639   8.623 -1.8787 -0.7077  0.4654
 9134SOL     OW38860   4.353   2.037  17.137  0.1936  0.1402  0.0159
 9134SOL    HW138861   4.396   2.120  17.119 -0.6624  0.7017  0.5455
 9134SOL    HW238862   4.361   1.991  17.053 -0.0458 -2.4848  1.4202
 9135SOL     OW38863   0.666   1.478   3.969  0.1241  0.1207 -0.5240
 9135SOL    HW138864   0.664   1.385   3.993  0.4304  1.0600  3.1642
 9135SOL    HW238865   0.571   1.489   3.959  0.0630  2.4965  2.5338
 9136SOL     OW38866   4.172   0.121   8.206 -0.3886  0.3729  0.3283
 9136SOL    HW138867   4.092   0.102   8.256 -0.7595  0.8074 -0.1011
 9136SOL    HW238868   4.166   0.068   8.126  0.8445  1.8363 -0.7293
 9137SOL     OW38869   0.324   2.967  16.941 -0.0032 -0.9293 -0.4884
 9137SOL    HW138870   0.389   3.031  16.971 -1.9461  1.1935 -0.8333
 9137SOL    HW238871   0.241   3.008  16.965 -0.0772 -1.7888  0.7080
 9138SOL     OW38872   0.311   3.446   0.462 -0.1290 -0.3856 -0.6525
 9138SOL    HW138873   0.221   3.429   0.491 -0.3557 -1.1007 -1.7852
 9138SOL    HW238874   0.327   3.383   0.392 -0.1506 -0.6072 -0.4561
 9139SOL     OW38875   1.281   1.884   5.550  0.1007  0.1950 -0.3050
 9139SOL    HW138876   1.243   1.942   5.617  1.0934 -0.4769  0.8419
 9139SOL    HW238877   1.206   1.851   5.502 -0.8466 -0.7117  1.7935
 9140SOL     OW38878   4.609   0.579   7.133 -0.2469  0.4506 -0.7978
 9140SOL    HW138879   4.663   0.585   7.054  1.3907 -2.9265  0.1083
 9140SOL    HW238880   4.548   0.517   7.093 -1.0952  0.5266  0.3936
 9141SOL     OW38881   3.443   1.981   2.951 -0.3215  0.3054  0.4799
 9141SOL    HW138882   3.401   1.895   2.950  3.8677 -1.7312  0.6336
 9141SOL    HW238883   3.445   2.003   2.858 -1.0029 -0.5901  0.2569
 9142SOL     OW38884   3.417   0.129   5.812 -0.0855 -0.2299 -0.2712
 9142SOL    HW138885   3.444   0.126   5.904 -1.2684  1.9660  0.1398
 9142SOL    HW238886   3.338   0.182   5.826 -0.2397 -0.3635 -0.6470
 9143SOL     OW38887   2.660   3.139  16.332  0.1825  0.3169  0.5369
 9143SOL    HW138888   2.586   3.168  16.280  0.1694 -1.5014 -0.4832
 9143SOL    HW238889   2.645   3.172  16.420  1.1162 -0.7821  1.1181
 9144SOL     OW38890   0.325   4.530   6.025  0.3529  0.2646 -0.2447
 9144SOL    HW138891   0.352   4.439   6.039 -1.7699 -0.1737  1.0806
 9144SOL    HW238892   0.401   4.582   6.048  0.4564  0.5167 -1.1378
 9145SOL     OW38893   2.919   2.940   3.604  0.4587 -0.0563  0.1117
 9145SOL    HW138894   2.829   2.972   3.594  0.8112  0.3358 -1.6910
 9145SOL    HW238895   2.917   2.895   3.689  1.6807 -3.5899 -1.6974
 9146SOL     OW38896   0.397   0.930   8.929  0.0664  0.7784 -0.4247
 9146SOL    HW138897   0.491   0.951   8.927  0.0838  0.7170 -0.2592
 9146SOL    HW238898   0.358   1.015   8.910 -1.0188  0.5991  1.1021
 9147SOL     OW38899   2.719   2.201   8.722  0.8100  0.0401  0.4117
 9147SOL    HW138900   2.673   2.279   8.753 -0.3164 -1.0405  1.4554
 9147SOL    HW238901   2.689   2.136   8.786 -2.9018  1.7286  0.4027
 9148SOL     OW38902   1.690   4.149   2.231 -0.1102  0.4394  0.8782
 9148SOL    HW138903   1.749   4.161   2.157 -0.3722  0.1530  0.6197
 9148SOL    HW238904   1.651   4.063   2.215 -0.9225  0.9361  0.1844
 9149SOL     OW38905   0.705   2.835   7.801  0.0617 -0.2378  0.3566
 9149SOL    HW138906   0.704   2.920   7.846 -0.9202  0.3127 -0.6827
 9149SOL    HW238907   0.663   2.865   7.720 -0.3752 -0.1313  0.6203
 9150SOL     OW38908   2.441   4.287   2.591  0.3768 -0.0284  0.1780
 9150SOL    HW138909   2.457   4.368   2.639  1.0038  1.0475 -1.8905
 9150SOL    HW238910   2.382   4.321   2.525  1.7088  1.0082 -0.4907
 9151SOL     OW38911   0.693   4.342   5.851  0.6577  0.0931  0.2617
 9151SOL    HW138912   0.683   4.260   5.802 -0.2082  1.5898 -2.0533
 9151SOL    HW238913   0.609   4.383   5.830  1.5956  0.7287 -2.3342
 9152SOL     OW38914   2.805   2.827   1.077  0.9098  0.0049  0.0273
 9152SOL    HW138915   2.720   2.836   1.034  0.3866  1.0210  1.3070
 9152SOL    HW238916   2.866   2.811   1.005  0.5367  0.8549 -0.4796
 9153SOL     OW38917   0.956   1.874  17.143  0.2215 -0.1366  0.3465
 9153SOL    HW138918   0.865   1.905  17.148  1.0245  1.9809  2.0080
 9153SOL    HW238919   0.996   1.930  17.209 -0.0083  2.4444 -1.6661
 9154SOL     OW38920   3.529   3.885   6.941 -0.8544 -0.7407 -0.1381
 9154SOL    HW138921   3.500   3.857   7.028 -1.7233  2.0820  0.4770
 9154SOL    HW238922   3.529   3.802   6.893  1.3275 -1.6534  1.4114
 9155SOL     OW38923   4.121   1.808   3.605  0.2853  0.1549  0.2518
 9155SOL    HW138924   4.109   1.725   3.651  1.0424 -0.2420 -0.2746
 9155SOL    HW238925   4.118   1.870   3.678  0.4295  1.8037 -1.1562
 9156SOL     OW38926   4.243   1.743   6.303  0.0245 -0.2436  0.1504
 9156SOL    HW138927   4.287   1.686   6.240  0.1306  0.5473 -0.4899
 9156SOL    HW238928   4.318   1.784   6.345 -1.7355 -0.1537  3.2302
 9157SOL     OW38929   2.822   3.645   1.166  0.5788 -0.5180  0.0843
 9157SOL    HW138930   2.771   3.723   1.143 -0.7031 -0.4689  3.0210
 9157SOL    HW238931   2.879   3.628   1.091 -0.7148  0.7024 -1.1896
 9158SOL     OW38932   0.063   1.816   4.102 -0.4179 -0.3270 -0.4272
 9158SOL    HW138933   0.064   1.723   4.080 -0.6877 -0.7582  1.4004
 9158SOL    HW238934   4.695   1.843   4.089 -0.8415 -1.5000  0.2009
 9159SOL     OW38935   1.123   2.120   6.477  0.1721 -0.8253  0.2462
 9159SOL    HW138936   1.148   2.170   6.555  0.3961 -1.2573  0.4525
 9159SOL    HW238937   1.040   2.079   6.502 -0.2345 -0.2293 -0.1588
 9160SOL     OW38938   0.151   3.868   7.753  0.2354 -0.2574  0.2174
 9160SOL    HW138939   0.185   3.878   7.842  0.5158  0.7057  0.0039
 9160SOL    HW238940   0.180   3.953   7.721  1.9049 -0.2548  1.7278
 9161SOL     OW38941   4.495   2.672   3.374 -0.4903  0.0251 -0.5171
 9161SOL    HW138942   4.507   2.746   3.434  0.7582 -0.6286  0.0329
 9161SOL    HW238943   4.558   2.610   3.410 -0.8025  0.1765  0.2916
 9162SOL     OW38944   2.438   4.435   9.663  0.2520  0.2925 -0.4147
 9162SOL    HW138945   2.414   4.390   9.583  0.7750 -1.3889  0.3881
 9162SOL    HW238946   2.532   4.433   9.648  0.4374 -1.3927  1.0367
 9163SOL     OW38947   3.299   1.530   8.957 -0.8900 -0.0431 -0.1158
 9163SOL    HW138948   3.287   1.596   8.889 -1.9103 -0.0397  0.0656
 9163SOL    HW238949   3.367   1.563   9.015  0.4683 -0.8607 -1.2441
 9164SOL     OW38950   0.704   2.389  10.511  0.2416  0.6790 -0.0708
 9164SOL    HW138951   0.743   2.335  10.579  1.0169  1.4795  0.1266
 9164SOL    HW238952   0.707   2.477  10.548  0.7644  0.6770 -0.1138
 9165SOL     OW38953   0.538   4.622  10.085  0.6613 -0.7981 -0.8128
 9165SOL    HW138954   0.552   4.527  10.085  2.9909 -0.4569 -1.1952
 9165SOL    HW238955   0.624   4.645  10.120  0.1316 -0.2124  0.0998
 9166SOL     OW38956   0.669   2.701   6.993  0.6715 -0.0195  0.7155
 9166SOL    HW138957   0.601   2.767   6.982  1.2412  0.3997 -0.2791
 9166SOL    HW238958   0.666   2.702   7.088 -0.5256 -1.3861  0.7014
 9167SOL     OW38959   1.714   3.421   5.625  0.0161 -0.5523  0.4529
 9167SOL    HW138960   1.760   3.467   5.695 -0.1185  0.2480  0.0154
 9167SOL    HW238961   1.776   3.427   5.552  0.0391 -0.2644  0.4964
 9168SOL     OW38962   2.623   4.715  13.882  0.4035  0.4426  0.0986
 9168SOL    HW138963   2.687   0.039  13.935  1.5967  0.6417 -1.5382
 9168SOL    HW238964   2.540   4.714  13.930  0.1872 -1.0518 -0.3035
 9169SOL     OW38965   0.332   4.280  10.508 -0.4393  0.1138  0.3056
 9169SOL    HW138966   0.395   4.216  10.539 -1.7982 -1.8671 -1.0583
 9169SOL    HW238967   0.373   4.325  10.434 -1.4655  2.0665  0.9097
 9170SOL     OW38968   2.341   4.375  13.908 -0.7297 -0.0788  0.3865
 9170SOL    HW138969   2.356   4.384  14.003 -0.6770  0.0998  0.3620
 9170SOL    HW238970   2.429   4.381  13.870 -1.7100  2.4135 -1.4485
 9171SOL     OW38971   3.839   0.735   4.825 -0.1040  0.4040 -0.1196
 9171SOL    HW138972   3.888   0.654   4.837 -1.1316 -0.4255 -1.4293
 9171SOL    HW238973   3.906   0.803   4.831  0.8770 -0.7420  1.8358
 9172SOL     OW38974   2.655   1.570   7.523 -0.2362  0.4264 -0.5708
 9172SOL    HW138975   2.692   1.484   7.507  0.0342  0.7580 -1.6993
 9172SOL    HW238976   2.735   1.619   7.502  0.8084 -0.7541  0.6932
 9173SOL     OW38977   2.357   4.499   4.590 -0.0876 -0.4394 -0.3211
 9173SOL    HW138978   2.309   4.543   4.520 -0.8013  0.1936  0.5559
 9173SOL    HW238979   2.282   4.453   4.626 -0.5152  1.0506  0.7060
 9174SOL     OW38980   2.310   3.975  15.388 -0.0407 -0.2057 -0.2126
 9174SOL    HW138981   2.375   3.956  15.456 -0.3954  1.8975  0.7053
 9174SOL    HW238982   2.297   3.888  15.351 -1.8909  1.3687 -3.2631
 9175SOL     OW38983   1.214   4.044   2.228 -0.0086 -0.1872  0.1885
 9175SOL    HW138984   1.243   3.957   2.257  1.9035 -0.1344 -1.5637
 9175SOL    HW238985   1.276   4.101   2.272  0.1753  1.4544 -2.2015
 9176SOL     OW38986   1.602   1.114  12.130 -0.0636  0.3093 -0.6802
 9176SOL    HW138987   1.683   1.086  12.173  0.1697 -0.7838 -1.8581
 9176SOL    HW238988   1.636   1.151  12.049  0.3440  2.1955  0.3406
 9177SOL     OW38989   0.451   2.561  13.083  0.6513  0.0316 -0.4369
 9177SOL    HW138990   0.379   2.624  13.086  1.3657  0.9128 -1.6275
 9177SOL    HW238991   0.496   2.605  13.011  2.0901 -0.7990 -0.0359
 9178SOL     OW38992   3.843   1.416   7.810 -0.3971  0.0489  0.1989
 9178SOL    HW138993   3.767   1.417   7.752 -1.0256 -1.7554  0.9866
 9178SOL    HW238994   3.887   1.493   7.775 -3.6063  2.5070  1.6080
 9179SOL     OW38995   4.680   3.487   0.244 -0.1370  0.0091 -0.2076
 9179SOL    HW138996   0.035   3.432   0.251  1.4986  2.3762  0.0439
 9179SOL    HW238997   4.712   3.553   0.183  1.1197 -0.1553  0.2643
 9180SOL     OW38998   0.672   4.265   8.025 -1.0429 -0.3742  0.1817
 9180SOL    HW138999   0.706   4.269   8.115  0.6490 -1.3367 -0.4127
 9180SOL    HW239000   0.729   4.331   7.985 -1.3876 -1.1533 -1.6151
 9181SOL     OW39001   0.142   3.406   8.701  0.3868 -0.5246 -0.1673
 9181SOL    HW139002   0.085   3.468   8.748  1.7157  1.3339 -1.0292
 9181SOL    HW239003   0.168   3.465   8.630  0.9462 -1.5800 -0.8306
 9182SOL     OW39004   0.973   2.273  16.333 -0.3802  0.2662 -0.1234
 9182SOL    HW139005   1.027   2.301  16.259 -0.2875  0.5424  0.0481
 9182SOL    HW239006   0.887   2.294  16.298 -1.0150 -1.5391  0.3967
 9183SOL     OW39007   1.975   0.419   1.982  0.0438  0.0170 -0.4629
 9183SOL    HW139008   1.891   0.378   2.004  0.5331  0.9265  3.0766
 9183SOL    HW239009   2.012   0.433   2.069 -1.2344 -0.9255  0.2312
 9184SOL     OW39010   4.407   1.714   8.071  0.2261 -0.3416 -0.8326
 9184SOL    HW139011   4.454   1.789   8.109 -1.4275  1.0853 -1.6293
 9184SOL    HW239012   4.396   1.739   7.980  0.2671  1.0457 -0.4536
 9185SOL     OW39013   3.947   1.405   5.110  0.3363  0.6588  0.1424
 9185SOL    HW139014   3.993   1.324   5.086  0.5172  0.4744  1.1462
 9185SOL    HW239015   4.014   1.471   5.090 -0.1258  0.3796 -2.3237
 9186SOL     OW39016   3.639   4.129   6.385 -0.1294 -0.3568 -0.8342
 9186SOL    HW139017   3.701   4.196   6.357  1.7732 -0.8546  2.1888
 9186SOL    HW239018   3.692   4.052   6.363 -0.7363 -1.0943  0.2966
 9187SOL     OW39019   0.649   0.078   7.963 -0.0126 -0.0460  0.3773
 9187SOL    HW139020   0.605   4.720   7.937 -1.7485  1.5072 -1.5000
 9187SOL    HW239021   0.717   0.041   8.019  1.4926 -2.2438 -2.9134
 9188SOL     OW39022   1.695   2.054   0.592  0.2952 -0.0673  0.2827
 9188SOL    HW139023   1.715   2.046   0.499 -0.5455  0.7666  0.0285
 9188SOL    HW239024   1.604   2.084   0.582 -0.2760 -2.4626 -1.6494
 9189SOL     OW39025   3.541   1.083   8.605  0.4308 -0.3570  0.0559
 9189SOL    HW139026   3.539   0.990   8.583 -0.5764 -0.1849 -0.5584
 9189SOL    HW239027   3.596   1.120   8.536 -1.5587  1.7203 -0.4136
 9190SOL     OW39028   3.564   0.303  12.191  0.5581 -0.3747  0.5326
 9190SOL    HW139029   3.570   0.348  12.107 -0.6779 -0.8579  0.1869
 9190SOL    HW239030   3.523   0.219  12.170 -1.0427  0.4136  0.5262
 9191SOL     OW39031   3.763   0.307   5.514  0.1692 -0.0230 -0.5233
 9191SOL    HW139032   3.699   0.249   5.555 -1.3475  0.8706 -1.6143
 9191SOL    HW239033   3.698   0.357   5.464 -0.2340 -0.1755 -0.1542
 9192SOL     OW39034   2.250   1.719  10.758 -0.4128  0.0049  0.1327
 9192SOL    HW139035   2.319   1.675  10.809 -1.0368 -1.3564 -0.1845
 9192SOL    HW239036   2.188   1.646  10.760 -0.6084  0.1435 -0.9346
 9193SOL     OW39037   2.486   3.996   6.849 -0.1828 -0.6631 -0.3883
 9193SOL    HW139038   2.548   3.927   6.873  1.9782  1.2508 -0.5040
 9193SOL    HW239039   2.413   3.963   6.902  1.0345  0.1961  1.8154
 9194SOL     OW39040   2.691   0.776  11.364  0.1294  0.6264  0.4510
 9194SOL    HW139041   2.683   0.731  11.280 -0.7670  0.1934  0.7757
 9194SOL    HW239042   2.693   0.870  11.343 -1.0732  0.2664 -1.2208
 9195SOL     OW39043   3.532   3.069   7.967 -0.9188  0.0513  0.3060
 9195SOL    HW139044   3.620   3.094   7.994 -1.0585  2.2206 -1.3160
 9195SOL    HW239045   3.543   3.050   7.874 -2.0384  0.0365  0.1823
 9196SOL     OW39046   1.519   4.504  14.553  1.1017 -0.5467 -0.3972
 9196SOL    HW139047   1.451   4.472  14.613  2.3317  0.9014  1.7785
 9196SOL    HW239048   1.467   4.553  14.490 -0.0971  0.2811  1.2363
 9197SOL     OW39049   4.388   0.237   8.565  0.4031 -0.9911 -0.1044
 9197SOL    HW139050   4.426   0.160   8.523 -0.5772  0.1949 -3.1556
 9197SOL    HW239051   4.324   0.267   8.501  1.9828  1.0184 -0.7396
 9198SOL     OW39052   4.604   1.295   5.903  0.1653 -0.2022 -0.2055
 9198SOL    HW139053   4.589   1.380   5.946  2.1694 -1.5560  3.1649
 9198SOL    HW239054   4.699   1.282   5.900  0.2562  0.8916 -2.0075
 9199SOL     OW39055   2.656   1.419  15.176 -0.4636 -0.0260 -0.1108
 9199SOL    HW139056   2.629   1.337  15.134 -1.4485  0.1105  0.2439
 9199SOL    HW239057   2.618   1.407  15.264 -0.2180  0.3314  0.0444
 9200SOL     OW39058   0.798   3.647   7.415  0.1238  0.4320 -0.1962
 9200SOL    HW139059   0.870   3.624   7.473 -0.9593  0.6115  1.2290
 9200SOL    HW239060   0.810   3.573   7.356  2.5050  1.5549 -1.1105
 9201SOL     OW39061   3.986   3.870  16.273 -0.3088  0.2528  0.1092
 9201SOL    HW139062   3.961   3.791  16.227  0.4766  1.2888 -2.1094
 9201SOL    HW239063   4.010   3.834  16.359 -1.0850 -1.8751 -0.5770
 9202SOL     OW39064   3.513   2.789  13.509 -0.2026 -0.4932  0.0861
 9202SOL    HW139065   3.419   2.799  13.493 -0.7508 -0.6774  3.1225
 9202SOL    HW239066   3.548   2.868  13.467  0.1238 -1.0545 -0.6902
 9203SOL     OW39067   2.362   2.288  10.266  0.2624 -0.1774  0.1312
 9203SOL    HW139068   2.390   2.196  10.269 -0.5725 -0.3726  2.4369
 9203SOL    HW239069   2.446   2.331  10.279  1.3808 -2.6298  0.9685
 9204SOL     OW39070   2.863   3.988   0.959  0.5266  0.4427 -0.3907
 9204SOL    HW139071   2.793   3.923   0.955  1.9970 -1.1131 -0.8926
 9204SOL    HW239072   2.845   4.043   0.882 -0.8754  3.1777  1.8578
 9205SOL     OW39073   0.683   0.186   6.610 -0.0138  0.6771 -0.3271
 9205SOL    HW139074   0.672   0.271   6.651  1.0840  0.4873  0.3597
 9205SOL    HW239075   0.605   0.135   6.631 -0.6204  1.6112 -0.3344
 9206SOL     OW39076   0.881   2.774   5.293 -0.6367 -0.1333  0.0404
 9206SOL    HW139077   0.916   2.691   5.325 -1.7442  0.6432  3.3161
 9206SOL    HW239078   0.842   2.747   5.210  0.7593  2.7017 -1.5193
 9207SOL     OW39079   3.967   1.555  10.445 -0.7670  0.1586 -0.3520
 9207SOL    HW139080   3.981   1.593  10.531 -2.3916  1.1565 -0.5312
 9207SOL    HW239081   3.905   1.613  10.400 -5.4287 -1.4886  3.9426
 9208SOL     OW39082   2.007   0.505   3.529 -0.4883 -0.4662  0.4219
 9208SOL    HW139083   1.989   0.572   3.462 -1.6017  1.0393  2.2189
 9208SOL    HW239084   2.063   0.441   3.486  2.2367  0.3189  2.7960
 9209SOL     OW39085   1.453   3.361   2.831  0.9436  0.7715  0.2128
 9209SOL    HW139086   1.399   3.395   2.759  0.0504  0.8246  0.9100
 9209SOL    HW239087   1.536   3.347   2.786  0.2623 -0.2827 -0.7022
 9210SOL     OW39088   2.629   3.246  15.588  0.2806 -0.1916  0.1130
 9210SOL    HW139089   2.711   3.201  15.610  0.2268 -0.6636 -0.6583
 9210SOL    HW239090   2.575   3.168  15.575 -0.6994  0.2273  1.6565
 9211SOL     OW39091   1.028   1.646   2.458 -0.2398 -0.7579  0.0003
 9211SOL    HW139092   1.066   1.692   2.532 -2.6999 -1.7739  1.9106
 9211SOL    HW239093   0.961   1.708   2.427  0.0425 -1.4705 -2.0352
 9212SOL     OW39094   1.123   1.421   9.368  0.3743 -0.4029 -0.4021
 9212SOL    HW139095   1.081   1.428   9.454 -1.4378  1.6769 -1.4724
 9212SOL    HW239096   1.042   1.436   9.318 -0.7988 -0.5016  1.4474
 9213SOL     OW39097   3.250   0.245   4.370 -0.1543  0.2288  0.1298
 9213SOL    HW139098   3.225   0.209   4.455 -1.3896  1.6142  0.3561
 9213SOL    HW239099   3.316   0.183   4.340 -0.2927  0.9943 -1.7599
 9214SOL     OW39100   2.887   3.443   0.833 -0.2977  0.0366  0.0778
 9214SOL    HW139101   2.829   3.444   0.909 -0.6207  0.8621 -0.1815
 9214SOL    HW239102   2.943   3.517   0.852  1.0018 -0.5371 -1.4939
 9215SOL     OW39103   4.467   0.010   3.243  0.6445  0.2398  0.2082
 9215SOL    HW139104   4.478   0.083   3.181  0.4168  0.6690  0.6702
 9215SOL    HW239105   4.526   4.666   3.208 -0.9185 -0.9024 -0.2360
 9216SOL     OW39106   1.535   3.550   6.963 -0.5036 -0.7063  0.1161
 9216SOL    HW139107   1.534   3.522   6.871  2.3692  0.8377 -0.4162
 9216SOL    HW239108   1.626   3.526   6.983 -0.6270 -1.6106 -0.3975
 9217SOL     OW39109   4.346   3.315   2.027 -0.2152 -0.4165 -0.2238
 9217SOL    HW139110   4.412   3.269   2.079 -0.1213 -0.8036 -0.6906
 9217SOL    HW239111   4.363   3.285   1.938 -0.9229  0.3238 -0.6069
 9218SOL     OW39112   4.678   1.382  13.796 -0.9081  0.5321  0.2321
 9218SOL    HW139113   4.700   1.295  13.829 -0.4144  1.3153  1.9538
 9218SOL    HW239114   4.583   1.374  13.789 -0.8915 -0.3805  1.0820
 9219SOL     OW39115   2.209   0.199   2.958 -0.1962 -0.1459 -0.0046
 9219SOL    HW139116   2.223   0.104   2.966  1.1906  0.0288 -0.3268
 9219SOL    HW239117   2.144   0.213   3.027  0.7905 -1.8108  1.2711
 9220SOL     OW39118   0.665   2.858   5.460  0.0038  0.2620  0.2247
 9220SOL    HW139119   0.698   2.777   5.500  0.5380  1.6879  2.6862
 9220SOL    HW239120   0.733   2.864   5.393 -0.0964 -1.3523 -0.0255
 9221SOL     OW39121   4.437   3.831   2.671  0.3921 -0.6881 -0.3593
 9221SOL    HW139122   4.380   3.814   2.596 -2.3884 -0.7980  1.7924
 9221SOL    HW239123   4.458   3.739   2.684 -0.3792 -0.8575 -0.3312
 9222SOL     OW39124   4.461   4.267  16.407 -0.2297  0.2410  0.1466
 9222SOL    HW139125   4.447   4.254  16.500  0.6176  0.3955  0.2969
 9222SOL    HW239126   4.403   4.205  16.363 -0.7617  1.2067 -0.5070
 9223SOL     OW39127   2.968   1.394  17.079 -0.2131  0.0668 -0.7978
 9223SOL    HW139128   2.874   1.411  17.075 -0.2673 -0.0662  0.0385
 9223SOL    HW239129   2.991   1.470  17.133  2.7506 -0.1493 -1.7444
 9224SOL     OW39130   0.310   3.036   4.295  0.0727  0.4886 -0.0304
 9224SOL    HW139131   0.237   2.975   4.291  2.4023 -2.2194 -0.9587
 9224SOL    HW239132   0.306   3.059   4.202  1.1601 -1.7466 -0.6377
 9225SOL     OW39133   4.163   0.312   9.963 -0.6063 -0.4720 -0.7472
 9225SOL    HW139134   4.169   0.370   9.888  0.3584  0.6509  0.2071
 9225SOL    HW239135   4.255   0.299   9.983 -0.7304 -0.4301 -0.1340
 9226SOL     OW39136   0.458   3.158   4.026  0.1980  0.2348 -0.5840
 9226SOL    HW139137   0.366   3.140   4.007  0.1596 -0.2445  0.0696
 9226SOL    HW239138   0.468   3.249   3.999  1.0272  0.1318 -0.6375
 9227SOL     OW39139   1.495   4.551   3.427  0.0116  0.1648  0.3987
 9227SOL    HW139140   1.589   4.550   3.446  0.2502 -0.3899 -0.7576
 9227SOL    HW239141   1.453   4.553   3.513  1.1118  1.2066  0.9096
 9228SOL     OW39142   0.018   3.339  16.538  0.0543 -0.1238  0.3010
 9228SOL    HW139143   0.088   3.280  16.568  0.2229  1.2487  2.5517
 9228SOL    HW239144   0.072   3.416  16.525  0.2537 -0.2233  0.5382
 9229SOL     OW39145   1.591   1.414   7.808 -0.0491 -0.1239 -0.0196
 9229SOL    HW139146   1.567   1.479   7.874  0.0641 -1.6306  1.4984
 9229SOL    HW239147   1.513   1.360   7.818  0.4551 -0.2536  3.2094
 9230SOL     OW39148   0.462   3.645   5.556  0.2264 -0.3190 -0.1967
 9230SOL    HW139149   0.503   3.562   5.581 -2.6601 -0.7431  3.2268
 9230SOL    HW239150   0.512   3.708   5.607  0.9943 -1.0764 -0.0175
 9231SOL     OW39151   0.040   4.535   5.414  0.3891 -0.7365 -0.5954
 9231SOL    HW139152   0.102   4.583   5.469  2.6956 -2.3103 -1.8334
 9231SOL    HW239153   0.018   4.454   5.461 -1.3538  0.2712  0.3753
 9232SOL     OW39154   3.657   4.419   9.087 -0.1828 -0.3160  0.0630
 9232SOL    HW139155   3.746   4.387   9.099  0.7677  1.7831 -1.6097
 9232SOL    HW239156   3.670   4.505   9.125 -1.1350 -1.0883  2.1689
 9233SOL     OW39157   2.027   2.723   8.712  0.2889  0.2144 -0.4751
 9233SOL    HW139158   2.060   2.683   8.632 -0.8841  0.2511 -0.9832
 9233SOL    HW239159   2.083   2.688   8.781 -0.0375  0.5493 -0.0380
 9234SOL     OW39160   2.401   0.414   3.962 -0.5555 -0.1632 -0.3793
 9234SOL    HW139161   2.427   0.335   4.009 -0.3157  0.3859  0.4081
 9234SOL    HW239162   2.419   0.385   3.872 -1.4040  1.3835 -1.0510
 9235SOL     OW39163   1.449   0.042  15.823 -0.1552 -0.8640 -0.5694
 9235SOL    HW139164   1.380   0.104  15.849 -0.8557 -1.6573 -0.5443
 9235SOL    HW239165   1.534   0.081  15.843 -0.2030 -0.8184 -0.4537
 9236SOL     OW39166   3.821   0.965   7.653 -0.0312 -0.2290  0.1680
 9236SOL    HW139167   3.758   0.992   7.720 -0.7002  0.9902 -0.9577
 9236SOL    HW239168   3.782   0.992   7.570  0.7401 -1.1314 -0.4922
 9237SOL     OW39169   3.667   4.349   4.255 -0.1261 -0.3648 -0.5174
 9237SOL    HW139170   3.657   4.258   4.227 -1.8089  0.2262 -1.7760
 9237SOL    HW239171   3.726   4.339   4.330 -1.1850 -0.1007  0.3522
 9238SOL     OW39172   1.731   2.996   4.935 -0.1601  0.0376  0.0818
 9238SOL    HW139173   1.698   2.921   4.886 -2.0276  0.8178  0.1626
 9238SOL    HW239174   1.807   2.954   4.975  1.9267  2.6257 -1.2104
 9239SOL     OW39175   2.090   1.023   6.518 -0.1290  0.5210 -0.0894
 9239SOL    HW139176   2.076   1.096   6.577  1.2147 -1.0715  2.1951
 9239SOL    HW239177   2.185   1.015   6.523 -0.3675 -1.9069  0.6431
 9240SOL     OW39178   2.156   0.602   1.624 -0.0348 -0.2510 -0.5471
 9240SOL    HW139179   2.177   0.550   1.702 -0.6425  3.1477  1.8870
 9240SOL    HW239180   2.207   0.566   1.552  1.3285  2.7394 -1.0640
 9241SOL     OW39181   4.548   2.267  13.240 -0.2293  0.1203 -0.2889
 9241SOL    HW139182   4.599   2.343  13.211 -0.9222  0.1861 -1.3208
 9241SOL    HW239183   4.459   2.296  13.223 -0.0127  0.3641 -1.0374
 9242SOL     OW39184   1.585   1.984   8.298  0.1658  0.2696 -0.2139
 9242SOL    HW139185   1.678   1.971   8.312 -0.1653  0.3860  2.0883
 9242SOL    HW239186   1.564   2.047   8.367 -0.9083  1.2774 -1.4686
 9243SOL     OW39187   0.167   3.035   7.459  0.0194 -0.0207  0.5959
 9243SOL    HW139188   0.207   2.987   7.532  4.5360 -0.4280 -2.1842
 9243SOL    HW239189   0.235   3.026   7.393  1.7999 -1.7132  2.6520
 9244SOL     OW39190   1.257   1.783  14.853  0.5268 -0.6797 -0.2187
 9244SOL    HW139191   1.255   1.770  14.758  3.3080 -2.0947 -0.0646
 9244SOL    HW239192   1.316   1.714  14.880  0.1956 -1.2138 -0.8382
 9245SOL     OW39193   3.137   4.476   6.044  0.5838 -0.6825  0.7213
 9245SOL    HW139194   3.168   4.562   6.070 -0.8804 -0.2021  0.8534
 9245SOL    HW239195   3.083   4.454   6.119 -1.6368  0.6127 -0.4877
 9246SOL     OW39196   4.364   0.180  13.577  0.8359 -0.0543 -0.4543
 9246SOL    HW139197   4.299   0.191  13.507  0.7214  0.9008 -0.1964
 9246SOL    HW239198   4.317   0.121  13.635  0.5893  1.7214  1.1647
 9247SOL     OW39199   1.193   2.202  11.838 -0.0646  0.4711  0.4786
 9247SOL    HW139200   1.265   2.207  11.902  0.3567  2.6200 -0.1678
 9247SOL    HW239201   1.242   2.196  11.757  1.1466  2.5950  1.0745
 9248SOL     OW39202   0.602   2.477   4.265 -0.4030 -0.1802 -0.6128
 9248SOL    HW139203   0.627   2.387   4.245  1.8727 -0.0390  1.5320
 9248SOL    HW239204   0.686   2.520   4.282  0.9503 -1.4513 -4.2971
 9249SOL     OW39205   2.926   2.302   1.368 -0.4701  0.6703 -0.0908
 9249SOL    HW139206   2.941   2.394   1.391 -2.4510  0.8379  0.5431
 9249SOL    HW239207   2.958   2.314   1.278 -0.3260  0.9776  0.0032
 9250SOL     OW39208   1.185   1.736   5.060  0.1557 -0.1016 -0.0473
 9250SOL    HW139209   1.242   1.783   5.000 -0.1924  1.5251  0.8634
 9250SOL    HW239210   1.245   1.682   5.111  1.3136  2.4152  1.2423
 9251SOL     OW39211   1.877   2.128   9.718 -0.4035 -0.1501 -0.0510
 9251SOL    HW139212   1.797   2.165   9.754  0.8034  1.4200  1.0275
 9251SOL    HW239213   1.856   2.134   9.625 -0.8216 -0.8576 -0.0030
 9252SOL     OW39214   4.174   1.483   7.166  0.1144 -0.1786  0.3315
 9252SOL    HW139215   4.246   1.545   7.165 -1.2160  1.3857  1.1437
 9252SOL    HW239216   4.153   1.481   7.073 -0.9374 -0.6338  0.5797
 9253SOL     OW39217   2.673   3.223   7.383  0.0924 -0.3302  0.2509
 9253SOL    HW139218   2.716   3.306   7.361 -2.2509  0.7423 -0.2435
 9253SOL    HW239219   2.707   3.210   7.471 -1.3721  0.0491  0.8780
 9254SOL     OW39220   3.614   3.869   3.583 -0.3046 -0.0599  0.0554
 9254SOL    HW139221   3.632   3.913   3.500  0.8287 -1.0194 -0.2060
 9254SOL    HW239222   3.689   3.895   3.636  1.6099 -1.7844 -1.8285
 9255SOL     OW39223   0.819   3.124  15.972  0.3436 -0.4345  0.1505
 9255SOL    HW139224   0.883   3.194  15.962  0.7060 -0.8207 -0.2707
 9255SOL    HW239225   0.825   3.078  15.888  1.2977  1.6489 -0.9261
 9256SOL     OW39226   2.682   0.887   6.147  0.0246 -0.3020  0.0708
 9256SOL    HW139227   2.737   0.889   6.068 -0.5739  1.8595 -0.2955
 9256SOL    HW239228   2.722   0.960   6.195  1.2486 -0.8191 -0.1562
 9257SOL     OW39229   3.815   3.588   3.873  0.1345  0.2597 -0.5067
 9257SOL    HW139230   3.813   3.544   3.958  0.4196  1.4809  0.1279
 9257SOL    HW239231   3.745   3.547   3.822 -0.9740 -0.7165  1.7977
 9258SOL     OW39232   0.616   2.206   7.023  0.1939 -0.3376  0.4480
 9258SOL    HW139233   0.545   2.265   6.998 -0.3016 -0.5320  1.4257
 9258SOL    HW239234   0.690   2.266   7.010  0.2710 -0.6327 -0.5106
 9259SOL     OW39235   0.156   0.525   6.969  0.0056  0.2059 -0.2012
 9259SOL    HW139236   0.222   0.459   6.989  0.1455  0.2161 -0.6401
 9259SOL    HW239237   0.117   0.527   7.057 -0.6512  3.1804 -0.5556
 9260SOL     OW39238   0.905   4.158   0.539 -0.4321 -0.0164 -0.3172
 9260SOL    HW139239   0.816   4.133   0.564 -0.6585  2.6407  1.5185
 9260SOL    HW239240   0.892   4.241   0.493  0.7482  0.0103 -0.5882
 9261SOL     OW39241   2.241   1.307   9.512 -0.7304  0.0926 -0.0017
 9261SOL    HW139242   2.242   1.215   9.486  1.5611 -0.6605  2.7200
 9261SOL    HW239243   2.165   1.331   9.459 -2.6979 -3.3715  1.1771
 9262SOL     OW39244   2.738   1.105   5.062 -0.1825 -0.0622  0.2533
 9262SOL    HW139245   2.795   1.115   4.985  0.5306 -0.1043  0.7708
 9262SOL    HW239246   2.734   1.010   5.058 -0.6335 -0.0416  0.3201
 9263SOL     OW39247   0.224   2.774   6.301  0.4779  0.2841  0.1103
 9263SOL    HW139248   0.136   2.737   6.310 -0.0864  1.7782  0.7206
 9263SOL    HW239249   0.274   2.719   6.361 -0.9467 -0.6232  0.4606
 9264SOL     OW39250   0.023   0.979  16.662  0.2187 -0.4990 -0.1324
 9264SOL    HW139251   0.045   0.951  16.573  0.4430 -0.2297 -0.1617
 9264SOL    HW239252   0.088   0.931  16.713  1.1486 -0.4073 -1.2235
 9265SOL     OW39253   3.271   2.162   6.383 -0.0914  0.0024 -0.9114
 9265SOL    HW139254   3.255   2.256   6.371  2.8905  0.6525  0.0673
 9265SOL    HW239255   3.183   2.126   6.377 -0.5666  0.8979  0.5504
 9266SOL     OW39256   1.215   3.589   3.824  0.4578 -0.4967  0.1936
 9266SOL    HW139257   1.290   3.610   3.769 -0.4192  0.6708 -0.5512
 9266SOL    HW239258   1.163   3.582   3.744 -0.5983  0.3297  0.8052
 9267SOL     OW39259   0.361   4.503   3.722  0.1518  0.3283  0.5666
 9267SOL    HW139260   0.324   4.506   3.634  0.2332  0.8688  0.5506
 9267SOL    HW239261   0.453   4.512   3.697 -0.3034  1.6056 -0.5780
 9268SOL     OW39262   0.266   0.803   2.538  0.2068  0.3068 -0.2646
 9268SOL    HW139263   0.173   0.802   2.519  0.4371 -2.4171 -1.1951
 9268SOL    HW239264   0.303   0.819   2.451 -0.7316 -0.4227 -0.7955
 9269SOL     OW39265   4.668   2.714   7.558 -0.2416  0.4219  0.2455
 9269SOL    HW139266   4.635   2.625   7.575 -2.7371  0.9771 -1.7235
 9269SOL    HW239267   4.649   2.754   7.643  0.0709  1.6519 -0.2709
 9270SOL     OW39268   0.349   0.081  15.971  0.3438  0.5153  0.1490
 9270SOL    HW139269   0.414   0.011  15.959 -1.1477 -0.9816  0.8459
 9270SOL    HW239270   0.326   0.093  16.064 -0.6665  2.0526 -0.2951
 9271SOL     OW39271   3.277   1.472   6.158  0.3606 -0.5924 -0.2286
 9271SOL    HW139272   3.311   1.471   6.069  1.1743 -0.3478  0.0767
 9271SOL    HW239273   3.351   1.520   6.196 -1.6118  2.0771  0.2283
 9272SOL     OW39274   3.854   3.954   6.306 -0.2407 -0.2117  0.1192
 9272SOL    HW139275   3.918   4.023   6.292 -0.2258  0.0041  1.2878
 9272SOL    HW239276   3.896   3.891   6.363  0.0512  0.1984  0.3537
 9273SOL     OW39277   0.734   3.446  11.524  0.4708  0.3646  0.5559
 9273SOL    HW139278   0.817   3.487  11.499  0.8832 -0.9774 -0.2901
 9273SOL    HW239279   0.674   3.520  11.516  1.1874  1.0547  1.5352
 9274SOL     OW39280   2.712   4.705   7.945  0.2500  0.3960  0.0646
 9274SOL    HW139281   2.783   0.025   7.896  1.3446 -2.5510 -0.9246
 9274SOL    HW239282   2.648   0.054   7.945  1.3353  1.3769 -2.4781
 9275SOL     OW39283   1.187   2.686   8.078  0.2870 -0.1237  0.2567
 9275SOL    HW139284   1.105   2.673   8.126  0.8894 -0.9020  1.0581
 9275SOL    HW239285   1.237   2.730   8.146  1.1156 -2.2113  0.9687
 9276SOL     OW39286   2.227   4.180  16.209 -0.2492 -0.0199  0.1206
 9276SOL    HW139287   2.146   4.192  16.159  0.7046 -0.7950 -1.6203
 9276SOL    HW239288   2.197   4.121  16.278 -0.0053 -0.7510 -0.3966
 9277SOL     OW39289   3.043   2.142   3.565  0.5167  0.8235  0.3083
 9277SOL    HW139290   3.046   2.101   3.479  1.5571 -0.6567  1.0623
 9277SOL    HW239291   3.113   2.093   3.609  1.2129  0.6661 -0.9673
 9278SOL     OW39292   0.842   0.058   5.667  0.1561  0.5338  0.0157
 9278SOL    HW139293   0.813   4.712   5.608  1.4502  0.7854 -0.9174
 9278SOL    HW239294   0.798   0.035   5.749  2.4684 -0.4108  0.9679
 9279SOL     OW39295   0.936   0.544  10.010  0.5919 -0.1501 -0.4957
 9279SOL    HW139296   0.973   0.486  10.077 -0.7428 -2.1654 -1.5296
 9279SOL    HW239297   0.900   0.481   9.948 -0.2562  1.4640 -1.6687
 9280SOL     OW39298   0.592   1.287   7.421  0.3215 -0.2818 -0.5393
 9280SOL    HW139299   0.596   1.360   7.359 -0.3823  1.4828  1.4875
 9280SOL    HW239300   0.672   1.251   7.383 -0.1977 -1.1673 -0.7665
 9281SOL     OW39301   0.685   2.621   5.596  0.1766  0.3968 -0.0688
 9281SOL    HW139302   0.767   2.577   5.618 -1.5306 -2.4660  0.5498
 9281SOL    HW239303   0.630   2.597   5.670 -1.6102  1.3933 -1.0821
 9282SOL     OW39304   0.838   3.632   4.021 -0.9128 -0.2127 -0.6910
 9282SOL    HW139305   0.794   3.571   3.962 -0.4198 -1.7945  0.5660
 9282SOL    HW239306   0.856   3.562   4.083 -0.7886 -2.3487 -3.1233
 9283SOL     OW39307   2.404   4.719   7.049 -0.1020 -0.0391  0.6412
 9283SOL    HW139308   2.377   4.631   7.023  0.6032  0.3000 -1.2413
 9283SOL    HW239309   2.480   4.707   7.105 -0.3665  0.9678  1.2207
 9284SOL     OW39310   1.121   2.531  14.324 -0.3055  0.4680  0.0950
 9284SOL    HW139311   1.086   2.492  14.404 -0.6243 -0.0610 -0.3005
 9284SOL    HW239312   1.046   2.580  14.289  0.5167  0.9728 -0.9569
 9285SOL     OW39313   2.756   3.627   7.332 -0.2727  0.3663  0.3381
 9285SOL    HW139314   2.836   3.669   7.302 -1.2427  1.3934 -0.8179
 9285SOL    HW239315   2.692   3.693   7.307  0.3353  0.3971 -1.1382
 9286SOL     OW39316   2.750   4.434   0.576  0.3115  0.0466 -0.0965
 9286SOL    HW139317   2.788   4.512   0.536  2.1176 -0.0791  1.3694
 9286SOL    HW239318   2.807   4.372   0.530 -0.8089 -0.4899 -0.7510
 9287SOL     OW39319   3.270   4.345   7.778 -0.4128 -0.1070 -0.0614
 9287SOL    HW139320   3.352   4.394   7.780 -0.6049  0.1041  2.6295
 9287SOL    HW239321   3.275   4.293   7.858 -0.1165 -0.6063 -0.4063
 9288SOL     OW39322   0.536   1.671  10.874 -0.0631  0.4350 -0.1590
 9288SOL    HW139323   0.626   1.651  10.847  0.5094  1.8546  0.6909
 9288SOL    HW239324   0.533   1.627  10.958  0.2173 -0.0557 -0.4043
 9289SOL     OW39325   3.988   3.370   5.089  0.1862 -0.4062  0.5137
 9289SOL    HW139326   3.960   3.388   5.179 -0.6602 -2.7493  0.7152
 9289SOL    HW239327   3.905   3.342   5.050 -0.1200  0.9820  0.1608
 9290SOL     OW39328   3.423   0.672  16.601 -0.2343 -0.0511  0.2179
 9290SOL    HW139329   3.410   0.764  16.626 -1.0905  0.3916 -1.7873
 9290SOL    HW239330   3.368   0.667  16.522 -1.1279 -1.2595  0.9275
 9291SOL     OW39331   2.116   3.465   4.684  0.0861  0.3215 -0.6749
 9291SOL    HW139332   2.115   3.461   4.779 -2.5734  0.9889 -0.6813
 9291SOL    HW239333   2.138   3.375   4.659 -0.6174 -0.9108  3.0776
 9292SOL     OW39334   4.017   4.247  10.041  0.0518  0.3321  0.1992
 9292SOL    HW139335   4.098   4.298  10.028  1.3012 -1.4964  0.7693
 9292SOL    HW239336   4.037   4.202  10.123  0.3354 -0.8965 -0.5352
 9293SOL     OW39337   2.733   4.566   6.037 -0.2469 -0.2073 -0.0660
 9293SOL    HW139338   2.661   4.601   5.985  0.8731  1.2017 -0.6639
 9293SOL    HW239339   2.791   4.642   6.034 -1.7194  0.8577 -1.4201
 9294SOL     OW39340   1.069   3.042   5.530  0.0119 -0.5704  0.1783
 9294SOL    HW139341   1.028   3.116   5.575  0.4194  0.2275 -0.7821
 9294SOL    HW239342   1.161   3.068   5.531 -0.6335  1.6761  1.2415
 9295SOL     OW39343   1.170   2.723  11.828 -0.2860 -0.4784  0.2312
 9295SOL    HW139344   1.136   2.749  11.742  0.2022  1.7939  0.7144
 9295SOL    HW239345   1.137   2.633  11.825 -2.2065  0.1692  1.9425
 9296SOL     OW39346   0.709   2.131   0.323 -0.1845  0.0429  0.8745
 9296SOL    HW139347   0.769   2.196   0.359 -0.7942  1.1825 -0.1344
 9296SOL    HW239348   0.687   2.170   0.238  0.1915  3.1093  2.1759
 9297SOL     OW39349   3.438   3.448   5.956 -0.2735  0.1028  0.3958
 9297SOL    HW139350   3.406   3.412   5.873  0.7714 -2.2006  0.9872
 9297SOL    HW239351   3.452   3.365   6.002  0.1006 -0.3178 -0.4801
 9298SOL     OW39352   4.362   2.666   6.362  0.1053 -0.5837 -0.3071
 9298SOL    HW139353   4.285   2.701   6.406  0.1413  0.2997 -0.9480
 9298SOL    HW239354   4.349   2.698   6.273  1.1369  2.3281  0.5705
 9299SOL     OW39355   2.215   4.270   8.720  0.1399 -0.6529 -0.2155
 9299SOL    HW139356   2.136   4.217   8.709 -1.1116  1.7285 -2.6654
 9299SOL    HW239357   2.190   4.362   8.728  0.0901 -0.6958  0.0945
 9300SOL     OW39358   0.518   1.731  16.186 -0.1923 -0.0951  0.0689
 9300SOL    HW139359   0.573   1.754  16.111  2.3080  1.0606  2.2919
 9300SOL    HW239360   0.528   1.635  16.187 -2.5199 -0.3102  1.4380
 9301SOL     OW39361   1.185   1.436   3.461 -0.4936  0.1870 -0.9889
 9301SOL    HW139362   1.181   1.520   3.507 -3.0949 -1.5531  1.9596
 9301SOL    HW239363   1.208   1.466   3.372  0.7544  0.9760 -0.3951
 9302SOL     OW39364   0.099   3.567  12.634 -0.1550  0.3198  0.1603
 9302SOL    HW139365   0.031   3.543  12.697 -1.6065 -1.2746 -2.0153
 9302SOL    HW239366   0.054   3.635  12.585  0.8545  0.7310 -0.1934
 9303SOL     OW39367   2.261   0.844   5.165 -0.0370  0.0402  0.2188
 9303SOL    HW139368   2.223   0.821   5.080  0.6072  4.2957 -1.2122
 9303SOL    HW239369   2.186   0.882   5.210 -0.1833  1.9096 -1.6155
 9304SOL     OW39370   2.609   3.849   7.634 -0.4152 -0.5192 -0.2266
 9304SOL    HW139371   2.545   3.839   7.705 -0.6676 -0.5164 -0.4553
 9304SOL    HW239372   2.613   3.757   7.607 -1.6314 -0.4032 -0.8180
 9305SOL     OW39373   3.657   3.791   7.816  0.3875 -0.0267  0.5336
 9305SOL    HW139374   3.582   3.834   7.857  0.3022  0.6460 -0.3235
 9305SOL    HW239375   3.692   3.753   7.896 -0.0862  0.0310  0.7719
 9306SOL     OW39376   1.773   1.402  15.276 -0.2565 -0.0405 -0.0073
 9306SOL    HW139377   1.864   1.413  15.247 -0.2905  0.0651 -0.0746
 9306SOL    HW239378   1.726   1.369  15.199  1.8163  0.5427 -1.5338
 9307SOL     OW39379   0.804   0.959  15.840 -0.3140  0.0114  0.1421
 9307SOL    HW139380   0.895   0.932  15.830  0.4549  2.0656  1.5580
 9307SOL    HW239381   0.797   1.024  15.771  2.4567 -0.7727 -0.8639
 9308SOL     OW39382   1.984   0.247  15.794  0.1082 -0.8497  0.1341
 9308SOL    HW139383   1.994   0.285  15.707 -0.6306 -1.4772 -0.2232
 9308SOL    HW239384   1.996   0.327  15.845 -0.0487  0.6696 -2.2042
 9309SOL     OW39385   2.187   4.687   3.840 -0.6699  0.2256  0.1554
 9309SOL    HW139386   2.264   4.685   3.896  0.4476  0.5934 -1.3401
 9309SOL    HW239387   2.217   4.634   3.766  1.0760  1.6511 -0.1706
 9310SOL     OW39388   2.072   2.626   8.039 -0.4149  0.2623 -0.1013
 9310SOL    HW139389   2.168   2.627   8.043 -0.3287  1.3373 -2.4946
 9310SOL    HW239390   2.055   2.644   8.131  3.1416 -2.6086  1.1274
 9311SOL     OW39391   3.360   3.215   6.510 -0.0079  0.6258  0.1686
 9311SOL    HW139392   3.278   3.186   6.469 -0.5291 -1.1275  2.4864
 9311SOL    HW239393   3.351   3.167   6.592  0.4533  1.8931  0.9582
 9312SOL     OW39394   3.446   1.835   4.952 -0.0966 -0.0840 -0.4554
 9312SOL    HW139395   3.427   1.743   4.970 -1.8618  0.4964  0.6146
 9312SOL    HW239396   3.362   1.868   4.919 -2.0769 -1.8803  2.8612
 9313SOL     OW39397   2.862   4.374   5.480  0.3133 -0.3452 -0.3023
 9313SOL    HW139398   2.823   4.458   5.458  0.7668  0.3065  1.4015
 9313SOL    HW239399   2.875   4.380   5.575 -1.0054  0.0567 -0.1507
 9314SOL     OW39400   1.554   3.268   4.605  0.6427  0.1963  0.2458
 9314SOL    HW139401   1.490   3.227   4.546  1.0561  1.2944 -0.9666
 9314SOL    HW239402   1.605   3.188   4.621 -1.1581 -1.2737 -1.3747
 9315SOL     OW39403   2.967   3.913   5.156 -0.1723 -1.1329  0.2953
 9315SOL    HW139404   2.969   3.941   5.248 -3.0768 -1.3938  0.4336
 9315SOL    HW239405   2.888   3.861   5.147 -0.6995 -0.3249  0.2784
 9316SOL     OW39406   2.334   2.111   0.096  0.1915  0.2648 -0.3092
 9316SOL    HW139407   2.354   2.047   0.028  0.4792  1.0024 -0.9153
 9316SOL    HW239408   2.365   2.077   0.180  1.3906 -1.2406 -1.3738
 9317SOL     OW39409   0.608   3.140   3.450 -0.4645  0.0127 -0.2565
 9317SOL    HW139410   0.512   3.147   3.454 -0.5014 -0.9831  0.4060
 9317SOL    HW239411   0.618   3.233   3.431 -0.2039 -0.3141 -1.7001
 9318SOL     OW39412   2.171   3.101   8.823 -0.1901 -0.1084 -0.6469
 9318SOL    HW139413   2.209   3.039   8.886 -1.5434  0.7340  0.9909
 9318SOL    HW239414   2.217   3.184   8.834  0.7958 -0.7982  0.4393
 9319SOL     OW39415   0.066   3.575   4.025  0.1836  0.2081  0.0826
 9319SOL    HW139416   0.124   3.504   4.053 -0.0227 -0.1280 -0.3439
 9319SOL    HW239417   0.077   3.565   3.930  0.4018 -4.2407  0.5663
 9320SOL     OW39418   4.372   2.617   9.388  0.5693  0.1565  0.7995
 9320SOL    HW139419   4.400   2.581   9.304 -1.1889 -0.3686  0.4265
 9320SOL    HW239420   4.386   2.542   9.447 -0.4085  0.0557  0.9155
 9321SOL     OW39421   1.996   4.255   8.169  0.1677  0.3403 -0.3169
 9321SOL    HW139422   1.952   4.339   8.175 -1.6769 -0.7554  1.7835
 9321SOL    HW239423   2.020   4.233   8.259 -0.9680  1.4452  0.2614
 9322SOL     OW39424   1.589   2.407   8.857  0.0673 -0.1993  0.1538
 9322SOL    HW139425   1.630   2.332   8.901  1.2312  0.4317  0.1610
 9322SOL    HW239426   1.498   2.381   8.871 -0.5996  2.7022  1.1951
 9323SOL     OW39427   3.272   4.623   9.463 -0.2487  0.2801 -0.2843
 9323SOL    HW139428   3.282   4.582   9.377 -0.8621 -1.9027  0.7017
 9323SOL    HW239429   3.265   4.717   9.446  0.7070  0.2777 -0.7004
 9324SOL     OW39430   1.677   3.193  17.026  0.6132 -0.6596  0.0894
 9324SOL    HW139431   1.720   3.260  17.079  1.1837 -2.2114  1.5824
 9324SOL    HW239432   1.631   3.249  16.962  0.1697 -0.7028  0.3707
 9325SOL     OW39433   2.263   4.382  17.182  0.1123 -0.0131  0.1779
 9325SOL    HW139434   2.320   4.314  17.218  1.5383  0.7008 -0.7618
 9325SOL    HW239435   2.313   4.459  17.210  0.3195  0.0224 -0.2904
 9326SOL     OW39436   3.030   2.889   1.267 -0.9117  0.0427  0.1667
 9326SOL    HW139437   3.029   2.984   1.274 -1.2707  0.3400 -4.3362
 9326SOL    HW239438   3.016   2.873   1.174  1.7775 -1.2795  0.0114
 9327SOL     OW39439   0.227   0.168  14.435 -0.3926  0.2084 -0.4419
 9327SOL    HW139440   0.173   0.133  14.505 -0.3536  0.8900 -0.0669
 9327SOL    HW239441   0.152   0.185  14.378 -1.5926  0.0497  1.1097
 9328SOL     OW39442   2.284   2.647  16.886  0.6579 -0.1630 -0.6935
 9328SOL    HW139443   2.317   2.685  16.805  0.5783  0.9173 -0.2280
 9328SOL    HW239444   2.217   2.712  16.909 -0.6525 -1.9876  0.6557
 9329SOL     OW39445   0.827   0.407   3.341 -0.3087  0.3245 -0.2786
 9329SOL    HW139446   0.736   0.392   3.315 -0.5129  0.0486  0.6131
 9329SOL    HW239447   0.823   0.439   3.431  2.8816 -1.6395  0.5444
 9330SOL     OW39448   2.379   1.837   4.620  0.7208 -0.1126  0.3627
 9330SOL    HW139449   2.413   1.759   4.577  1.5895 -0.0923  1.0096
 9330SOL    HW239450   2.365   1.898   4.547  2.7252  0.1205  0.1714
 9331SOL     OW39451   2.259   1.392   0.558  0.2868 -0.0853 -0.4108
 9331SOL    HW139452   2.299   1.369   0.642 -1.1378 -1.9263 -0.2437
 9331SOL    HW239453   2.165   1.389   0.578  0.1291  3.2118 -0.5667
 9332SOL     OW39454   1.565   1.520   4.337 -0.1654  0.4143 -0.3091
 9332SOL    HW139455   1.565   1.589   4.271 -1.4587  0.3128 -0.4102
 9332SOL    HW239456   1.504   1.551   4.404  0.8075 -0.3871  0.9519
 9333SOL     OW39457   1.608   2.845   7.641  0.1337  0.5350 -0.1986
 9333SOL    HW139458   1.688   2.882   7.678 -1.0482  3.5088 -0.6101
 9333SOL    HW239459   1.601   2.759   7.684 -0.4727  0.6167 -0.1284
 9334SOL     OW39460   3.466   3.714  17.537  0.0177 -0.0944  0.5704
 9334SOL    HW139461   3.485   3.716  17.443  0.0136  1.7851  0.6081
 9334SOL    HW239462   3.454   3.807  17.559  1.2331  0.5533 -1.5767
 9335SOL     OW39463   0.638   2.621  13.321  0.0138 -0.0004  0.3339
 9335SOL    HW139464   0.596   2.567  13.255 -0.9830  0.3274  0.7024
 9335SOL    HW239465   0.715   2.651  13.274  1.2665  0.5684  2.7134
 9336SOL     OW39466   2.720   4.491  16.152  0.1976  0.0220  0.2564
 9336SOL    HW139467   2.718   4.406  16.195 -1.5631  0.7980  1.7560
 9336SOL    HW239468   2.695   4.551  16.223  0.1770  1.1618 -0.7249
 9337SOL     OW39469   3.570   4.470   5.251 -0.2482 -0.1586  0.0983
 9337SOL    HW139470   3.660   4.479   5.218 -0.7777  1.1863 -0.9658
 9337SOL    HW239471   3.528   4.545   5.208  2.1963  0.7884 -0.6282
 9338SOL     OW39472   2.784   3.018  16.653  0.9531 -0.7219 -0.1649
 9338SOL    HW139473   2.833   3.007  16.572  2.2518  0.5079  0.4606
 9338SOL    HW239474   2.743   2.932  16.646  0.9984 -1.0894  3.9394
 9339SOL     OW39475   1.536   0.035   8.666  0.3507  0.3652 -0.2098
 9339SOL    HW139476   1.447   0.003   8.655  0.8848 -0.5758 -1.8339
 9339SOL    HW239477   1.552   0.082   8.584  2.4018 -1.5396 -0.9336
 9340SOL     OW39478   0.373   1.120   4.642 -0.0096  0.2540  0.2915
 9340SOL    HW139479   0.280   1.103   4.659  0.2872  0.1255  1.7783
 9340SOL    HW239480   0.411   1.033   4.632 -0.5188 -0.1358  1.8896
 9341SOL     OW39481   1.566   2.567  10.314  0.3151 -0.0800 -0.1979
 9341SOL    HW139482   1.528   2.650  10.340  0.1420  0.1592 -1.2189
 9341SOL    HW239483   1.623   2.548  10.389  0.2642 -1.1419 -0.4237
 9342SOL     OW39484   2.885   2.031   4.734  0.3679  0.0896 -0.6589
 9342SOL    HW139485   2.932   1.992   4.808 -1.0201 -0.4939 -0.0650
 9342SOL    HW239486   2.911   2.122   4.745 -3.0533  0.8851  1.0936
 9343SOL     OW39487   1.633   0.965   6.167  0.1033  0.2736  0.4261
 9343SOL    HW139488   1.656   1.035   6.107  0.4503  0.2002  0.4706
 9343SOL    HW239489   1.708   0.906   6.156  1.1239  1.6305  0.2255
 9344SOL     OW39490   1.285   4.630   8.643 -0.3039 -0.2845  0.2278
 9344SOL    HW139491   1.202   4.651   8.685 -0.0240 -0.5934  0.9421
 9344SOL    HW239492   1.241   4.623   8.559 -0.8886 -0.8078  0.5717
 9345SOL     OW39493   2.927   0.244   9.886 -0.4324 -0.3235 -0.2208
 9345SOL    HW139494   2.843   0.248   9.843 -1.0817  1.3460  1.1878
 9345SOL    HW239495   2.912   0.202   9.971  0.2518  0.7257  0.4184
 9346SOL     OW39496   3.412   0.057   1.182 -0.2955  0.0595  0.8843
 9346SOL    HW139497   3.507   0.067   1.173 -0.1778 -1.4971  0.3635
 9346SOL    HW239498   3.378   0.130   1.131 -2.0833  0.6024  2.8755
 9347SOL     OW39499   1.238   4.147   3.732 -0.2421  0.1877 -0.6408
 9347SOL    HW139500   1.235   4.082   3.803  0.6530 -0.0480 -0.8155
 9347SOL    HW239501   1.242   4.229   3.782  2.0205  0.5466 -1.4134
 9348SOL     OW39502   1.859   2.155   5.772 -0.7888  0.7210 -0.2236
 9348SOL    HW139503   1.882   2.183   5.683  1.8685 -0.6691  0.0118
 9348SOL    HW239504   1.852   2.241   5.813 -2.2468  0.1332  0.7322
 9349SOL     OW39505   3.859   3.698  16.086  0.2451 -0.3570 -0.8027
 9349SOL    HW139506   3.899   3.694  15.999  0.4570  1.4878 -0.7956
 9349SOL    HW239507   3.791   3.765  16.075  0.9587  0.1228 -2.4312
 9350SOL     OW39508   4.067   0.926   2.282  0.0095 -0.1790 -0.4560
 9350SOL    HW139509   4.030   1.005   2.242 -0.4032  0.1346  0.5503
 9350SOL    HW239510   3.998   0.893   2.340 -0.3909  1.5249  0.0442
 9351SOL     OW39511   0.324   4.583   7.986 -0.0012  0.5943 -0.2131
 9351SOL    HW139512   0.343   4.587   8.080  0.0225 -0.4211 -0.1766
 9351SOL    HW239513   0.232   4.608   7.984 -0.1777  0.1404  2.1690
 9352SOL     OW39514   1.295   1.661   4.567  0.3764 -0.6699  0.4313
 9352SOL    HW139515   1.271   1.690   4.479  2.1547 -1.0417 -0.1787
 9352SOL    HW239516   1.300   1.565   4.559  0.3166 -0.6553  0.2312
 9353SOL     OW39517   0.726   2.774   2.344  0.1620  0.1214  0.2392
 9353SOL    HW139518   0.640   2.767   2.385 -1.2045  1.6874 -2.3403
 9353SOL    HW239519   0.705   2.816   2.260  1.4216 -0.9293 -0.6073
 9354SOL     OW39520   0.598   0.050  16.633 -0.3199  0.6154 -0.1566
 9354SOL    HW139521   0.548   0.035  16.554 -0.0868  1.4636 -0.4615
 9354SOL    HW239522   0.686   0.037  16.597 -0.1884 -0.3256  0.4960
 9355SOL     OW39523   0.740   1.017   6.608  0.0568  0.0160  0.4118
 9355SOL    HW139524   0.782   1.092   6.567 -1.6936  1.2191  0.8163
 9355SOL    HW239525   0.660   1.018   6.555  0.7904 -1.4402 -0.7341
 9356SOL     OW39526   3.076   1.747   4.027  0.1041 -0.1668 -0.4896
 9356SOL    HW139527   3.089   1.660   4.065 -0.5821 -0.9783 -2.1169
 9356SOL    HW239528   3.109   1.802   4.098  0.7794  0.1750 -1.0800
 9357SOL     OW39529   0.081   2.632   7.811  0.2619 -0.4283  0.0730
 9357SOL    HW139530   0.149   2.697   7.796 -0.1531 -0.0425 -0.1417
 9357SOL    HW239531   0.033   2.691   7.869 -0.3971 -0.9339  0.0497
 9358SOL     OW39532   3.641   3.206  14.447 -0.0059 -0.1640  0.4437
 9358SOL    HW139533   3.665   3.121  14.409  1.6747  0.0874  0.9883
 9358SOL    HW239534   3.569   3.225  14.386  0.7926  0.3077 -0.3397
 9359SOL     OW39535   1.153   3.517   6.371  0.0783 -0.4931 -0.3375
 9359SOL    HW139536   1.164   3.462   6.449 -2.3337 -1.1481 -0.4649
 9359SOL    HW239537   1.176   3.461   6.296 -0.2116  2.0503 -2.3075
 9360SOL     OW39538   0.316   4.275   3.515  0.0628  0.3136 -0.3142
 9360SOL    HW139539   0.232   4.271   3.468 -0.7361 -0.1388  1.1517
 9360SOL    HW239540   0.288   4.243   3.601 -0.6813 -2.3052 -1.5497
 9361SOL     OW39541   3.958   1.792  15.800 -0.2939  0.0327  0.0719
 9361SOL    HW139542   3.883   1.785  15.859 -0.0717  1.1940  0.4883
 9361SOL    HW239543   3.932   1.716  15.748 -0.6046  0.8007 -0.8939
 9362SOL     OW39544   2.736   2.881   6.259  0.0458  0.0998 -0.2700
 9362SOL    HW139545   2.761   2.964   6.298 -0.4068 -0.2835  0.8245
 9362SOL    HW239546   2.798   2.821   6.300 -0.8569  0.2348  1.2879
 9363SOL     OW39547   2.520   2.482   3.804  0.2631 -0.3124  0.1304
 9363SOL    HW139548   2.467   2.484   3.883 -0.0112  0.2091 -0.0645
 9363SOL    HW239549   2.528   2.390   3.782  0.6304 -0.1454 -0.4563
 9364SOL     OW39550   4.376   0.543   6.572  0.1754  1.4131  0.2396
 9364SOL    HW139551   4.304   0.502   6.620  1.6612 -0.3742  0.9413
 9364SOL    HW239552   4.340   0.626   6.541 -1.0379  0.5379 -0.6930
 9365SOL     OW39553   2.621   4.036   3.463 -0.0570  0.5516 -0.4302
 9365SOL    HW139554   2.588   3.971   3.401 -0.6405 -0.4546  0.9227
 9365SOL    HW239555   2.559   4.027   3.536 -1.7237 -0.0748 -1.9110
 9366SOL     OW39556   2.979   2.295   2.049 -0.0659 -0.0161  0.7558
 9366SOL    HW139557   2.965   2.229   1.981 -1.4151  0.5144  0.5217
 9366SOL    HW239558   3.054   2.347   2.017  0.3381 -1.8167 -1.2238
 9367SOL     OW39559   3.870   2.651  10.367 -0.6508 -0.2917  0.5144
 9367SOL    HW139560   3.918   2.707  10.427  0.6040 -0.2270 -0.5644
 9367SOL    HW239561   3.896   2.559  10.377 -0.4230 -0.0646  2.0616
 9368SOL     OW39562   0.345   0.191   6.774 -0.7142  0.7010 -0.4844
 9368SOL    HW139563   0.267   0.174   6.722 -0.7763  0.2950 -0.2570
 9368SOL    HW239564   0.409   0.125   6.748  0.9244  1.2715  2.1559
 9369SOL     OW39565   3.115   1.458   9.867  0.6508 -0.6711  0.3329
 9369SOL    HW139566   3.130   1.546   9.834 -0.7664  0.1799  2.0055
 9369SOL    HW239567   3.022   1.449   9.848  0.6365  1.7778 -0.8217
 9370SOL     OW39568   3.243   3.376   4.835  0.3890  0.1347  0.6171
 9370SOL    HW139569   3.171   3.363   4.773  2.8136 -0.9686 -1.9770
 9370SOL    HW239570   3.197   3.443   4.885  0.3079  2.3945 -2.4141
 9371SOL     OW39571   0.910   3.988   7.603  0.6210 -0.5058 -0.2214
 9371SOL    HW139572   0.875   3.899   7.613  0.2577 -0.2932  0.3811
 9371SOL    HW239573   0.937   4.011   7.692  2.1666 -0.7591 -0.6193
 9372SOL     OW39574   0.815   1.458   9.298  0.8906  0.4904  0.5983
 9372SOL    HW139575   0.846   1.440   9.387 -0.6076  0.3480  1.0932
 9372SOL    HW239576   0.754   1.385   9.297  0.9664  0.4012  2.0384
 9373SOL     OW39577   1.137   4.142  11.356  0.6843 -0.3434 -0.2582
 9373SOL    HW139578   1.113   4.226  11.319  1.6129  0.3697  0.7459
 9373SOL    HW239579   1.063   4.096  11.318  0.1804  0.5725 -0.3679
 9374SOL     OW39580   1.675   2.050   0.303 -0.7733 -0.2169  0.4427
 9374SOL    HW139581   1.664   2.128   0.249 -0.7450  0.5541  1.5546
 9374SOL    HW239582   1.644   1.980   0.246 -0.2831  0.2419 -0.4003
 9375SOL     OW39583   3.982   4.263   7.303  0.2481  0.1781  0.1884
 9375SOL    HW139584   4.021   4.202   7.365  1.2795  1.3844  0.7106
 9375SOL    HW239585   3.891   4.256   7.332  0.0906 -2.3618 -0.8715
 9376SOL     OW39586   3.396   2.538  15.168  0.4508 -0.7567  0.1526
 9376SOL    HW139587   3.435   2.563  15.252  2.0123 -3.2546  0.1677
 9376SOL    HW239588   3.316   2.498  15.204 -0.0013  0.1170  0.1209
 9377SOL     OW39589   4.024   2.691  17.692 -0.5197 -0.4326 -0.1496
 9377SOL    HW139590   4.097   2.686   0.059  0.7151  0.0469 -1.5788
 9377SOL    HW239591   4.027   2.786  17.686  0.2992 -0.3220  2.2806
 9378SOL     OW39592   1.203   4.083   8.729  0.3769  0.0140 -0.1557
 9378SOL    HW139593   1.234   3.994   8.750 -1.4878 -0.1823  1.7767
 9378SOL    HW239594   1.117   4.053   8.700  0.7483  0.3662 -1.6686
 9379SOL     OW39595   3.592   3.328  13.104  0.1580 -0.3565  0.3792
 9379SOL    HW139596   3.539   3.405  13.084  0.4399 -0.3268 -0.2441
 9379SOL    HW239597   3.623   3.347  13.192 -0.5984 -3.7259  1.3806
 9380SOL     OW39598   1.707   1.212   7.082 -0.1920 -0.3641  0.1521
 9380SOL    HW139599   1.613   1.221   7.094 -0.7599 -2.1665 -2.9937
 9380SOL    HW239600   1.714   1.127   7.039  2.9633  2.2373 -4.4487
 9381SOL     OW39601   1.509   0.159   8.177 -0.6667 -0.2024 -0.2228
 9381SOL    HW139602   1.552   0.155   8.262 -0.2578 -1.4093 -0.4790
 9381SOL    HW239603   1.511   0.068   8.146 -0.7071  0.2148 -1.4618
 9382SOL     OW39604   1.733   3.637  17.622  0.0935  0.2709  0.3618
 9382SOL    HW139605   1.686   3.721  17.624 -1.7962 -0.8404  2.9685
 9382SOL    HW239606   1.670   3.587  17.674  0.9591 -2.4028 -1.1976
 9383SOL     OW39607   0.219   1.170   4.284  0.1066 -0.3509 -0.3177
 9383SOL    HW139608   0.179   1.083   4.282  0.9546 -0.7573  0.3631
 9383SOL    HW239609   0.209   1.188   4.378  0.0685 -1.7318 -0.0525
 9384SOL     OW39610   3.704   2.032  10.348  0.3369  0.3289 -0.0908
 9384SOL    HW139611   3.775   2.036  10.412  1.7272 -0.3762 -1.5970
 9384SOL    HW239612   3.634   1.994  10.401  0.1472  0.1353 -0.4801
 9385SOL     OW39613   3.448   3.834   8.459  0.7291 -0.6937  0.1301
 9385SOL    HW139614   3.522   3.781   8.487  0.8573  0.8986  2.7461
 9385SOL    HW239615   3.474   3.924   8.480  0.2845 -0.6587  0.5392
 9386SOL     OW39616   4.200   0.362   8.367  0.2874  0.3926 -0.3481
 9386SOL    HW139617   4.145   0.421   8.314  1.4381  1.5754 -0.2207
 9386SOL    HW239618   4.199   0.285   8.310 -0.2768 -0.5001  0.8676
 9387SOL     OW39619   3.640   1.165   2.894 -0.1886 -0.5193  0.1262
 9387SOL    HW139620   3.571   1.166   2.960  0.4356 -0.0336  0.7678
 9387SOL    HW239621   3.712   1.127   2.944 -0.2506 -0.7080  0.0712
 9388SOL     OW39622   0.476   1.486   6.758  0.3700 -0.2388  0.3125
 9388SOL    HW139623   0.473   1.445   6.672 -1.8585  0.5951  0.0064
 9388SOL    HW239624   0.464   1.404   6.807  1.3524 -0.3858  0.2967
 9389SOL     OW39625   3.836   4.150   8.955 -0.0064 -0.2264  0.9701
 9389SOL    HW139626   3.866   4.133   9.044  1.3796 -0.2890  0.4891
 9389SOL    HW239627   3.787   4.071   8.933 -0.2840  0.7433 -1.9718
 9390SOL     OW39628   0.796   4.493   7.895 -0.3381 -0.3607  0.4849
 9390SOL    HW139629   0.704   4.500   7.867 -1.4067 -0.7505  3.8913
 9390SOL    HW239630   0.836   4.491   7.808 -0.0243 -0.8474  0.6386
 9391SOL     OW39631   0.891   0.152  15.147 -0.3350 -0.1642 -0.6526
 9391SOL    HW139632   0.968   0.154  15.204 -0.5951  1.1231 -0.3490
 9391SOL    HW239633   0.930   0.150  15.060  0.5417  2.8166 -0.3175
 9392SOL     OW39634   1.013   2.581   2.146 -0.1790 -0.2019 -0.3350
 9392SOL    HW139635   0.982   2.609   2.060  2.1070  2.0638 -0.4372
 9392SOL    HW239636   1.067   2.505   2.125 -0.8600 -0.9120  0.5058
 9393SOL     OW39637   1.653   2.453  13.592 -0.0720  0.1149 -0.2229
 9393SOL    HW139638   1.578   2.494  13.634  0.8675 -1.3713  2.9878
 9393SOL    HW239639   1.708   2.454  13.671 -1.1012 -0.5093  0.5154
 9394SOL     OW39640   0.751   0.175   9.529 -0.3992  0.6722  0.5701
 9394SOL    HW139641   0.767   0.239   9.599  0.4342 -2.0361  2.8677
 9394SOL    HW239642   0.754   0.233   9.453  0.4066  0.2935  0.3182
 9395SOL     OW39643   3.181   2.209   8.181  0.2299 -0.6143 -0.0333
 9395SOL    HW139644   3.095   2.246   8.202  0.2743  0.3311 -1.5034
 9395SOL    HW239645   3.176   2.205   8.085 -0.0580  1.7791 -0.1164
 9396SOL     OW39646   2.722   1.878  12.411  0.0062 -0.6203 -0.6650
 9396SOL    HW139647   2.736   1.830  12.329  1.3145  0.7573 -1.2636
 9396SOL    HW239648   2.725   1.970  12.384  2.3119 -0.2799  0.7736
 9397SOL     OW39649   2.796   3.127  10.506  0.1746 -0.5903 -0.0965
 9397SOL    HW139650   2.843   3.083  10.576  0.9578  0.4037  0.0061
 9397SOL    HW239651   2.708   3.095  10.525 -0.1868 -0.3147 -1.2678
 9398SOL     OW39652   2.258   3.205  15.514 -0.7080  0.1932  0.9018
 9398SOL    HW139653   2.326   3.150  15.476 -0.6299  0.7631  0.2385
 9398SOL    HW239654   2.241   3.159  15.597  2.5396  1.7352  2.3966
 9399SOL     OW39655   3.847   2.314   2.239  0.0173 -0.5437  0.0359
 9399SOL    HW139656   3.900   2.268   2.305  1.8720 -0.2817 -1.2525
 9399SOL    HW239657   3.921   2.349   2.189  0.9303  0.0954  1.8077
 9400SOL     OW39658   0.371   2.816   7.192  0.7590  0.0731  0.0002
 9400SOL    HW139659   0.413   2.748   7.245  0.9157 -0.5225 -0.8877
 9400SOL    HW239660   0.454   2.851   7.160  2.0756 -1.8970  1.2379
 9401SOL     OW39661   2.627   2.243   2.050  0.7114  0.0997 -0.0001
 9401SOL    HW139662   2.640   2.252   1.956  1.3842 -0.4854  0.0368
 9401SOL    HW239663   2.557   2.178   2.059  2.0884 -1.2499  0.9370
 9402SOL     OW39664   3.702   2.941   6.133  0.1460 -0.1494 -0.3667
 9402SOL    HW139665   3.635   2.971   6.195 -1.5359 -3.0033 -0.7970
 9402SOL    HW239666   3.666   2.963   6.047  1.8086  2.7739 -0.3387
 9403SOL     OW39667   1.215   0.675   2.152  0.0946  0.2947 -0.1961
 9403SOL    HW139668   1.134   0.644   2.192  0.0162 -1.4323 -1.6855
 9403SOL    HW239669   1.251   0.730   2.222 -0.2431 -2.1568  1.9252
 9404SOL     OW39670   0.037   2.005   4.572  0.0360  0.5947 -0.0889
 9404SOL    HW139671   0.107   2.055   4.529  1.1109 -0.2403  0.7136
 9404SOL    HW239672   0.003   2.070   4.633  1.4740  1.5176 -0.2481
 9405SOL     OW39673   1.882   2.053  12.753  0.0388  0.3923  0.2892
 9405SOL    HW139674   1.886   2.071  12.847  1.1231  1.3687  0.0643
 9405SOL    HW239675   1.825   2.123  12.721  2.5577  0.8567 -3.2220
 9406SOL     OW39676   2.333   2.058  14.205  0.3268  0.8797 -0.0375
 9406SOL    HW139677   2.348   2.152  14.201  1.9949  0.5921 -0.7096
 9406SOL    HW239678   2.427   2.039  14.202  0.1423 -0.3027  1.2574
 9407SOL     OW39679   2.790   1.694   6.771  0.1552 -0.6238 -0.2320
 9407SOL    HW139680   2.856   1.753   6.737 -0.5741  0.5205  0.3197
 9407SOL    HW239681   2.715   1.753   6.764  0.8873  0.1497 -1.3562
 9408SOL     OW39682   0.955   0.922   4.676  0.2333 -0.4780 -0.5027
 9408SOL    HW139683   1.009   0.928   4.598 -1.0988  1.5825 -1.2589
 9408SOL    HW239684   0.998   0.988   4.731 -0.2211 -1.0065  0.4955
 9409SOL     OW39685   1.817   0.107  13.171  0.1990  1.1757  0.1150
 9409SOL    HW139686   1.819   0.033  13.231 -1.7502  1.5175  0.5804
 9409SOL    HW239687   1.724   0.122  13.158 -0.3997 -2.1878  0.4738
 9410SOL     OW39688   3.928   4.581  13.726  0.9173  0.5313 -0.0876
 9410SOL    HW139689   3.957   4.626  13.805 -4.1542 -0.7479  2.5018
 9410SOL    HW239690   3.906   4.658  13.673  1.2337 -0.6076 -1.8949
 9411SOL     OW39691   0.498   4.077  16.737  0.0941 -0.0566  0.5597
 9411SOL    HW139692   0.510   4.151  16.797 -1.5660 -0.2178  1.1039
 9411SOL    HW239693   0.541   4.004  16.783  1.5496  1.0589  0.9544
 9412SOL     OW39694   0.751   0.527   3.602 -0.6345  0.3260  0.3138
 9412SOL    HW139695   0.671   0.577   3.588 -0.9996 -0.6249 -0.9642
 9412SOL    HW239696   0.806   0.579   3.662 -0.0362  0.1827 -0.1099
 9413SOL     OW39697   0.978   1.861   5.737 -0.3824 -0.2892  0.3308
 9413SOL    HW139698   1.016   1.849   5.650 -0.2085  1.2394  0.1883
 9413SOL    HW239699   0.902   1.918   5.723  0.2846  0.6493  0.4733
 9414SOL     OW39700   4.174   1.863  10.531  0.0990  0.2468 -0.1835
 9414SOL    HW139701   4.110   1.844  10.600  0.5216 -0.4792  0.0187
 9414SOL    HW239702   4.233   1.787  10.533 -0.0810  0.1209  0.4126
 9415SOL     OW39703   1.238   2.227   7.794  0.2323 -0.0914  0.3187
 9415SOL    HW139704   1.259   2.280   7.870  1.0869 -0.6974  0.5115
 9415SOL    HW239705   1.201   2.289   7.731 -0.2548 -0.0473  0.6545
 9416SOL     OW39706   4.078   2.976   7.589 -0.2700 -0.0732  0.8219
 9416SOL    HW139707   4.156   2.924   7.610 -1.5837 -1.0822  3.1912
 9416SOL    HW239708   4.110   3.065   7.571 -2.4899  0.3340 -1.1742
 9417SOL     OW39709   2.146   0.311   4.252  0.2407 -0.1240  0.5767
 9417SOL    HW139710   2.237   0.340   4.260  0.8568 -1.9137  0.0665
 9417SOL    HW239711   2.103   0.369   4.189 -0.2025 -0.0884  0.9113
 9418SOL     OW39712   0.832   1.661  16.957  0.0674 -0.2053  0.2730
 9418SOL    HW139713   0.829   1.566  16.955  0.2004 -0.2009 -0.2338
 9418SOL    HW239714   0.803   1.672  17.048  1.1582  0.5116  0.5345
 9419SOL     OW39715   3.384   0.346   0.585 -0.2472  0.5941 -0.1462
 9419SOL    HW139716   3.357   0.394   0.507  1.1936  1.6564 -0.0016
 9419SOL    HW239717   3.301   0.340   0.632  0.3993  0.0561  0.9353
 9420SOL     OW39718   0.299   2.289   8.586  0.4274 -0.9316  1.3035
 9420SOL    HW139719   0.215   2.257   8.618 -0.8247 -0.2909 -1.3465
 9420SOL    HW239720   0.308   2.361   8.649  0.5378 -1.3518  1.7609
 9421SOL     OW39721   2.392   2.656  10.096 -0.6681 -0.5464  0.7485
 9421SOL    HW139722   2.465   2.595  10.100 -1.4297 -1.4343  0.9772
 9421SOL    HW239723   2.322   2.596  10.071 -0.7243 -0.5109  0.8198
 9422SOL     OW39724   1.279   2.018  11.100 -0.7146 -0.1198  0.2023
 9422SOL    HW139725   1.258   2.064  11.181 -1.1423  0.4307 -0.2181
 9422SOL    HW239726   1.282   2.085  11.032 -1.3591  0.9964  1.2648
 9423SOL     OW39727   2.678   1.179   5.984 -0.3363  0.5083 -0.0386
 9423SOL    HW139728   2.631   1.134   6.055  0.5769 -1.0868 -0.4373
 9423SOL    HW239729   2.616   1.251   5.974 -0.9498 -0.3146 -2.2921
 9424SOL     OW39730   0.301   2.607   0.074  0.1315 -0.0180  0.1264
 9424SOL    HW139731   0.210   2.597   0.044  0.1126  1.4993 -0.3114
 9424SOL    HW239732   0.298   2.699   0.098 -1.9648  0.1705 -0.8408
 9425SOL     OW39733   4.150   3.295  11.930  0.6285 -0.1354  0.2812
 9425SOL    HW139734   4.180   3.386  11.923 -0.9314  0.4396  0.9740
 9425SOL    HW239735   4.229   3.243  11.915  0.3382 -0.3596 -0.4530
 9426SOL     OW39736   1.339   0.725   6.599  0.0540  0.3970  0.0922
 9426SOL    HW139737   1.289   0.696   6.522 -1.8932  0.6095  1.2920
 9426SOL    HW239738   1.420   0.678   6.578 -0.9400 -0.6065 -1.4580
 9427SOL     OW39739   1.178   4.003  16.076  0.4708  0.1593 -0.0068
 9427SOL    HW139740   1.176   3.998  15.980 -0.0949  0.1507  0.0091
 9427SOL    HW239741   1.271   4.000  16.099  0.8827 -2.5602 -2.0470
 9428SOL     OW39742   2.620   4.413   5.811  0.3130 -0.4413 -0.4013
 9428SOL    HW139743   2.594   4.385   5.723  0.0350 -2.8212  0.4478
 9428SOL    HW239744   2.572   4.496   5.815  1.2309  0.1740 -2.1055
 9429SOL     OW39745   3.757   0.286   5.979  0.0965  0.1456  0.0528
 9429SOL    HW139746   3.675   0.334   5.965 -0.4116 -0.5833  0.5504
 9429SOL    HW239747   3.760   0.282   6.075 -1.1641  1.4475  0.1586
 9430SOL     OW39748   1.783   1.603   1.113  0.0657  0.0361 -0.5819
 9430SOL    HW139749   1.820   1.626   1.198 -0.1462 -1.1613 -0.1802
 9430SOL    HW239750   1.823   1.671   1.058  0.0522 -0.4588 -1.1973
 9431SOL     OW39751   1.328   1.898  15.952  0.4118 -0.5625  0.4733
 9431SOL    HW139752   1.304   1.912  16.043 -1.0859  0.1624 -0.0529
 9431SOL    HW239753   1.307   1.981  15.910 -1.0845 -1.1327  0.1340
 9432SOL     OW39754   0.755   0.540   2.373  0.2872 -0.1664 -0.3877
 9432SOL    HW139755   0.703   0.611   2.336 -0.1937 -0.4746 -0.3162
 9432SOL    HW239756   0.699   0.464   2.392 -0.9915  1.0155  0.5312
 9433SOL     OW39757   1.530   3.416   6.684 -0.2962 -0.1538  0.0164
 9433SOL    HW139758   1.478   3.466   6.621 -0.2714  1.6924  1.4519
 9433SOL    HW239759   1.615   3.416   6.641  0.4508 -0.7976  1.4985
 9434SOL     OW39760   0.390   0.592   8.014  0.2346  0.0242 -0.1026
 9434SOL    HW139761   0.360   0.538   7.941 -1.8547  2.1729 -0.8594
 9434SOL    HW239762   0.478   0.564   8.036  0.6314  0.1662 -1.4749
 9435SOL     OW39763   2.133   1.269  15.884  0.4050  0.1700  0.2074
 9435SOL    HW139764   2.191   1.344  15.875  1.5608 -0.8131 -0.4806
 9435SOL    HW239765   2.049   1.313  15.875  0.1895 -0.4025 -0.5999
 9436SOL     OW39766   2.670   2.980  14.589  0.0073 -0.1993  0.4077
 9436SOL    HW139767   2.629   2.924  14.655 -0.2134 -1.2616 -0.6162
 9436SOL    HW239768   2.695   2.915  14.523 -0.5316 -0.3367  0.3434
 9437SOL     OW39769   4.296   1.163   8.819 -0.9110 -0.5392 -0.2712
 9437SOL    HW139770   4.224   1.225   8.806  0.2342  1.0243  0.8993
 9437SOL    HW239771   4.345   1.226   8.872  0.2586 -2.0782  0.4748
 9438SOL     OW39772   2.776   0.244   3.855 -0.0019 -0.1672 -0.7368
 9438SOL    HW139773   2.860   0.267   3.895 -0.5311  1.7148 -0.7518
 9438SOL    HW239774   2.811   0.197   3.779  4.3025 -1.7120  2.1569
 9439SOL     OW39775   2.993   2.740   0.868 -0.3544  0.3341  0.2229
 9439SOL    HW139776   2.937   2.676   0.825  2.3475 -1.8132 -0.1257
 9439SOL    HW239777   3.048   2.774   0.797 -1.0653  1.6575  0.3115
 9440SOL     OW39778   0.281   0.690   4.446 -0.1566  0.1265  0.1437
 9440SOL    HW139779   0.273   0.600   4.478  0.4439 -0.4460 -1.3021
 9440SOL    HW239780   0.296   0.664   4.354 -0.7876  0.7256 -0.1274
 9441SOL     OW39781   2.991   0.849   7.828  0.5758 -0.3165  1.0735
 9441SOL    HW139782   2.924   0.914   7.850  0.5049 -0.3695  1.0155
 9441SOL    HW239783   3.018   0.823   7.916  2.8501  1.0668  0.7807
 9442SOL     OW39784   2.458   0.772   6.020 -0.1466  0.0938 -0.3716
 9442SOL    HW139785   2.382   0.830   6.016 -0.5751 -0.6659 -3.0561
 9442SOL    HW239786   2.511   0.830   6.074 -0.7587  1.1488 -0.9142
 9443SOL     OW39787   2.636   1.987   1.207  0.0740  0.2064 -0.8606
 9443SOL    HW139788   2.678   2.008   1.124  0.6477  0.5226 -0.4899
 9443SOL    HW239789   2.590   1.906   1.185 -1.0096  1.1183 -1.9833
 9444SOL     OW39790   4.456   1.764  11.948 -0.2805  0.3176 -0.8236
 9444SOL    HW139791   4.491   1.699  12.008 -1.6019  2.1100  1.8887
 9444SOL    HW239792   4.370   1.773  11.989  0.3702 -1.9447  1.0265
 9445SOL     OW39793   0.043   1.372   6.303 -0.0678 -0.4805  0.0237
 9445SOL    HW139794   4.702   1.301   6.301  0.9173 -1.3729  0.0492
 9445SOL    HW239795   0.116   1.320   6.338  0.0487 -1.9186 -2.3668
 9446SOL     OW39796   3.518   2.039   8.760 -0.4421  0.5189  0.1213
 9446SOL    HW139797   3.535   2.050   8.666  1.3613 -0.9596  0.2670
 9446SOL    HW239798   3.541   1.948   8.781  1.3397  0.8808 -0.2622
 9447SOL     OW39799   2.006   3.818   3.823  0.6469  0.1784 -0.6881
 9447SOL    HW139800   2.003   3.784   3.912 -2.6448  0.5107 -0.6560
 9447SOL    HW239801   1.987   3.911   3.836 -0.9078 -0.5253  2.0477
 9448SOL     OW39802   3.576   3.494   7.084 -0.5791  0.2438 -0.2807
 9448SOL    HW139803   3.554   3.406   7.054 -2.0663  0.6579 -0.3845
 9448SOL    HW239804   3.649   3.533   7.035  1.8137 -0.8292  2.4646
 9449SOL     OW39805   1.040   1.517   4.254  0.4242  0.3386  0.1750
 9449SOL    HW139806   1.017   1.520   4.347  3.8982  0.5594  0.9962
 9449SOL    HW239807   1.124   1.560   4.270  0.8007  0.4551 -2.1103
 9450SOL     OW39808   0.397   1.702   2.643  0.7036  0.3971 -0.0713
 9450SOL    HW139809   0.367   1.788   2.672 -1.2285 -0.3721  0.2102
 9450SOL    HW239810   0.342   1.682   2.568  0.2953 -0.4123  0.4504
 9451SOL     OW39811   2.523   0.767   5.039 -0.0652  0.1458 -0.5360
 9451SOL    HW139812   2.616   0.777   5.021 -0.1956 -0.5670 -1.6330
 9451SOL    HW239813   2.491   0.840   4.987 -1.1170 -0.2858 -0.4864
 9452SOL     OW39814   2.281   3.817  11.745  0.1680  0.1874 -0.4132
 9452SOL    HW139815   2.295   3.797  11.837 -0.9809  3.4731  0.4787
 9452SOL    HW239816   2.251   3.908  11.746 -0.2437  0.0247  1.4128
 9453SOL     OW39817   4.129   1.902   6.121  0.0979  0.1588 -0.6114
 9453SOL    HW139818   4.158   1.841   6.188  1.7938 -0.5131 -1.9500
 9453SOL    HW239819   4.192   1.973   6.134  1.4762 -1.0063 -0.9852
 9454SOL     OW39820   4.439   2.863   1.422  0.3339 -0.0458  0.9954
 9454SOL    HW139821   4.410   2.836   1.509 -0.6436 -0.3873  0.5682
 9454SOL    HW239822   4.439   2.773   1.390  2.2843  0.3435 -0.1071
 9455SOL     OW39823   2.263   0.491   8.326  0.0849 -1.0250  0.3049
 9455SOL    HW139824   2.315   0.440   8.264 -1.2072 -0.1922 -1.4489
 9455SOL    HW239825   2.294   0.471   8.414 -2.5470 -0.9114  1.2735
 9456SOL     OW39826   4.191   0.039   5.118 -0.6034 -0.4202 -0.2652
 9456SOL    HW139827   4.201   4.667   5.117 -0.2922 -0.3842 -0.9786
 9456SOL    HW239828   4.224   0.058   5.206 -2.0540  1.8741 -0.2156
 9457SOL     OW39829   3.236   1.310   1.354  0.2728  0.7497 -0.9371
 9457SOL    HW139830   3.296   1.361   1.409 -1.7332  0.8663  1.1030
 9457SOL    HW239831   3.296   1.270   1.291 -2.4813 -0.0178 -3.0343
 9458SOL     OW39832   2.947   2.469   7.595 -0.3473  0.0952 -0.1546
 9458SOL    HW139833   2.964   2.549   7.645  0.7390 -1.8047  2.5219
 9458SOL    HW239834   3.030   2.452   7.551  0.6016  3.0552  0.4652
 9459SOL     OW39835   4.145   0.376   3.794 -0.2783  0.1868 -0.0344
 9459SOL    HW139836   4.191   0.453   3.760 -0.5403 -0.1096 -1.0379
 9459SOL    HW239837   4.183   0.306   3.741 -1.1174 -1.2514  1.2777
 9460SOL     OW39838   2.793   4.243  15.462 -0.3133 -0.4301  0.0586
 9460SOL    HW139839   2.715   4.298  15.472  0.7566  1.1848 -0.3717
 9460SOL    HW239840   2.808   4.231  15.556  2.9766  1.4474 -0.2371
 9461SOL     OW39841   0.572   4.253   3.437  0.0501  0.2214  0.5856
 9461SOL    HW139842   0.575   4.157   3.436 -2.7633  0.1208 -0.4113
 9461SOL    HW239843   0.479   4.263   3.458 -0.8207 -2.5561 -1.8405
 9462SOL     OW39844   3.982   1.806   1.328 -0.2707 -0.1825  0.4450
 9462SOL    HW139845   3.959   1.802   1.236  0.5942 -1.3605  0.2746
 9462SOL    HW239846   4.063   1.855   1.332 -0.2438 -0.1957  0.0280
 9463SOL     OW39847   4.547   3.100   7.835  0.0766  0.0152 -0.0447
 9463SOL    HW139848   4.461   3.111   7.875 -0.6353  0.1599 -1.6337
 9463SOL    HW239849   4.589   3.159   7.899  0.5398 -0.8176  0.4261
 9464SOL     OW39850   3.070   1.059   6.495  0.7191  0.1828 -0.5324
 9464SOL    HW139851   3.145   1.064   6.554 -0.4303 -0.4731  0.9675
 9464SOL    HW239852   3.116   1.053   6.411  0.2027  1.0595 -0.8842
 9465SOL     OW39853   3.068   1.924   1.474  0.0106  0.1055 -0.4637
 9465SOL    HW139854   3.063   1.837   1.436 -0.9247 -1.0369  2.2457
 9465SOL    HW239855   2.996   1.976   1.438  0.2214  0.7697  0.0611
 9466SOL     OW39856   3.969   4.633   6.735  0.2600  0.2229  0.1024
 9466SOL    HW139857   4.047   4.666   6.691  0.1009 -2.0452 -1.8611
 9466SOL    HW239858   4.018   4.565   6.782 -0.7508  0.6746  1.8009
 9467SOL     OW39859   1.164   2.537   9.123  0.1782 -0.3150 -0.3071
 9467SOL    HW139860   1.258   2.524   9.111  0.3207  1.1818 -0.7655
 9467SOL    HW239861   1.149   2.625   9.089 -4.1073  0.1406  2.7136
 9468SOL     OW39862   1.647   0.163   3.516 -0.6789 -0.2381  0.9631
 9468SOL    HW139863   1.696   0.133   3.592  2.5647 -2.6666 -2.1094
 9468SOL    HW239864   1.721   0.162   3.455 -2.1157  0.0632 -0.7772
 9469SOL     OW39865   2.822   0.555  13.539  0.3230 -0.1950 -1.1039
 9469SOL    HW139866   2.802   0.475  13.491  0.5120 -1.0065  0.1734
 9469SOL    HW239867   2.870   0.527  13.617 -1.6287 -2.6746 -0.7944
 9470SOL     OW39868   3.112   4.125   3.795  0.0407  0.4179  0.0042
 9470SOL    HW139869   3.046   4.167   3.740  0.4659  0.4556 -0.4841
 9470SOL    HW239870   3.120   4.043   3.747  0.3883  0.6955 -0.4219
 9471SOL     OW39871   4.403   4.130  12.254  0.2188  0.0986 -0.0795
 9471SOL    HW139872   4.437   4.097  12.171  2.3065 -0.3201  0.9579
 9471SOL    HW239873   4.424   4.223  12.245  1.2441  0.0749  2.0572
 9472SOL     OW39874   3.290   4.104   5.337  0.0515 -0.2644  0.3412
 9472SOL    HW139875   3.224   4.172   5.325 -0.1524 -0.0289  2.7516
 9472SOL    HW239876   3.291   4.104   5.433  0.5532 -2.7131  0.3523
 9473SOL     OW39877   2.183   1.051   9.419  0.5947  0.0525  0.1995
 9473SOL    HW139878   2.148   0.968   9.452  1.3880 -0.1126  0.6300
 9473SOL    HW239879   2.231   1.020   9.342 -1.3268  2.1037 -1.8191
 9474SOL     OW39880   0.587   2.772   9.703  0.4222 -0.2732  0.5668
 9474SOL    HW139881   0.553   2.827   9.633 -0.6649 -0.1526  1.1930
 9474SOL    HW239882   0.679   2.767   9.678  0.1434 -2.0841 -0.1048
 9475SOL     OW39883   1.118   1.124   5.558  0.2754  0.2890  0.1968
 9475SOL    HW139884   1.207   1.156   5.539  0.1366 -0.0127 -0.9339
 9475SOL    HW239885   1.138   1.049   5.614 -0.5238  0.6890  1.0124
 9476SOL     OW39886   3.479   0.076  16.978  0.1282 -0.6236 -0.8459
 9476SOL    HW139887   3.398   0.119  16.952  0.0291  0.0880  0.6170
 9476SOL    HW239888   3.535   0.144  17.015  0.1924 -2.4608  2.4931
 9477SOL     OW39889   1.952   2.023   9.047 -0.2051  0.2430  0.0856
 9477SOL    HW139890   1.897   1.948   9.071  0.1989 -1.2492 -3.6707
 9477SOL    HW239891   2.017   1.978   8.994 -0.7953  0.7234 -1.0460
 9478SOL     OW39892   3.652   2.168  11.039 -0.4728  0.2924  0.5335
 9478SOL    HW139893   3.562   2.196  11.051 -1.1833 -1.2598 -1.3115
 9478SOL    HW239894   3.684   2.156  11.129 -1.5050  0.7737  0.9697
 9479SOL     OW39895   3.178   2.229   7.602 -1.3133  0.0912  0.1669
 9479SOL    HW139896   3.191   2.318   7.636 -1.5728  0.3853 -0.4973
 9479SOL    HW239897   3.256   2.190   7.640  0.2177  1.9795 -1.0003
 9480SOL     OW39898   2.660   2.624  10.974  0.7295  0.7904  0.0134
 9480SOL    HW139899   2.735   2.681  10.993  1.0856  0.4910 -0.4678
 9480SOL    HW239900   2.678   2.591  10.886 -1.1023  1.2016 -0.5034
 9481SOL     OW39901   4.628   1.252   7.139  0.4413 -0.2315 -0.3422
 9481SOL    HW139902   4.619   1.177   7.080  0.5333 -0.6567  0.1770
 9481SOL    HW239903   4.535   1.248   7.165  1.1616  0.3920  2.3104
 9482SOL     OW39904   4.217   4.035   5.760 -0.0705 -0.2777 -0.5195
 9482SOL    HW139905   4.272   4.020   5.683  0.1216  0.7964 -0.5853
 9482SOL    HW239906   4.152   4.093   5.720 -0.4947  0.0168  0.6024
 9483SOL     OW39907   1.627   0.838   4.982  0.3858 -0.5729 -0.3679
 9483SOL    HW139908   1.722   0.849   4.982  0.4310 -0.9043  1.1884
 9483SOL    HW239909   1.609   0.773   5.050 -1.4583 -0.4971 -0.7971
 9484SOL     OW39910   2.426   1.466   2.954  0.2941  0.4189 -0.4060
 9484SOL    HW139911   2.410   1.516   2.874  2.9355  3.5022  0.9846
 9484SOL    HW239912   2.466   1.542   2.996  1.7637 -0.4528 -0.2037
 9485SOL     OW39913   2.317   1.483  15.078 -0.4910  0.6396 -0.3116
 9485SOL    HW139914   2.369   1.516  15.151 -0.7183  0.0787  0.0984
 9485SOL    HW239915   2.378   1.440  15.019  0.1931 -0.5931  1.3148
 9486SOL     OW39916   4.064   1.092   6.889  0.0418  0.6841 -0.1936
 9486SOL    HW139917   3.990   1.149   6.913  0.3059  0.8473  0.2240
 9486SOL    HW239918   4.014   1.011   6.898 -0.9334  1.1495 -1.3862
 9487SOL     OW39919   4.018   2.768  14.991  0.2821 -0.3677 -0.3146
 9487SOL    HW139920   4.010   2.683  15.034 -2.1004 -0.3591 -0.7060
 9487SOL    HW239921   4.043   2.828  15.061 -1.4951  0.6143 -0.5028
 9488SOL     OW39922   2.327   3.295   9.415  0.0786  0.2823  0.4877
 9488SOL    HW139923   2.333   3.371   9.473  1.3438 -0.4319  1.3046
 9488SOL    HW239924   2.261   3.247   9.465  1.3508  1.2863  3.1385
 9489SOL     OW39925   1.998   4.321  10.547 -0.3479  0.1890 -0.1062
 9489SOL    HW139926   2.092   4.336  10.548 -0.5206  1.2853 -1.6960
 9489SOL    HW239927   1.981   4.282  10.461  0.2464  1.4154 -0.7679
 9490SOL     OW39928   1.020   4.221  15.289 -0.0615 -0.0633  0.4435
 9490SOL    HW139929   0.935   4.249  15.256  0.4925 -1.2632 -2.0397
 9490SOL    HW239930   1.044   4.156  15.223 -1.7395 -1.4896  1.2453
 9491SOL     OW39931   0.451   1.128   7.141 -0.7547 -0.1700  0.2967
 9491SOL    HW139932   0.480   1.052   7.192 -0.1918  0.4447  0.8874
 9491SOL    HW239933   0.419   1.182   7.213  0.4596  1.2557 -0.2375
 9492SOL     OW39934   1.466   1.863   2.679 -0.2420  0.6670 -0.2868
 9492SOL    HW139935   1.397   1.900   2.624  1.0906  1.6304 -1.3190
 9492SOL    HW239936   1.415   1.794   2.721 -2.0995  2.0315 -0.2921
 9493SOL     OW39937   0.601   0.020  16.320  0.2820 -0.0123  0.2737
 9493SOL    HW139938   0.581   0.111  16.344  1.1926  0.3426 -0.2949
 9493SOL    HW239939   0.637   0.035  16.233 -0.6507 -2.2833 -0.5085
 9494SOL     OW39940   4.573   0.269  13.724 -0.0324  0.0880 -0.2643
 9494SOL    HW139941   4.623   0.311  13.654  1.0623 -0.5211  0.1569
 9494SOL    HW239942   4.495   0.249  13.673  0.3759  1.8093 -1.5525
 9495SOL     OW39943   0.221   2.848   6.054  0.7687  0.7962  0.3322
 9495SOL    HW139944   0.308   2.833   6.020 -0.8045 -0.4493 -3.1145
 9495SOL    HW239945   0.229   2.835   6.149  0.5793 -3.2859 -0.2355
 9496SOL     OW39946   2.453   1.946   2.426  0.2282 -0.5738  0.4162
 9496SOL    HW139947   2.460   2.003   2.503  0.7390  1.0313 -0.8245
 9496SOL    HW239948   2.548   1.935   2.419  0.1891  0.3118 -1.3866
 9497SOL     OW39949   4.511   2.894   3.550  0.4904 -0.2682 -0.2519
 9497SOL    HW139950   4.477   2.919   3.636  1.4845 -0.6287  0.2498
 9497SOL    HW239951   4.582   2.953   3.528 -1.0364  0.8511 -2.0997
 9498SOL     OW39952   3.048   3.710   0.985 -0.0369  0.4013  0.1266
 9498SOL    HW139953   3.073   3.759   0.907  0.3727 -0.3141 -0.1917
 9498SOL    HW239954   3.067   3.775   1.053 -2.8431  1.6498 -0.2880
 9499SOL     OW39955   1.716   0.978   8.999  0.0179 -0.1159  0.0074
 9499SOL    HW139956   1.661   0.981   9.077  0.7426 -0.7679  0.5358
 9499SOL    HW239957   1.805   0.998   9.025  0.4126 -2.2430  0.3104
 9500SOL     OW39958   2.859   4.241   7.227  0.1305 -0.3444 -0.5299
 9500SOL    HW139959   2.845   4.190   7.306 -0.8288 -0.3592 -0.7089
 9500SOL    HW239960   2.943   4.284   7.244 -0.5384  0.6830  0.2072
 9501SOL     OW39961   2.972   3.071   8.023  0.5339  0.1923  0.1577
 9501SOL    HW139962   2.944   3.140   7.963 -0.5703 -1.7897 -1.5804
 9501SOL    HW239963   3.001   3.126   8.096 -2.6006  3.6508 -1.1960
 9502SOL     OW39964   0.543   1.106   1.395 -0.0214 -0.1643  0.1404
 9502SOL    HW139965   0.556   1.107   1.490 -0.2009  1.4455  0.1472
 9502SOL    HW239966   0.536   1.200   1.384 -0.2579  0.1329  2.7928
 9503SOL     OW39967   0.657   0.334   9.145 -0.1597 -0.3132  0.8597
 9503SOL    HW139968   0.662   0.413   9.091  1.1515 -1.2490 -0.3989
 9503SOL    HW239969   0.570   0.340   9.184 -0.0698 -1.3725  1.2184
 9504SOL     OW39970   2.945   1.252   7.308  0.2920 -0.1441  0.1109
 9504SOL    HW139971   2.935   1.194   7.233  2.0037 -1.1164  0.6367
 9504SOL    HW239972   3.034   1.284   7.291  0.3095  0.5426  1.4442
 9505SOL     OW39973   1.611   1.435  12.842  0.1103  0.5394  0.3903
 9505SOL    HW139974   1.608   1.469  12.753  0.6329 -1.0213 -0.2171
 9505SOL    HW239975   1.660   1.506  12.884 -0.4730  1.3847 -0.3679
 9506SOL     OW39976   0.752   4.492   4.357 -0.2214 -0.0969  0.7259
 9506SOL    HW139977   0.730   4.418   4.414 -0.4313 -1.8256 -1.5642
 9506SOL    HW239978   0.805   4.451   4.289 -3.4880 -1.7091 -0.8483
 9507SOL     OW39979   4.229   1.280   5.634  0.1264 -0.7915 -0.0379
 9507SOL    HW139980   4.239   1.213   5.566 -2.3442 -1.4935  0.2929
 9507SOL    HW239981   4.320   1.309   5.626  0.6788 -1.7408  3.1991
 9508SOL     OW39982   0.966   1.535   8.332 -0.6993 -0.2458  0.0000
 9508SOL    HW139983   0.945   1.591   8.257 -2.5025 -0.1210  0.6062
 9508SOL    HW239984   0.914   1.574   8.402  1.0373  1.2481  0.4413
 9509SOL     OW39985   2.656   3.306   5.772 -0.5101 -0.1353  1.2948
 9509SOL    HW139986   2.724   3.266   5.717 -0.5024  3.0580 -0.9729
 9509SOL    HW239987   2.648   3.393   5.735  0.9746  0.0815  1.4599
 9510SOL     OW39988   3.669   3.135   7.716 -0.1935  0.1924 -0.8014
 9510SOL    HW139989   3.716   3.075   7.659 -0.1140  0.3842 -0.9359
 9510SOL    HW239990   3.728   3.204   7.744  1.7769 -1.9778  0.3710
 9511SOL     OW39991   1.663   2.911  16.963  0.0155 -0.8442  0.0245
 9511SOL    HW139992   1.667   3.001  16.995 -1.6223 -0.4640 -0.8662
 9511SOL    HW239993   1.571   2.896  16.943 -0.6056  1.5520  1.1258
 9512SOL     OW39994   4.304   2.856  12.575 -0.4522 -0.4195  0.0704
 9512SOL    HW139995   4.397   2.844  12.591 -0.3888  1.4289  1.0489
 9512SOL    HW239996   4.305   2.889  12.485 -1.9579 -0.3036  0.1015
 9513SOL     OW39997   4.661   4.463  17.112  0.4647 -0.7745  0.3821
 9513SOL    HW139998   4.652   4.371  17.089 -0.5721 -0.2336 -1.3989
 9513SOL    HW239999   4.718   4.464  17.189 -1.1953  0.5710  1.6043
 9514SOL     OW40000   4.073   2.560   1.467  0.3324  0.2750  0.1546
 9514SOL    HW140001   4.167   2.550   1.451 -0.0298  0.6006 -2.0825
 9514SOL    HW240002   4.067   2.571   1.562 -1.3889 -0.8137  0.1615
 9515SOL     OW40003   3.709   4.147  12.432  0.0644 -0.1621 -0.8339
 9515SOL    HW140004   3.701   4.069  12.377  1.0790  0.1290 -1.3901
 9515SOL    HW240005   3.793   4.184  12.405  1.2236 -1.7037  0.7168
 9516SOL     OW40006   3.461   0.780  13.116  0.1400  0.2649  0.3329
 9516SOL    HW140007   3.540   0.822  13.080 -0.1269  1.6379  1.3469
 9516SOL    HW240008   3.449   0.721  13.042  0.5171 -0.0064  0.4878
 9517SOL     OW40009   1.449   4.383  17.024  0.3265  0.0266  0.4898
 9517SOL    HW140010   1.535   4.400  17.061  0.5169 -0.2720  0.1896
 9517SOL    HW240011   1.428   4.468  16.985 -0.1036 -0.9783 -1.4588
 9518SOL     OW40012   3.283   3.465   3.524 -0.0142  0.6924  0.4392
 9518SOL    HW140013   3.219   3.536   3.518 -1.5161 -0.6306  0.5827
 9518SOL    HW240014   3.364   3.514   3.516  0.0718  0.3378 -0.9154
 9519SOL     OW40015   4.439   2.357  12.951 -0.1919  0.0062 -0.2948
 9519SOL    HW140016   4.509   2.416  12.978 -0.3328 -1.2653  2.8724
 9519SOL    HW240017   4.417   2.377  12.860  1.4501  1.6443 -0.3180
 9520SOL     OW40018   4.371   3.071   5.745 -0.9408  0.1694  0.4820
 9520SOL    HW140019   4.292   3.099   5.791 -1.6552  0.1168 -0.7223
 9520SOL    HW240020   4.438   3.127   5.785 -1.5276  0.1649  1.4582
 9521SOL     OW40021   3.480   3.436   4.522  0.5481 -0.5098 -0.4421
 9521SOL    HW140022   3.446   3.363   4.574 -0.0712  0.5465  0.6754
 9521SOL    HW240023   3.402   3.454   4.470 -0.2986  0.8953  1.2640
 9522SOL     OW40024   0.908   0.970   8.748 -0.2611  0.3851  0.0262
 9522SOL    HW140025   0.953   1.039   8.699 -2.5606  1.1635 -0.9846
 9522SOL    HW240026   0.978   0.912   8.775  0.9707  2.7272  1.8340
 9523SOL     OW40027   0.918   1.823  16.568  1.0151 -0.5545  0.6204
 9523SOL    HW140028   0.996   1.820  16.624  1.1740  1.3369  0.5046
 9523SOL    HW240029   0.909   1.734  16.533 -1.0406 -0.3624  0.6627
 9524SOL     OW40030   2.350   4.070   3.545 -0.1945  0.1796  0.1325
 9524SOL    HW140031   2.319   3.997   3.599  1.5097 -0.4735  0.2050
 9524SOL    HW240032   2.301   4.047   3.466 -1.3806  2.1610  0.2924
 9525SOL     OW40033   1.833   4.001   5.384  0.1446  0.9799  0.3273
 9525SOL    HW140034   1.816   3.917   5.343  0.4578 -0.2748  2.7918
 9525SOL    HW240035   1.818   4.061   5.311 -3.5207 -1.5509 -1.0080
 9526SOL     OW40036   4.250   4.081  16.595 -0.6499  0.3799  0.0269
 9526SOL    HW140037   4.242   4.067  16.501 -0.7833  0.3814  0.0382
 9526SOL    HW240038   4.281   3.998  16.629 -1.8321  1.1297  2.9187
 9527SOL     OW40039   3.743   2.820   7.847  0.1569  0.2548  0.0973
 9527SOL    HW140040   3.754   2.883   7.776 -2.5312 -0.8572 -1.2771
 9527SOL    HW240041   3.711   2.746   7.797  0.6202  1.0568 -1.3822
 9528SOL     OW40042   3.759   1.217   6.221 -0.3539  0.0442  0.6941
 9528SOL    HW140043   3.667   1.225   6.246  0.1362  0.9066  2.1922
 9528SOL    HW240044   3.798   1.210   6.308 -2.5647  1.6772  1.8092
 9529SOL     OW40045   4.045   3.346   3.498  0.2704  0.0966  0.1013
 9529SOL    HW140046   4.063   3.407   3.570 -2.7171  0.4982  0.5140
 9529SOL    HW240047   4.006   3.414   3.443  0.6364 -1.2878 -1.8588
 9530SOL     OW40048   3.904   0.908   5.077 -0.4037 -0.1292 -0.5730
 9530SOL    HW140049   3.871   0.982   5.026 -1.2190  0.2400  0.4879
 9530SOL    HW240050   3.823   0.866   5.107 -0.2898 -0.3163 -0.5321
 9531SOL     OW40051   1.997   3.691   4.100 -0.1731 -0.7487  0.4077
 9531SOL    HW140052   2.081   3.707   4.142  0.0931 -2.8393  0.6526
 9531SOL    HW240053   1.945   3.673   4.179  2.6817 -1.3975  2.1558
 9532SOL     OW40054   0.933   1.809   4.956  0.1696 -0.6615  0.0616
 9532SOL    HW140055   1.022   1.815   4.991  0.9271  0.4837 -1.9935
 9532SOL    HW240056   0.960   1.833   4.867  0.4741 -0.3355  0.2428
 9533SOL     OW40057   1.265   0.170   0.847 -0.1455 -0.4997 -0.5890
 9533SOL    HW140058   1.256   0.209   0.760 -0.5849  1.9200  0.5460
 9533SOL    HW240059   1.203   0.211   0.907 -2.6941 -0.8485 -2.9804
 9534SOL     OW40060   1.067   1.410   4.816 -0.1085  0.1509 -0.1297
 9534SOL    HW140061   1.130   1.477   4.843  1.9692 -1.3344 -1.3361
 9534SOL    HW240062   0.988   1.450   4.853  0.8971  1.4212  0.6327
 9535SOL     OW40063   0.309   0.054  13.127 -0.3006  0.2062 -0.6410
 9535SOL    HW140064   0.301   0.122  13.061  0.9014  1.4673  0.5219
 9535SOL    HW240065   0.225   0.055  13.174 -0.1927 -0.2355 -0.4414
 9536SOL     OW40066   3.021   3.664   5.923 -0.2685  0.8003  0.0706
 9536SOL    HW140067   3.105   3.708   5.911  0.7728 -1.2351 -0.1108
 9536SOL    HW240068   2.993   3.729   5.987 -1.7243  1.3511 -1.0990
 9537SOL     OW40069   2.290   0.789   2.405  0.1319 -0.2711  0.4139
 9537SOL    HW140070   2.327   0.877   2.411 -0.1438 -0.1924  1.0396
 9537SOL    HW240071   2.205   0.806   2.445 -1.1186 -0.8243 -2.0467
 9538SOL     OW40072   0.467   3.991   8.393  0.2814  0.0975  0.1998
 9538SOL    HW140073   0.399   4.003   8.326  1.1810 -1.0705 -0.9108
 9538SOL    HW240074   0.498   4.080   8.410  2.9013 -0.2289 -2.8633
 9539SOL     OW40075   2.405   1.362  13.577  0.1761  0.2414 -0.5509
 9539SOL    HW140076   2.325   1.308  13.576 -1.4660  2.6393  1.0391
 9539SOL    HW240077   2.392   1.412  13.497  0.5713 -0.5820 -1.1215
 9540SOL     OW40078   2.504   0.770   8.092 -0.8207 -0.3965  0.1210
 9540SOL    HW140079   2.564   0.729   8.030  0.3856  1.2315  0.1864
 9540SOL    HW240080   2.522   0.864   8.081 -1.3472 -0.3039  0.0568
 9541SOL     OW40081   0.845   2.882   3.818  0.1048 -0.2568 -0.0702
 9541SOL    HW140082   0.771   2.928   3.779  0.1886  0.0893  0.1721
 9541SOL    HW240083   0.892   2.840   3.746 -0.5812  0.8224 -1.1393
 9542SOL     OW40084   2.306   4.490   4.999  0.6786 -0.0842 -0.6076
 9542SOL    HW140085   2.274   4.402   5.018  0.8323 -0.5992 -2.7158
 9542SOL    HW240086   2.358   4.474   4.920  1.1521 -1.3296 -0.0401
 9543SOL     OW40087   0.006   3.250   8.394 -0.0634  0.2574  0.0059
 9543SOL    HW140088   4.714   3.329   8.341 -0.1366  2.1469  2.8446
 9543SOL    HW240089   0.068   3.284   8.458 -0.2435  1.3998 -0.4150
 9544SOL     OW40090   1.402   4.671   9.070 -0.2657  0.3103  0.2194
 9544SOL    HW140091   1.379   4.578   9.078  0.5539 -0.0569 -1.7140
 9544SOL    HW240092   1.490   4.659   9.035 -0.1257  0.3769  0.5525
 9545SOL     OW40093   1.857   1.001   7.574  0.6327  0.1197  0.2501
 9545SOL    HW140094   1.858   1.057   7.652  0.0822  1.0517 -0.4193
 9545SOL    HW240095   1.945   0.964   7.584  0.9476  0.3486 -1.7333
 9546SOL     OW40096   2.919   0.585   8.986  0.1601 -0.2874  0.1585
 9546SOL    HW140097   2.910   0.639   8.907 -2.3582  2.5277  2.3802
 9546SOL    HW240098   2.913   0.650   9.056  1.3105 -0.9871  0.9125
 9547SOL     OW40099   3.598   4.527  12.407  0.4580 -0.1069 -0.4009
 9547SOL    HW140100   3.661   4.504  12.338 -0.2007  0.0238 -1.0379
 9547SOL    HW240101   3.659   4.525  12.481 -0.1096 -0.0725  0.0686
 9548SOL     OW40102   1.282   1.059   1.533  0.3530  0.1639 -0.3825
 9548SOL    HW140103   1.187   1.067   1.532  0.1633 -2.3585 -2.3339
 9548SOL    HW240104   1.300   1.085   1.442  1.2197 -1.4464 -0.6840
 9549SOL     OW40105   0.549   0.337  16.943  0.2067  0.1237 -0.3327
 9549SOL    HW140106   0.474   0.311  16.889 -0.0749 -1.7383  0.9287
 9549SOL    HW240107   0.601   0.256  16.942 -0.9112 -0.6240  1.4535
 9550SOL     OW40108   3.428   2.831  14.405  0.6018  0.4327  0.2926
 9550SOL    HW140109   3.494   2.855  14.470 -1.3939  1.1358  2.0607
 9550SOL    HW240110   3.398   2.751  14.450 -2.6016  1.2595 -0.3854
 9551SOL     OW40111   3.518   3.661  11.938  0.2955 -0.0929  0.1878
 9551SOL    HW140112   3.575   3.612  11.878  2.5951 -0.2692  2.5271
 9551SOL    HW240113   3.472   3.593  11.986  0.0679  0.7214  1.1192
 9552SOL     OW40114   1.992   2.772   9.356  0.2161 -0.0057 -0.2375
 9552SOL    HW140115   1.903   2.735   9.362  0.2033  0.3983  2.0548
 9552SOL    HW240116   1.979   2.845   9.416  0.4701 -0.3200  0.1960
 9553SOL     OW40117   1.438   3.529   2.399  0.2712  0.3659  0.1233
 9553SOL    HW140118   1.520   3.530   2.449  0.8232  0.1515 -0.7623
 9553SOL    HW240119   1.386   3.455   2.428 -2.4195  2.1647 -0.0591
 9554SOL     OW40120   1.326   1.232  17.003  0.5141  0.2055 -0.0804
 9554SOL    HW140121   1.403   1.209  17.054  0.9984  2.0399  0.0085
 9554SOL    HW240122   1.313   1.327  17.010  3.5270  0.7081 -1.1515
 9555SOL     OW40123   0.263   0.113   5.220 -0.3213 -0.0799 -0.2353
 9555SOL    HW140124   0.347   0.152   5.196  0.8931 -2.8371 -0.4604
 9555SOL    HW240125   0.208   0.126   5.143  0.5452 -1.4156 -1.0736
 9556SOL     OW40126   0.407   1.748  13.590 -0.2155 -0.4721 -0.7861
 9556SOL    HW140127   0.485   1.696  13.603  0.3893  0.3498 -1.1033
 9556SOL    HW240128   0.413   1.825  13.648  2.4293  0.1065 -1.8181
 9557SOL     OW40129   4.227   0.856   9.493  0.2279  0.0734 -0.3793
 9557SOL    HW140130   4.253   0.935   9.539  3.0354 -0.8859 -0.3092
 9557SOL    HW240131   4.314   0.816   9.492 -1.7094 -4.1951  2.0603
 9558SOL     OW40132   4.220   4.141   0.196  0.2213 -0.0239  0.5452
 9558SOL    HW140133   4.264   4.211   0.243  0.4093 -0.1928  0.6188
 9558SOL    HW240134   4.144   4.117   0.249 -0.0727 -2.6281 -1.0281
 9559SOL     OW40135   0.777   1.402   0.631  0.1151 -0.0513 -0.3436
 9559SOL    HW140136   0.862   1.399   0.675  0.5894  0.7647 -1.1957
 9559SOL    HW240137   0.804   1.422   0.542  1.5872  0.2708  0.1824
 9560SOL     OW40138   2.467   2.679   1.331  0.6966  0.0207 -0.1867
 9560SOL    HW140139   2.440   2.759   1.286  1.2110 -1.3612 -2.9573
 9560SOL    HW240140   2.525   2.715   1.398  1.8390 -0.4914 -0.9040
 9561SOL     OW40141   2.819   4.072   4.923  0.4782  0.1228 -0.0823
 9561SOL    HW140142   2.756   4.094   4.993  0.0900  0.1472 -0.4382
 9561SOL    HW240143   2.887   4.023   4.968  0.4140 -0.2526 -0.3938
 9562SOL     OW40144   1.104   0.383  14.918 -0.3046  0.1113 -0.8364
 9562SOL    HW140145   1.081   0.460  14.867  1.6665  0.4749 -1.1538
 9562SOL    HW240146   1.025   0.328  14.910 -2.0294  2.3793  0.6559
 9563SOL     OW40147   2.840   4.581  13.654  0.1912 -0.1902  0.5541
 9563SOL    HW140148   2.767   4.629  13.693 -0.1087  1.0359 -1.4986
 9563SOL    HW240149   2.817   4.488  13.651 -0.1649 -0.0005 -2.1815
 9564SOL     OW40150   4.226   1.817  15.667 -0.5238 -0.5471 -0.7472
 9564SOL    HW140151   4.152   1.801  15.725  0.9582 -1.6217  0.8740
 9564SOL    HW240152   4.235   1.911  15.686  0.4034 -0.9068  0.6433
 9565SOL     OW40153   1.581   4.650   2.404 -0.2641 -0.2075  0.0334
 9565SOL    HW140154   1.560   4.595   2.328 -0.2439  1.0637 -0.9003
 9565SOL    HW240155   1.504   4.707   2.411  0.6072  0.8513  0.9673
   4.72302   4.72302  17.69400
