Membrane in water
40155
    1TCq1    O1    1   3.992   4.319  11.165 -0.1657  0.1150 -0.2149
    1TCq1    C1    2   3.952   4.348  11.043 -0.4947  1.0060  0.2722
    1TCq1    O2    3   3.836   4.390  11.021 -0.1983  0.3783  0.2887
    1TCq1    C2    4   4.075   4.419  11.002 -0.0149  0.0857  0.5137
    1TCq1    C3    5   4.122   4.376  10.882 -0.0594  0.3793 -0.1934
    1TCq1    C4    6   4.237   4.435  10.831  0.1335  0.2692  0.6848
    1TCq1    C5    7   4.282   4.547  10.903  0.4409 -0.2605 -0.4020
    1TCq1    C6    8   4.235   4.579  11.025 -0.3942  0.2646  0.2271
    1TCq1    C7    9   4.131   4.514  11.083  0.0236  0.4789 -0.3472
    1TCq1    C8   10   4.305   4.675  11.107  0.3271  0.3290 -0.1777
    1TCq1    O4   11   4.282   4.676  11.229 -0.1572  0.0398  0.2052
    1TCq1    C9   12   4.276   4.409  10.693 -0.9550 -0.3109 -0.2182
    1TCq1    O5   13   4.373   4.473  10.645  0.0934  0.1066  0.1764
    1TCq1    O6   14   4.200   4.333  10.633 -0.0843  0.1686 -0.5440
    1TCq1    H1   15   4.088   4.296  11.163 -0.1791  0.1809 -1.5266
    1TCq1    H2   16   4.075   4.297  10.824  1.2932 -0.5844  0.0218
    1TCq1    H3   17   4.372   4.594  10.864  1.2114 -0.9571  0.5480
    1TCq1    H4   18   4.094   4.537  11.182 -1.1892  0.5333 -0.8250
    2MPD2     C   19   4.487   0.421  11.193  0.2915  0.7607 -0.0176
    2MPD2    C1   20   4.476   0.310  11.273 -0.1988  0.4575  0.6231
    2MPD2    C2   21   4.444   0.185  11.222  0.2284  0.9698 -0.2958
    2MPD2    C3   22   4.412   0.172  11.087  0.6041 -0.2225 -0.1954
    2MPD2    C4   23   4.422   0.282  11.003 -0.3012  0.4486 -0.2307
    2MPD2    C5   24   4.460   0.400  11.058 -0.2265 -1.0451 -0.0852
    2MPD2     H   25   4.451   0.097  11.284 -0.7841 -1.2330 -3.3220
    2MPD2    H1   26   4.405   0.277  10.896 -1.2036  1.0174 -0.1130
    2MPD2    H2   27   4.520   0.521  11.220 -0.0138  1.5037 -2.4362
    2MPD2    H3   28   4.468   0.483  10.989 -0.1915 -0.2113  0.9118
    2MPD2     N   29   4.367   0.053  11.029 -0.3678  0.0779  0.0963
    2MPD2    H5   30   4.348   0.047  10.929  2.7454  0.3165 -0.4956
    2MPD2    N1   31   4.487   0.317  11.413 -0.2827  0.3422  0.3351
    2MPD2    H7   32   4.479   0.233  11.469 -0.4038 -1.0470 -1.7291
    3TCq1    O1   33   4.277   0.953  11.458  0.1586  0.1304 -0.1592
    3TCq1    C1   34   4.229   0.995  11.337 -0.2933  0.3108 -0.0356
    3TCq1    O2   35   4.263   0.960  11.223 -0.3769 -0.6670 -0.0310
    3TCq1    C2   36   4.112   1.084  11.359 -0.8255 -0.0925 -0.1673
    3TCq1    C3   37   4.102   1.162  11.468 -0.4095 -0.1618  0.2357
    3TCq1    C4   38   4.009   1.270  11.465  0.5149  0.0751 -0.5502
    3TCq1    C5   39   3.920   1.288  11.364 -0.0715  0.1991 -0.2872
    3TCq1    C6   40   3.928   1.200  11.260  0.1643  0.2399  0.7873
    3TCq1    C7   41   4.033   1.109  11.248  0.4139 -0.3480  0.2444
    3TCq1    C8   42   3.823   1.188  11.160  0.1366  0.0114  0.2300
    3TCq1    O4   43   3.795   1.077  11.119 -0.4229  0.0115  0.1793
    3TCq1    C9   44   4.007   1.365  11.566 -0.7096 -0.6213 -0.3186
    3TCq1    O5   45   4.110   1.373  11.636  0.1631  0.4075 -0.3488
    3TCq1    O6   46   3.910   1.447  11.564  0.0299  0.3681 -0.1784
    3TCq1    H1   47   4.229   0.995  11.532 -0.4287  0.1653 -0.5624
    3TCq1    H2   48   4.180   1.159  11.544  0.6544  2.8101 -0.7136
    3TCq1    H3   49   3.847   1.367  11.365  0.8020  0.9771  2.4020
    3TCq1    H4   50   4.035   1.033  11.171  0.0059 -1.5569  1.4322
    4MPD2     C   51   3.397   1.372  10.948  0.0447 -0.1370  0.4211
    4MPD2    C1   52   3.453   1.473  11.022  0.4438  0.5107 -0.4944
    4MPD2    C2   53   3.574   1.448  11.077  1.3685  0.4577  0.1457
    4MPD2    C3   54   3.638   1.324  11.068  0.0462  0.2379  0.3873
    4MPD2    C4   55   3.580   1.226  10.986  1.2907  0.1201  0.2069
    4MPD2    C5   56   3.457   1.252  10.925 -0.1992  0.1258 -0.4929
    4MPD2     H   57   3.611   1.525  11.142  0.3232  0.1673  1.1002
    4MPD2    H1   58   3.628   1.131  10.966 -0.4066 -0.2249 -2.2529
    4MPD2    H2   59   3.299   1.382  10.901  0.3983 -2.4446 -0.8452
    4MPD2    H3   60   3.418   1.173  10.861  0.8170 -2.1178  1.6290
    4MPD2     N   61   3.755   1.303  11.149 -0.4547 -0.4546  0.2460
    4MPD2    H5   62   3.804   1.387  11.179  0.9235 -0.8774 -0.8354
    4MPD2    N1   63   3.389   1.606  11.039  0.0600  0.5733  0.1412
    4MPD2    H7   64   3.445   1.671  11.093  1.2477 -0.3278 -0.0194
    5TCq1    O1   65   3.017   2.768  11.161  0.2469 -0.0734 -0.2360
    5TCq1    C1   66   3.079   2.845  11.069 -1.0304 -0.6083  0.4473
    5TCq1    O2   67   3.025   2.876  10.966 -0.1678 -0.3612  0.3777
    5TCq1    C2   68   3.223   2.823  11.083 -0.1526  0.6841  0.4659
    5TCq1    C3   69   3.263   2.698  11.114  0.0474 -0.9269  0.7659
    5TCq1    C4   70   3.383   2.660  11.072  0.6453  0.0199  0.7932
    5TCq1    C5   71   3.471   2.744  11.017 -0.1877 -0.1397  0.4695
    5TCq1    C6   72   3.430   2.865  10.976  0.0112 -0.7736 -0.9315
    5TCq1    C7   73   3.300   2.905  11.005  0.4290 -0.6021 -0.0791
    5TCq1    C8   74   3.517   2.979  10.951  0.1311  0.4569  0.0189
    5TCq1    O4   75   3.467   3.093  10.933 -0.3592 -0.4593 -0.4703
    5TCq1    C9   76   3.424   2.534  11.125 -0.5656 -0.4511  0.4105
    5TCq1    O5   77   3.537   2.493  11.081 -0.1453  0.0876  0.5105
    5TCq1    O6   78   3.387   2.514  11.244  0.0278  0.2659  0.7430
    5TCq1    H1   79   3.068   2.755  11.243 -0.8531  2.9591  0.9493
    5TCq1    H2   80   3.204   2.618  11.158 -0.4533 -0.7656  0.3966
    5TCq1    H3   81   3.573   2.707  11.006  0.4837  1.6742  0.6135
    5TCq1    H4   82   3.261   3.000  10.970 -2.0238 -1.2735  0.8437
    6MPD2     C   83   3.750   3.155  10.933 -0.5948  0.6347 -0.2402
    6MPD2    C1   84   3.749   3.023  10.886 -0.3961 -0.1273 -0.3488
    6MPD2    C2   85   3.853   2.963  10.830  1.0383  0.1676  0.3564
    6MPD2    C3   86   3.972   3.037  10.821  0.1744 -0.2285 -0.1102
    6MPD2    C4   87   3.973   3.170  10.867  0.2813 -0.2073  0.7590
    6MPD2    C5   88   3.865   3.225  10.924 -0.1885  0.1432  0.2990
    6MPD2     H   89   3.839   2.863  10.792  0.1379  0.7141 -0.7732
    6MPD2    H1   90   4.058   3.235  10.849 -1.0780  1.4215  0.2438
    6MPD2    H2   91   3.667   3.195  10.989 -0.9508 -3.8867  2.4632
    6MPD2    H3   92   3.874   3.330  10.950  0.0877 -0.4844  2.7957
    6MPD2     N   93   4.086   2.967  10.782  0.8423 -0.6962  0.7049
    6MPD2    H5   94   4.065   2.877  10.740 -0.9324  1.6689 -3.3927
    6MPD2    N1   95   3.639   2.935  10.902  0.5107 -0.1652  0.0135
    6MPD2    H7   96   3.643   2.836  10.879  1.6429 -0.0574 -0.2542
    7TCq1    O1   97   1.029   2.219  12.715  0.5033 -0.2065  0.0107
    7TCq1    C1   98   1.098   2.243  12.830 -0.0626  0.2307  0.1071
    7TCq1    O2   99   1.132   2.351  12.876 -0.4587  0.1094 -0.3285
    7TCq1    C2  100   1.119   2.119  12.892  0.8586 -0.2431  0.1865
    7TCq1    C3  101   1.149   2.010  12.812 -0.7995 -0.1585 -0.8198
    7TCq1    C4  102   1.213   1.898  12.867 -0.5919 -0.0324  0.3680
    7TCq1    C5  103   1.249   1.896  13.002 -0.0487  0.3904 -0.4793
    7TCq1    C6  104   1.237   2.014  13.070 -0.2941  0.3342  0.2967
    7TCq1    C7  105   1.178   2.129  13.015 -0.3535 -1.0145 -0.8343
    7TCq1    C8  106   1.333   2.023  13.176 -0.0865  0.4381 -0.0397
    7TCq1    O4  107   1.407   1.928  13.196  0.3673  0.9043 -0.2267
    7TCq1    C9  108   1.235   1.789  12.787 -0.3621 -0.1606  0.1823
    7TCq1    O5  109   1.156   1.780  12.689  0.1854  1.3255 -0.1650
    7TCq1    O6  110   1.340   1.718  12.813 -0.4981 -0.0405 -0.0161
    7TCq1    H1  111   0.999   2.126  12.706  0.2004 -0.1007 -0.0655
    7TCq1    H2  112   1.134   2.011  12.704  1.7985 -1.7458 -1.1925
    7TCq1    H3  113   1.308   1.812  13.038  3.0538  2.6268 -0.3386
    7TCq1    H4  114   1.166   2.224  13.064  0.9101 -0.3073 -1.9156
    8MPD2     C  115   1.583   2.312  13.507 -0.9533 -0.2746  0.3085
    8MPD2    C1  116   1.609   2.178  13.475 -0.6033  0.3141  0.7175
    8MPD2    C2  117   1.520   2.116  13.382  0.2199 -0.1871 -0.3102
    8MPD2    C3  118   1.414   2.190  13.331  0.3863 -0.5588 -0.1055
    8MPD2    C4  119   1.402   2.326  13.368 -0.3185  0.1245 -0.4361
    8MPD2    C5  120   1.483   2.381  13.452 -0.4185 -0.2520 -0.4453
    8MPD2     H  121   1.543   2.013  13.357  0.2275 -0.3880  0.5037
    8MPD2    H1  122   1.328   2.391  13.323  0.2785  1.4362  0.4813
    8MPD2    H2  123   1.640   2.371  13.579  1.0813  0.4633 -1.8953
    8MPD2    H3  124   1.472   2.487  13.471  1.6260 -0.1198 -0.0370
    8MPD2     N  125   1.320   2.146  13.242 -0.2342  1.1555  0.6028
    8MPD2    H5  126   1.240   2.207  13.229 -0.2228  0.3764 -3.0450
    8MPD2    N1  127   1.718   2.107  13.535 -0.2498  0.3191 -0.0557
    8MPD2    H7  128   1.776   2.165  13.595  0.3162  0.6029 -0.8719
    9TCq1    O1  129   4.208   2.085  11.595 -0.1069 -0.4043 -0.4822
    9TCq1    C1  130   4.128   2.184  11.546  0.1233  0.0395  0.1545
    9TCq1    O2  131   4.175   2.276  11.481 -0.1504 -0.4751  0.0163
    9TCq1    C2  132   3.984   2.150  11.546 -0.3348 -0.6585 -0.3217
    9TCq1    C3  133   3.906   2.219  11.459 -0.4829  0.0330  0.6724
    9TCq1    C4  134   3.771   2.199  11.469 -0.4444  0.0845 -0.6524
    9TCq1    C5  135   3.715   2.110  11.559  0.3204  0.7106  0.7454
    9TCq1    C6  136   3.796   2.042  11.647 -0.0014  0.3445 -0.0532
    9TCq1    C7  137   3.934   2.065  11.644  0.0872  0.3209 -0.8554
    9TCq1    C8  138   3.731   1.958  11.748  0.0311 -0.2420 -0.1603
    9TCq1    O4  139   3.606   1.951  11.740  0.6146 -0.3300 -0.3722
    9TCq1    C9  140   3.696   2.260  11.360 -0.4353  0.1247 -0.3578
    9TCq1    O5  141   3.574   2.250  11.361  0.0737 -0.3275 -0.3725
    9TCq1    O6  142   3.761   2.270  11.256  0.4047  0.3636 -0.0249
    9TCq1    H1  143   4.172   2.013  11.651  0.0999 -1.0414 -1.1659
    9TCq1    H2  144   3.943   2.298  11.395 -0.5915 -1.2377 -0.9439
    9TCq1    H3  145   3.610   2.083  11.556  0.6452 -0.5916  0.8688
    9TCq1    H4  146   4.005   2.036  11.721 -0.1100 -1.1003 -1.2100
   10MPD2     C  147   3.698   1.791  11.983 -0.5227  0.5941  0.7833
   10MPD2    C1  148   3.818   1.823  11.937  0.1681 -0.2771 -0.2137
   10MPD2    C2  149   3.931   1.782  12.012 -0.1055  0.1563  0.0864
   10MPD2    C3  150   3.920   1.697  12.119 -0.2956  0.0025  0.5480
   10MPD2    C4  151   3.797   1.678  12.170 -0.1154 -0.3282  0.3965
   10MPD2    C5  152   3.686   1.721  12.098 -0.0062  0.6718 -0.7427
   10MPD2     H  153   4.026   1.803  11.965 -1.6406  5.3059 -0.6822
   10MPD2    H1  154   3.785   1.619  12.261 -0.5321  0.3039  0.7575
   10MPD2    H2  155   3.604   1.824  11.940  0.0480 -0.8909 -1.5982
   10MPD2    H3  156   3.590   1.683  12.132  0.9087  0.0178  1.1111
   10MPD2     N  157   4.024   1.640  12.181  0.2294  0.3846  0.7172
   10MPD2    H5  158   3.999   1.572  12.252  0.8708  0.5965  1.1560
   10MPD2    N1  159   3.829   1.897  11.817 -0.6170  0.0446 -0.0877
   10MPD2    H7  160   3.925   1.908  11.787  0.4736 -0.9266  3.0366
   11TCq1    O1  161   1.049   0.858  15.059  0.2700  0.4928 -0.1539
   11TCq1    C1  162   0.948   0.780  15.014 -0.3419 -0.7846  0.9760
   11TCq1    O2  163   0.912   0.676  15.077 -0.5248 -0.5341  0.4693
   11TCq1    C2  164   0.902   0.831  14.884 -0.0017 -0.3490 -0.0269
   11TCq1    C3  165   0.990   0.892  14.797  0.3502  0.6051  0.6255
   11TCq1    C4  166   0.947   0.935  14.673  1.0191 -0.0410  0.3749
   11TCq1    C5  167   0.816   0.922  14.640  0.2482 -0.5644 -0.2935
   11TCq1    C6  168   0.732   0.853  14.722 -0.2085  0.2972 -0.2619
   11TCq1    C7  169   0.771   0.814  14.846 -0.3691  0.0227  0.0452
   11TCq1    C8  170   0.593   0.839  14.682  0.2828  0.2764 -0.2139
   11TCq1    O4  171   0.519   0.814  14.773  0.3921  0.2992  0.7429
   11TCq1    C9  172   1.032   1.001  14.583  0.1387 -0.1698  0.2030
   11TCq1    O5  173   0.979   1.070  14.495  0.6107 -0.0768 -0.1798
   11TCq1    O6  174   1.156   1.012  14.611 -0.0120 -0.1021  0.1299
   11TCq1    H1  175   1.052   0.946  15.016 -0.1210 -1.1515 -3.5604
   11TCq1    H2  176   1.096   0.912  14.809  0.4692  0.1956  0.2461
   11TCq1    H3  177   0.785   0.955  14.541 -3.4786 -2.1097  0.3621
   11TCq1    H4  178   0.705   0.781  14.926 -2.6687  0.6974 -1.6111
   12MPD2     C  179   0.338   0.819  14.545  0.0041  0.2336  0.0665
   12MPD2    C1  180   0.455   0.767  14.494 -0.5366 -0.2137 -0.6669
   12MPD2    C2  181   0.442   0.701  14.373 -0.3846 -0.2274 -0.0542
   12MPD2    C3  182   0.319   0.687  14.316  0.5091  0.4736  0.2021
   12MPD2    C4  183   0.208   0.732  14.375  0.0421 -0.9361  0.2423
   12MPD2    C5  184   0.215   0.803  14.495 -0.4642 -0.0767 -0.2597
   12MPD2     H  185   0.538   0.678  14.327  1.0757 -1.1401  3.4233
   12MPD2    H1  186   0.111   0.729  14.325 -0.4080  0.0412  1.0458
   12MPD2    H2  187   0.335   0.872  14.640 -0.5284 -1.3762  0.9531
   12MPD2    H3  188   0.127   0.838  14.549  0.1964 -0.4741  1.0876
   12MPD2     N  189   0.315   0.629  14.188 -0.1649  0.1154 -0.1924
   12MPD2    H5  190   0.218   0.624  14.158 -0.2412  0.3783  0.0130
   12MPD2    N1  191   0.586   0.798  14.551  0.3406  0.6163  0.6050
   12MPD2    H7  192   0.668   0.796  14.491 -1.1351 -1.5137 -1.3349
   13TCq1    O1  193   4.130   0.761  10.469 -0.4555 -0.2398  0.0080
   13TCq1    C1  194   4.083   0.643  10.422  0.0902 -0.3268  0.8563
   13TCq1    O2  195   4.125   0.585  10.323 -0.3092 -0.3811 -0.8913
   13TCq1    C2  196   3.945   0.626  10.464  0.0995 -0.1428 -0.8967
   13TCq1    C3  197   3.869   0.559  10.375  0.7038  0.2687 -0.3436
   13TCq1    C4  198   3.739   0.542  10.412  0.0708 -0.1466  0.3817
   13TCq1    C5  199   3.691   0.569  10.537 -0.0896 -0.1674 -0.1895
   13TCq1    C6  200   3.768   0.649  10.619 -0.8591 -0.7352 -0.9636
   13TCq1    C7  201   3.897   0.678  10.583 -0.7701  0.2125 -0.2354
   13TCq1    C8  202   3.714   0.715  10.737  1.0883 -0.5212  0.0509
   13TCq1    O4  203   3.781   0.763  10.824  0.7737 -0.7249  0.1417
   13TCq1    C9  204   3.651   0.472  10.329 -0.1056  0.6588 -0.0199
   13TCq1    O5  205   3.700   0.434  10.222 -0.1213 -0.4770  0.1575
   13TCq1    O6  206   3.551   0.405  10.381  0.4201  0.3296  0.1860
   13TCq1    H1  207   4.083   0.787  10.551 -2.1348 -1.7543 -0.4708
   13TCq1    H2  208   3.912   0.529  10.281  1.4130 -0.0692  0.0883
   13TCq1    H3  209   3.589   0.536  10.558  0.6296 -1.2880  1.5266
   13TCq1    H4  210   3.965   0.720  10.656  0.8900  0.3467 -1.8470
   14MPD2     C  211   3.354   0.785  10.798 -0.1624  0.2305 -0.1067
   14MPD2    C1  212   3.488   0.792  10.827  0.2594 -0.3009 -0.2162
   14MPD2    C2  213   3.531   0.846  10.946  0.0212 -0.9388 -0.2473
   14MPD2    C3  214   3.445   0.904  11.043 -0.2882 -0.3849  0.1368
   14MPD2    C4  215   3.312   0.916  11.000 -0.0040  0.1402  1.0745
   14MPD2    C5  216   3.272   0.855  10.883 -0.2960  0.0734  0.3331
   14MPD2     H  217   3.638   0.844  10.962 -0.0020 -0.5761 -0.0293
   14MPD2    H1  218   3.241   0.975  11.057  0.6175  1.7594  0.2013
   14MPD2    H2  219   3.307   0.749  10.708 -0.0775 -1.2986  0.4699
   14MPD2    H3  220   3.170   0.868  10.847 -0.4799  1.7078  1.4374
   14MPD2     N  221   3.504   0.971  11.157  0.3758  0.8329 -0.4220
   14MPD2    H5  222   3.605   0.970  11.163  0.3769  1.8552 -0.1805
   14MPD2    N1  223   3.571   0.721  10.735  0.3393  0.1985  0.7525
   14MPD2    H7  224   3.524   0.683  10.654  3.4894  0.4127 -1.1797
   15TCq1    O1  225   1.268   0.214   2.772  0.0294  0.9845 -0.0647
   15TCq1    C1  226   1.308   0.344   2.766 -0.5568  0.3442 -0.8693
   15TCq1    O2  227   1.264   0.435   2.835  0.0617  0.0400 -0.3554
   15TCq1    C2  228   1.440   0.343   2.703  0.1559  0.0918 -0.4223
   15TCq1    C3  229   1.533   0.431   2.755 -0.1724  0.0167 -0.3735
   15TCq1    C4  230   1.652   0.444   2.679 -0.4265 -0.2109  0.2216
   15TCq1    C5  231   1.663   0.399   2.554 -1.0654 -0.6663  0.0532
   15TCq1    C6  232   1.559   0.326   2.502  0.0843 -0.0987  0.1345
   15TCq1    C7  233   1.449   0.282   2.578  0.2465  0.8191 -0.6299
   15TCq1    C8  234   1.592   0.251   2.374  0.7791  0.5549 -0.4602
   15TCq1    O4  235   1.702   0.273   2.328 -0.7561  0.2109  1.1328
   15TCq1    C9  236   1.764   0.510   2.737  0.1666 -0.1239  0.1740
   15TCq1    O5  237   1.869   0.530   2.668 -0.0947  0.2481 -0.1146
   15TCq1    O6  238   1.752   0.555   2.856 -0.1243  0.1263  0.1182
   15TCq1    H1  239   1.314   0.147   2.718  0.2241  0.5789  0.6077
   15TCq1    H2  240   1.521   0.470   2.855 -2.1847 -0.9569 -0.2336
   15TCq1    H3  241   1.756   0.413   2.500 -0.5043  1.7970  1.6713
   15TCq1    H4  242   1.376   0.209   2.545  0.6331  0.7137 -1.2459
   16MPD2     C  243   1.341   0.093   2.162 -0.0897  0.7767 -0.8422
   16MPD2    C1  244   1.468   0.131   2.201  0.1212 -0.5377  0.4569
   16MPD2    C2  245   1.575   0.096   2.111  0.4358 -0.7763 -0.3308
   16MPD2    C3  246   1.552   0.031   1.987  0.6285 -0.1062 -0.7602
   16MPD2    C4  247   1.426   4.721   1.946 -0.8631 -0.5206  0.6988
   16MPD2    C5  248   1.326   0.021   2.040  0.3587  0.4974 -0.3175
   16MPD2     H  249   1.675   0.133   2.132  0.9079 -1.6642 -1.0168
   16MPD2    H1  250   1.402   4.663   1.857  2.1574  0.9711 -1.0573
   16MPD2    H2  251   1.258   0.102   2.231  1.2156 -3.3816  1.2298
   16MPD2    H3  252   1.233   4.696   2.014 -0.4141  1.4787  0.6036
   16MPD2     N  253   1.669   0.016   1.913  0.5219  0.8279  0.1155
   16MPD2    H5  254   1.749   0.064   1.953 -0.0749 -0.0354  2.2877
   16MPD2    N1  255   1.473   0.193   2.321 -0.2307 -0.3660 -0.0180
   16MPD2    H7  256   1.385   0.206   2.369 -0.1345 -1.4656  0.4706
   17TCq1    O1  257   3.559   0.271  10.603  0.0293  0.1082  0.1724
   17TCq1    C1  258   3.655   0.234  10.695 -0.0529 -0.5836 -0.4541
   17TCq1    O2  259   3.639   0.209  10.815  0.1340  0.2027 -0.0364
   17TCq1    C2  260   3.778   0.241  10.626 -0.5862 -0.7688 -0.3796
   17TCq1    C3  261   3.792   0.199  10.497 -0.3119  0.8229  0.0163
   17TCq1    C4  262   3.908   0.206  10.428  0.1901 -0.1406  0.0634
   17TCq1    C5  263   4.014   0.273  10.487  0.4886  0.0172 -1.0900
   17TCq1    C6  264   3.995   0.319  10.613 -0.1728 -0.4018  0.5097
   17TCq1    C7  265   3.885   0.296  10.690 -0.9021  0.3104 -0.4768
   17TCq1    C8  266   4.100   0.393  10.685  0.2991 -0.0306  0.2704
   17TCq1    O4  267   4.062   0.472  10.769  0.7632 -0.3843  0.2588
   17TCq1    C9  268   3.918   0.145  10.296  0.1854 -0.3783 -0.4246
   17TCq1    O5  269   3.809   0.109  10.237  0.0187 -0.2779 -0.4474
   17TCq1    O6  270   4.036   0.106  10.261 -0.5046 -0.2004 -0.6377
   17TCq1    H1  271   3.584   0.303  10.513 -0.8696  1.0978  0.2672
   17TCq1    H2  272   3.703   0.159  10.450 -1.0645  2.5356 -0.0003
   17TCq1    H3  273   4.105   0.287  10.431  1.0222 -1.8316 -0.6969
   17TCq1    H4  274   3.877   0.334  10.791  1.7915  2.3672 -1.0521
   18MPD2     C  275   4.342   0.554  10.718 -0.4311 -0.9703  0.4243
   18MPD2    C1  276   4.342   0.435  10.648  0.0592 -0.8647 -0.2531
   18MPD2    C2  277   4.457   0.394  10.591 -0.2037 -0.0013  0.1727
   18MPD2    C3  278   4.581   0.448  10.618  0.3589  0.4228  0.2669
   18MPD2    C4  279   4.581   0.566  10.681  0.3737  0.1135 -0.3909
   18MPD2    C5  280   4.460   0.609  10.732  0.1032 -0.0251 -0.5280
   18MPD2     H  281   4.452   0.304  10.531  1.2014  0.8343 -1.1985
   18MPD2    H1  282   4.673   0.618  10.704  0.9870 -0.6590 -1.0993
   18MPD2    H2  283   4.252   0.598  10.759  1.5780  2.4400  1.0897
   18MPD2    H3  284   4.460   0.700  10.791  0.4864 -0.7257  0.5569
   18MPD2     N  285   4.701   0.389  10.570 -0.1184  0.1176  0.3226
   18MPD2    H5  286   0.062   0.445  10.564 -0.3902  0.4767 -0.2028
   18MPD2    N1  287   4.225   0.365  10.628 -0.0283  0.0946 -0.2153
   18MPD2    H7  288   4.238   0.274  10.585  0.9891  0.4647 -0.6849
   19TMC2    C1  289   1.811   4.553  13.909 -0.3227  0.2420 -0.5479
   19TMC2    C2  290   1.874   4.441  13.855 -0.0544 -0.1386 -0.5926
   19TMC2    C3  291   1.811   4.367  13.762 -0.9033 -0.7310 -0.5524
   19TMC2    C4  292   1.685   4.591  13.868  0.1137 -0.2937 -0.7034
   19TMC2    C5  293   1.629   4.519  13.767 -0.2887  0.1744  0.3627
   19TMC2    C6  294   1.690   4.414  13.702 -0.0483  0.1686 -0.0054
   19TMC2     C  295   1.895   4.630  14.002  0.5046  0.1203  0.0584
   19TMC2     O  296   2.015   4.610  13.992 -0.6542  0.0336  0.4974
   19TMC2     H  297   1.972   4.404  13.885 -0.8523 -1.6356  0.2220
   19TMC2    H1  298   1.642   4.685  13.902 -0.7934 -2.1633  3.2938
   19TMC2    H2  299   1.636   4.364  13.623  1.8931 -1.1390 -0.5213
   19TMC2    C7  300   1.487   4.549  13.753  0.1787  0.1772 -0.8027
   19TMC2    C8  301   1.875   4.255  13.697  0.3324 -0.1192  0.5249
   19TMC2    O1  302   1.443   4.529  13.641 -0.5112 -0.2435  0.4748
   19TMC2    O2  303   1.991   4.220  13.710 -0.4952 -0.4595 -0.3670
   19TMC2    O5  304   1.778   4.176  13.650  0.3495  0.2408  0.4802
   19TMC2    H5  305   1.692   4.219  13.672  0.3172  1.7683 -2.4715
   20MPD2     C  306   2.017   0.063  14.221 -0.2436 -0.4729 -0.4788
   20MPD2    C1  307   1.879   0.054  14.203 -0.1389  0.1334 -0.2031
   20MPD2    C2  308   1.793   0.111  14.292  0.9177 -0.4104 -0.1567
   20MPD2    C3  309   1.823   0.155  14.417 -0.0960 -0.0706  0.2905
   20MPD2    C4  310   1.959   0.151  14.441 -0.0833  0.3023 -0.1800
   20MPD2    C5  311   2.049   0.115  14.343 -0.1595 -0.6253 -0.3740
   20MPD2     H  312   1.692   0.114  14.252  0.5303 -0.1262  0.8625
   20MPD2    H1  313   2.000   0.185  14.535  1.4356  2.7260 -1.7454
   20MPD2    H2  314   2.092   0.023  14.153  2.3937  1.4713  1.2890
   20MPD2    H3  315   2.153   0.119  14.375 -0.1754 -0.1272 -0.3848
   20MPD2     N  316   1.736   0.219  14.504 -0.2376 -0.7225  0.1587
   20MPD2    H5  317   1.787   0.266  14.578  0.3989 -0.6215 -0.3433
   20MPD2    N1  318   1.819   4.717  14.083 -0.5603 -0.5368 -0.4179
   20MPD2    H7  319   1.718   4.723  14.081 -0.6132 -0.9261  0.9086
   21MPD2     C  320   3.761   1.434  14.625  0.6116  0.4164 -0.0882
   21MPD2    C1  321   3.758   1.311  14.565  0.3661  0.1775  0.6799
   21MPD2    C2  322   3.651   1.224  14.588  0.7098 -0.3590 -0.4198
   21MPD2    C3  323   3.545   1.260  14.670 -0.1492  0.1191 -0.6975
   21MPD2    C4  324   3.538   1.392  14.714  0.0075 -0.3444 -0.3760
   21MPD2    C5  325   3.644   1.477  14.685  0.4396  0.0361 -0.4305
   21MPD2     H  326   3.647   1.130  14.534  0.5105  0.6993 -2.2440
   21MPD2    H1  327   3.459   1.442  14.769  0.4137 -0.8324  0.6542
   21MPD2    H2  328   3.848   1.498  14.628  1.0176 -0.1015 -1.0609
   21MPD2    H3  329   3.644   1.578  14.724  4.5975 -0.1848  0.1090
   21MPD2     N  330   3.445   1.171  14.717  0.0211  0.1065 -0.3277
   21MPD2    H5  331   3.381   1.199  14.791  0.6341 -2.5302  1.2056
   21MPD2    N1  332   3.877   1.272  14.502  0.1731  0.4952  0.1773
   21MPD2    H7  333   3.963   1.324  14.515  0.7312 -0.9812  2.3688
   22TCq2    C1  334   3.444   1.042  14.686 -0.7859 -0.0594  0.1696
   22TCq2    O2  335   3.516   0.975  14.611 -0.2353  0.4354  0.3606
   22TCq2    C2  336   3.362   0.974  14.792  0.1456 -0.3474 -0.5117
   22TCq2    C3  337   3.401   0.851  14.839  0.0012  0.3037 -0.3295
   22TCq2    C4  338   3.339   0.804  14.952  0.4249  0.4834 -0.2558
   22TCq2    C5  339   3.264   0.880  15.033 -0.8346 -0.2208 -0.6669
   22TCq2    C6  340   3.222   0.999  14.984  0.7164 -0.6423  0.3082
   22TCq2    C7  341   3.273   1.051  14.866 -0.6107 -0.1867  0.0214
   22TCq2    C8  342   3.138   1.081  15.065 -0.4781  0.6371  0.2376
   22TCq2    O4  343   3.149   1.068  15.183  0.2888  0.3893 -0.4000
   22TCq2    C9  344   3.395   0.681  15.009  0.0941 -0.1005 -0.2270
   22TCq2    O5  345   3.370   0.663  15.134  0.0167 -0.3602 -0.1825
   22TCq2    O6  346   3.488   0.635  14.941  0.1325  0.5548  0.0098
   22TCq2    H2  347   3.475   0.797  14.781  0.5375  2.2779 -1.4968
   22TCq2    H3  348   3.221   0.847  15.126  0.0487  0.5246 -0.0006
   22TCq2    H4  349   3.233   1.144  14.827  3.5781  0.7297 -2.0974
   23MPD2     C  350   0.749   1.734  15.074 -0.2674  0.1567  0.5300
   23MPD2    C1  351   0.623   1.707  15.119  0.1858 -0.0552 -0.5062
   23MPD2    C2  352   0.514   1.765  15.051  0.6486  0.6008  0.1577
   23MPD2    C3  353   0.535   1.834  14.930  0.1518  0.9438  1.3796
   23MPD2    C4  354   0.659   1.871  14.905 -0.1458  0.0930 -0.2471
   23MPD2    C5  355   0.772   1.828  14.977 -0.2632 -0.5436 -0.2419
   23MPD2     H  356   0.412   1.766  15.086  1.3954 -0.4881  2.4187
   23MPD2    H1  357   0.678   1.921  14.811 -1.6919 -0.0405 -0.6219
   23MPD2    H2  358   0.831   1.696  15.133  1.1293 -0.9939 -2.1754
   23MPD2    H3  359   0.869   1.852  14.933 -0.5878  0.7494 -0.2639
   23MPD2     N  360   0.440   1.870  14.830 -0.1568  0.2722 -0.2417
   23MPD2    H5  361   0.465   1.949  14.772 -1.3319  1.6744  1.1618
   23MPD2    N1  362   0.601   1.637  15.243 -0.0160 -0.0230  0.2381
   23MPD2    H7  363   0.510   1.633  15.288 -1.5765  0.6091 -2.8411
   24TCq2    C1  364   0.322   1.805  14.812 -0.7175  0.2631  0.6031
   24TCq2    O2  365   0.285   1.708  14.875  0.7970  0.3189  0.3940
   24TCq2    C2  366   0.242   1.855  14.703  0.7151  0.4957 -0.0275
   24TCq2    C3  367   0.277   1.972  14.643  0.1558  0.3595 -0.4852
   24TCq2    C4  368   0.218   2.005  14.525 -0.1652 -0.0634  0.0877
   24TCq2    C5  369   0.120   1.930  14.477 -0.6023 -0.2046  0.0836
   24TCq2    C6  370   0.079   1.819  14.550 -0.9158  0.5161  0.5130
   24TCq2    C7  371   0.140   1.774  14.666  0.7556 -0.0280  0.3392
   24TCq2    C8  372   4.665   1.774  14.531  0.9495 -0.7168  0.4604
   24TCq2    O4  373   4.636   1.671  14.595 -0.3232 -0.0691 -0.0999
   24TCq2    C9  374   0.260   2.123  14.455  0.0518  0.4064 -0.4946
   24TCq2    O5  375   0.172   2.191  14.392  0.3207  0.8533 -0.5580
   24TCq2    O6  376   0.386   2.123  14.448  0.3045 -0.5846  0.3300
   24TCq2    H2  377   0.338   2.044  14.696 -0.6779  0.5481  0.2297
   24TCq2    H3  378   0.085   1.954  14.378  0.6801  1.2534 -0.0211
   24TCq2    H4  379   0.109   1.698  14.737  0.4822  1.4034  1.7310
   25TMC2    C1  380   4.101   4.472  11.558 -0.0861 -0.4673  0.3814
   25TMC2    C2  381   4.139   4.589  11.498  0.5556  0.4332  0.3104
   25TMC2    C3  382   4.084   4.707  11.545 -0.1344 -0.1643 -0.6300
   25TMC2    C4  383   4.004   4.472  11.650  0.5179 -0.4114 -0.2444
   25TMC2    C5  384   3.958   4.590  11.700 -0.2163 -0.1737 -0.3142
   25TMC2    C6  385   3.997   4.709  11.646  0.2233  0.3950 -0.5649
   25TMC2     C  386   4.174   4.358  11.513 -0.2100  0.2793 -0.2700
   25TMC2     O  387   4.291   4.378  11.482  1.2403 -0.1584  0.4283
   25TMC2     H  388   4.222   4.581  11.428 -0.5138 -0.2519 -0.8884
   25TMC2    H1  389   3.989   4.383  11.709  0.0464 -1.9870 -2.7384
   25TMC2    H2  390   3.961   0.079  11.685 -0.9375 -0.7269  1.0595
   25TMC2    C7  391   3.857   4.580  11.801 -0.0970 -0.0360 -0.0745
   25TMC2    C8  392   4.156   0.109  11.529  0.1102 -0.1427  0.4059
   25TMC2    O1  393   3.842   4.470  11.852  0.3201  0.4086  0.7766
   25TMC2    O2  394   4.144   0.206  11.601  0.1440 -0.2759  0.2750
   25TMC2    O5  395   4.233   0.105  11.425  0.2325 -0.0922  0.5143
   25TMC2    H5  396   4.233   0.022  11.372  2.1503 -1.1386  2.1433
   26MPD2     C  397   4.227   3.845  11.499  0.1002 -0.3092 -0.0455
   26MPD2    C1  398   4.092   3.875  11.536 -0.2475 -0.3545  0.1946
   26MPD2    C2  399   4.060   4.017  11.548  0.1010  0.1066 -0.5055
   26MPD2    C3  400   4.153   4.115  11.515 -0.2601 -0.0437  1.0904
   26MPD2    C4  401   4.284   4.079  11.482  0.2711  0.1037  0.1019
   26MPD2    C5  402   4.308   3.947  11.466 -0.0665 -0.4100 -0.4506
   26MPD2     H  403   3.962   4.049  11.582 -0.7398 -1.4483 -1.4826
   26MPD2    H1  404   4.366   4.149  11.462  0.1234  0.3173  0.2409
   26MPD2    H2  405   4.266   3.747  11.471 -1.1754 -0.7293 -0.3529
   26MPD2    H3  406   4.409   3.930  11.432 -1.0556 -2.6453 -2.3070
   26MPD2     N  407   4.098   4.244  11.531  0.1159  0.2767 -0.8996
   26MPD2    H5  408   4.002   4.264  11.556  0.1560 -0.3613 -0.2469
   26MPD2    N1  409   3.999   3.771  11.554  0.4229  0.0240  0.2986
   26MPD2    H7  410   4.030   3.684  11.512 -0.1525 -0.6546  1.2678
   27TMC2    C1  411   2.773   1.686  12.302  0.6029  0.4396 -0.3926
   27TMC2    C2  412   2.688   1.733  12.209 -0.5161 -0.0398 -0.6827
   27TMC2    C3  413   2.674   1.867  12.184 -0.3848 -0.5039 -0.7621
   27TMC2    C4  414   2.837   1.774  12.390 -0.6111 -0.0477  0.1045
   27TMC2    C5  415   2.808   1.906  12.373  0.7697  0.4474 -0.3126
   27TMC2    C6  416   2.729   1.957  12.269 -0.2150 -0.5790  0.0737
   27TMC2     C  417   2.748   1.558  12.366 -0.1984 -0.1164 -0.5244
   27TMC2     O  418   2.819   1.462  12.349  0.2349 -0.3501 -0.5546
   27TMC2     H  419   2.636   1.647  12.166  2.2643 -2.1682  0.2384
   27TMC2    H1  420   2.908   1.724  12.455 -0.1779  0.1832 -0.1963
   27TMC2    H2  421   2.722   2.062  12.244 -2.1673 -0.3909  1.3700
   27TMC2    C7  422   2.787   1.955  12.504 -0.4798  0.3606  0.2148
   27TMC2    C8  423   2.591   1.916  12.078  0.7109 -0.4664  0.5317
   27TMC2    O1  424   2.845   1.895  12.589  0.1704 -0.4639 -0.2953
   27TMC2    O2  425   2.512   2.008  12.100  0.7006 -0.5919 -0.3986
   27TMC2    O5  426   2.590   1.833  11.979  0.6089  0.1090  0.0869
   27TMC2    H5  427   2.653   1.759  11.990  0.2821  0.1512  2.1182
   28MPD2     C  428   2.525   1.318  12.756  0.2520  0.0832  0.2659
   28MPD2    C1  429   2.481   1.451  12.756 -0.1179  0.1834  0.4888
   28MPD2    C2  430   2.523   1.534  12.654 -0.4535  0.3231 -0.4390
   28MPD2    C3  431   2.614   1.490  12.557 -0.1758 -0.3406 -0.5076
   28MPD2    C4  432   2.661   1.360  12.566 -0.1403  0.1255  0.2928
   28MPD2    C5  433   2.615   1.274  12.666  0.1957  0.5084  0.2907
   28MPD2     H  434   2.492   1.638  12.654 -1.7889 -0.0838 -0.9209
   28MPD2    H1  435   2.719   1.314  12.487  0.1181 -1.3639  1.3499
   28MPD2    H2  436   2.472   1.247  12.819 -1.6049  0.8961 -0.3611
   28MPD2    H3  437   2.643   1.171  12.645 -0.4015  0.1626  1.2054
   28MPD2     N  438   2.648   1.578  12.456 -0.6260  0.4261 -0.5039
   28MPD2    H5  439   2.594   1.664  12.446  0.3307  1.4347  3.0485
   28MPD2    N1  440   2.374   1.482  12.847  0.1128  0.1822  0.1963
   28MPD2    H7  441   2.340   1.408  12.907 -1.9526  1.1789  0.2586
   29MPD2     C  442   1.989   3.775  14.289 -0.0315 -0.6397 -0.0916
   29MPD2    C1  443   2.058   3.756  14.405  0.0681  0.1520 -0.0727
   29MPD2    C2  444   2.120   3.869  14.460  0.0578  0.0908 -0.0543
   29MPD2    C3  445   2.114   3.993  14.392 -0.7339  0.7699  0.1562
   29MPD2    C4  446   2.055   4.003  14.270  0.3101 -0.1147 -0.3461
   29MPD2    C5  447   1.993   3.894  14.225  0.1934  0.2708  0.3456
   29MPD2     H  448   2.170   3.861  14.557 -1.1053  0.7216  0.5954
   29MPD2    H1  449   2.061   4.086  14.201 -0.5268  1.7096  1.8005
   29MPD2    H2  450   1.973   3.690  14.223  1.5598 -2.6358  2.0911
   29MPD2    H3  451   1.964   3.901  14.121 -1.3066  0.2401  0.7631
   29MPD2     N  452   2.186   4.106  14.445  0.0571  0.0507 -0.3957
   29MPD2    H5  453   2.197   4.183  14.380 -0.5401 -0.2969 -0.9030
   29MPD2    N1  454   2.069   3.642  14.477  0.0718  0.3421 -0.6903
   29MPD2    H7  455   2.142   3.642  14.547  1.0685 -1.1615 -1.7238
   30TCq2    C1  456   2.227   4.122  14.579 -0.0559  0.8997 -0.1829
   30TCq2    O2  457   2.189   4.053  14.673 -0.0521  0.3737  0.2421
   30TCq2    C2  458   2.323   4.232  14.606 -0.4513  0.0672 -0.1920
   30TCq2    C3  459   2.315   4.300  14.724 -0.1371  0.3251 -0.4462
   30TCq2    C4  460   2.403   4.394  14.749  0.5618  0.1981  0.4382
   30TCq2    C5  461   2.503   4.423  14.657 -0.7790  0.1300  1.0722
   30TCq2    C6  462   2.505   4.366  14.531 -0.2578 -0.2825 -0.1291
   30TCq2    C7  463   2.400   4.278  14.499 -0.3385 -0.4674  0.7796
   30TCq2    C8  464   2.590   4.419  14.424  0.9084  0.0330 -0.0638
   30TCq2    O4  465   2.598   4.359  14.317 -0.2187  0.0239  0.2349
   30TCq2    C9  466   2.412   4.467  14.870 -0.0142 -0.2656  0.0178
   30TCq2    O5  467   2.474   4.575  14.864  0.0770 -0.1110  0.5746
   30TCq2    O6  468   2.381   4.412  14.978  0.3507 -0.0102 -0.1870
   30TCq2    H2  469   2.239   4.275  14.798  0.2554  0.4387 -0.0040
   30TCq2    H3  470   2.598   4.448  14.703  0.0930 -2.0469  0.4513
   30TCq2    H4  471   2.394   4.224  14.405 -0.2713 -1.0049  1.0833
   31MPD2     C  472   0.392   2.816  14.944  0.2042  0.1543  0.0167
   31MPD2    C1  473   0.301   2.790  14.856  0.1632 -0.3609  0.3386
   31MPD2    C2  474   0.217   2.687  14.883  0.0136  0.1322 -0.1108
   31MPD2    C3  475   0.238   2.608  14.994 -0.7470  0.5886 -0.3006
   31MPD2    C4  476   0.339   2.630  15.080 -0.1309  0.4926 -0.1524
   31MPD2    C5  477   0.416   2.740  15.054 -0.0660  0.3489 -0.5039
   31MPD2     H  478   0.137   2.659  14.816  0.3022 -1.3370  0.1725
   31MPD2    H1  479   0.366   2.564  15.161 -1.0201  0.4090  0.0751
   31MPD2    H2  480   0.465   2.894  14.929  1.2356 -1.3754 -2.9927
   31MPD2    H3  481   0.500   2.771  15.115  0.0332 -0.0620 -0.4346
   31MPD2     N  482   0.146   2.506  15.035  0.0080 -0.5294 -0.2019
   31MPD2    H5  483   0.175   2.447  15.112 -0.1578 -0.8452 -0.3818
   31MPD2    N1  484   0.289   2.882  14.749 -0.0301 -0.4513 -0.2633
   31MPD2    H7  485   0.346   2.966  14.749  0.0959 -0.5400 -1.5318
   32TCq2    C1  486   0.018   2.496  14.994 -0.3880  0.9408  0.2983
   32TCq2    O2  487   4.676   2.568  14.921  0.1494 -0.2505  0.0893
   32TCq2    C2  488   4.669   2.383  15.051 -0.0958  0.2546  0.8309
   32TCq2    C3  489   4.538   2.372  15.020 -0.0076 -0.2333  0.7677
   32TCq2    C4  490   4.454   2.310  15.106  1.0896 -0.1850  0.5839
   32TCq2    C5  491   4.502   2.240  15.212 -0.3459 -0.4988 -0.3117
   32TCq2    C6  492   4.636   2.228  15.232 -0.6135 -0.8596  0.2356
   32TCq2    C7  493   4.721   2.307  15.159 -0.6159  0.3655  0.2605
   32TCq2    C8  494   4.678   2.225  15.370 -0.4905 -0.2235 -0.0932
   32TCq2    O4  495   0.066   2.176  15.386  0.0467  0.0095  0.0010
   32TCq2    C9  496   4.310   2.321  15.084  0.8408 -0.2831  0.3128
   32TCq2    O5  497   4.268   2.420  15.023 -0.5213  0.1705  0.2389
   32TCq2    O6  498   4.236   2.278  15.182 -0.3714 -0.1684 -0.6699
   32TCq2    H2  499   4.484   2.429  14.947 -0.8282  0.1449  1.6769
   32TCq2    H3  500   4.445   2.179  15.280 -1.7088  0.4844 -0.5823
   32TCq2    H4  501   0.103   2.310  15.182 -0.8725  1.6636  1.2599
   33MPD2     C  502   0.404   0.752  10.425  0.8994  0.5226 -0.1119
   33MPD2    C1  503   0.432   0.642  10.345  0.3635 -0.2544  0.0494
   33MPD2    C2  504   0.511   0.662  10.232 -0.2155 -0.0647 -0.1708
   33MPD2    C3  505   0.554   0.790  10.199 -0.0752  0.0445  0.5455
   33MPD2    C4  506   0.523   0.897  10.277 -0.3622  0.3682  1.0642
   33MPD2    C5  507   0.457   0.871  10.393 -0.5620 -0.2942  0.4199
   33MPD2     H  508   0.531   0.570  10.179  0.8341  0.9756 -1.5833
   33MPD2    H1  509   0.555   0.999  10.257 -2.5347  0.8248 -0.0771
   33MPD2    H2  510   0.355   0.734  10.520  0.9965 -0.6743 -0.2830
   33MPD2    H3  511   0.441   0.950  10.465  1.8836 -0.1433  0.8187
   33MPD2     N  512   0.643   0.809  10.084 -0.2723  0.1544 -0.1245
   33MPD2    H5  513   0.669   0.904  10.059 -0.3776  0.1539 -0.2348
   33MPD2    N1  514   0.381   0.510  10.384 -0.1144  0.1584  0.2171
   33MPD2    H7  515   0.328   0.512  10.471 -0.0257 -0.3557  0.2800
   34TCq2    C1  516   0.692   0.710  10.004 -0.5017 -0.0692  0.2111
   34TCq2    O2  517   0.701   0.588  10.019 -0.0841  1.0186 -0.0291
   34TCq2    C2  518   0.758   0.766   9.888  0.9037  0.3002 -0.3843
   34TCq2    C3  519   0.690   0.865   9.823  0.4689 -0.0351 -0.0191
   34TCq2    C4  520   0.749   0.930   9.722  0.3460  0.5601  0.4661
   34TCq2    C5  521   0.881   0.921   9.704  0.4890  0.5009  0.4171
   34TCq2    C6  522   0.955   0.836   9.783 -0.5662 -0.3659 -0.0836
   34TCq2    C7  523   0.895   0.745   9.872  0.2810 -0.0393 -0.6072
   34TCq2    C8  524   1.101   0.834   9.761  0.8269 -0.1039  1.0676
   34TCq2    O4  525   1.143   0.920   9.684 -0.1358  0.6314 -0.0441
   34TCq2    C9  526   0.672   1.011   9.621  0.0966 -1.2029 -0.0698
   34TCq2    O5  527   0.553   1.045   9.650 -0.5437  0.0965  0.3268
   34TCq2    O6  528   0.732   1.021   9.511  0.6055  0.3860 -0.2444
   34TCq2    H2  529   0.583   0.875   9.837  0.1380  1.2117 -3.3307
   34TCq2    H3  530   0.927   0.985   9.629  0.4711  1.2790  1.0824
   34TCq2    H4  531   0.951   0.672   9.928 -2.4251  0.0232  2.1625
   35MPD2     C  532   1.885   2.223  12.169  0.3701  0.1320  0.8840
   35MPD2    C1  533   1.821   2.101  12.146 -0.4237 -0.2166 -0.4069
   35MPD2    C2  534   1.746   2.080  12.031  0.2194  0.3623  0.6438
   35MPD2    C3  535   1.742   2.180  11.931 -0.4507  0.3613  0.3624
   35MPD2    C4  536   1.827   2.290  11.944  0.3379 -0.1610  0.6302
   35MPD2    C5  537   1.890   2.313  12.064 -0.1273 -0.2650  0.3451
   35MPD2     H  538   1.694   1.986  12.018  1.6089 -0.2456 -0.6932
   35MPD2    H1  539   1.819   2.375  11.877  0.7875 -1.3335 -0.9008
   35MPD2    H2  540   1.935   2.248  12.261  0.0407 -2.0954  1.6593
   35MPD2    H3  541   1.932   2.412  12.080 -0.6939 -0.1283  0.9718
   35MPD2     N  542   1.674   2.153  11.808 -0.4619 -0.2195  0.2494
   35MPD2    H5  543   1.633   2.061  11.802 -0.5356 -0.2067  0.5904
   35MPD2    N1  544   1.831   2.013  12.255  0.3817 -0.9958 -0.2523
   35MPD2    H7  545   1.881   2.046  12.337  0.7076  0.7178 -1.1449
   36TCq2    C1  546   1.698   2.215  11.691 -0.3098 -0.0438 -0.5150
   36TCq2    O2  547   1.776   2.309  11.669 -0.8566  0.5721  0.1739
   36TCq2    C2  548   1.631   2.161  11.574 -0.2943 -0.4134 -0.5628
   36TCq2    C3  549   1.683   2.189  11.451 -0.1672  0.0149 -0.0611
   36TCq2    C4  550   1.644   2.112  11.341  0.1341 -0.0349  0.0518
   36TCq2    C5  551   1.536   2.021  11.367 -0.2342 -0.0361 -0.0112
   36TCq2    C6  552   1.472   2.023  11.485  0.1902  0.4915  0.2651
   36TCq2    C7  553   1.521   2.083  11.599  0.1403  0.2424  0.1202
   36TCq2    C8  554   1.375   1.925  11.512  0.2680 -0.1108 -0.1919
   36TCq2    O4  555   1.374   1.815  11.457 -0.2584 -0.1779  0.4689
   36TCq2    C9  556   1.687   2.125  11.201  0.6858 -0.3268  0.2400
   36TCq2    O5  557   1.669   2.023  11.130  0.0028 -0.4734 -0.0146
   36TCq2    O6  558   1.737   2.230  11.154  0.7017 -0.1609 -0.2656
   36TCq2    H2  559   1.769   2.254  11.447 -0.8156  0.9299  0.8032
   36TCq2    H3  560   1.499   1.964  11.282 -0.3068  0.9052 -0.6147
   36TCq2    H4  561   1.468   2.091  11.693  0.8085 -0.1546  0.5305
   37TMC2    C1  562   3.742   2.066  12.166  0.4441  0.2603 -0.1072
   37TMC2    C2  563   3.788   2.147  12.063 -0.3048 -0.0525 -0.1969
   37TMC2    C3  564   3.918   2.177  12.062  0.3181  0.3114 -0.0107
   37TMC2    C4  565   3.822   2.038  12.277 -0.0009  1.2349  0.3948
   37TMC2    C5  566   3.949   2.081  12.270  0.1889 -0.2130 -0.4986
   37TMC2    C6  567   4.006   2.143  12.162 -0.0061  0.9084 -0.9688
   37TMC2     C  568   3.601   2.045  12.166 -0.8928 -0.1846  0.3441
   37TMC2     O  569   3.527   2.074  12.069 -0.0642 -0.0356  0.0765
   37TMC2     H  570   3.723   2.178  11.983  0.6514  1.0415 -0.5470
   37TMC2    H1  571   3.784   1.981  12.361  0.7191 -0.5645 -0.5023
   37TMC2    H2  572   4.108   2.176  12.169  0.8522 -1.9620 -0.0600
   37TMC2    C7  573   4.038   2.031  12.374  0.1208  0.5533  0.1481
   37TMC2    C8  574   3.960   2.251  11.941 -0.4022 -0.6446 -0.0460
   37TMC2    O1  575   3.992   2.010  12.486  0.1998 -0.0795 -0.3628
   37TMC2    O2  576   3.890   2.311  11.860 -0.2028 -0.5715 -0.5956
   37TMC2    O5  577   4.095   2.239  11.929 -0.2735  0.6571  0.2457
   37TMC2    H5  578   4.135   2.167  11.983 -3.0178 -1.7063 -0.8564
   38MPD2     C  579   3.182   1.884  12.421 -0.7057  0.1668  0.4043
   38MPD2    C1  580   3.288   1.867  12.506 -0.2264 -0.9513 -0.3810
   38MPD2    C2  581   3.411   1.897  12.451  0.8876 -0.5221  0.0994
   38MPD2    C3  582   3.427   1.951  12.327 -0.4997 -0.3869  0.1423
   38MPD2    C4  583   3.320   1.975  12.244 -0.1850 -0.4887  0.1234
   38MPD2    C5  584   3.198   1.932  12.303 -0.0634 -0.4504  0.6050
   38MPD2     H  585   3.498   1.884  12.513 -1.4056 -0.3111  3.3685
   38MPD2    H1  586   3.331   2.017  12.144 -1.1260  0.1971  0.3094
   38MPD2    H2  587   3.080   1.862  12.451 -1.4842  0.7257 -1.8625
   38MPD2    H3  588   3.113   1.950  12.239  0.5464  3.4446  0.9076
   38MPD2     N  589   3.559   1.986  12.289 -0.7139 -0.4672  0.1195
   38MPD2    H5  590   3.633   1.968  12.356 -1.9060 -0.4690  1.4506
   38MPD2    N1  591   3.283   1.809  12.638  0.2186  0.4866 -1.0503
   38MPD2    H7  592   3.365   1.827  12.695 -2.3744  0.8569  2.5065
   39MPD2     C  593   1.826   4.346   1.960  0.0241 -0.2907  0.4878
   39MPD2    C1  594   1.699   4.386   1.994 -0.4109  0.2519  0.0531
   39MPD2    C2  595   1.591   4.380   1.899  0.4381  0.5300  0.3596
   39MPD2    C3  596   1.624   4.346   1.767 -0.1804  0.1215 -0.1256
   39MPD2    C4  597   1.751   4.305   1.740  0.4576 -0.3683 -0.4106
   39MPD2    C5  598   1.850   4.302   1.832 -0.5571  0.0874 -0.4100
   39MPD2     H  599   1.497   4.430   1.919  0.8649  0.8435  1.5717
   39MPD2    H1  600   1.772   4.259   1.644 -0.3046 -1.9340  0.1915
   39MPD2    H2  601   1.915   4.351   2.022 -0.3709 -0.9771  1.0987
   39MPD2    H3  602   1.946   4.265   1.796 -0.3875 -0.7297  0.8696
   39MPD2     N  603   1.533   4.367   1.655 -0.1250  0.7752 -0.8311
   39MPD2    H5  604   1.563   4.352   1.559 -0.8103 -0.9432 -0.7761
   39MPD2    N1  605   1.686   4.429   2.123 -0.5148 -0.1884  0.3110
   39MPD2    H7  606   1.770   4.441   2.179 -0.8683  0.2458  0.7433
   40TCq2    C1  607   1.567   4.468   2.182  0.3578  0.1870  0.3822
   40TCq2    O2  608   1.455   4.454   2.136 -0.4763  0.6390 -0.3822
   40TCq2    C2  609   1.582   4.528   2.311 -1.0833 -0.3160  0.0736
   40TCq2    C3  610   1.472   4.557   2.386  0.4404 -0.0848 -0.7113
   40TCq2    C4  611   1.485   4.618   2.505  0.9570 -0.1880 -0.3623
   40TCq2    C5  612   1.610   4.658   2.553  0.5297  0.0994 -0.9094
   40TCq2    C6  613   1.724   4.633   2.476 -0.2830  0.1246 -0.6598
   40TCq2    C7  614   1.705   4.564   2.355 -0.0075 -0.5390 -0.3116
   40TCq2    C8  615   1.852   4.639   2.542 -0.5979 -0.2163 -0.1020
   40TCq2    O4  616   1.854   4.638   2.664  0.2107  0.2283  0.3464
   40TCq2    C9  617   1.363   4.655   2.578  0.0498 -0.1172 -0.9877
   40TCq2    O5  618   1.383   0.001   2.684 -0.1785 -0.2300  0.4444
   40TCq2    O6  619   1.246   4.614   2.539  0.6395 -0.5583 -0.3399
   40TCq2    H2  620   1.376   4.528   2.343 -0.1985  0.8360  0.0911
   40TCq2    H3  621   1.621   4.720   2.641 -1.8081 -1.2167  0.3133
   40TCq2    H4  622   1.790   4.553   2.289  0.9777  2.5478  0.4549
   41TMC2    C1  623   0.859   1.947  13.717  0.4313 -0.7700  0.5420
   41TMC2    C2  624   0.837   2.038  13.816 -0.9279 -0.1414  0.1028
   41TMC2    C3  625   0.821   2.169  13.779  1.1316 -0.9602  1.0021
   41TMC2    C4  626   0.858   1.985  13.588 -0.3167 -0.1263 -0.3364
   41TMC2    C5  627   0.834   2.117  13.555  1.0839  0.6008 -0.6340
   41TMC2    C6  628   0.817   2.212  13.652 -0.4356 -0.3751  0.0161
   41TMC2     C  629   0.897   1.806  13.745 -0.1118 -0.6008 -0.3383
   41TMC2     O  630   0.866   1.718  13.663  0.3626 -0.3466 -0.0919
   41TMC2     H  631   0.827   2.010  13.920 -1.2965  3.1015  0.9231
   41TMC2    H1  632   0.867   1.913  13.507  1.5108 -2.8902  2.3366
   41TMC2    H2  633   0.805   2.316  13.624  0.6703 -0.5155 -0.9613
   41TMC2    C7  634   0.851   2.170  13.418  0.2880  0.4177 -0.8047
   41TMC2    C8  635   0.797   2.284  13.877 -0.0968  0.2313 -0.0126
   41TMC2    O1  636   0.875   2.292  13.411 -0.4595  0.4561 -0.4014
   41TMC2    O2  637   0.716   2.371  13.851 -0.0142  0.4743  0.0026
   41TMC2    O5  638   0.873   2.259  13.985  0.2456 -0.4364 -0.0632
   41TMC2    H5  639   0.935   2.188  13.958  0.6850 -0.3311  0.6596
   42MPD2     C  640   0.981   1.565  13.881 -0.3467 -0.1078  0.6963
   42MPD2    C1  641   0.986   1.691  13.944 -0.2631  0.4476  0.2970
   42MPD2    C2  642   1.029   1.708  14.076  0.3417 -0.3562 -0.3236
   42MPD2    C3  643   1.064   1.590  14.150 -0.0125 -0.2907  0.4115
   42MPD2    C4  644   1.052   1.467  14.087 -0.3750  0.1594  0.0690
   42MPD2    C5  645   1.012   1.455  13.956  0.1668  0.6458  0.2003
   42MPD2     H  646   1.041   1.809  14.111 -0.4697 -1.2630  2.5422
   42MPD2    H1  647   1.071   1.372  14.136  1.1122 -0.7159 -2.1866
   42MPD2    H2  648   0.970   1.546  13.775 -0.0222  0.2548  0.5995
   42MPD2    H3  649   1.020   1.359  13.907  2.8307  1.3053 -0.6787
   42MPD2     N  650   1.119   1.594  14.279 -0.0549  0.0823 -0.1489
   42MPD2    H5  651   1.132   1.505  14.326 -2.6659 -0.6769 -0.8637
   42MPD2    N1  652   0.951   1.809  13.873 -0.5281 -0.1181  0.1532
   42MPD2    H7  653   0.962   1.896  13.925  0.0755 -0.7051  1.0221
   43MPD2     C  654   2.230   0.245   0.963  0.0800  0.8006 -0.0144
   43MPD2    C1  655   2.337   0.297   1.034  0.4097 -0.3457 -0.3410
   43MPD2    C2  656   2.314   0.355   1.158 -0.6150 -0.1089  0.9103
   43MPD2    C3  657   2.183   0.378   1.203  0.4529  0.0104 -0.0966
   43MPD2    C4  658   2.082   0.320   1.134 -0.3671  0.3064 -0.0713
   43MPD2    C5  659   2.107   0.251   1.017 -0.0234 -0.6922  0.2219
   43MPD2     H  660   2.394   0.387   1.224  1.0668 -1.3208 -0.5338
   43MPD2    H1  661   1.978   0.342   1.155 -0.9972 -0.6777 -2.1568
   43MPD2    H2  662   2.233   0.186   0.872  0.6834 -0.5855  0.8957
   43MPD2    H3  663   2.025   0.220   0.953 -0.5219  1.6463 -0.2958
   43MPD2     N  664   2.152   0.456   1.320  0.1718  0.2556  0.5727
   43MPD2    H5  665   2.053   0.462   1.340  0.0548 -0.4256  0.2101
   43MPD2    N1  666   2.468   0.288   0.979  0.6190  0.0496 -0.2405
   43MPD2    H7  667   2.541   0.296   1.049  0.0559  0.9239  0.2503
   44TCq2    C1  668   2.269   0.820   1.772 -0.2674 -0.0818 -0.0915
   44TCq2    O2  669   2.385   0.853   1.741 -0.6619 -0.1553  0.6887
   44TCq2    C2  670   2.190   0.758   1.672  0.4445 -0.1509  0.0725
   44TCq2    C3  671   2.049   0.762   1.691  0.0910  0.0581 -0.4438
   44TCq2    C4  672   1.980   0.687   1.610 -0.2972 -0.4415  0.1427
   44TCq2    C5  673   2.038   0.617   1.509 -0.2836 -0.4656  0.4381
   44TCq2    C6  674   2.175   0.623   1.489 -0.9540  0.1769  0.5833
   44TCq2    C7  675   2.253   0.693   1.570  0.4860  0.4229 -0.1731
   44TCq2    C8  676   2.238   0.527   1.395  0.6577  0.1387  0.2169
   44TCq2    O4  677   2.360   0.523   1.380  0.6368 -0.1733 -0.4267
   44TCq2    C9  678   1.834   0.667   1.633  0.1073  0.5043 -0.3193
   44TCq2    O5  679   1.773   0.655   1.525 -0.2642  0.0399  0.6085
   44TCq2    O6  680   1.777   0.715   1.734 -0.0161 -0.1857  0.0415
   44TCq2    H2  681   2.004   0.819   1.772 -1.6019  0.0605 -1.3884
   44TCq2    H3  682   1.972   0.589   1.427  0.1532 -0.7006  0.1671
   44TCq2    H4  683   2.361   0.681   1.568  0.2474 -1.9174  0.1905
   45TMC2    C1  684   3.935   2.434   9.564  0.1101 -0.5641 -0.0861
   45TMC2    C2  685   4.047   2.445   9.638  0.8299 -0.2867 -0.5141
   45TMC2    C3  686   4.052   2.554   9.712  0.1657 -0.1677  0.1792
   45TMC2    C4  687   3.840   2.528   9.548 -0.0233 -0.2743  0.1473
   45TMC2    C5  688   3.859   2.644   9.620 -0.8084  0.4124 -0.3609
   45TMC2    C6  689   3.962   2.658   9.708 -0.7576 -0.2913 -0.2693
   45TMC2     C  690   3.901   2.306   9.515  0.8908 -0.1126 -0.4723
   45TMC2     O  691   3.989   2.231   9.487 -0.4049 -0.7897 -0.0041
   45TMC2     H  692   4.115   2.362   9.650  3.2421  2.0390  1.8226
   45TMC2    H1  693   3.754   2.508   9.486 -0.5502 -0.8346  1.0605
   45TMC2    H2  694   3.989   2.750   9.758 -0.0488 -1.1353  0.9283
   45TMC2    C7  695   3.743   2.728   9.630 -0.6076 -0.5161 -0.3554
   45TMC2    C8  696   4.177   2.588   9.790  0.2167  0.5641 -0.1695
   45TMC2    O1  697   3.658   2.724   9.543 -0.1782 -0.6459 -0.0344
   45TMC2    O2  698   4.220   2.695   9.823  0.2735 -0.1981 -0.7460
   45TMC2    O5  699   4.244   2.471   9.809 -0.2771 -0.2272 -0.0564
   45TMC2    H5  700   4.195   2.386   9.808  2.8267 -1.9874  0.4821
   46MPD2     C  701   3.737   2.107   9.380 -0.4903  0.5270  0.1254
   46MPD2    C1  702   3.687   2.190   9.475  0.9535  0.2004 -0.7096
   46MPD2    C2  703   3.569   2.161   9.532  0.2481  0.6743  0.4462
   46MPD2    C3  704   3.481   2.065   9.477 -0.0102 -0.1011 -0.0271
   46MPD2    C4  705   3.523   1.979   9.374  0.6683 -0.3954 -0.6901
   46MPD2    C5  706   3.657   2.003   9.331 -0.4440 -0.5109  0.2864
   46MPD2     H  707   3.527   2.222   9.611 -0.6885 -0.8059  1.1057
   46MPD2    H1  708   3.477   1.887   9.340 -0.1472 -0.5165  0.7623
   46MPD2    H2  709   3.831   2.131   9.332  0.2107 -0.5136  0.9604
   46MPD2    H3  710   3.710   1.934   9.266  0.6517  0.4911  0.1169
   46MPD2     N  711   3.355   2.062   9.541 -0.5463  0.1902 -0.0292
   46MPD2    H5  712   3.341   2.109   9.630 -0.4519  0.1545  0.0042
   46MPD2    N1  713   3.767   2.291   9.535 -0.0685 -0.6357 -0.4715
   46MPD2    H7  714   3.719   2.357   9.595  5.3733  0.3551  2.8010
   47TMC2    C1  715   0.896   2.624   9.584 -0.2053 -0.2254  0.0435
   47TMC2    C2  716   0.907   2.511   9.508  0.2957  0.0920 -0.0349
   47TMC2    C3  717   0.808   2.495   9.412 -0.1070 -0.5851 -0.0538
   47TMC2    C4  718   0.785   2.699   9.587  0.1908 -0.0829 -0.1512
   47TMC2    C5  719   0.692   2.677   9.494  0.1759 -0.0945 -0.1786
   47TMC2    C6  720   0.702   2.578   9.400  0.1549  0.5656  0.3815
   47TMC2     C  721   0.992   2.658   9.690  0.2883  0.4745 -0.0561
   47TMC2     O  722   1.000   2.771   9.729  0.3925 -0.3134  0.2840
   47TMC2     H  723   0.997   2.450   9.502 -0.2152 -0.8094  1.5664
   47TMC2    H1  724   0.760   2.772   9.663 -1.8542 -0.1722 -0.7284
   47TMC2    H2  725   0.628   2.546   9.328  0.2798  0.2573  0.3947
   47TMC2    C7  726   0.589   2.765   9.487  0.0946  0.0507 -0.8582
   47TMC2    C8  727   0.794   2.370   9.335  0.0829  0.2662  0.0038
   47TMC2    O1  728   0.608   2.882   9.526  0.2985  0.0903  0.3589
   47TMC2    O2  729   0.728   2.359   9.233 -0.0078  0.4429  0.2787
   47TMC2    O5  730   0.843   2.260   9.397 -0.4751  0.1995  0.0969
   47TMC2    H5  731   0.876   2.279   9.488  1.9112 -0.9008 -0.5456
   48MPD2     C  732   1.186   2.623   9.926 -0.3779  0.1696  0.3702
   48MPD2    C1  733   1.152   2.520   9.843 -0.3082 -0.0614  0.2169
   48MPD2    C2  734   1.204   2.397   9.864  0.1993  0.5010  0.2378
   48MPD2    C3  735   1.295   2.369   9.964 -0.3769  0.1152 -0.0348
   48MPD2    C4  736   1.321   2.472  10.053  1.2443  1.2521  0.6472
   48MPD2    C5  737   1.267   2.594  10.039  0.3327  0.2989  0.5084
   48MPD2     H  738   1.165   2.318   9.802  0.7690 -1.1822  2.0378
   48MPD2    H1  739   1.384   2.451  10.138  0.5147 -2.2965  0.3166
   48MPD2    H2  740   1.164   2.726   9.902 -0.0136  0.0871 -0.3070
   48MPD2    H3  741   1.305   2.671  10.103  2.7194 -0.1373 -0.4029
   48MPD2     N  742   1.351   2.235   9.967  0.0159 -0.3332  0.1056
   48MPD2    H5  743   1.317   2.170   9.896  2.0208 -1.9544  0.6313
   48MPD2    N1  744   1.054   2.543   9.736  0.2929  0.1415  0.2600
   48MPD2    H7  745   1.025   2.455   9.696  1.1695 -0.5653  1.2008
   49MPD2     C  746   3.515   4.013  10.735  0.6996  0.6863  0.2755
   49MPD2    C1  747   3.540   4.072  10.616  0.3989  0.6356  0.2191
   49MPD2    C2  748   3.607   4.189  10.627  0.1198 -0.0461  0.1383
   49MPD2    C3  749   3.658   4.238  10.743  0.4846 -0.0779 -0.1979
   49MPD2    C4  750   3.637   4.173  10.861  0.3621 -0.5271  1.0172
   49MPD2    C5  751   3.552   4.069  10.859 -0.6218 -0.4856 -0.1255
   49MPD2     H  752   3.633   4.252  10.542 -0.6987  0.0096 -0.0705
   49MPD2    H1  753   3.659   4.215  10.959  2.4524  0.6683  0.0449
   49MPD2    H2  754   3.455   3.923  10.742  3.4174 -1.2624 -1.4348
   49MPD2    H3  755   3.518   4.017  10.948 -3.3027  0.3308 -0.6577
   49MPD2     N  756   3.732   4.361  10.757  1.2515  0.4727 -0.2043
   49MPD2    H5  757   3.774   4.381  10.848  1.2212  1.4178 -0.4014
   49MPD2    N1  758   3.495   4.022  10.491 -0.3175  0.1073  0.5627
   49MPD2    H7  759   3.530   4.069  10.408  1.2001 -1.1543  0.4934
   50TCq2    C1  760   3.449   3.887  10.465 -0.2048 -0.2791 -0.0932
   50TCq2    O2  761   3.419   3.795  10.542 -0.5540 -0.3554 -0.0855
   50TCq2    C2  762   3.418   3.866  10.325  0.0773  0.4561 -0.3634
   50TCq2    C3  763   3.401   3.971  10.242 -0.8257 -0.0681  0.6189
   50TCq2    C4  764   3.392   3.953  10.107  0.4429 -0.9986 -0.1235
   50TCq2    C5  765   3.400   3.825  10.053  0.0359  0.6869 -0.5593
   50TCq2    C6  766   3.410   3.723  10.143  0.2880  0.8972  0.3426
   50TCq2    C7  767   3.422   3.737  10.279 -0.5267  0.4124  0.5847
   50TCq2    C8  768   3.454   3.591  10.094  0.5293 -0.7174  0.1913
   50TCq2    O4  769   3.511   3.520  10.176 -0.2597 -0.1463  0.5221
   50TCq2    C9  770   3.369   4.063  10.018  0.1968 -0.0961 -0.2897
   50TCq2    O5  771   3.334   4.176  10.070  0.2717 -0.4124 -0.5663
   50TCq2    O6  772   3.374   4.034   9.898  0.2489 -0.3670 -0.2277
   50TCq2    H2  773   3.376   4.068  10.283 -0.3955  0.7766 -1.0947
   50TCq2    H3  774   3.405   3.806   9.946  0.4111 -1.1123 -0.2218
   50TCq2    H4  775   3.440   3.649  10.338 -2.9138  2.2595  4.0758
   51MPD2     C  776   0.005   2.631   0.910  0.3417 -1.1346  0.0213
   51MPD2    C1  777   4.659   2.632   1.032 -0.1387  0.1412  0.6426
   51MPD2    C2  778   0.008   2.616   1.148 -0.0841  0.4166 -0.1134
   51MPD2    C3  779   0.143   2.569   1.148  0.1875 -0.2386 -0.0275
   51MPD2    C4  780   0.201   2.574   1.025 -0.1444 -0.5363  0.4851
   51MPD2    C5  781   0.132   2.594   0.910  0.0756 -0.5457  0.1995
   51MPD2     H  782   4.680   2.632   1.243  0.6839 -2.2296  0.7563
   51MPD2    H1  783   0.308   2.558   1.017 -0.1449  0.3297 -1.2890
   51MPD2    H2  784   4.666   2.641   0.822  1.1952 -1.5889 -0.6399
   51MPD2    H3  785   0.173   2.595   0.809  0.9052  2.3251  0.5564
   51MPD2     N  786   0.228   2.540   1.259  0.2615  0.9260  0.0915
   51MPD2    H5  787   0.317   2.497   1.236 -0.6350 -1.0760  0.3975
   51MPD2    N1  788   4.528   2.683   1.023 -0.7546 -0.6521  0.5004
   51MPD2    H7  789   4.502   2.708   0.928 -0.1166  2.1616  1.0650
   52TCq2    C1  790   0.187   2.547   1.391  0.4751  0.3255  0.0092
   52TCq2    O2  791   0.075   2.577   1.428 -0.3933  0.3619  0.4717
   52TCq2    C2  792   0.288   2.510   1.488  0.1183  0.4724 -0.3406
   52TCq2    C3  793   0.416   2.509   1.445  0.2464 -0.8146  0.4295
   52TCq2    C4  794   0.517   2.545   1.534  0.6134 -0.6045 -0.1084
   52TCq2    C5  795   0.491   2.581   1.666 -0.3892  0.0697 -0.3691
   52TCq2    C6  796   0.359   2.579   1.704  0.1108 -0.0757 -0.1523
   52TCq2    C7  797   0.258   2.541   1.614  0.4749  0.2010 -0.3093
   52TCq2    C8  798   0.320   2.689   1.794  0.6969 -0.3061 -0.0990
   52TCq2    O4  799   0.198   2.705   1.800 -0.7648  0.1482 -0.0290
   52TCq2    C9  800   0.651   2.566   1.482  0.5304 -0.1102  0.0642
   52TCq2    O5  801   0.664   2.556   1.356  0.0323  0.0740  0.4492
   52TCq2    O6  802   0.734   2.599   1.566 -0.1967 -0.6556  0.2851
   52TCq2    H2  803   0.446   2.501   1.341  0.4872  1.8395  0.2976
   52TCq2    H3  804   0.577   2.581   1.732 -3.1316  1.8116  3.2241
   52TCq2    H4  805   0.154   2.536   1.644 -0.0412  1.6440 -1.8858
   53TMC2    C1  806   4.573   2.038  12.877 -0.0442  0.3374  0.1809
   53TMC2    C2  807   4.631   1.992  12.995 -0.6090 -0.6282 -0.1555
   53TMC2    C3  808   4.580   2.040  13.114 -0.4369  0.0702 -0.3568
   53TMC2    C4  809   4.483   2.140  12.878  0.4523  0.9367 -0.0529
   53TMC2    C5  810   4.430   2.180  12.998 -0.8157 -0.7374 -0.0748
   53TMC2    C6  811   4.479   2.130  13.116  0.1711 -0.2266  0.5649
   53TMC2     C  812   4.545   1.934  12.781 -0.0215  0.1070 -0.5237
   53TMC2     O  813   4.624   1.838  12.772 -0.3343  0.4106 -0.6828
   53TMC2     H  814   4.680   1.896  13.005  0.1794 -0.2154 -0.0120
   53TMC2    H1  815   4.453   2.202  12.794  1.2738  1.8573  0.3303
   53TMC2    H2  816   4.450   2.157  13.216 -2.1258  0.4401 -0.2827
   53TMC2    C7  817   4.282   2.202  12.999 -0.3442 -0.1245  0.4819
   53TMC2    C8  818   4.635   1.980  13.235 -0.2625  0.1878  0.1968
   53TMC2    O1  819   4.229   2.195  12.886 -0.1078  0.6792 -0.0498
   53TMC2    O2  820   4.568   1.942  13.329  0.7498 -0.4690 -0.0212
   53TMC2    O5  821   0.049   1.982  13.228 -0.5632  0.3284  0.0403
   53TMC2    H5  822   0.087   2.032  13.153 -0.2166  0.1570  0.1048
   54MPD2     C  823   4.521   1.897  12.503  0.0740  0.5935 -0.4101
   54MPD2    C1  824   4.410   1.937  12.575 -0.3418 -0.0939  0.2716
   54MPD2    C2  825   4.287   1.960  12.512 -0.0531 -0.7479  0.6537
   54MPD2    C3  826   4.276   1.956  12.381  0.0054  0.0007  0.2260
   54MPD2    C4  827   4.396   1.926  12.303 -0.4066  0.0810  0.5655
   54MPD2    C5  828   4.512   1.901  12.368 -0.0531 -0.1475  0.1866
   54MPD2     H  829   4.203   1.982  12.575 -0.6662  0.3089 -0.5406
   54MPD2    H1  830   4.398   1.938  12.195  0.8121 -1.4897  0.4154
   54MPD2    H2  831   4.614   1.866  12.550  1.0295  2.5720 -0.9805
   54MPD2    H3  832   4.600   1.879  12.310  2.2237 -1.6684  4.1802
   54MPD2     N  833   4.160   1.999  12.320  0.3546 -0.0552 -0.1769
   54MPD2    H5  834   4.171   2.022  12.222  2.2172 -0.3749 -0.0428
   54MPD2    N1  835   4.426   1.963  12.713  0.1862  0.7543  0.5668
   54MPD2    H7  836   4.352   2.021  12.753 -2.1668 -0.8232 -1.4587
   55MPD2     C  837   0.114   4.173   0.506  0.6574 -0.3946 -0.8694
   55MPD2    C1  838   0.043   4.200   0.620 -0.3818  0.6433  0.0080
   55MPD2    C2  839   4.674   4.305   0.627  0.2659  0.5183 -0.6173
   55MPD2    C3  840   4.641   4.375   0.506 -0.1350 -0.1615  0.8754
   55MPD2    C4  841   4.706   4.341   0.388 -0.3562 -1.0412 -0.0341
   55MPD2    C5  842   0.081   4.243   0.388  0.9455  0.7914 -0.7982
   55MPD2     H  843   4.622   4.316   0.722 -0.7899 -0.8126 -1.0596
   55MPD2    H1  844   4.678   4.390   0.295  0.3031  1.7873  1.2520
   55MPD2    H2  845   0.188   4.094   0.510  1.4727  0.3562 -1.3129
   55MPD2    H3  846   0.123   4.219   0.292  1.7273 -1.2456  0.0443
   55MPD2     N  847   4.556   4.491   0.507 -0.5572 -0.0324  0.4639
   55MPD2    H5  848   4.529   4.526   0.415 -1.9762  0.2078  0.9798
   55MPD2    N1  849   0.060   4.103   0.727 -0.3236  0.3765 -0.5704
   55MPD2    H7  850   0.138   4.041   0.710 -0.9742 -0.1805 -1.5511
   56TCq2    C1  851   4.707   4.099   0.840 -0.4584  0.7773  0.5451
   56TCq2    O2  852   4.596   4.153   0.870 -1.1316 -0.8204  0.0885
   56TCq2    C2  853   0.032   3.999   0.923  0.5754  0.2954 -0.3243
   56TCq2    C3  854   0.162   4.008   0.962 -0.1963  0.0187  0.2911
   56TCq2    C4  855   0.207   3.910   1.041 -0.0635  0.1848  0.1249
   56TCq2    C5  856   0.121   3.818   1.103 -0.7760  0.5082 -0.7784
   56TCq2    C6  857   4.718   3.825   1.062  0.4244  0.1290 -0.2314
   56TCq2    C7  858   4.666   3.911   0.972  0.2683 -0.4117  0.0513
   56TCq2    C8  859   4.628   3.732   1.127 -0.5983  0.0546  0.1321
   56TCq2    O4  860   4.668   3.641   1.196 -0.1958 -0.0437 -0.1629
   56TCq2    C9  861   0.344   3.903   1.065 -0.9496  0.6181  0.7865
   56TCq2    O5  862   0.414   3.962   0.983 -0.5458  0.0130 -0.3096
   56TCq2    O6  863   0.384   3.813   1.152 -0.2644 -0.0457 -0.2161
   56TCq2    H2  864   0.232   4.086   0.934  1.9546 -2.1142 -0.3341
   56TCq2    H3  865   0.154   3.736   1.166  1.9352  1.4562 -0.9749
   56TCq2    H4  866   4.566   3.908   0.930 -0.2072  2.2232  0.9682
   57TMC2    C1  867   4.512   1.064  14.006 -0.5891 -1.0410 -0.3935
   57TMC2    C2  868   4.528   0.955  14.087  0.2012  0.5500  0.6331
   57TMC2    C3  869   4.641   0.877  14.070  1.0498  0.0723 -0.2243
   57TMC2    C4  870   4.589   1.084  13.898 -0.6274  0.1939  0.3783
   57TMC2    C5  871   4.699   1.010  13.885  0.6729 -0.1348 -0.6124
   57TMC2    C6  872   0.008   0.911  13.974  0.3398  0.4019 -0.0245
   57TMC2     C  873   4.383   1.131  14.027 -0.5840  0.6951 -0.2249
   57TMC2     O  874   4.347   1.143  14.144 -0.5423  0.5513 -0.4877
   57TMC2     H  875   4.459   0.938  14.168 -1.2899 -1.5859 -1.0764
   57TMC2    H1  876   4.589   1.176  13.840 -2.1232  0.0680  0.1743
   57TMC2    H2  877   0.102   0.858  13.976  1.2606  2.0365  0.2933
   57TMC2    C7  878   0.056   1.051  13.778  0.1801  0.5030  0.4430
   57TMC2    C8  879   4.655   0.745  14.126 -0.0171 -0.4647 -0.1541
   57TMC2    O1  880   0.080   1.170  13.763  0.0805  0.5149  0.0373
   57TMC2    O2  881   0.031   0.672  14.117 -0.5607 -0.3967 -0.4595
   57TMC2    O5  882   4.592   0.771  14.242  0.3489  0.4885 -0.3988
   57TMC2    H5  883   4.596   0.713  14.321  2.1396 -0.1430 -0.9657
   58MPD2     C  884   3.941   1.313  13.859 -0.6710  0.2946 -0.5865
   58MPD2    C1  885   3.997   1.321  13.982  0.5630 -0.1690  0.4581
   58MPD2    C2  886   4.126   1.276  13.998  0.5354 -0.3899  0.0461
   58MPD2    C3  887   4.201   1.226  13.894  0.1330  0.2795 -0.3486
   58MPD2    C4  888   4.145   1.218  13.769 -0.0764 -0.3828  0.6033
   58MPD2    C5  889   4.018   1.264  13.751 -0.1321 -0.4431  0.1148
   58MPD2     H  890   4.169   1.263  14.096  3.3911 -0.4769 -1.2232
   58MPD2    H1  891   4.193   1.164  13.688  1.0219  0.2064  0.8650
   58MPD2    H2  892   3.842   1.348  13.836 -0.9151  1.1936  1.8282
   58MPD2    H3  893   3.973   1.244  13.654  2.1255  1.4742 -1.3533
   58MPD2     N  894   4.333   1.176  13.912 -0.0463  0.3734 -0.0507
   58MPD2    H5  895   4.375   1.151  13.823 -1.8674 -1.7121 -0.3385
   58MPD2    N1  896   3.935   1.368  14.101  0.0641  0.0887 -0.3809
   58MPD2    H7  897   3.996   1.384  14.181 -0.4070  2.7253 -0.5300
   59MPD2     C  898   2.042   1.240  13.412  0.1634 -0.4662  0.0581
   59MPD2    C1  899   2.143   1.168  13.345  0.0605  0.1090 -0.2476
   59MPD2    C2  900   2.269   1.179  13.409  0.2982  0.7555 -0.0285
   59MPD2    C3  901   2.295   1.266  13.511 -0.2757  0.2118 -0.4942
   59MPD2    C4  902   2.190   1.327  13.570  0.1599 -0.1841  0.2824
   59MPD2    C5  903   2.059   1.320  13.526 -0.2639  0.7527  0.4585
   59MPD2     H  904   2.342   1.120  13.354 -2.1901 -2.1526 -0.2023
   59MPD2    H1  905   2.204   1.374  13.667  0.7502 -1.1449  0.6635
   59MPD2    H2  906   1.939   1.235  13.378  0.8149  1.7801 -2.2073
   59MPD2    H3  907   1.975   1.361  13.580  0.1024  1.8879  0.1636
   59MPD2     N  908   2.419   1.296  13.566  0.5074 -0.1514  0.4854
   59MPD2    H5  909   2.415   1.374  13.631  1.7503 -1.2012  1.8288
   59MPD2    N1  910   2.117   1.090  13.228  0.3440 -0.1670  0.1777
   59MPD2    H7  911   2.192   1.053  13.171 -0.4917  1.1501 -1.7751
   60TCq2    C1  912   1.993   1.047  13.179 -0.4292 -0.5364  0.3146
   60TCq2    O2  913   1.888   1.048  13.241  0.0929 -0.2681 -0.1914
   60TCq2    C2  914   1.982   0.991  13.049 -0.0782 -0.0346 -0.2654
   60TCq2    C3  915   1.891   0.887  13.022  0.1299 -0.2940 -0.5331
   60TCq2    C4  916   1.892   0.835  12.895  0.0648  0.1572  0.0951
   60TCq2    C5  917   1.978   0.874  12.801  0.6781  0.0883 -0.7023
   60TCq2    C6  918   2.066   0.972  12.834 -0.4166 -0.4042 -0.1986
   60TCq2    C7  919   2.066   1.035  12.952  0.8614 -0.6625  0.0201
   60TCq2    C8  920   2.146   1.037  12.727 -0.3826 -0.1173  0.5409
   60TCq2    O4  921   2.215   0.958  12.666  0.1162  0.1435  0.1224
   60TCq2    C9  922   1.789   0.745  12.848 -0.4646  0.0454  0.9747
   60TCq2    O5  923   1.790   0.705  12.727 -0.2360  0.1346 -0.6228
   60TCq2    O6  924   1.704   0.715  12.931  0.3501  0.3828 -0.0557
   60TCq2    H2  925   1.818   0.852  13.095  0.4408  1.3388  0.5642
   60TCq2    H3  926   1.960   0.848  12.697  0.4799  1.0128 -0.8979
   60TCq2    H4  927   2.134   1.119  12.964 -0.3008  0.2867 -0.0867
   61MPD2     C  928   1.483   2.602  14.515  0.2887 -0.0198  0.2896
   61MPD2    C1  929   1.411   2.627  14.626  0.2242 -0.0288  0.0007
   61MPD2    C2  930   1.286   2.681  14.616  0.0978  0.2646 -0.1517
   61MPD2    C3  931   1.230   2.708  14.492 -0.3539  0.7541  0.1138
   61MPD2    C4  932   1.307   2.687  14.379 -0.1588 -0.0286  0.2114
   61MPD2    C5  933   1.432   2.636  14.392  0.1461  0.2575  0.8124
   61MPD2     H  934   1.239   2.705  14.711  1.4938 -1.6860  1.0133
   61MPD2    H1  935   1.278   2.697  14.275 -0.1763  1.9762  0.4030
   61MPD2    H2  936   1.586   2.570  14.521 -0.6983 -2.9480  1.5751
   61MPD2    H3  937   1.493   2.611  14.305  2.1032  1.0899  1.9437
   61MPD2     N  938   1.092   2.738  14.463 -0.4339 -0.0346 -0.2403
   61MPD2    H5  939   1.058   2.756  14.369 -1.7350 -1.8823 -0.1207
   61MPD2    N1  940   1.455   2.597  14.755 -0.7557  0.0771  0.2486
   61MPD2    H7  941   1.419   2.656  14.830 -0.3924  1.4362 -0.6376
   62TCq2    C1  942   1.556   2.509  14.780  0.0050  0.0710 -0.7429
   62TCq2    O2  943   1.614   2.431  14.707  0.4822 -0.2419  0.1432
   62TCq2    C2  944   1.598   2.523  14.921 -0.4152 -0.0522 -0.1014
   62TCq2    C3  945   1.667   2.414  14.974 -0.2166 -0.7170 -0.1003
   62TCq2    C4  946   1.681   2.403  15.111 -0.2275  0.2394 -0.6262
   62TCq2    C5  947   1.622   2.501  15.191 -0.4761  0.1831 -0.5726
   62TCq2    C6  948   1.556   2.604  15.131 -0.2137 -0.1062 -0.2003
   62TCq2    C7  949   1.542   2.618  14.997  0.0859  0.7099 -0.4974
   62TCq2    C8  950   1.510   2.712  15.219  0.3880  0.0904  0.3022
   62TCq2    O4  951   1.565   2.820  15.200 -0.2164  0.0862  0.3496
   62TCq2    C9  952   1.729   2.271  15.164  0.2973 -1.2658 -0.0145
   62TCq2    O5  953   1.731   2.247  15.287 -0.1158 -0.1357 -0.2257
   62TCq2    O6  954   1.745   2.183  15.077  0.2545  0.0251 -0.1257
   62TCq2    H2  955   1.706   2.344  14.901  0.4372 -0.0416 -0.4027
   62TCq2    H3  956   1.633   2.486  15.298 -1.0221  1.5947 -0.3238
   62TCq2    H4  957   1.496   2.712  14.968 -1.5184 -0.2077 -0.9296
   63TMC2    C1  958   1.259   2.717  11.308 -0.3027  0.5219  0.4638
   63TMC2    C2  959   1.384   2.730  11.362 -0.4334  0.0204 -0.5889
   63TMC2    C3  960   1.487   2.778  11.269 -0.5901  0.4340 -0.6871
   63TMC2    C4  961   1.233   2.740  11.178 -0.0381  0.1805  0.3646
   63TMC2    C5  962   1.328   2.793  11.093 -0.0051  0.4513 -0.2524
   63TMC2    C6  963   1.459   2.816  11.138 -0.0437  0.4577 -0.4846
   63TMC2     C  964   1.149   2.703  11.399  0.1196  0.1148 -0.3438
   63TMC2     O  965   1.175   2.739  11.510  0.2646 -0.6828  0.3172
   63TMC2     H  966   1.397   2.713  11.468  1.4375  0.4933 -0.7479
   63TMC2    H1  967   1.135   2.724  11.136  1.3884 -2.3121 -2.0029
   63TMC2    H2  968   1.531   2.858  11.069 -0.0201 -0.1550 -0.8366
   63TMC2    C7  969   1.310   2.774  10.953  0.0649 -0.5580 -0.4482
   63TMC2    C8  970   1.594   2.837  11.343  0.2542  0.4378  0.0393
   63TMC2    O1  971   1.207   2.714  10.928  0.1184 -0.3118  0.7799
   63TMC2    O2  972   1.574   2.869  11.457  0.0865  0.3870 -0.5687
   63TMC2    O5  973   1.679   2.892  11.252 -0.0952 -0.1659  0.1613
   63TMC2    H5  974   1.687   2.836  11.172  4.4120  0.1910  0.3921
   64MPD2     C  975   0.756   2.433  11.584  0.0975 -0.0049  0.8026
   64MPD2    C1  976   0.774   2.396  11.450  0.4928  0.5820 -0.0548
   64MPD2    C2  977   0.869   2.466  11.374  0.3574 -0.7963 -0.1759
   64MPD2    C3  978   0.950   2.560  11.431  0.3521 -0.4214 -0.0448
   64MPD2    C4  979   0.931   2.590  11.566  0.1745  0.1794 -0.7688
   64MPD2    C5  980   0.836   2.525  11.639 -0.4996 -0.1282 -0.4144
   64MPD2     H  981   0.906   2.422  11.282 -0.0506  0.2651 -0.8477
   64MPD2    H1  982   0.985   2.663  11.627 -1.8584  1.2724 -0.2673
   64MPD2    H2  983   0.693   2.375  11.650 -1.6601 -2.5282 -3.0828
   64MPD2    H3  984   0.825   2.529  11.747  0.9383 -0.9257 -0.2351
   64MPD2     N  985   1.050   2.620  11.349  0.2850  0.6061 -0.2193
   64MPD2    H5  986   1.060   2.588  11.253  2.7252  0.2762  0.1400
   64MPD2    N1  987   0.744   2.270  11.405  0.1788  0.0079 -0.0793
   64MPD2    H7  988   0.787   2.247  11.317  0.7033 -0.6866  0.3650
   65MPD2     C  989   2.075   1.999  16.177 -0.3303  0.9920 -0.0350
   65MPD2    C1  990   2.073   1.977  16.041  0.4004 -0.1056 -0.4032
   65MPD2    C2  991   2.048   1.852  15.987  0.3745  0.6333 -0.0869
   65MPD2    C3  992   2.044   1.742  16.079 -0.1386  0.2713 -0.1160
   65MPD2    C4  993   2.069   1.765  16.210 -0.3591 -0.0522  0.6914
   65MPD2    C5  994   2.092   1.893  16.258  0.9696 -0.1795  0.6439
   65MPD2     H  995   2.033   1.834  15.881  0.7493  0.3675 -0.0942
   65MPD2    H1  996   2.084   1.684  16.280 -2.7747 -2.0306 -1.0616
   65MPD2    H2  997   2.089   2.097  16.221 -1.3270  0.3099  1.8215
   65MPD2    H3  998   2.107   1.900  16.365 -1.8969 -1.2937  1.1251
   65MPD2     N  999   2.002   1.611  16.045  0.0604  0.4761 -0.8543
   65MPD2    H5 1000   1.997   1.548  16.124  0.3860 -0.1813 -1.3637
   65MPD2    N1 1001   2.069   2.078  15.939  0.3624 -0.6311  0.0892
   65MPD2    H7 1002   2.075   2.044  15.843 -0.1738 -0.2870 -0.0633
   66TCq2    C1 1003   2.071   2.213  15.961  0.0765  0.0648  0.0519
   66TCq2    O2 1004   2.031   2.271  16.061 -0.2796  0.1739 -0.1940
   66TCq2    C2 1005   2.092   2.290  15.836  0.7733  0.5447 -0.2620
   66TCq2    C3 1006   2.142   2.219  15.725  0.2331  0.4375 -0.4596
   66TCq2    C4 1007   2.173   2.294  15.622 -0.7264 -0.1617  0.1274
   66TCq2    C5 1008   2.162   2.432  15.615 -0.7163  0.0241 -0.3004
   66TCq2    C6 1009   2.114   2.499  15.719  0.1493  0.6773  0.1188
   66TCq2    C7 1010   2.078   2.428  15.833  0.1330 -0.5955 -0.1910
   66TCq2    C8 1011   2.078   2.643  15.721  0.6050 -0.5696 -0.0413
   66TCq2    O4 1012   2.131   2.710  15.631 -0.1214  0.1120 -0.2956
   66TCq2    C9 1013   2.214   2.223  15.508  0.2013 -0.0480 -0.6211
   66TCq2    O5 1014   2.200   2.100  15.507  0.3847 -0.2941  0.3412
   66TCq2    O6 1015   2.247   2.301  15.416 -0.1543  0.7162  0.2508
   66TCq2    H2 1016   2.160   2.112  15.728 -1.5462  0.1176 -1.7806
   66TCq2    H3 1017   2.206   2.488  15.533  0.7895 -1.6752 -0.6485
   66TCq2    H4 1018   2.040   2.473  15.924  0.6637  1.1875 -0.8426
   67MPD2     C 1019   1.985   1.361  14.485 -0.5280 -0.8148 -0.3822
   67MPD2    C1 1020   1.989   1.498  14.520 -0.2770  0.8999 -0.8689
   67MPD2    C2 1021   1.973   1.595  14.424  0.5348  0.0577  0.0568
   67MPD2    C3 1022   1.943   1.556  14.295 -0.0634  0.2256 -0.7779
   67MPD2    C4 1023   1.935   1.426  14.262 -0.5616  0.5523  0.1085
   67MPD2    C5 1024   1.960   1.328  14.353  0.6718 -0.6512 -0.4133
   67MPD2     H 1025   1.983   1.701  14.445  0.7995 -0.1357  0.9067
   67MPD2    H1 1026   1.898   1.392  14.166  1.2568 -1.1685  0.0370
   67MPD2    H2 1027   2.000   1.279  14.555  0.3185 -0.3414 -0.0120
   67MPD2    H3 1028   1.937   1.226  14.322 -1.0089 -1.2818  2.9542
   67MPD2     N 1029   1.915   1.645  14.192  0.2665 -0.0780  0.2408
   67MPD2    H5 1030   1.897   1.607  14.099  0.3106  2.3799 -0.7810
   67MPD2    N1 1031   2.001   1.543  14.654  0.1021  0.1162  0.2666
   67MPD2    H7 1032   2.002   1.642  14.675 -1.4631  0.7029 -2.4121
   68TCq2    C1 1033   2.034   1.460  14.754  0.1356  0.0875 -0.5277
   68TCq2    O2 1034   2.060   1.343  14.756 -0.4298  0.0061  0.0623
   68TCq2    C2 1035   2.057   1.535  14.880  0.3222  0.3153 -0.5701
   68TCq2    C3 1036   1.973   1.640  14.912 -0.1126  0.2214 -0.3653
   68TCq2    C4 1037   2.009   1.725  15.011 -0.1847  0.7470 -0.5937
   68TCq2    C5 1038   2.135   1.725  15.065 -0.1670 -0.6556  0.9986
   68TCq2    C6 1039   2.218   1.627  15.023 -0.2529  0.7161  0.0016
   68TCq2    C7 1040   2.181   1.531  14.933 -0.1236 -0.0421 -0.4581
   68TCq2    C8 1041   2.341   1.611  15.097  0.3172 -0.8952  0.6923
   68TCq2    O4 1042   2.427   1.538  15.044  0.3356 -0.3160  0.2744
   68TCq2    C9 1043   1.916   1.833  15.049  0.4617  0.6301  0.0525
   68TCq2    O5 1044   1.915   1.881  15.169  0.6286 -0.1196  0.3496
   68TCq2    O6 1045   1.818   1.862  14.969 -0.3577  0.1377  0.4993
   68TCq2    H2 1046   1.875   1.653  14.869 -0.0829  1.2489 -0.1354
   68TCq2    H3 1047   2.147   1.798  15.144  1.7308 -0.4379  0.5279
   68TCq2    H4 1048   2.259   1.462  14.902 -1.6814 -1.9301 -0.1962
   69TMC2    C1 1049   3.707   2.864  12.516 -0.1929 -0.1571 -0.3687
   69TMC2    C2 1050   3.664   2.992  12.543 -0.1275  0.3875  0.3237
   69TMC2    C3 1051   3.618   3.065  12.432 -0.4099  0.3223 -0.5030
   69TMC2    C4 1052   3.732   2.815  12.397  0.0262 -0.7194 -0.8770
   69TMC2    C5 1053   3.696   2.893  12.287 -0.8694 -0.4884  0.3659
   69TMC2    C6 1054   3.644   3.015  12.306  0.7616 -0.7843 -0.1531
   69TMC2     C 1055   3.745   2.800  12.646 -0.3742  0.2777 -0.1013
   69TMC2     O 1056   3.693   2.840  12.753 -0.6048 -0.0775  0.3927
   69TMC2     H 1057   3.647   3.030  12.643 -1.0187  1.0897 -0.0921
   69TMC2    H1 1058   3.778   2.718  12.384  1.1751 -0.1920 -0.8186
   69TMC2    H2 1059   3.623   3.080  12.221 -0.9105  0.7115  1.4034
   69TMC2    C7 1060   3.791   2.886  12.182  0.1418 -0.2872  0.2158
   69TMC2    C8 1061   3.586   3.205  12.446  0.1786  0.7306 -0.0709
   69TMC2    O1 1062   3.895   2.827  12.214  0.0137 -0.6607  0.1186
   69TMC2    O2 1063   3.586   3.286  12.353  0.2496  0.0390 -0.0473
   69TMC2    O5 1064   3.566   3.245  12.571  1.0641  0.4876 -0.1012
   69TMC2    H5 1065   3.560   3.172  12.635 -1.8335  0.0963 -0.8375
   70MPD2     C 1066   4.045   2.602  12.716  0.9219 -0.2319  0.0397
   70MPD2    C1 1067   3.911   2.636  12.735 -0.4929  0.3608  0.4479
   70MPD2    C2 1068   3.850   2.620  12.860 -0.6234 -0.2226 -0.4802
   70MPD2    C3 1069   3.916   2.575  12.971 -0.2292 -0.2938  0.3400
   70MPD2    C4 1070   4.046   2.531  12.944 -0.0214  0.1598  0.2416
   70MPD2    C5 1071   4.109   2.551  12.824 -0.4710  0.8537  0.2499
   70MPD2     H 1072   3.755   2.668  12.880  0.2583  1.2293  0.2567
   70MPD2    H1 1073   4.092   2.469  13.020 -0.3388 -0.3141  0.0466
   70MPD2    H2 1074   4.103   2.613  12.625  0.6180  0.1417 -0.1088
   70MPD2    H3 1075   4.216   2.536  12.817 -0.4766  0.4546  1.0052
   70MPD2     N 1076   3.855   2.557  13.101 -0.4171  0.6936 -0.0321
   70MPD2    H5 1077   3.921   2.533  13.174  2.3053  1.8939 -2.0970
   70MPD2    N1 1078   3.844   2.707  12.628 -0.1623  0.7840  0.1836
   70MPD2    H7 1079   3.888   2.702  12.537 -0.2901  0.7663  0.1237
   71TMC2    C1 1080   1.133   3.102   0.796 -0.1555 -0.8511 -0.6325
   71TMC2    C2 1081   1.188   3.064   0.675 -0.0304 -0.1311  0.0995
   71TMC2    C3 1082   1.109   2.996   0.581 -0.9140  0.2508  0.2752
   71TMC2    C4 1083   1.000   3.088   0.822  0.6900 -0.0167 -0.0162
   71TMC2    C5 1084   0.925   3.006   0.737 -0.3689  0.8411  0.3070
   71TMC2    C6 1085   0.978   2.970   0.611 -0.4881  0.3973  0.2852
   71TMC2     C 1086   1.215   3.187   0.868  0.0187  0.2962  0.0774
   71TMC2     O 1087   1.299   3.247   0.805 -0.3546  0.4248  0.5111
   71TMC2     H 1088   1.296   3.060   0.665  0.2454 -0.3050  3.2398
   71TMC2    H1 1089   0.957   3.113   0.918 -0.3627 -2.5305  0.1725
   71TMC2    H2 1090   0.923   2.900   0.548  1.5913 -1.4324  0.5245
   71TMC2    C7 1091   0.784   2.976   0.761 -0.1505  0.0142  0.8966
   71TMC2    C8 1092   1.173   2.921   0.473  0.0813  0.1249  0.1734
   71TMC2    O1 1093   0.717   2.976   0.653 -0.2272  0.9348 -0.2660
   71TMC2    O2 1094   1.116   2.823   0.423  0.6433 -0.4562 -0.3726
   71TMC2    O5 1095   1.287   2.976   0.436  0.0281  0.4023  0.0561
   71TMC2    H5 1096   1.296   3.069   0.466  0.1406  1.1717 -2.3518
   72MPD2     C 1097   1.313   3.474   1.290  0.1468 -0.5644  0.7217
   72MPD2    C1 1098   1.378   3.473   1.167 -0.3274 -0.8509  0.6168
   72MPD2    C2 1099   1.332   3.380   1.072  0.4516  0.5290 -0.1524
   72MPD2    C3 1100   1.232   3.288   1.094  0.4776  0.3988 -0.2919
   72MPD2    C4 1101   1.180   3.282   1.222  0.2423 -0.0220  0.1093
   72MPD2    C5 1102   1.216   3.379   1.313  0.0112  0.2744 -0.2212
   72MPD2     H 1103   1.382   3.365   0.977  2.8028  0.0707  1.1725
   72MPD2    H1 1104   1.101   3.213   1.250 -0.5509  0.9806  0.3508
   72MPD2    H2 1105   1.341   3.539   1.372  0.9482 -0.6347  0.4988
   72MPD2    H3 1106   1.171   3.366   1.411  2.5926  0.4219  0.9983
   72MPD2     N 1107   1.184   3.195   1.004 -0.1426 -0.0350 -0.3363
   72MPD2    H5 1108   1.110   3.135   1.040 -1.1361  2.0777  1.1171
   72MPD2    N1 1109   1.479   3.558   1.132 -0.0434 -0.1162 -0.1546
   72MPD2    H7 1110   1.518   3.535   1.040  0.0972  0.2782 -0.1931
   73TMC2    C1 1111   1.603   3.841  12.607  0.1913 -0.7250  0.2109
   73TMC2    C2 1112   1.676   3.793  12.506  0.2880 -0.2232  0.4314
   73TMC2    C3 1113   1.636   3.819  12.374 -0.2373  0.9222 -0.4883
   73TMC2    C4 1114   1.482   3.899  12.578  0.3252  0.0101 -0.9582
   73TMC2    C5 1115   1.442   3.914  12.451 -0.2309  0.5338 -0.1755
   73TMC2    C6 1116   1.516   3.873  12.345  0.9590  0.3858  0.0212
   73TMC2     C 1117   1.666   3.912  12.716 -0.1843  0.7873  0.3955
   73TMC2     O 1118   1.612   4.021  12.741 -0.4533  0.1738  0.1475
   73TMC2     H 1119   1.779   3.759  12.511  0.5368  0.3101 -1.0552
   73TMC2    H1 1120   1.416   3.935  12.656 -1.1998 -3.3579 -0.7053
   73TMC2    H2 1121   1.486   3.902  12.245 -0.9354  5.8450  2.1391
   73TMC2    C7 1122   1.392   4.050  12.429  0.9091 -0.3354  0.4423
   73TMC2    C8 1123   1.732   3.766  12.274  0.2051  0.4839  0.3390
   73TMC2    O1 1124   1.337   4.077  12.323  0.3613 -0.0376  0.7184
   73TMC2    O2 1125   1.851   3.760  12.301  0.4099 -0.0751 -0.0754
   73TMC2    O5 1126   1.682   3.773  12.145 -0.0064 -0.4181  0.0685
   73TMC2    H5 1127   1.591   3.737  12.138 -0.0589 -0.3937  0.6412
   74MPD2     C 1128   2.090   4.070  12.967 -0.2512 -0.6548 -0.6509
   74MPD2    C1 1129   1.973   4.132  12.944  0.3745  0.1615  0.2035
   74MPD2    C2 1130   1.874   4.057  12.891 -0.1300 -0.7003  0.7845
   74MPD2    C3 1131   1.883   3.937  12.831  0.3774 -0.9039  0.4823
   74MPD2    C4 1132   2.002   3.878  12.860 -0.0894  0.0968 -0.0109
   74MPD2    C5 1133   2.104   3.942  12.925  0.8179  0.0352 -0.0725
   74MPD2     H 1134   1.773   4.096  12.890  0.5010  0.8784 -0.9057
   74MPD2    H1 1135   2.022   3.781  12.817 -1.1817  0.3519 -1.0840
   74MPD2    H2 1136   2.177   4.112  13.016 -0.8439  2.0065 -1.8415
   74MPD2    H3 1137   2.194   3.884  12.941 -0.3887 -1.3990  1.4296
   74MPD2     N 1138   1.792   3.869  12.746  1.0318  0.8842  0.0080
   74MPD2    H5 1139   1.825   3.781  12.708 -0.0114  1.0042 -1.1886
   74MPD2    N1 1140   1.957   4.268  12.986 -0.0096  0.2718 -0.0110
   74MPD2    H7 1141   2.028   4.306  13.047  1.0478  1.1257 -1.7710
   75TCq2    C1 1142   1.939   1.781  14.205 -0.5738 -0.1369  0.6716
   75TCq2    O2 1143   2.017   1.839  14.279 -0.4288  0.6009 -0.1138
   75TCq2    C2 1144   1.870   1.857  14.104  0.0527  0.2037  0.7355
   75TCq2    C3 1145   1.896   1.988  14.099  0.4213 -0.5860  0.2542
   75TCq2    C4 1146   1.818   2.071  14.018 -0.0158  0.7891  0.7077
   75TCq2    C5 1147   1.725   2.021  13.934  0.3818 -0.8046 -0.1771
   75TCq2    C6 1148   1.695   1.889  13.944 -0.0396  0.5941 -0.3961
   75TCq2    C7 1149   1.774   1.804  14.017 -0.6595  0.6514  0.6862
   75TCq2    C8 1150   1.609   1.831  13.844  0.6890 -0.0953 -0.0467
   75TCq2    O4 1151   1.629   1.717  13.811  0.2347 -0.1061  0.2811
   75TCq2    C9 1152   1.827   2.214  14.047  0.3302 -0.3376  0.8041
   75TCq2    O5 1153   1.914   2.260  14.123 -0.9004  0.2007  0.2496
   75TCq2    O6 1154   1.760   2.292  13.976  0.0595  0.4034 -0.9240
   75TCq2    H2 1155   1.963   2.037  14.169 -1.5838 -2.4181  3.4661
   75TCq2    H3 1156   1.677   2.094  13.870  0.9012 -0.2757  0.0316
   75TCq2    H4 1157   1.749   1.698  14.012 -2.7793  1.2386 -1.6416
   76MPD2     C 1158   0.148   2.422  11.905  0.0778 -0.2702  0.6829
   76MPD2    C1 1159   0.009   2.409  11.907 -0.0429 -0.3531 -0.1375
   76MPD2    C2 1160   4.679   2.281  11.939 -0.1092 -0.6544  0.5859
   76MPD2    C3 1161   0.047   2.172  11.952 -0.5342 -0.9289 -0.1746
   76MPD2    C4 1162   0.182   2.191  11.943  0.0901  0.1975  0.3997
   76MPD2    C5 1163   0.233   2.315  11.917 -0.9163 -1.1089 -0.0431
   76MPD2     H 1164   4.573   2.259  11.951 -0.5984  0.1140 -2.3737
   76MPD2    H1 1165   0.255   2.114  11.963 -1.6472 -1.7872 -0.8334
   76MPD2    H2 1166   0.200   2.516  11.886  1.6339 -1.0953  0.9056
   76MPD2    H3 1167   0.339   2.335  11.930 -0.7032 -2.2604 -0.0155
   76MPD2     N 1168   0.005   2.042  11.972  0.1016  0.1265  0.4186
   76MPD2    H5 1169   0.078   1.971  11.978  0.0283 -0.1259 -1.8597
   76MPD2    N1 1170   4.642   2.517  11.879 -0.2207 -0.0663  0.0564
   76MPD2    H7 1171   4.544   2.492  11.879 -0.1757 -0.2916  1.8914
   77TCq2    C1 1172   4.604   1.995  11.985 -0.0093  0.3697  0.4665
   77TCq2    O2 1173   4.497   2.055  12.008  0.1266  0.2057  0.1131
   77TCq2    C2 1174   4.598   1.850  11.966 -0.6327  0.5904  0.3522
   77TCq2    C3 1175   4.481   1.795  11.919  0.2509 -0.3657  0.8860
   77TCq2    C4 1176   4.480   1.658  11.893  0.5233 -0.0472 -0.2523
   77TCq2    C5 1177   4.592   1.583  11.903  0.3766  0.4257  0.4625
   77TCq2    C6 1178   4.702   1.634  11.961  0.2557 -0.3301 -0.1831
   77TCq2    C7 1179   4.708   1.763  11.997  0.0585 -0.8973 -0.5130
   77TCq2    C8 1180   0.099   1.553  11.965 -0.3570 -0.2115  0.3355
   77TCq2    O4 1181   0.097   1.451  11.894 -0.5720  0.4552 -0.6431
   77TCq2    C9 1182   4.366   1.596  11.831  0.0848  0.0484  0.2064
   77TCq2    O5 1183   4.376   1.474  11.802 -0.5265 -0.2885  0.0812
   77TCq2    O6 1184   4.268   1.672  11.808  0.1205 -0.4980  0.5890
   77TCq2    H2 1185   4.389   1.850  11.904  0.4032 -0.0483  1.0899
   77TCq2    H3 1186   4.583   1.479  11.872 -1.6988  0.4216  1.0751
   77TCq2    H4 1187   0.084   1.805  12.006  0.0635 -0.9064 -0.5257
   78MPD1     C 1188   2.046   1.621   1.835  0.0062 -0.1455 -0.2687
   78MPD1    C1 1189   2.149   1.703   1.854 -0.0795 -0.1593  0.1092
   78MPD1    C2 1190   2.194   1.730   1.984  0.5857  0.0772  0.5531
   78MPD1    C3 1191   2.124   1.693   2.094  0.0103 -0.6784  0.1706
   78MPD1    C4 1192   2.012   1.612   2.071 -0.6821  0.0836 -0.6278
   78MPD1    C5 1193   1.974   1.574   1.942 -0.2352 -0.5816  0.5339
   78MPD1     H 1194   2.290   1.780   1.994  0.3732  0.0612  2.7436
   78MPD1    H1 1195   1.948   1.574   2.150  2.5043  1.4399  2.6200
   78MPD1    H2 1196   2.015   1.593   1.736  0.8811  1.8306 -1.1083
   78MPD1    H3 1197   1.884   1.515   1.929 -0.4752 -0.2556  0.6983
   78MPD1     N 1198   2.159   1.718   2.227  0.0070 -0.4471 -0.4095
   78MPD1    H5 1199   2.093   1.684   2.295 -0.4395 -1.8190 -1.5528
   78MPD1    N1 1200   2.232   1.728   1.746 -0.0935 -0.5781 -0.2497
   78MPD1    H6 1201   2.292   1.810   1.759  1.1174 -1.7340  1.4491
   78MPD1    H7 1202   2.183   1.738   1.657  3.8752  0.0498 -2.3708
   79TCq2    C1 1203   2.267   1.792   2.269  0.5062 -0.3287  0.3577
   79TCq2    O2 1204   2.340   1.862   2.199 -0.7150  0.4714 -0.4649
   79TCq2    C2 1205   2.282   1.798   2.414  0.1543 -0.4164 -0.5651
   79TCq2    C3 1206   2.208   1.722   2.503 -0.1150 -0.0791 -0.3328
   79TCq2    C4 1207   2.244   1.728   2.635 -0.1506 -0.1321  0.5537
   79TCq2    C5 1208   2.353   1.798   2.685  0.4174  0.1775  0.0244
   79TCq2    C6 1209   2.425   1.867   2.591  0.1624  0.3572  0.5787
   79TCq2    C7 1210   2.389   1.870   2.457  0.1684 -0.2178  0.4414
   79TCq2    C8 1211   2.545   1.933   2.629  0.0554  0.1959  0.8304
   79TCq2    O4 1212   2.593   1.998   2.534  0.3622 -0.4227  0.0759
   79TCq2    C9 1213   2.178   1.653   2.732  0.1041  0.7481 -0.4582
   79TCq2    O5 1214   2.075   1.593   2.689 -0.3280 -0.2704  0.2464
   79TCq2    O6 1215   2.221   1.660   2.857  0.1776 -0.1159 -0.3752
   79TCq2    H2 1216   2.127   1.660   2.468  0.9300 -1.1367 -0.8556
   79TCq2    H3 1217   2.383   1.808   2.789 -1.3785  1.8663  0.3908
   79TCq2    H4 1218   2.455   1.911   2.381  0.1584 -0.4748  0.2904
   80MPD2     C 1219   3.778   1.844  13.452  0.3031 -0.3603 -0.1353
   80MPD2    C1 1220   3.792   1.808  13.316 -0.0998 -0.2710  0.5155
   80MPD2    C2 1221   3.681   1.769  13.237 -0.0729  0.3759 -0.4733
   80MPD2    C3 1222   3.555   1.768  13.294  0.6551  0.3196  0.4676
   80MPD2    C4 1223   3.539   1.802  13.432 -0.8539  0.3487 -0.2958
   80MPD2    C5 1224   3.653   1.841  13.497 -0.8148  0.0298  0.6601
   80MPD2     H 1225   3.693   1.729  13.137  0.4014 -0.2035 -0.1869
   80MPD2    H1 1226   3.442   1.820  13.477 -0.2460  0.8415  0.8107
   80MPD2    H2 1227   3.856   1.876  13.520 -0.6122  2.8586 -0.5876
   80MPD2    H3 1228   3.626   1.883  13.593 -0.6221 -0.1684  0.7998
   80MPD2     N 1229   3.442   1.736  13.216  0.3559 -0.0748 -0.5341
   80MPD2    H5 1230   3.357   1.716  13.267  0.1243  1.3821 -0.3456
   80MPD2    N1 1231   3.921   1.799  13.255  0.4965 -0.4946  0.5785
   80MPD2    H7 1232   3.927   1.768  13.159 -0.4367 -0.1924  0.4241
   81TCq2    C1 1233   4.043   1.830  13.306  0.5252 -0.3749  0.5864
   81TCq2    O2 1234   4.073   1.853  13.423  0.2695  0.6242  0.1055
   81TCq2    C2 1235   4.146   1.823  13.201 -0.0591  0.4604  0.0279
   81TCq2    C3 1236   4.262   1.758  13.237  0.1731 -0.3434 -0.9392
   81TCq2    C4 1237   4.354   1.749  13.135  0.4415 -0.7015  1.0595
   81TCq2    C5 1238   4.330   1.777  13.003  0.0694  0.8515  0.4804
   81TCq2    C6 1239   4.210   1.835  12.979 -0.3467 -0.2628 -0.0803
   81TCq2    C7 1240   4.113   1.862  13.072  0.5260 -0.0627  0.0660
   81TCq2    C8 1241   4.160   1.831  12.840  1.0898 -0.1382  0.5710
   81TCq2    O4 1242   4.065   1.902  12.811 -0.6833  0.5532 -0.1058
   81TCq2    C9 1243   4.480   1.691  13.171  0.4241  0.5519  0.1137
   81TCq2    O5 1244   4.494   1.644  13.288 -0.1033 -0.0241 -0.2565
   81TCq2    O6 1245   4.571   1.710  13.089  0.2299 -0.7382  0.3510
   81TCq2    H2 1246   4.282   1.740  13.342 -1.1631  0.4924 -0.5368
   81TCq2    H3 1247   4.405   1.774  12.925 -1.3329 -0.8581 -0.7757
   81TCq2    H4 1248   4.028   1.927  13.053  0.4299 -0.2719 -0.2093
   82MPD2     C 1249   2.817   1.936  10.693 -0.2859  0.0313 -0.2298
   82MPD2    C1 1250   2.752   1.828  10.641 -0.0787  0.1173 -0.2160
   82MPD2    C2 1251   2.756   1.708  10.709 -0.7453 -0.1430 -0.2760
   82MPD2    C3 1252   2.855   1.692  10.806  0.3334 -0.3562 -0.2404
   82MPD2    C4 1253   2.934   1.800  10.840  0.3531 -0.5756  0.3795
   82MPD2    C5 1254   2.914   1.921  10.787  0.0551  0.1113 -0.7528
   82MPD2     H 1255   2.682   1.632  10.686 -0.1947 -0.7807  0.0416
   82MPD2    H1 1256   3.018   1.787  10.907  0.3503 -1.6571  0.1815
   82MPD2    H2 1257   2.801   2.038  10.662  1.9281  0.2447 -0.6380
   82MPD2    H3 1258   2.972   2.001  10.832  1.1107  0.2324 -2.3248
   82MPD2     N 1259   2.873   1.568  10.888 -0.4354  0.3088 -0.5473
   82MPD2    H5 1260   2.952   1.560  10.951 -0.1469 -0.9930 -1.0768
   82MPD2    N1 1261   2.671   1.857  10.525 -0.1854 -0.1148  0.4991
   82MPD2    H7 1262   2.677   1.952  10.490  0.8303 -0.9126 -1.5676
   83TCq2    C1 1263   2.787   1.461  10.899  0.4537  0.0066 -0.3626
   83TCq2    O2 1264   2.697   1.431  10.825 -0.2025 -0.1755 -0.5430
   83TCq2    C2 1265   2.801   1.394  11.024  0.4593  1.1632 -0.4396
   83TCq2    C3 1266   2.898   1.436  11.112  0.8984  0.0082  0.2302
   83TCq2    C4 1267   2.911   1.362  11.225  0.5183 -0.4310  0.1495
   83TCq2    C5 1268   2.837   1.255  11.258 -0.2745 -0.4789  0.0652
   83TCq2    C6 1269   2.736   1.221  11.168  0.7439 -0.6524  0.2548
   83TCq2    C7 1270   2.716   1.291  11.054 -0.3966  0.1302  0.8099
   83TCq2    C8 1271   2.628   1.136  11.228  0.6194 -0.5449  0.5459
   83TCq2    O4 1272   2.657   1.094  11.339  0.0782  0.0492 -0.1503
   83TCq2    C9 1273   2.998   1.408  11.325 -0.1408  0.6294  0.8154
   83TCq2    O5 1274   3.010   1.532  11.333  0.5831  0.2428  0.6951
   83TCq2    O6 1275   3.040   1.324  11.411  0.0005  0.7463  0.5039
   83TCq2    H2 1276   2.972   1.515  11.100  0.7092 -0.0098 -1.0892
   83TCq2    H3 1277   2.838   1.219  11.361  0.0552  2.0000  0.9294
   83TCq2    H4 1278   2.641   1.267  10.979  1.6548  0.9455 -1.5143
   84TCq2    C1 1279   3.790   4.430  10.658 -0.1908  0.5224  0.0520
   84TCq2    O2 1280   3.792   4.409  10.538  0.1373  0.1321 -0.0799
   84TCq2    C2 1281   3.869   4.543  10.700 -0.4395  0.4959  0.2014
   84TCq2    C3 1282   3.978   4.567  10.623  0.4168 -0.4930  0.0019
   84TCq2    C4 1283   4.053   4.679  10.659  0.6291  0.6215 -0.2501
   84TCq2    C5 1284   4.023   0.038  10.763 -0.5044  1.0895 -0.6958
   84TCq2    C6 1285   3.916   4.720  10.836 -0.2333  0.3427  0.4220
   84TCq2    C7 1286   3.831   4.618  10.806  1.0383 -0.7076  1.2921
   84TCq2    C8 1287   3.908   0.045  10.972  0.0729  1.0427  0.7874
   84TCq2    O4 1288   3.976   0.145  11.004 -0.6121 -0.1720  0.0339
   84TCq2    C9 1289   4.158   4.712  10.563 -0.3280  0.2547  0.0405
   84TCq2    O5 1290   4.216   0.097  10.567 -0.1278 -0.2523 -0.0411
   84TCq2    O6 1291   4.171   4.635  10.462 -0.5414 -0.2808 -0.2273
   84TCq2    H2 1292   4.002   4.504  10.538  1.7835  1.9698 -1.4060
   84TCq2    H3 1293   4.094   0.114  10.793 -0.5255  0.2220  1.6371
   84TCq2    H4 1294   3.735   4.613  10.857  0.7400 -0.6719  0.7339
   85MPD2     C 1295   3.584   3.185  16.397  0.0440  0.0513 -0.0722
   85MPD2    C1 1296   3.690   3.109  16.354  0.4509 -0.1207  0.1843
   85MPD2    C2 1297   3.801   3.172  16.304  0.9925 -0.9204  0.4999
   85MPD2    C3 1298   3.809   3.311  16.296 -0.4121  0.0295  1.1827
   85MPD2    C4 1299   3.702   3.388  16.337  0.4222  0.2831 -0.2068
   85MPD2    C5 1300   3.586   3.323  16.384  0.3687 -0.0195  0.6643
   85MPD2     H 1301   3.890   3.116  16.278  1.0617 -0.7919  0.4570
   85MPD2    H1 1302   3.699   3.496  16.333  0.6419  0.2488 -1.2296
   85MPD2    H2 1303   3.490   3.142  16.431 -0.4086  1.2943  0.2486
   85MPD2    H3 1304   3.502   3.388  16.407 -1.0661 -1.8240  0.4714
   85MPD2     N 1305   3.924   3.368  16.232  0.2148 -0.0222  0.0811
   85MPD2    H5 1306   3.996   3.303  16.202 -1.2091 -0.3434 -2.6115
   85MPD2    N1 1307   3.693   2.961  16.360 -0.1568 -0.2812 -0.7583
   85MPD2    H7 1308   3.771   2.912  16.317 -0.7668 -2.5536  0.7028
   86TCq2    C1 1309   3.932   3.503  16.195  0.2401  0.1580 -0.6634
   86TCq2    O2 1310   3.873   3.602  16.235  0.4632 -0.0959  0.1892
   86TCq2    C2 1311   4.037   3.534  16.102 -1.0865 -0.3230  0.6225
   86TCq2    C3 1312   4.063   3.666  16.080  0.3365 -0.2086  0.5729
   86TCq2    C4 1313   4.160   3.696  15.989  0.5305  0.2754  0.0014
   86TCq2    C5 1314   4.233   3.605  15.929  0.1113 -0.3484 -0.2614
   86TCq2    C6 1315   4.217   3.475  15.958  0.4517 -0.6029 -0.5202
   86TCq2    C7 1316   4.118   3.433  16.046  0.5458 -0.5527  0.2306
   86TCq2    C8 1317   4.273   3.377  15.868  0.0827  0.0482  0.1304
   86TCq2    O4 1318   4.277   3.262  15.904  0.5599 -0.2623 -0.2442
   86TCq2    C9 1319   4.182   3.837  15.966  0.0130 -0.0786  0.4809
   86TCq2    O5 1320   4.125   3.922  16.038 -0.1249 -0.7223  0.2158
   86TCq2    O6 1321   4.287   3.861  15.897  0.1615  0.5562 -0.0130
   86TCq2    H2 1322   4.003   3.747  16.119  1.2475  1.0331 -0.6043
   86TCq2    H3 1323   4.306   3.641  15.857 -0.2038  0.9747  0.0760
   86TCq2    H4 1324   4.095   3.327  16.051  0.2348 -0.4382  1.2763
   87MPD2     C 1325   1.236   1.115   1.705 -0.0775  0.0003 -0.3156
   87MPD2    C1 1326   1.268   1.248   1.706 -0.5889 -0.1559  0.5065
   87MPD2    C2 1327   1.163   1.336   1.687 -0.1193 -0.0465  0.0179
   87MPD2    C3 1328   1.036   1.297   1.643 -0.1959 -0.0533 -0.0106
   87MPD2    C4 1329   1.011   1.164   1.626 -0.0599  0.2685  0.5404
   87MPD2    C5 1330   1.108   1.078   1.664 -0.6156 -1.2146 -0.6564
   87MPD2     H 1331   1.188   1.442   1.689 -0.2168 -0.0454  1.1129
   87MPD2    H1 1332   0.920   1.132   1.578  0.6068  1.7765 -1.7261
   87MPD2    H2 1333   1.309   1.035   1.710 -2.5881 -2.4783 -3.3374
   87MPD2    H3 1334   1.080   0.974   1.652 -0.1663 -1.3957 -0.1445
   87MPD2     N 1335   0.942   1.382   1.586 -0.7674  0.0713  0.1564
   87MPD2    H5 1336   0.867   1.337   1.533 -1.1744  2.9493 -1.7303
   87MPD2    N1 1337   1.389   1.305   1.737 -0.3749  0.2977 -0.0690
   87MPD2    H7 1338   1.408   1.404   1.743  0.8014  0.0397  0.3642
   88TCq2    C1 1339   1.506   1.231   1.738  0.1284  0.4258  0.4729
   88TCq2    O2 1340   1.518   1.110   1.717  0.1598 -0.1999  0.8962
   88TCq2    C2 1341   1.620   1.320   1.760 -0.0157 -0.1039 -0.2466
   88TCq2    C3 1342   1.607   1.447   1.809 -0.3424 -0.7378  0.0464
   88TCq2    C4 1343   1.691   1.543   1.761 -0.2712  0.5868 -0.4085
   88TCq2    C5 1344   1.787   1.527   1.659 -0.0493  0.2943  0.3351
   88TCq2    C6 1345   1.805   1.394   1.630 -0.6606 -0.2250 -0.0416
   88TCq2    C7 1346   1.725   1.290   1.678  0.3064  0.1249  0.2113
   88TCq2    C8 1347   1.888   1.368   1.517  0.0917  0.5340 -0.9493
   88TCq2    O4 1348   1.921   1.462   1.447 -0.2364  0.5619 -0.4001
   88TCq2    C9 1349   1.657   1.681   1.807 -0.7525  0.1552 -0.0664
   88TCq2    O5 1350   1.711   1.768   1.734  0.5832 -0.0581  0.7765
   88TCq2    O6 1351   1.560   1.695   1.882  0.1046  0.3479 -0.4811
   88TCq2    H2 1352   1.536   1.474   1.887  0.7967 -1.4578  1.3286
   88TCq2    H3 1353   1.845   1.606   1.614 -0.9413  1.3316  1.0111
   88TCq2    H4 1354   1.737   1.185   1.652 -0.5544  0.3458 -1.1037
   89MPD2     C 1355   2.133   4.608   2.615 -0.0736  0.0758  0.2336
   89MPD2    C1 1356   2.090   4.669   2.493 -0.0514  0.9137 -0.1859
   89MPD2    C2 1357   2.187   4.715   2.403  0.1220 -0.8861  0.4103
   89MPD2    C3 1358   2.324   4.709   2.427  0.0940 -0.3108  0.0698
   89MPD2    C4 1359   2.363   4.654   2.551  0.4598  0.0875 -0.1613
   89MPD2    C5 1360   2.268   4.608   2.640  0.8802 -0.0779  0.3792
   89MPD2     H 1361   2.146   0.057   2.327 -1.8430 -1.4468  0.9943
   89MPD2    H1 1362   2.466   4.652   2.584  0.5356 -2.4271 -0.5631
   89MPD2    H2 1363   2.070   4.555   2.686 -1.3814  0.4240 -0.6572
   89MPD2    H3 1364   2.300   4.571   2.736  2.4733  0.9963  0.2532
   89MPD2     N 1365   2.408   0.050   2.336 -0.4666  0.0803 -0.2613
   89MPD2    H5 1366   2.373   0.096   2.252  1.6915  0.7018 -0.8335
   89MPD2    N1 1367   1.953   4.672   2.459 -0.2053 -0.1388  0.0350
   89MPD2    H7 1368   1.930   4.713   2.369 -0.1932 -0.5852 -0.1716
   90TCq2    C1 1369   2.545   0.026   2.335 -0.4227 -0.3029 -0.2786
   90TCq2    O2 1370   2.624   4.714   2.422  0.3281  0.2975  0.1732
   90TCq2    C2 1371   2.602   0.041   2.204  0.1366 -0.2422 -0.6541
   90TCq2    C3 1372   2.533   0.083   2.091 -0.4202  0.7801 -0.6360
   90TCq2    C4 1373   2.600   0.099   1.976  0.2793 -0.2425 -0.5162
   90TCq2    C5 1374   2.719   0.051   1.957 -0.3409 -0.6795  0.3192
   90TCq2    C6 1375   2.793   0.018   2.070  0.5859  0.6589  0.4828
   90TCq2    C7 1376   2.735   0.016   2.191  0.5135 -0.0430  0.2651
   90TCq2    C8 1377   2.935   4.719   2.050 -0.0555 -0.3168  0.7987
   90TCq2    O4 1378   2.986   4.647   2.134 -0.2486 -0.1065  0.1014
   90TCq2    C9 1379   2.531   0.150   1.861  0.5942  0.9248  0.7316
   90TCq2    O5 1380   2.433   0.232   1.891 -0.1913  0.0525 -0.0720
   90TCq2    O6 1381   2.585   0.161   1.747  0.1290 -0.2384 -0.8737
   90TCq2    H2 1382   2.427   0.100   2.101 -0.4156  0.8524 -0.7107
   90TCq2    H3 1383   2.769   0.053   1.861 -0.3141  0.0527  0.3493
   90TCq2    H4 1384   2.799   0.007   2.278 -0.8413 -2.1096  1.0524
   91TMC2    C1 1385   3.546   4.496  16.345  0.2071 -0.6998  0.0875
   91TMC2    C2 1386   3.558   4.483  16.478 -0.6482  1.1062 -0.4277
   91TMC2    C3 1387   3.457   4.515  16.565 -0.1124  0.4311  0.8529
   91TMC2    C4 1388   3.417   4.520  16.302  0.4239 -0.1026  0.6867
   91TMC2    C5 1389   3.309   4.524  16.386 -0.2829 -0.1182 -1.0271
   91TMC2    C6 1390   3.327   4.530  16.521  0.2267 -0.0430 -0.1369
   91TMC2     C 1391   3.650   4.472  16.245 -0.3666  0.3655 -0.2951
   91TMC2     O 1392   3.608   4.444  16.136 -0.9080 -0.3231 -0.9461
   91TMC2     H 1393   3.654   4.466  16.525 -1.5035  1.1981  1.3733
   91TMC2    H1 1394   3.392   4.528  16.197  2.8366  1.7796  0.2726
   91TMC2    H2 1395   3.241   4.540  16.586 -2.6550 -3.0888 -3.5210
   91TMC2    C7 1396   3.173   4.512  16.333  0.1399 -0.0171  0.5613
   91TMC2    C8 1397   3.478   4.485  16.707 -0.3738  0.9413  0.3936
   91TMC2    O1 1398   3.093   4.564  16.408  0.1949 -0.3377 -0.1473
   91TMC2    O2 1399   3.572   4.417  16.747 -0.1443  0.1741 -0.4519
   91TMC2    O5 1400   3.369   4.530  16.778 -0.4413  0.3435  0.6971
   91TMC2    H5 1401   3.354   4.618  16.740 -0.1530  0.5181  0.9838
   92MPD2     C 1402   3.887   4.457  16.071  0.1039  0.7150 -0.4599
   92MPD2    C1 1403   3.890   4.445  16.209  0.0389 -0.4090  0.4748
   92MPD2    C2 1404   4.015   4.416  16.267  0.7436  0.1246  0.5600
   92MPD2    C3 1405   4.130   4.388  16.196  0.6731 -0.5030  0.1898
   92MPD2    C4 1406   4.122   4.404  16.056 -0.3157 -0.3005 -0.5317
   92MPD2    C5 1407   4.001   4.433  15.999  0.4235  0.3637  0.5769
   92MPD2     H 1408   4.009   4.410  16.375 -0.7118 -0.4523  0.4480
   92MPD2    H1 1409   4.208   4.386  15.992 -1.7691 -1.4577 -2.1502
   92MPD2    H2 1410   3.802   4.490  16.011 -0.2210  1.2772  0.3139
   92MPD2    H3 1411   4.005   4.451  15.892 -0.5224 -3.1554 -0.0218
   92MPD2     N 1412   4.239   4.346  16.267 -0.1774  0.1711  0.2002
   92MPD2    H5 1413   4.243   4.365  16.366 -0.4646  2.2832 -0.2052
   92MPD2    N1 1414   3.780   4.458  16.293 -0.3458 -0.3795 -0.1187
   92MPD2    H7 1415   3.793   4.482  16.391 -2.9793 -1.2328  0.4663
   93MPD2     C 1416   1.295   4.057  13.630  0.2585 -0.9704  0.2460
   93MPD2    C1 1417   1.229   4.108  13.741  0.1182  0.0353 -0.8942
   93MPD2    C2 1418   1.092   4.091  13.749  0.4213 -0.0749  0.4192
   93MPD2    C3 1419   1.019   4.029  13.651  0.1589 -0.3237 -0.2605
   93MPD2    C4 1420   1.089   3.976  13.543  0.7764  0.7654 -0.0478
   93MPD2    C5 1421   1.222   3.998  13.526 -0.8552  0.1497 -0.0885
   93MPD2     H 1422   1.042   4.133  13.836 -0.9208 -1.0988  0.1327
   93MPD2    H1 1423   1.039   3.911  13.472  2.5202  1.0786 -1.5750
   93MPD2    H2 1424   1.399   4.079  13.613  1.1203 -2.6564  3.4226
   93MPD2    H3 1425   1.280   3.956  13.444  0.8280  1.0129  0.6647
   93MPD2     N 1426   0.883   4.007  13.660 -0.1376  0.3693 -0.5045
   93MPD2    H5 1427   0.842   3.946  13.590  1.4866  0.1994 -1.3257
   93MPD2    N1 1428   1.294   4.182  13.842 -1.1594  0.2880 -0.1334
   93MPD2    H7 1429   1.233   4.221  13.914  0.4317 -0.9826  1.8868
   94TCq2    C1 1430   1.428   4.198  13.855  0.4521 -0.8877  0.2719
   94TCq2    O2 1431   1.514   4.172  13.772  0.3457 -0.1656  0.0736
   94TCq2    C2 1432   1.470   4.234  13.995  0.8074 -0.4793 -0.2024
   94TCq2    C3 1433   1.377   4.248  14.089  0.1510 -0.1670 -0.1522
   94TCq2    C4 1434   1.412   4.251  14.222 -0.2953  0.1099  0.0719
   94TCq2    C5 1435   1.547   4.264  14.249  0.0853 -0.7115  0.6173
   94TCq2    C6 1436   1.641   4.245  14.148  0.2575  0.3956 -0.5278
   94TCq2    C7 1437   1.601   4.222  14.018  0.4153 -0.5687 -0.1319
   94TCq2    C8 1438   1.784   4.248  14.171 -0.0340 -0.3328 -0.6003
   94TCq2    O4 1439   1.859   4.195  14.087 -0.1937 -0.9981 -0.2151
   94TCq2    C9 1440   1.310   4.275  14.322  0.0867 -0.0009  0.7575
   94TCq2    O5 1441   1.339   4.295  14.443  0.0736 -0.4876  0.3314
   94TCq2    O6 1442   1.193   4.273  14.275  0.2260  0.6291  0.1519
   94TCq2    H2 1443   1.272   4.251  14.062  0.4696 -1.4650 -1.5223
   94TCq2    H3 1444   1.570   4.263  14.355  1.9389 -0.9863  0.2097
   94TCq2    H4 1445   1.673   4.198  13.941  1.5774  2.7657 -0.0461
   95TMC2    C1 1446   1.226   1.246  16.588 -0.3609  0.3390 -0.6631
   95TMC2    C2 1447   1.241   1.152  16.692 -0.1234  0.2263  0.3278
   95TMC2    C3 1448   1.207   1.191  16.818  0.7939 -0.6723 -0.2686
   95TMC2    C4 1449   1.199   1.382  16.619  0.5656 -0.3488  0.1697
   95TMC2    C5 1450   1.181   1.415  16.749 -0.7755 -0.5565  0.3758
   95TMC2    C6 1451   1.173   1.320  16.846  0.4447 -0.0103  1.2967
   95TMC2     C 1452   1.286   1.214  16.461  0.0126 -0.1040 -0.5745
   95TMC2     O 1453   1.309   1.309  16.389 -0.2759  0.2327 -0.3246
   95TMC2     H 1454   1.281   1.052  16.679  2.0515  1.1058  0.3635
   95TMC2    H1 1455   1.219   1.456  16.543  0.2871  0.3367  0.7670
   95TMC2    H2 1456   1.142   1.350  16.945  0.0420  1.5452  0.6993
   95TMC2    C7 1457   1.156   1.558  16.793 -0.0877 -0.2569 -0.1206
   95TMC2    C8 1458   1.217   1.092  16.917  0.0723  0.0240 -0.0914
   95TMC2    O1 1459   1.180   1.580  16.909 -0.8698 -0.1362  0.4345
   95TMC2    O2 1460   1.210   0.975  16.894  0.0811  0.1788  0.1226
   95TMC2    O5 1461   1.263   1.156  17.025  0.0452 -0.0132 -0.2697
   95TMC2    H5 1462   1.284   1.251  17.015 -0.9216  0.2978  0.7114
   96MPD2     C 1463   1.537   0.909  16.136  0.8466  0.0917  0.1535
   96MPD2    C1 1464   1.556   1.046  16.157  0.0421  0.6225 -0.3896
   96MPD2    C2 1465   1.475   1.109  16.250  0.9053 -0.4845  0.1189
   96MPD2    C3 1466   1.383   1.032  16.322  0.0554 -0.3796  0.2056
   96MPD2    C4 1467   1.360   0.901  16.293  0.6048 -0.1787 -0.0815
   96MPD2    C5 1468   1.445   0.840  16.203 -0.4801 -0.5260 -0.5260
   96MPD2     H 1469   1.485   1.216  16.265  1.8468 -0.3173 -1.7421
   96MPD2    H1 1470   1.287   0.836  16.340  0.7223 -1.0914 -1.1701
   96MPD2    H2 1471   1.606   0.857  16.071  0.7750 -0.2531  0.3578
   96MPD2    H3 1472   1.410   0.739  16.183  0.5947 -1.1091  0.5946
   96MPD2     N 1473   1.313   1.081  16.436 -0.0108 -0.4593 -0.1424
   96MPD2    H5 1474   1.280   1.015  16.505  0.8342 -0.4252  0.2968
   96MPD2    N1 1475   1.650   1.113  16.073 -0.0612 -0.0316 -0.1736
   96MPD2    H7 1476   1.692   1.060  15.997  1.1599  2.1878 -1.0351
   97MPD2     C 1477   3.851   3.726   0.950  0.0368 -0.4213 -0.1682
   97MPD2    C1 1478   3.751   3.637   0.955  0.0701  0.2579 -0.2575
   97MPD2    C2 1479   3.678   3.606   0.841 -0.0329 -0.2800  0.2626
   97MPD2    C3 1480   3.731   3.656   0.725 -0.5589  0.2876 -0.0011
   97MPD2    C4 1481   3.838   3.738   0.722 -0.0508 -0.8710  0.0405
   97MPD2    C5 1482   3.898   3.780   0.839 -0.4387  0.0865 -0.0275
   97MPD2     H 1483   3.589   3.544   0.851 -0.3526  0.3492  1.3714
   97MPD2    H1 1484   3.875   3.776   0.627  2.3263 -1.8197  0.5907
   97MPD2    H2 1485   3.896   3.758   1.044 -0.1008  3.0782 -1.2756
   97MPD2    H3 1486   3.988   3.841   0.839 -0.5446  0.2346 -0.8689
   97MPD2     N 1487   3.678   3.622   0.596 -0.6458 -0.3525 -0.2280
   97MPD2    H5 1488   3.707   3.679   0.517 -0.9783  1.8991  1.2629
   97MPD2    N1 1489   3.712   3.586   1.080  0.3502  0.3815  0.7818
   97MPD2    H7 1490   3.761   3.623   1.160  1.8774 -1.1849  0.5631
   98TCq2    C1 1491   3.570   3.539   0.571 -0.2204  0.3584  0.0391
   98TCq2    O2 1492   3.499   3.464   0.646  0.1302  0.6784  0.2067
   98TCq2    C2 1493   3.531   3.532   0.431  0.7062  0.1110  0.6935
   98TCq2    C3 1494   3.436   3.437   0.409  0.1198 -0.0474  0.0622
   98TCq2    C4 1495   3.400   3.401   0.282 -0.1934 -0.3663  0.0443
   98TCq2    C5 1496   3.473   3.455   0.177  0.4914 -0.4418  0.0540
   98TCq2    C6 1497   3.567   3.553   0.204  0.2676  0.3202 -0.0110
   98TCq2    C7 1498   3.598   3.596   0.330 -0.3370  0.3890 -0.0346
   98TCq2    C8 1499   3.633   3.619   0.095 -0.3001 -0.0683  0.0800
   98TCq2    O4 1500   3.748   3.665   0.110  0.1861 -0.1979  0.0069
   98TCq2    C9 1501   3.291   3.310   0.250  0.0209 -0.9014  0.2755
   98TCq2    O5 1502   3.217   3.274   0.343 -0.5814 -0.4786  0.0890
   98TCq2    O6 1503   3.256   3.309   0.127  0.0127  0.4408  0.4590
   98TCq2    H2 1504   3.381   3.386   0.487 -1.3020 -0.5605 -1.2742
   98TCq2    H3 1505   3.445   3.425   0.077 -3.3789  0.8886  0.7256
   98TCq2    H4 1506   3.673   3.672   0.347 -1.1657  1.2461 -0.2632
   99MPD2     C 1507   2.288   1.023   2.239 -0.3074  0.4343  0.2992
   99MPD2    C1 1508   2.182   0.940   2.237  0.1502  0.4675 -0.2218
   99MPD2    C2 1509   2.162   0.870   2.119 -0.4056 -0.7876  0.3486
   99MPD2    C3 1510   2.246   0.891   2.013  0.4410  1.2336 -0.0848
   99MPD2    C4 1511   2.358   0.973   2.015 -0.2310 -1.0256  0.2038
   99MPD2    C5 1512   2.373   1.041   2.137 -0.1833  0.8401 -0.0241
   99MPD2     H 1513   2.082   0.799   2.104  0.5897 -1.7990 -0.1698
   99MPD2    H1 1514   2.424   0.989   1.931 -0.5389  1.0984  0.3571
   99MPD2    H2 1515   2.314   1.084   2.325  1.2582 -2.2996  1.7445
   99MPD2    H3 1516   2.453   1.113   2.148 -0.6809  1.8073 -2.5384
   99MPD2     N 1517   2.204   0.824   1.890  0.6125  0.2556 -0.3073
   99MPD2    H5 1518   2.119   0.769   1.893  1.0143 -0.3909 -0.9626
   99MPD2    N1 1519   2.085   0.930   2.346 -0.8768 -0.0425 -0.2723
   99MPD2    H7 1520   2.002   0.873   2.332  0.4827 -2.3228  0.8471
  100TCq2    C1 1521   2.092   0.988   2.474 -0.3616 -0.0457 -0.6601
  100TCq2    O2 1522   2.186   1.058   2.511  0.1724 -0.3771 -0.1162
  100TCq2    C2 1523   1.972   0.982   2.554  0.1647  0.5113 -0.2006
  100TCq2    C3 1524   1.985   1.037   2.681  1.0588  0.2916 -0.6920
  100TCq2    C4 1525   1.893   0.983   2.772 -0.2559 -0.0937 -0.7445
  100TCq2    C5 1526   1.782   0.914   2.732  0.0785  0.5037 -0.6309
  100TCq2    C6 1527   1.768   0.872   2.607  0.1877  0.1167 -0.1970
  100TCq2    C7 1528   1.865   0.899   2.516  0.1844  0.1287 -0.0084
  100TCq2    C8 1529   1.643   0.795   2.572  0.3348  0.0268 -0.0095
  100TCq2    O4 1530   1.550   0.824   2.644  0.1195 -0.3879 -0.4852
  100TCq2    C9 1531   1.906   1.023   2.909 -0.8797  0.1910 -0.4783
  100TCq2    O5 1532   1.813   0.997   2.993  0.6786  0.4702 -0.1064
  100TCq2    O6 1533   2.025   1.042   2.948  0.0829 -0.0373 -0.0336
  100TCq2    H2 1534   2.072   1.096   2.708 -0.2285  2.4525 -1.3327
  100TCq2    H3 1535   1.708   0.879   2.803  0.3813  1.6652  0.2692
  100TCq2    H4 1536   1.865   0.874   2.410 -1.6267  0.2104 -0.0161
  101MPD2     C 1537   2.893   1.942  13.107 -0.2511  0.0540 -0.2687
  101MPD2    C1 1538   2.798   1.960  13.198 -0.3259 -0.1154  0.8988
  101MPD2    C2 1539   2.775   1.867  13.293 -0.7031 -0.2817  0.4241
  101MPD2    C3 1540   2.852   1.759  13.307 -0.5206 -0.1825  0.6838
  101MPD2    C4 1541   2.940   1.726  13.206 -0.0318  0.3383  0.3065
  101MPD2    C5 1542   2.962   1.821  13.106  0.0300 -0.1768 -0.4206
  101MPD2     H 1543   2.710   1.889  13.376  0.6121  2.2181  0.8093
  101MPD2    H1 1544   3.001   1.637  13.206 -0.1008  0.2916 -0.0786
  101MPD2    H2 1545   2.908   2.012  13.025  1.0573 -1.4227 -1.2913
  101MPD2    H3 1546   3.036   1.810  13.027  1.2003  1.8456  0.3687
  101MPD2     N 1547   2.827   1.675  13.417  0.0901 -0.2926  0.2775
  101MPD2    H5 1548   2.770   1.716  13.490 -0.2571  1.1049 -0.7821
  101MPD2    N1 1549   2.731   2.082  13.203 -0.0544 -0.1624 -0.2389
  101MPD2    H7 1550   2.764   2.146  13.132  1.2355 -0.1480  0.3652
  102TCq2    C1 1551   2.791   2.440  13.033  0.7972  0.4061  0.2870
  102TCq2    O2 1552   2.881   2.365  13.071  0.3135  0.4353  0.4743
  102TCq2    C2 1553   2.681   2.445  13.135 -0.4827  0.4088  0.4514
  102TCq2    C3 1554   2.551   2.473  13.093  0.1979  0.4439 -0.2072
  102TCq2    C4 1555   2.446   2.405  13.154 -0.2914 -0.4988 -0.3903
  102TCq2    C5 1556   2.471   2.298  13.239 -0.3022  0.0595 -0.2631
  102TCq2    C6 1557   2.602   2.262  13.260 -0.4630  0.3281  0.3418
  102TCq2    C7 1558   2.710   2.342  13.226  0.2747  0.2547 -0.2025
  102TCq2    C8 1559   2.627   2.121  13.282 -0.1021  0.1946 -0.5241
  102TCq2    O4 1560   2.545   2.061  13.347 -0.7639 -0.0300  0.3702
  102TCq2    C9 1561   2.309   2.431  13.117 -1.0302  0.3587 -0.2290
  102TCq2    O5 1562   2.235   2.330  13.116 -0.0048  0.0437 -0.1022
  102TCq2    O6 1563   2.293   2.525  13.037 -0.2547 -0.9721 -0.8652
  102TCq2    H2 1564   2.530   2.567  13.045 -2.1983 -0.8990 -1.7967
  102TCq2    H3 1565   2.400   2.225  13.273 -0.3202 -0.0590 -0.5530
  102TCq2    H4 1566   2.807   2.309  13.259  0.9751  1.1599 -1.3413
  103TMC2    C1 1567   0.685   1.652  12.508 -0.0322  0.1251 -0.4058
  103TMC2    C2 1568   0.770   1.544  12.536  0.9660 -0.4318 -0.5992
  103TMC2    C3 1569   0.872   1.563  12.628 -0.1259  0.1958  0.5045
  103TMC2    C4 1570   0.688   1.765  12.585  1.1463 -0.8555  0.5578
  103TMC2    C5 1571   0.785   1.776  12.680 -1.3217 -0.1476 -0.4777
  103TMC2    C6 1572   0.874   1.679  12.704 -0.3207  0.1151  0.0383
  103TMC2     C 1573   0.575   1.642  12.417 -0.2677  0.3841  0.3875
  103TMC2     O 1574   0.477   1.713  12.435 -0.1384  0.3623 -0.4677
  103TMC2     H 1575   0.771   1.452  12.479  5.8646 -0.7602 -0.0124
  103TMC2    H1 1576   0.626   1.849  12.555  0.8324 -1.6444 -1.0173
  103TMC2    H2 1577   0.949   1.697  12.781 -0.4343 -2.4441  0.7341
  103TMC2    C7 1578   0.799   1.904  12.742  0.2957  0.9282 -0.1777
  103TMC2    C8 1579   0.980   1.468  12.620 -0.3974  0.3826  0.5008
  103TMC2    O1 1580   0.810   1.996  12.662 -0.4703  0.2294 -0.5293
  103TMC2    O2 1581   0.967   1.347  12.599  0.1922  0.1804  0.1997
  103TMC2    O5 1582   1.094   1.538  12.627 -0.0706  0.2072 -0.3312
  103TMC2    H5 1583   1.082   1.633  12.648  0.2955  0.1893 -0.0413
  104MPD2     C 1584   0.544   1.374  12.153 -0.0512 -0.2174 -0.0155
  104MPD2    C1 1585   0.510   1.488  12.224  0.1966  0.2930  0.3567
  104MPD2    C2 1586   0.396   1.550  12.185 -0.3558  0.2957 -0.1822
  104MPD2    C3 1587   0.307   1.510  12.084 -0.2940 -0.0137  0.2366
  104MPD2    C4 1588   0.345   1.396  12.020 -0.2937 -0.5938 -0.3680
  104MPD2    C5 1589   0.463   1.331  12.054  0.5471  0.2114  0.1733
  104MPD2     H 1590   0.364   1.636  12.242 -0.6232  0.2064 -0.1972
  104MPD2    H1 1591   0.285   1.346  11.945  0.1040  1.0387 -1.7655
  104MPD2    H2 1592   0.633   1.317  12.176  1.6856  1.6675 -2.0430
  104MPD2    H3 1593   0.484   1.240  11.999  0.9121  1.3155 -1.4931
  104MPD2     N 1594   0.188   1.585  12.058 -0.5530 -0.5987  0.1631
  104MPD2    H5 1595   0.157   1.650  12.129 -0.8759 -1.4249  0.7804
  104MPD2    N1 1596   0.598   1.536  12.331 -0.0851 -0.1511 -0.2211
  104MPD2    H7 1597   0.690   1.493  12.329  0.5817  1.2834  0.1962
  105MPD2     C 1598   2.777   1.268   0.149 -0.0760 -0.2015 -0.6385
  105MPD2    C1 1599   2.658   1.334   0.146  0.1358 -0.3745 -0.2536
  105MPD2    C2 1600   2.589   1.351   0.262 -0.3493 -0.2989 -0.6156
  105MPD2    C3 1601   2.636   1.304   0.383  0.1957 -0.4632  0.3952
  105MPD2    C4 1602   2.757   1.239   0.381 -0.7644  0.0369  0.5831
  105MPD2    C5 1603   2.817   1.215   0.265  0.8380 -0.3489 -0.5960
  105MPD2     H 1604   2.498   1.410   0.267 -0.8750 -0.9510 -2.2324
  105MPD2    H1 1605   2.809   1.203   0.469 -1.2856 -1.7198  0.1711
  105MPD2    H2 1606   2.835   1.236   0.063  1.9128 -0.2661  0.7472
  105MPD2    H3 1607   2.911   1.162   0.277  0.4212 -1.4289 -2.0382
  105MPD2     N 1608   2.559   1.325   0.500 -0.5836  0.1037  0.6924
  105MPD2    H5 1609   2.472   1.376   0.487 -0.1867  0.1848 -1.6646
  105MPD2    N1 1610   2.608   1.403   0.033  0.2953  0.2919  0.2655
  105MPD2    H7 1611   2.514   1.439   0.046 -0.6584 -2.0779 -0.0909
  106TCq2    C1 1612   2.583   1.276   0.631  0.2002  0.0013  0.3131
  106TCq2    O2 1613   2.641   1.173   0.660  0.5793  0.2193 -0.1972
  106TCq2    C2 1614   2.497   1.332   0.731  0.3616 -0.4084 -0.6622
  106TCq2    C3 1615   2.473   1.467   0.738 -0.7534 -0.0452 -0.4104
  106TCq2    C4 1616   2.380   1.517   0.824 -0.2869 -0.0443 -0.8186
  106TCq2    C5 1617   2.333   1.432   0.923 -0.1485 -0.1273 -0.5173
  106TCq2    C6 1618   2.364   1.304   0.925 -0.2187 -0.2135  0.1668
  106TCq2    C7 1619   2.442   1.247   0.821 -0.1269 -0.5113  0.2247
  106TCq2    C8 1620   2.307   1.213   1.029  0.2892 -0.3914  0.2809
  106TCq2    O4 1621   2.337   1.098   1.005  0.0142  0.1367  0.2789
  106TCq2    C9 1622   2.326   1.658   0.815  0.7751 -0.6313  0.0252
  106TCq2    O5 1623   2.242   1.683   0.908  0.4342 -0.1438 -0.3685
  106TCq2    O6 1624   2.347   1.730   0.712 -0.2848  0.0579  0.2835
  106TCq2    H2 1625   2.514   1.540   0.670 -1.9526  1.0692  0.0677
  106TCq2    H3 1626   2.270   1.477   0.998 -1.4475 -2.0845 -0.4452
  106TCq2    H4 1627   2.445   1.139   0.814 -0.5262 -0.7750  4.1588
  107TMC2    C1 1628   3.654   0.579  11.620 -0.1612  1.2914 -0.1430
  107TMC2    C2 1629   3.729   0.665  11.543 -0.6217 -0.2166 -0.1207
  107TMC2    C3 1630   3.847   0.616  11.487 -0.5885 -0.6754 -0.6480
  107TMC2    C4 1631   3.708   0.464  11.670 -0.6612  1.1103 -0.2733
  107TMC2    C5 1632   3.817   0.418  11.605  0.0165  0.3289  0.0127
  107TMC2    C6 1633   3.892   0.490  11.518  0.0951  0.0326  0.8022
  107TMC2     C 1634   3.552   0.636  11.704  0.2756  0.7737  0.3882
  107TMC2     O 1635   3.530   0.573  11.806 -0.1037  0.5205  0.0798
  107TMC2     H 1636   3.683   0.759  11.517  0.4124  0.3004 -0.0623
  107TMC2    H1 1637   3.669   0.413  11.758  0.3522 -1.3734 -1.2573
  107TMC2    H2 1638   3.984   0.452  11.475 -0.6678 -1.5080  0.5451
  107TMC2    C7 1639   3.801   0.278  11.580  0.3007  0.0052 -0.0204
  107TMC2    C8 1640   3.932   0.705  11.411  0.1711 -0.1088 -0.0450
  107TMC2    O1 1641   3.772   0.206  11.673 -0.2028 -1.0591 -0.3062
  107TMC2    O2 1642   4.007   0.662  11.323 -0.0908  0.1374 -0.3664
  107TMC2    O5 1643   3.871   0.818  11.400 -0.1560 -0.2369  0.0230
  107TMC2    H5 1644   3.829   0.862  11.477 -1.2998 -0.2544 -0.5895
  108MPD2     C 1645   3.292   0.894  11.615  0.0654 -0.0865 -0.0569
  108MPD2    C1 1646   3.375   0.823  11.704 -0.2727  0.0062  0.6454
  108MPD2    C2 1647   3.343   0.816  11.838 -0.8405  0.4326  0.0002
  108MPD2    C3 1648   3.233   0.889  11.887 -0.8614 -0.4440  0.0246
  108MPD2    C4 1649   3.166   0.978  11.802 -0.3750 -0.3468 -0.8664
  108MPD2    C5 1650   3.205   0.993  11.669 -1.3738 -0.4776  0.6145
  108MPD2     H 1651   3.397   0.743  11.898  0.2972  2.7194  1.7718
  108MPD2    H1 1652   3.088   1.044  11.838  0.4342  0.9034 -1.3747
  108MPD2    H2 1653   3.297   0.874  11.508 -0.9685  1.7644 -0.4536
  108MPD2    H3 1654   3.160   1.063  11.599 -2.5736 -2.9026 -1.0264
  108MPD2     N 1655   3.171   0.877  12.021 -0.6748 -0.4339  0.5371
  108MPD2    H5 1656   3.095   0.939  12.046 -0.0116  0.9652 -0.9006
  108MPD2    N1 1657   3.480   0.734  11.642 -0.1457  0.4782 -0.7011
  108MPD2    H7 1658   3.480   0.723  11.541 -0.6920 -5.4248 -0.0668
  109MPD2     C 1659   3.704   2.215   2.314 -0.4247 -0.6377 -0.1766
  109MPD2    C1 1660   3.638   2.329   2.277  0.2461 -0.2138  0.4742
  109MPD2    C2 1661   3.702   2.429   2.206 -0.1505 -0.2533 -0.4650
  109MPD2    C3 1662   3.833   2.413   2.159 -0.1402  0.7423  0.3889
  109MPD2    C4 1663   3.897   2.303   2.188 -0.3291 -0.2272  0.3791
  109MPD2    C5 1664   3.834   2.207   2.262  0.4192 -0.4523 -0.4093
  109MPD2     H 1665   3.661   2.529   2.196 -1.3421 -0.5996  1.0316
  109MPD2    H1 1666   3.999   2.287   2.155 -0.0544 -2.5284  2.3772
  109MPD2    H2 1667   3.670   2.129   2.371  0.5115 -2.1958 -1.9420
  109MPD2    H3 1668   3.887   2.117   2.288  0.3198 -0.2447  0.5001
  109MPD2     N 1669   3.888   2.516   2.077 -0.0415 -0.7507 -0.3707
  109MPD2    H5 1670   3.830   2.589   2.037 -2.3265 -1.0915  2.3900
  109MPD2    N1 1671   3.504   2.351   2.308  1.4093 -0.2954  0.3449
  109MPD2    H7 1672   3.461   2.438   2.277 -1.3299 -1.8395 -0.1632
  110TCq2    C1 1673   4.014   2.512   2.017  0.5175 -0.3131  0.1389
  110TCq2    O2 1674   4.109   2.440   2.045 -0.5168 -0.1754  0.4124
  110TCq2    C2 1675   4.044   2.620   1.929 -0.3797  0.1052  0.5500
  110TCq2    C3 1676   4.133   2.604   1.837  0.4533  0.6530  0.3036
  110TCq2    C4 1677   4.135   2.691   1.733  0.3705  0.4871 -0.7889
  110TCq2    C5 1678   4.048   2.794   1.713 -0.4791 -0.2566  0.0797
  110TCq2    C6 1679   3.954   2.821   1.814 -0.1339  0.4968 -0.0282
  110TCq2    C7 1680   3.944   2.721   1.916  0.4881  0.7056 -0.6015
  110TCq2    C8 1681   3.842   2.909   1.772 -0.0391 -0.4055  0.7375
  110TCq2    O4 1682   3.873   2.994   1.689 -0.2361 -0.2878  0.1396
  110TCq2    C9 1683   4.236   2.654   1.635  0.3062 -0.0386  0.9769
  110TCq2    O5 1684   4.315   2.561   1.668  0.3359  0.2009  0.3648
  110TCq2    O6 1685   4.222   2.701   1.519 -0.2939 -0.0305  0.2214
  110TCq2    H2 1686   4.209   2.530   1.860 -0.0686  0.5499  1.6952
  110TCq2    H3 1687   4.057   2.853   1.623 -0.1777  0.6700  0.7203
  110TCq2    H4 1688   3.878   2.748   1.998  1.4117  0.1895  0.3129
  111TMC2    C1 1689   3.550   2.521  11.714  0.8354  0.2795 -0.3335
  111TMC2    C2 1690   3.662   2.545  11.630  0.8605  0.1723 -0.1706
  111TMC2    C3 1691   3.780   2.572  11.687 -0.7056  0.0341  0.6591
  111TMC2    C4 1692   3.563   2.511  11.846  0.3560  0.6359 -0.8602
  111TMC2    C5 1693   3.682   2.550  11.899 -0.1640 -0.3283 -0.6266
  111TMC2    C6 1694   3.789   2.576  11.825 -0.4395  0.0281 -0.0835
  111TMC2     C 1695   3.420   2.507  11.656  0.1477  0.5121 -0.1963
  111TMC2     O 1696   3.408   2.469  11.545 -1.0619 -0.0323  0.1055
  111TMC2     H 1697   3.643   2.570  11.526 -0.7698 -0.9368 -0.1412
  111TMC2    H1 1698   3.491   2.458  11.907  1.0824 -0.5970 -1.0741
  111TMC2    H2 1699   3.871   2.620  11.881  1.1398 -2.6214 -0.3261
  111TMC2    C7 1700   3.684   2.527  12.046  0.0720 -0.3218 -0.0374
  111TMC2    C8 1701   3.902   2.572  11.607  0.2165  0.4880 -0.4225
  111TMC2    O1 1702   3.579   2.508  12.104 -0.3611  0.4196  0.6193
  111TMC2    O2 1703   3.919   2.620  11.497  0.4134  0.3780  0.3929
  111TMC2    O5 1704   3.993   2.514  11.679 -0.2402  1.2282  0.0163
  111TMC2    H5 1705   3.953   2.460  11.751 -0.6309  0.7086 -0.5972
  112MPD2     C 1706   2.923   2.615  11.670  0.2643  0.1436 -1.1664
  112MPD2    C1 1707   2.986   2.529  11.580  0.0345 -1.0142  0.8068
  112MPD2    C2 1708   3.116   2.506  11.609  0.1375  0.3653 -0.1623
  112MPD2    C3 1709   3.185   2.565  11.715  1.0639 -0.0878 -0.2165
  112MPD2    C4 1710   3.119   2.644  11.796 -0.1080 -0.2039 -0.2371
  112MPD2    C5 1711   2.985   2.668  11.778 -0.1210  0.0356 -0.1475
  112MPD2     H 1712   3.173   2.429  11.558 -1.2241 -0.9328  0.2887
  112MPD2    H1 1713   3.171   2.693  11.878  0.7341 -0.6438 -0.5123
  112MPD2    H2 1714   2.821   2.644  11.648  0.0772  0.7379  0.4302
  112MPD2    H3 1715   2.940   2.742  11.843 -2.2408 -0.0028 -1.5930
  112MPD2     N 1716   3.323   2.560  11.737  0.3381  0.1706  0.6951
  112MPD2    H5 1717   3.356   2.597  11.826 -1.4350  2.2352  0.5095
  112MPD2    N1 1718   2.933   2.463  11.467 -0.1719  0.4478 -0.4719
  112MPD2    H7 1719   3.001   2.418  11.407  2.2897  2.2053  0.9677
  113MPD2     C 1720   1.441   0.592   1.163  0.3297 -0.5986  0.2675
  113MPD2    C1 1721   1.375   0.520   1.259 -0.3958  0.3355  0.5834
  113MPD2    C2 1722   1.303   0.407   1.217 -0.8663  0.8682  0.2260
  113MPD2    C3 1723   1.301   0.364   1.088 -0.1158 -0.5909  0.0352
  113MPD2    C4 1724   1.387   0.431   0.998  0.2527  0.1302  0.6983
  113MPD2    C5 1725   1.453   0.548   1.033  0.4648 -0.2349  0.0841
  113MPD2     H 1726   1.257   0.353   1.299  1.6265 -0.0659  1.0260
  113MPD2    H1 1727   1.406   0.385   0.902 -0.2491 -1.3567  1.3138
  113MPD2    H2 1728   1.496   0.681   1.191  1.1267 -0.9164 -0.2741
  113MPD2    H3 1729   1.502   0.597   0.950 -0.0715  0.4836  0.1909
  113MPD2     N 1730   1.225   0.258   1.039  0.6569 -0.4802 -0.4673
  113MPD2    H5 1731   1.225   0.249   0.938  1.3656 -0.7370 -0.4407
  113MPD2    N1 1732   1.374   0.546   1.398  0.0328 -0.0652  0.3719
  113MPD2    H7 1733   1.335   0.475   1.459  0.9192 -0.9012 -0.0356
  114TCq2    C1 1734   1.130   0.184   1.103 -0.3998  1.3301 -0.9826
  114TCq2    O2 1735   1.092   0.189   1.221  0.1808 -0.5233 -0.3057
  114TCq2    C2 1736   1.075   0.100   1.002 -0.3048  0.7672 -0.0286
  114TCq2    C3 1737   1.137   0.060   0.883  0.0314 -0.1733  0.3342
  114TCq2    C4 1738   1.065   4.712   0.786 -0.3439 -0.4421 -0.0327
  114TCq2    C5 1739   0.932   4.678   0.803 -0.2720  0.1545 -0.5656
  114TCq2    C6 1740   0.872   4.723   0.918  0.1569 -0.3949  0.4109
  114TCq2    C7 1741   0.940   0.062   1.020  0.2702 -0.0324  0.6879
  114TCq2    C8 1742   0.730   0.003   0.916  0.2185  0.2168 -0.1877
  114TCq2    O4 1743   0.669   0.026   0.812 -0.3004  0.8967 -0.4660
  114TCq2    C9 1744   1.134   4.661   0.672  0.4704 -0.2401  0.9357
  114TCq2    O5 1745   1.249   4.703   0.648 -0.1446  0.0979  0.6696
  114TCq2    O6 1746   1.071   4.579   0.604 -0.4135 -0.4647 -0.2316
  114TCq2    H2 1747   1.241   0.068   0.855  0.3710  0.2619  1.7320
  114TCq2    H3 1748   0.888   4.607   0.734 -1.3551 -0.2224  0.5274
  114TCq2    H4 1749   0.882   0.096   1.106 -1.1876 -0.2973 -0.1905
  115TMC2    C1 1750   2.251   2.995   0.343 -0.2511 -0.0139 -0.2873
  115TMC2    C2 1751   2.308   2.958   0.220  0.6096  0.0321  0.0178
  115TMC2    C3 1752   2.403   3.036   0.161  0.1419  0.0287  0.1167
  115TMC2    C4 1753   2.280   3.112   0.392  0.0174  0.5944 -0.1003
  115TMC2    C5 1754   2.363   3.200   0.326  0.0219  0.2622  0.2597
  115TMC2    C6 1755   2.433   3.162   0.211 -0.2176  0.5081  0.0873
  115TMC2     C 1756   2.138   2.919   0.383  0.2106 -0.6001  0.5747
  115TMC2     O 1757   2.084   2.849   0.297 -0.0738  0.3553 -0.4453
  115TMC2     H 1758   2.293   2.861   0.174 -3.6411  1.7765 -2.2919
  115TMC2    H1 1759   2.222   3.149   0.476 -0.6105 -0.1582 -0.1944
  115TMC2    H2 1760   2.492   3.226   0.147 -0.9664 -0.6430 -1.7554
  115TMC2    C7 1761   2.366   3.341   0.365  0.6163  0.3488 -0.5480
  115TMC2    C8 1762   2.490   2.969   0.066  0.3704  0.0477  0.3662
  115TMC2    O1 1763   2.314   3.381   0.476 -0.4101  0.1584 -0.1919
  115TMC2    O2 1764   2.467   2.868   0.005 -0.1967 -0.1355 -0.3692
  115TMC2    O5 1765   2.615   3.016   0.084 -0.3914  0.0807 -0.2046
  115TMC2    H5 1766   2.618   3.094   0.143 -1.6040  1.1878 -1.5758
  116MPD2     C 1767   1.759   2.872   0.714  0.1119  0.0853 -0.0390
  116MPD2    C1 1768   1.760   2.857   0.574  0.2644  0.4061 -0.5283
  116MPD2    C2 1769   1.877   2.878   0.503  0.0937 -0.3112 -0.1352
  116MPD2    C3 1770   1.989   2.919   0.577  0.2824 -0.8320 -0.3386
  116MPD2    C4 1771   1.985   2.938   0.717  0.0075  0.9190 -0.4317
  116MPD2    C5 1772   1.871   2.911   0.786 -1.2948  0.1572  0.2481
  116MPD2     H 1773   1.890   2.864   0.396  2.8109  1.5654 -0.0367
  116MPD2    H1 1774   2.075   2.947   0.778  0.5316  3.5769 -1.6050
  116MPD2    H2 1775   1.671   2.846   0.772 -0.7336 -2.0949 -2.3296
  116MPD2    H3 1776   1.851   2.934   0.890  3.4340  2.2782  0.6735
  116MPD2     N 1777   2.111   2.942   0.516 -0.6192 -0.0053 -0.1718
  116MPD2    H5 1778   2.178   2.989   0.576 -1.2948  0.5339  0.1634
  116MPD2    N1 1779   1.636   2.807   0.520 -0.1339 -0.6717 -0.0866
  116MPD2    H7 1780   1.553   2.796   0.577 -0.4422 -1.5364 -0.7062
  117TMC2    C1 1781   0.669   4.313  13.522  0.9258 -0.0254 -0.6806
  117TMC2    C2 1782   0.696   4.209  13.438 -0.3376 -0.0662 -0.0961
  117TMC2    C3 1783   0.826   4.196  13.391 -0.3735 -0.1752  0.4405
  117TMC2    C4 1784   0.764   4.405  13.565 -0.4473  0.7938 -0.2768
  117TMC2    C5 1785   0.891   4.379  13.524  0.7348 -0.0645  0.7973
  117TMC2    C6 1786   0.922   4.286  13.431 -0.0227  0.0458  0.4800
  117TMC2     C 1787   0.527   4.335  13.552  0.2850  0.1218 -0.0041
  117TMC2     O 1788   0.448   4.278  13.477  0.1407 -0.4751  0.0678
  117TMC2     H 1789   0.625   4.131  13.414 -0.3752 -0.0640  0.0080
  117TMC2    H1 1790   0.738   4.492  13.623  0.7496 -0.3558  1.9800
  117TMC2    H2 1791   1.029   4.268  13.429 -0.3114 -1.7616  1.6180
  117TMC2    C7 1792   1.000   4.436  13.590 -0.9602 -0.2704  0.3212
  117TMC2    C8 1793   0.867   4.082  13.318 -0.7866  0.2205 -0.0135
  117TMC2    O1 1794   1.095   4.460  13.523  0.0651  0.4843 -0.1386
  117TMC2    O2 1795   0.795   3.986  13.312 -0.4350  0.8246 -0.5774
  117TMC2    O5 1796   0.975   4.101  13.238 -0.1613 -0.2190  0.6541
  117TMC2    H5 1797   1.005   4.194  13.245  0.3189 -0.5191  2.4843
  118MPD2     C 1798   1.019   4.504  13.947  0.1758 -0.2093  0.4829
  118MPD2    C1 1799   1.062   4.493  13.821  0.4805 -0.1721 -0.6343
  118MPD2    C2 1800   1.196   4.518  13.795 -0.0943  0.1256 -0.3405
  118MPD2    C3 1801   1.285   4.541  13.900 -0.0820  0.3764 -0.5459
  118MPD2    C4 1802   1.243   4.548  14.031 -0.2002  0.7634  0.2101
  118MPD2    C5 1803   1.105   4.532  14.048 -0.9257  0.1127 -0.6663
  118MPD2     H 1804   1.222   4.527  13.690  1.9396 -1.1621  0.0494
  118MPD2    H1 1805   1.307   4.566  14.117 -1.7317  0.2760  1.4386
  118MPD2    H2 1806   0.916   4.476  13.967  0.4283 -2.1041 -0.8223
  118MPD2    H3 1807   1.073   4.539  14.151 -2.8373  1.1793 -1.3356
  118MPD2     N 1808   1.421   4.561  13.879  0.3568 -0.7805  0.6184
  118MPD2    H5 1809   1.480   4.567  13.962 -0.4450 -2.2967  1.2844
  118MPD2    N1 1810   0.970   4.452  13.721 -0.2270  0.1521  0.0615
  118MPD2    H7 1811   0.877   4.429  13.754 -0.5366  1.3729  0.0468
  119MPD2     C 1812   4.012   1.932  14.058  0.2705 -0.4695  0.6153
  119MPD2    C1 1813   3.938   1.810  14.037  0.0173 -0.2953  0.2060
  119MPD2    C2 1814   3.958   1.736  13.924 -0.6970  0.0692 -0.2709
  119MPD2    C3 1815   4.044   1.781  13.823 -0.3411  1.0795  0.1789
  119MPD2    C4 1816   4.105   1.911  13.840 -0.2103 -0.6646 -0.7040
  119MPD2    C5 1817   4.091   1.976  13.958 -0.0949  0.4367 -0.3392
  119MPD2     H 1818   3.914   1.637  13.929  0.4860 -0.4661 -0.5023
  119MPD2    H1 1819   4.172   1.950  13.765  0.5527  1.8235  1.2679
  119MPD2    H2 1820   3.987   1.993  14.144 -3.5103 -0.6026 -0.3877
  119MPD2    H3 1821   4.147   2.068  13.973  0.1220  0.0389  1.2461
  119MPD2     N 1822   4.060   1.718  13.706 -0.0069  0.0778  0.2883
  119MPD2    H5 1823   4.127   1.756  13.641  1.5762 -0.9970  1.3089
  119MPD2    N1 1824   3.848   1.766  14.134 -0.0213 -0.2536 -0.5359
  119MPD2    H7 1825   3.803   1.678  14.109 -0.6329  0.1177 -0.7305
  120TCq2    C1 1826   3.982   1.613  13.664  0.2839  0.5366  0.4471
  120TCq2    O2 1827   3.884   1.547  13.705  0.0264  0.1388 -0.2829
  120TCq2    C2 1828   4.010   1.568  13.530 -0.5632  0.3893 -0.7551
  120TCq2    C3 1829   4.124   1.507  13.501 -0.0465 -0.4182 -0.2416
  120TCq2    C4 1830   4.134   1.423  13.390  0.3807 -0.9268  0.9928
  120TCq2    C5 1831   4.019   1.393  13.314  1.0819 -0.1681 -0.0386
  120TCq2    C6 1832   3.901   1.442  13.369 -0.0253 -0.6574  0.1709
  120TCq2    C7 1833   3.892   1.533  13.468 -0.2942 -0.7016  0.8234
  120TCq2    C8 1834   3.799   1.339  13.394 -0.5075 -1.1222  0.3633
  120TCq2    O4 1835   3.769   1.272  13.295 -0.1804 -0.3458  0.2850
  120TCq2    C9 1836   4.258   1.364  13.355  0.2341 -0.2576  0.7383
  120TCq2    O5 1837   4.360   1.409  13.418 -0.2865  0.1959  0.1233
  120TCq2    O6 1838   4.264   1.304  13.241  0.3642 -0.6106  0.0918
  120TCq2    H2 1839   4.216   1.544  13.544  0.5304 -3.4849  1.1590
  120TCq2    H3 1840   4.021   1.320  13.234 -2.1274 -0.3216  0.0076
  120TCq2    H4 1841   3.798   1.583  13.491 -0.0420  0.1897 -0.0959
  121TMC2    C1 1842   0.325   2.813  14.285  0.1800 -0.3627 -0.1388
  121TMC2    C2 1843   0.308   2.699  14.365  0.2358  0.3740 -0.5950
  121TMC2    C3 1844   0.193   2.625  14.332 -0.9086 -1.2436 -0.6018
  121TMC2    C4 1845   0.238   2.853  14.183 -0.5213 -0.4540 -0.2380
  121TMC2    C5 1846   0.122   2.779  14.173 -0.3503  0.4679  0.4729
  121TMC2    C6 1847   0.094   2.658  14.245 -0.0852 -0.0370  0.1384
  121TMC2     C 1848   0.458   2.867  14.291 -0.0222  0.6662  0.2193
  121TMC2     O 1849   0.515   2.874  14.401 -0.2119 -0.4371  0.0039
  121TMC2     H 1850   0.386   2.659  14.429 -0.2523 -1.6113 -1.2453
  121TMC2    H1 1851   0.240   2.952  14.141 -1.3710 -0.0622  0.6447
  121TMC2    H2 1852   0.009   2.601  14.210 -0.3870 -0.3625  1.4066
  121TMC2    C7 1853   0.034   2.822  14.074 -0.4285  0.0317 -0.1987
  121TMC2    C8 1854   0.172   2.506  14.416  0.1196  0.4271 -0.0460
  121TMC2    O1 1855   0.088   2.875  13.982 -0.6764 -0.1772 -0.0512
  121TMC2    O2 1856   0.247   2.470  14.510  0.1598  0.2102 -0.0310
  121TMC2    O5 1857   0.094   2.432  14.341  0.0661 -0.3042 -0.2709
  121TMC2    H5 1858   0.118   2.337  14.346  1.5157  0.2443  2.6158
  122MPD2     C 1859   0.727   2.984  14.214 -0.1435 -0.1031  0.4238
  122MPD2    C1 1860   0.621   2.965  14.126 -0.2605 -0.5008 -0.4707
  122MPD2    C2 1861   0.644   2.983  13.991 -0.7073 -0.2813 -0.2500
  122MPD2    C3 1862   0.764   3.033  13.943 -0.0673 -0.6204  0.1206
  122MPD2    C4 1863   0.867   3.052  14.031  0.1501  0.0547 -0.7027
  122MPD2    C5 1864   0.848   3.025  14.167  0.0004 -1.4143 -0.2910
  122MPD2     H 1865   0.562   2.960  13.924 -0.8111 -2.7585  0.7504
  122MPD2    H1 1866   0.963   3.093  14.004 -1.7612  4.2998 -0.9782
  122MPD2    H2 1867   0.718   2.973  14.322  0.6987 -2.0937  0.2818
  122MPD2    H3 1868   0.924   3.041  14.243 -0.6004 -2.5492  0.5344
  122MPD2     N 1869   0.790   3.075  13.809  0.3421  0.5869  0.0925
  122MPD2    H5 1870   0.880   3.117  13.794 -1.1709  3.2775 -1.4366
  122MPD2    N1 1871   0.493   2.919  14.167  0.0996  0.2673  0.6332
  122MPD2    H7 1872   0.436   2.900  14.086 -0.3123  1.0831  0.7294
  123MPD2     C 1873   2.496   0.891   9.294 -0.2070  0.0255  0.0328
  123MPD2    C1 1874   2.579   0.824   9.373 -0.4784  0.8765  0.2329
  123MPD2    C2 1875   2.614   0.692   9.340 -0.7814 -0.8517  0.0229
  123MPD2    C3 1876   2.558   0.624   9.237 -0.7299  0.4001 -0.2488
  123MPD2    C4 1877   2.478   0.704   9.151 -0.4720  0.0438  0.7206
  123MPD2    C5 1878   2.454   0.836   9.181  0.3459  0.1926 -0.6071
  123MPD2     H 1879   2.689   0.644   9.403  0.2893  1.5545  0.5625
  123MPD2    H1 1880   2.440   0.667   9.056  0.5144 -0.2437  0.4371
  123MPD2    H2 1881   2.469   0.993   9.317  0.8924  0.0406  1.2519
  123MPD2    H3 1882   2.394   0.898   9.114  0.2216  1.6781  0.8724
  123MPD2     N 1883   2.590   0.488   9.215  0.4595  0.2271  0.0585
  123MPD2    H5 1884   2.646   0.446   9.289 -0.6717 -0.8676  0.2987
  123MPD2    N1 1885   2.652   0.894   9.472 -0.2489 -0.6916 -0.5808
  123MPD2    H7 1886   2.624   0.990   9.488 -0.2813 -0.9028  0.6378
  124TCq2    C1 1887   2.567   0.416   9.099 -0.5910  0.3181  1.0691
  124TCq2    O2 1888   2.528   0.458   8.991 -0.4033  0.1733  0.3237
  124TCq2    C2 1889   2.601   0.274   9.104  0.2208 -0.1820  0.4616
  124TCq2    C3 1890   2.558   0.195   9.002  0.6552  0.0599  0.1889
  124TCq2    C4 1891   2.578   0.060   8.993 -0.0667  0.0710 -0.3217
  124TCq2    C5 1892   2.656   0.000   9.093  0.5822 -0.2169 -0.4916
  124TCq2    C6 1893   2.707   0.084   9.192 -0.6382 -0.0182  0.0734
  124TCq2    C7 1894   2.684   0.217   9.198  0.9223  0.0168 -0.3312
  124TCq2    C8 1895   2.804   0.034   9.286  0.3633 -0.1395  0.3647
  124TCq2    O4 1896   2.879   0.108   9.349  0.7168  0.1134  0.3901
  124TCq2    C9 1897   2.526   4.709   8.885  0.2124 -0.7755 -0.4483
  124TCq2    O5 1898   2.435   0.038   8.818  0.3752 -0.5845  0.6885
  124TCq2    O6 1899   2.546   4.582   8.896  0.5364 -0.3628 -0.2919
  124TCq2    H2 1900   2.484   0.239   8.935 -0.5120  0.4831  1.7453
  124TCq2    H3 1901   2.667   4.616   9.094  1.0518 -0.2003 -2.5855
  124TCq2    H4 1902   2.731   0.277   9.276 -0.4068 -0.5188  0.8663
  125TMC2    C1 1903   0.073   3.501   9.470 -0.2688  0.2711 -0.0853
  125TMC2    C2 1904   0.058   3.571   9.344  0.6235  0.5178 -0.2662
  125TMC2    C3 1905   0.064   3.488   9.229 -0.5309 -0.5482 -0.1983
  125TMC2    C4 1906   0.078   3.365   9.475 -0.2634  0.1941  0.3018
  125TMC2    C5 1907   0.109   3.292   9.359 -0.1446  0.5182  0.9598
  125TMC2    C6 1908   0.095   3.349   9.230 -0.0565 -0.2741  0.1145
  125TMC2     C 1909   0.056   3.582   9.587  0.6096  0.1938  0.1399
  125TMC2     O 1910   0.060   3.702   9.563 -1.0323  0.1533 -0.5474
  125TMC2     H 1911   0.045   3.678   9.337 -0.0322  0.6196  2.2855
  125TMC2    H1 1912   0.068   3.313   9.569  0.3056 -1.3596 -0.4953
  125TMC2    H2 1913   0.094   3.289   9.140 -0.1612 -2.4502  1.5714
  125TMC2    C7 1914   0.088   3.145   9.362  0.3985  0.5116 -0.0333
  125TMC2    C8 1915   0.041   3.535   9.091  0.6405  0.2960 -0.3423
  125TMC2    O1 1916   4.694   3.107   9.364 -0.6312 -0.5383  0.2094
  125TMC2    O2 1917   0.089   3.480   8.992  0.1740  0.5291  0.4236
  125TMC2    O5 1918   0.029   3.668   9.097  0.6490  0.1655  0.9860
  125TMC2    H5 1919   4.683   3.690   9.163 -0.1538  0.8135 -0.0736
  126MPD1     C 1920   4.657   3.705  10.066  0.5266 -0.0744  0.4310
  126MPD1    C1 1921   4.646   3.570  10.044 -0.0036  0.4912  0.1822
  126MPD1    C2 1922   4.694   3.510   9.933 -0.5873  0.9427 -0.3690
  126MPD1    C3 1923   0.016   3.588   9.831 -0.4625  0.2856  0.1836
  126MPD1    C4 1924   0.031   3.725   9.843  0.9861  0.2669 -0.3637
  126MPD1    C5 1925   4.721   3.775   9.965 -0.1341  0.2144  0.2173
  126MPD1     H 1926   4.680   3.403   9.920  1.2482  0.4632  1.4697
  126MPD1    H1 1927   0.074   3.789   9.767  1.9363  1.4680  1.1666
  126MPD1    H2 1928   4.606   3.736  10.157 -2.7000 -0.1005 -1.3712
  126MPD1    H3 1929   0.003   3.883   9.970  0.0306  0.3074 -1.9004
  126MPD1     N 1930   0.039   3.521   9.709  0.1812  0.8008 -0.6271
  126MPD1    H5 1931   0.025   3.420   9.710  2.2197  0.5008 -0.9198
  126MPD1    N1 1932   4.556   3.494  10.124  0.1217 -0.8544 -0.4965
  126MPD1    H6 1933   4.578   3.395  10.123  3.2049 -0.1809  0.0583
  126MPD1    H7 1934   4.541   3.528  10.218  2.6983  0.5591 -0.5853
  127MPD2     C 1935   1.756   1.602   9.314 -0.0247  1.3626 -0.4300
  127MPD2    C1 1936   1.706   1.510   9.404 -0.4124 -0.2862 -0.5825
  127MPD2    C2 1937   1.633   1.563   9.510  0.8029  0.7546 -0.2744
  127MPD2    C3 1938   1.614   1.699   9.525  0.3432  0.7664 -0.5466
  127MPD2    C4 1939   1.658   1.780   9.428  0.1596  0.6657 -0.1599
  127MPD2    C5 1940   1.721   1.732   9.315  0.1803  0.0974  0.1011
  127MPD2     H 1941   1.582   1.502   9.584  1.5926 -0.2046 -0.5341
  127MPD2    H1 1942   1.649   1.888   9.429  1.2956  0.7386  1.6647
  127MPD2    H2 1943   1.827   1.576   9.237  2.0113  2.2909  1.1372
  127MPD2    H3 1944   1.752   1.807   9.243  1.6717  1.2344  1.9164
  127MPD2     N 1945   1.569   1.747   9.647  0.3969  0.1933  0.0400
  127MPD2    H5 1946   1.531   1.682   9.716  0.6043  0.3705  0.3245
  127MPD2    N1 1947   1.757   1.382   9.398  0.6175  0.3707 -0.2762
  127MPD2    H7 1948   1.838   1.366   9.338 -0.7373  0.0805 -2.0460
  128TCq2    C1 1949   1.705   1.285   9.479 -0.6008 -0.3333 -0.5987
  128TCq2    O2 1950   1.593   1.276   9.523 -1.1716 -0.7608  0.2862
  128TCq2    C2 1951   1.785   1.164   9.492 -0.0473  0.2712  0.1591
  128TCq2    C3 1952   1.920   1.163   9.486 -1.0614  0.4796  0.3480
  128TCq2    C4 1953   1.995   1.050   9.514 -0.7291 -0.3840  0.0642
  128TCq2    C5 1954   1.939   0.941   9.560 -0.0014  0.0598  0.0330
  128TCq2    C6 1955   1.801   0.935   9.563 -1.0280 -0.0326 -0.1044
  128TCq2    C7 1956   1.726   1.047   9.543 -0.5989 -0.0319 -0.1330
  128TCq2    C8 1957   1.738   0.818   9.621  0.2453 -0.0488 -0.2229
  128TCq2    O4 1958   1.804   0.714   9.631  0.0280  0.2319  0.2468
  128TCq2    C9 1959   2.140   1.065   9.514  0.2098 -0.2316  0.2798
  128TCq2    O5 1960   2.188   1.133   9.419 -0.6773 -0.0346  0.5406
  128TCq2    O6 1961   2.205   1.028   9.618  0.4474  0.2903 -1.0289
  128TCq2    H2 1962   1.970   1.254   9.456 -1.5175 -0.3479 -2.9641
  128TCq2    H3 1963   2.001   0.859   9.594 -0.1817 -0.6256 -1.2678
  128TCq2    H4 1964   1.617   1.046   9.541 -0.5873 -0.3926 -0.8881
  129MPD2     C 1965   3.686   2.598   1.602  0.3942 -0.3912 -0.3065
  129MPD2    C1 1966   3.816   2.537   1.595  0.1366 -0.4951 -0.6877
  129MPD2    C2 1967   3.905   2.581   1.508  0.2436 -0.6502 -0.7456
  129MPD2    C3 1968   3.882   2.698   1.428 -0.4349  0.4532 -0.4250
  129MPD2    C4 1969   3.763   2.766   1.442  0.8534  0.0682  0.2701
  129MPD2    C5 1970   3.668   2.712   1.532 -0.4863  0.7953  0.1583
  129MPD2     H 1971   4.001   2.533   1.491  0.2377 -1.5367  1.6571
  129MPD2    H1 1972   3.744   2.859   1.391  2.2655 -0.3964 -1.0980
  129MPD2    H2 1973   3.600   2.575   1.664  0.2064 -0.6142 -0.6520
  129MPD2    H3 1974   3.573   2.763   1.543  0.5561  2.5867  0.8604
  129MPD2     N 1975   3.993   2.741   1.354 -0.0474  0.2311 -0.4390
  129MPD2    H5 1976   4.078   2.691   1.378 -0.3065  0.3371  0.7080
  129MPD2    N1 1977   3.844   2.427   1.681 -0.2264 -0.1494 -0.4504
  129MPD2    H7 1978   3.927   2.375   1.650 -0.0284  1.0148 -1.8717
  130TCq2    C1 1979   3.770   2.369   1.783  0.0082  0.5242 -0.3927
  130TCq2    O2 1980   3.671   2.414   1.837  0.3271  0.2130  0.2985
  130TCq2    C2 1981   3.827   2.244   1.832 -0.3550  0.3189 -0.1001
  130TCq2    C3 1982   3.962   2.220   1.846  0.3246  0.0920  0.6567
  130TCq2    C4 1983   4.014   2.117   1.920  0.5572 -0.1036  0.3609
  130TCq2    C5 1984   3.923   2.022   1.973  0.2432 -0.1375 -0.2705
  130TCq2    C6 1985   3.790   2.052   1.961 -0.1569  0.7808  0.5760
  130TCq2    C7 1986   3.735   2.159   1.883 -0.3410  0.3076  0.0293
  130TCq2    C8 1987   3.689   1.988   2.050 -0.0309 -0.1737  0.3915
  130TCq2    O4 1988   3.576   1.991   2.008  0.2746  0.0018  0.1498
  130TCq2    C9 1989   4.158   2.104   1.932 -0.3415  0.2059  0.4375
  130TCq2    O5 1990   4.202   2.009   2.000 -0.0043 -0.1798 -0.5503
  130TCq2    O6 1991   4.229   2.157   1.843  0.2622  0.0638  0.8977
  130TCq2    H2 1992   4.034   2.280   1.792 -1.7850  1.2654 -0.8519
  130TCq2    H3 1993   3.961   1.934   2.024  4.6333 -0.1591 -3.4679
  130TCq2    H4 1994   3.628   2.176   1.874 -0.9846 -2.9762  1.3232
  131MPD2     C 1995   3.259   1.656   9.472  0.2114 -0.6308 -0.2797
  131MPD2    C1 1996   3.276   1.609   9.605 -0.5352 -0.5931 -0.3450
  131MPD2    C2 1997   3.190   1.514   9.656 -0.2146  0.0407  0.1727
  131MPD2    C3 1998   3.095   1.459   9.579  0.4831 -0.0328 -0.2174
  131MPD2    C4 1999   3.066   1.514   9.459 -1.3785  0.2189 -0.9234
  131MPD2    C5 2000   3.147   1.612   9.408 -1.1199  0.4720  0.2875
  131MPD2     H 2001   3.189   1.470   9.755  0.6125  0.9672  0.5887
  131MPD2    H1 2002   2.999   1.461   9.391  0.5693  0.5420 -3.0717
  131MPD2    H2 2003   3.326   1.720   9.417 -0.5497  0.5993  0.2133
  131MPD2    H3 2004   3.130   1.653   9.309  1.5338 -0.9947 -0.7660
  131MPD2     N 2005   3.036   1.341   9.633 -0.2340 -0.3834 -0.3158
  131MPD2    H5 2006   3.070   1.316   9.725  1.7152  0.6108 -0.7718
  131MPD2    N1 2007   3.382   1.672   9.679 -0.0868 -0.3343 -0.7000
  131MPD2    H7 2008   3.437   1.744   9.632 -1.1655  0.3516 -0.9243
  132TCq2    C1 2009   3.776   1.803  10.092 -0.2772  0.2766  0.1810
  132TCq2    O2 2010   3.800   1.683  10.115 -0.7937 -0.5395  0.5342
  132TCq2    C2 2011   3.657   1.833  10.013 -0.2462 -0.5812 -0.1457
  132TCq2    C3 2012   3.629   1.965   9.973 -0.1536 -0.1412 -0.5968
  132TCq2    C4 2013   3.533   1.987   9.884  0.8634  0.1150 -0.4788
  132TCq2    C5 2014   3.475   1.882   9.814 -0.5851  0.0697 -0.1835
  132TCq2    C6 2015   3.497   1.755   9.868 -0.1689 -0.4031 -0.6669
  132TCq2    C7 2016   3.598   1.721   9.954 -0.0663 -1.1756  0.7873
  132TCq2    C8 2017   3.424   1.639   9.803  0.1176  0.2708  0.2178
  132TCq2    O4 2018   3.406   1.538   9.875  0.5066  0.2007 -0.3204
  132TCq2    C9 2019   3.502   2.123   9.844 -0.4531 -0.8041  0.5957
  132TCq2    O5 2020   3.569   2.214   9.894  0.0464 -0.2929 -0.3976
  132TCq2    O6 2021   3.391   2.133   9.791 -0.3743 -0.3590  0.1811
  132TCq2    H2 2022   3.683   2.050  10.012  0.9727 -1.1429  0.0574
  132TCq2    H3 2023   3.395   1.907   9.745  0.2167  0.8249 -0.8372
  132TCq2    H4 2024   3.617   1.621   9.993  3.8815 -0.3720  0.9191
  133MPD2     C 2025   2.490   1.504   9.463 -0.5306  0.4249 -0.2766
  133MPD2    C1 2026   2.476   1.644   9.459  0.5056  0.2318 -0.2952
  133MPD2    C2 2027   2.574   1.726   9.511  0.5667  0.1129  0.1212
  133MPD2    C3 2028   2.699   1.676   9.558 -0.5233 -0.0707 -0.1796
  133MPD2    C4 2029   2.716   1.538   9.549 -0.2119 -0.4447 -0.5852
  133MPD2    C5 2030   2.615   1.455   9.502  0.1488  0.3348  0.2862
  133MPD2     H 2031   2.563   1.834   9.506  1.8040  0.2610  0.5505
  133MPD2    H1 2032   2.799   1.492   9.602  0.5994  3.5732  1.6390
  133MPD2    H2 2033   2.407   1.440   9.432  0.3278  0.2720 -2.2363
  133MPD2    H3 2034   2.632   1.348   9.498  3.8837  0.8577  1.6291
  133MPD2     N 2035   2.805   1.758   9.604  0.5159  0.0909  0.4817
  133MPD2    H5 2036   2.891   1.711   9.630  0.1366  0.0655  1.6853
  133MPD2    N1 2037   2.350   1.694   9.420 -0.5001 -0.1477 -0.4089
  133MPD2    H7 2038   2.276   1.630   9.391 -0.3843 -0.3188 -0.3251
  134TCq2    C1 2039   2.310   1.830   9.423 -0.1389 -0.5107  0.7715
  134TCq2    O2 2040   2.368   1.932   9.446  0.6600  0.8449 -0.2202
  134TCq2    C2 2041   2.187   1.847   9.351  0.1286 -0.5779  0.4953
  134TCq2    C3 2042   2.149   1.757   9.256 -0.2829  0.3138  0.1219
  134TCq2    C4 2043   2.055   1.800   9.167  0.2057 -0.6484 -0.3440
  134TCq2    C5 2044   1.999   1.922   9.160 -0.8314 -0.6549 -0.6479
  134TCq2    C6 2045   2.047   2.003   9.256  0.6732 -0.0701  0.2171
  134TCq2    C7 2046   2.126   1.970   9.355  0.5763 -0.0542  0.1525
  134TCq2    C8 2047   1.998   2.140   9.265  0.9585 -0.3518 -0.0013
  134TCq2    O4 2048   2.066   2.228   9.321 -0.4936 -0.2996 -0.4764
  134TCq2    C9 2049   2.014   1.689   9.067 -0.2234 -0.1838  0.2296
  134TCq2    O5 2050   1.923   1.720   8.990 -0.2663  0.2275 -0.0423
  134TCq2    O6 2051   2.068   1.578   9.082  0.1012  0.4825  0.4548
  134TCq2    H2 2052   2.194   1.661   9.236  1.5312  1.7116 -2.5154
  134TCq2    H3 2053   1.928   1.955   9.085  1.0674  2.6754 -0.9515
  134TCq2    H4 2054   2.160   2.040   9.431 -2.5612 -2.2582  3.6232
  135MPD2     C 2055   0.463   3.166   9.185 -0.1226  0.3560 -0.0468
  135MPD2    C1 2056   0.553   3.118   9.269 -0.7801  0.2022 -0.5246
  135MPD2    C2 2057   0.633   3.016   9.231 -0.0298 -0.2529 -0.6860
  135MPD2    C3 2058   0.625   2.956   9.100 -0.5115 -0.1675 -0.1086
  135MPD2    C4 2059   0.525   3.005   9.016  0.0776  0.2508 -0.6971
  135MPD2    C5 2060   0.454   3.114   9.059  0.0754 -0.2567 -0.4116
  135MPD2     H 2061   0.711   2.984   9.298  0.1481 -0.7591 -1.1327
  135MPD2    H1 2062   0.487   2.949   8.931  0.1162 -0.1033 -0.4817
  135MPD2    H2 2063   0.396   3.248   9.212 -1.4960 -1.0354  0.7713
  135MPD2    H3 2064   0.377   3.163   9.001  0.1672 -0.4652 -0.7104
  135MPD2     N 2065   0.707   2.848   9.053  0.1983 -0.4220  0.2231
  135MPD2    H5 2066   0.687   2.809   8.961 -1.9522  0.8839  0.1227
  135MPD2    N1 2067   0.565   3.158   9.405 -0.1226 -0.4803  0.2833
  135MPD2    H7 2068   0.626   3.101   9.462 -0.1601 -1.1470 -0.3323
  136TCq2    C1 2069   0.485   3.243   9.470  0.1784  0.0255  0.9856
  136TCq2    O2 2070   0.389   3.305   9.429 -0.5492 -0.3912  0.3230
  136TCq2    C2 2071   0.490   3.221   9.609  0.1634 -0.5247  0.3645
  136TCq2    C3 2072   0.372   3.253   9.674 -0.6242 -0.0187  0.2902
  136TCq2    C4 2073   0.354   3.212   9.803  0.7435  0.3746  0.7105
  136TCq2    C5 2074   0.453   3.144   9.869 -0.1312 -0.1260  0.4142
  136TCq2    C6 2075   0.567   3.103   9.796  0.1556 -0.7760 -0.4398
  136TCq2    C7 2076   0.587   3.144   9.670  0.5679  0.8793  0.1332
  136TCq2    C8 2077   0.649   3.000   9.849 -0.6461  0.4856 -0.8770
  136TCq2    O4 2078   0.765   2.982   9.807 -0.1156  0.0573  0.4921
  136TCq2    C9 2079   0.227   3.228   9.868  0.3294  0.4824  0.0957
  136TCq2    O5 2080   0.224   3.174   9.983 -0.0102  0.2544 -0.2547
  136TCq2    O6 2081   0.134   3.266   9.793 -0.0500 -0.0502  0.6349
  136TCq2    H2 2082   0.292   3.311   9.628  0.1105  1.5612  0.9847
  136TCq2    H3 2083   0.437   3.117   9.973  1.1051 -0.7921  0.4237
  136TCq2    H4 2084   0.677   3.111   9.619  0.4901 -1.3125  1.4192
  137MPD2     C 2085   0.661   1.681  10.098  0.1920  0.0164  0.9900
  137MPD2    C1 2086   0.668   1.805  10.153 -0.4505  0.7365  0.6279
  137MPD2    C2 2087   0.653   1.813  10.294  1.0655 -0.6693  0.0386
  137MPD2    C3 2088   0.649   1.700  10.373 -0.8709 -0.3374  0.5134
  137MPD2    C4 2089   0.668   1.576  10.311  0.2218  0.3432  0.7035
  137MPD2    C5 2090   0.680   1.567  10.176  0.4245 -0.1584  0.5368
  137MPD2     H 2091   0.644   1.910  10.342 -0.6685  0.1743 -1.9948
  137MPD2    H1 2092   0.691   1.486  10.368  1.5004  0.5404  0.5125
  137MPD2    H2 2093   0.675   1.674   9.991  0.1463  0.6580  0.9383
  137MPD2    H3 2094   0.696   1.469  10.132 -1.8633  0.1606 -0.9857
  137MPD2     N 2095   0.646   1.721  10.516  0.0681 -0.6834  0.1149
  137MPD2    H5 2096   0.628   1.816  10.548  0.2638  0.0498 -1.8842
  137MPD2    N1 2097   0.677   1.919  10.068  0.1615 -0.4576  0.2366
  137MPD2    H7 2098   0.699   1.901   9.970 -3.0395  2.3210 -0.9793
  138TCq2    C1 2099   0.649   2.046  10.109  0.2940 -0.0680 -0.9238
  138TCq2    O2 2100   0.591   2.087  10.212  0.4462  0.4274 -0.2028
  138TCq2    C2 2101   0.683   2.148  10.010  0.4497 -0.1950 -0.4288
  138TCq2    C3 2102   0.792   2.119   9.933  0.1849 -0.2895 -0.0910
  138TCq2    C4 2103   0.818   2.209   9.833  0.7099  0.0799  0.2736
  138TCq2    C5 2104   0.733   2.310   9.807 -0.2608 -0.0192 -0.2847
  138TCq2    C6 2105   0.621   2.329   9.877  0.3954  0.0743 -0.1027
  138TCq2    C7 2106   0.596   2.257   9.989  0.6286 -0.4465 -0.6864
  138TCq2    C8 2107   0.542   2.450   9.840 -0.4323 -0.0038  0.2060
  138TCq2    O4 2108   0.579   2.514   9.741  0.1091 -0.3258 -0.1111
  138TCq2    C9 2109   0.916   2.178   9.734 -0.1422  0.4921 -0.0822
  138TCq2    O5 2110   0.927   2.268   9.642  0.0448 -0.3677  0.4925
  138TCq2    O6 2111   0.988   2.078   9.749 -0.4385  0.4143  0.3348
  138TCq2    H2 2112   0.847   2.025   9.930  0.8299  0.0700  0.5669
  138TCq2    H3 2113   0.748   2.368   9.716  1.5607  1.2675  0.8507
  138TCq2    H4 2114   0.508   2.273  10.051 -0.6942 -2.2823 -2.0971
  139TMC2    C1 2115   0.519   0.678  13.552 -0.2090  0.1806  0.1872
  139TMC2    C2 2116   0.565   0.764  13.454 -0.0518 -1.0220  0.0434
  139TMC2    C3 2117   0.596   0.889  13.495  0.5112  0.4868 -0.0811
  139TMC2    C4 2118   0.484   0.719  13.670  0.0210  0.0446 -0.2736
  139TMC2    C5 2119   0.508   0.853  13.704 -0.4345  0.7205  0.2511
  139TMC2    C6 2120   0.565   0.938  13.616 -0.3065  0.4812  0.1995
  139TMC2     C 2121   0.542   0.540  13.529  0.2311 -0.0132 -0.4735
  139TMC2     O 2122   0.555   0.510  13.411  0.2705 -0.0811  0.1815
  139TMC2     H 2123   0.593   0.735  13.353  0.1897 -0.1289 -0.1456
  139TMC2    H1 2124   0.446   0.656  13.751  0.3023  0.4996  0.2104
  139TMC2    H2 2125   0.602   1.036  13.645  1.0700 -0.5222  1.7851
  139TMC2    C7 2126   0.477   0.887  13.843  0.2966  0.1998  0.2141
  139TMC2    C8 2127   0.654   0.975  13.395  0.2921 -0.2520  0.2910
  139TMC2    O1 2128   0.492   0.793  13.923  0.0443 -0.0485 -0.5240
  139TMC2    O2 2129   0.643   0.961  13.275 -0.7631  0.0555 -0.2001
  139TMC2    O5 2130   0.764   1.028  13.447  0.8161 -0.4761  0.3214
  139TMC2    H5 2131   0.764   1.024  13.545  2.3636  1.3372  0.3876
  140MPD2     C 2132   0.704   0.268  13.689  0.0777  0.0973 -0.1629
  140MPD2    C1 2133   0.612   0.332  13.610  0.5566  0.2219 -0.1024
  140MPD2    C2 2134   0.538   0.256  13.521 -0.0260  0.2622  0.1002
  140MPD2    C3 2135   0.560   0.123  13.507  0.1944 -0.1882  0.3592
  140MPD2    C4 2136   0.666   0.068  13.570 -0.1796  0.1316  0.2678
  140MPD2    C5 2137   0.740   0.141  13.660 -1.0487  0.0923 -0.3572
  140MPD2     H 2138   0.473   0.308  13.451  0.7755  2.0505  0.6811
  140MPD2    H1 2139   0.693   4.688  13.554 -2.2084 -0.3337 -0.1198
  140MPD2    H2 2140   0.755   0.322  13.768 -0.7870  0.2979  0.2596
  140MPD2    H3 2141   0.825   0.109  13.718  0.7833  1.9953 -2.0011
  140MPD2     N 2142   0.480   0.055  13.409 -0.1522 -0.0482 -0.3398
  140MPD2    H5 2143   0.406   0.111  13.368  1.1546  0.9361 -1.3802
  140MPD2    N1 2144   0.590   0.467  13.632  0.2786  0.0682 -0.2217
  140MPD2    H7 2145   0.630   0.504  13.717 -1.4947 -0.7807  0.9966
  141TCq2    C1 2146   1.153   1.702  14.349 -0.1714 -0.1813 -0.1934
  141TCq2    O2 2147   1.130   1.819  14.323 -0.0338  0.3925 -0.0295
  141TCq2    C2 2148   1.255   1.682  14.454 -0.6688 -0.1685  0.3068
  141TCq2    C3 2149   1.240   1.566  14.526 -0.6763 -0.2311 -0.1266
  141TCq2    C4 2150   1.309   1.564  14.647 -0.3295 -0.4395 -0.0347
  141TCq2    C5 2151   1.365   1.672  14.703  0.4419  1.0708  0.0099
  141TCq2    C6 2152   1.381   1.785  14.624 -0.0920  0.1138 -0.2004
  141TCq2    C7 2153   1.318   1.796  14.504 -0.7879  0.6136  0.6209
  141TCq2    C8 2154   1.377   1.916  14.698 -0.4478  0.8076 -0.2197
  141TCq2    O4 2155   1.341   2.008  14.629 -0.1239 -0.2981  0.3351
  141TCq2    C9 2156   1.299   1.440  14.722 -0.2402  0.4512  0.3215
  141TCq2    O5 2157   1.306   1.455  14.849 -0.6610 -0.0544  0.2189
  141TCq2    O6 2158   1.255   1.340  14.666 -0.0451 -0.2264 -0.4081
  141TCq2    H2 2159   1.197   1.475  14.487  1.4330 -1.8631  1.4105
  141TCq2    H3 2160   1.403   1.676  14.805 -0.4803  0.6968  0.3747
  141TCq2    H4 2161   1.338   1.879  14.437 -1.3694 -0.6971 -1.1709
  142MPD2     C 2162   3.432   4.478  10.595  0.0867  0.3088  0.1891
  142MPD2    C1 2163   3.358   4.401  10.501 -0.1667  0.3460 -0.6160
  142MPD2    C2 2164   3.358   4.447  10.369  0.1262  0.3733 -0.5210
  142MPD2    C3 2165   3.400   4.576  10.334  0.0464  0.1228  0.0739
  142MPD2    C4 2166   3.446   4.657  10.437  0.2605 -0.1435  0.8521
  142MPD2    C5 2167   3.458   4.609  10.559  0.3274 -0.5828  0.3543
  142MPD2     H 2168   3.331   4.381  10.288 -0.1212 -0.4505  0.2279
  142MPD2    H1 2169   3.464   0.040  10.431 -1.1138  0.0736  0.5183
  142MPD2    H2 2170   3.428   4.457  10.701 -2.8288  0.6235  0.1568
  142MPD2    H3 2171   3.496   4.678  10.633  0.0410 -0.5941  0.5086
  142MPD2     N 2172   3.397   4.631  10.204 -0.0699  0.6600  0.0991
  142MPD2    H5 2173   3.436   0.001  10.204 -1.2098  1.1317  0.1349
  142MPD2    N1 2174   3.296   4.280  10.555  0.2231  0.0338 -0.2365
  142MPD2    H7 2175   3.301   4.264  10.655 -0.3558 -1.4724 -0.4591
  143TCq2    C1 2176   3.335   4.578  10.096 -0.7802 -0.3089 -0.6870
  143TCq2    O2 2177   3.264   4.476  10.081  0.2475  0.0551  0.3554
  143TCq2    C2 2178   3.351   4.663   9.976 -0.4927 -0.8875  0.7075
  143TCq2    C3 2179   3.461   0.016   9.951  0.0455  0.0375 -0.0587
  143TCq2    C4 2180   3.474   0.080   9.831 -0.2576 -0.2874 -0.1190
  143TCq2    C5 2181   3.392   0.057   9.723 -0.0354 -0.6909  0.5303
  143TCq2    C6 2182   3.300   4.676   9.745 -0.4438 -0.1189 -0.1544
  143TCq2    C7 2183   3.271   4.630   9.873  0.7616  0.5193  0.2780
  143TCq2    C8 2184   3.186   4.676   9.659 -0.0138 -0.1343 -0.3580
  143TCq2    O4 2185   3.154   0.053   9.605  0.7271 -0.2356 -0.2229
  143TCq2    C9 2186   3.576   0.185   9.822  0.1722 -0.0296 -0.4028
  143TCq2    O5 2187   3.664   0.198   9.908 -0.2024 -0.3972  0.2818
  143TCq2    O6 2188   3.566   0.263   9.725 -0.9813 -0.1121  0.5294
  143TCq2    H2 2189   3.520   0.044  10.038 -0.9151  1.7828  0.0422
  143TCq2    H3 2190   3.387   0.113   9.631  0.9733 -0.6708  0.4825
  143TCq2    H4 2191   3.189   4.559   9.880 -0.6717  2.1916  0.2202
  144MPD2     C 2192   1.314   4.549   1.002  0.0014 -0.0533  0.7787
  144MPD2    C1 2193   1.371   4.462   0.914  0.0922 -0.4731  0.7203
  144MPD2    C2 2194   1.507   4.450   0.923  0.1444 -0.1264  0.0064
  144MPD2    C3 2195   1.583   4.515   1.021  0.4448 -0.3997  0.3264
  144MPD2    C4 2196   1.522   4.598   1.112 -0.5925 -0.1502 -0.1836
  144MPD2    C5 2197   1.383   4.615   1.101  1.0733 -0.2076  0.7994
  144MPD2     H 2198   1.556   4.393   0.845 -0.2006 -1.7581  0.9621
  144MPD2    H1 2199   1.578   4.640   1.195 -0.0196  1.3970 -1.3506
  144MPD2    H2 2200   1.205   4.556   1.001  0.2012  2.7429  0.1682
  144MPD2    H3 2201   1.333   4.686   1.166 -3.0567 -1.8613 -0.5634
  144MPD2     N 2202   1.724   4.502   1.026  0.7014 -0.8044  0.7627
  144MPD2    H5 2203   1.776   4.561   1.088  1.8441  0.6517 -1.5750
  144MPD2    N1 2204   1.300   4.372   0.826  0.1066  0.0230 -0.0679
  144MPD2    H7 2205   1.351   4.302   0.772  0.0183  0.3532 -0.5856
  145TCq2    C1 2206   1.806   4.420   0.956  0.1823 -0.4218  0.1515
  145TCq2    O2 2207   1.782   4.336   0.868  0.1520  0.2343 -0.2298
  145TCq2    C2 2208   1.944   4.457   0.983 -0.4703 -0.1258 -0.2163
  145TCq2    C3 2209   2.032   4.419   0.881 -0.1716  0.6581 -0.2789
  145TCq2    C4 2210   2.159   4.456   0.907  0.8277  0.2585 -0.6594
  145TCq2    C5 2211   2.196   4.547   1.004  0.8021 -0.4744  0.1833
  145TCq2    C6 2212   2.105   4.581   1.098  0.4022 -0.4265  0.3807
  145TCq2    C7 2213   1.975   4.541   1.085  0.3564 -0.0078  0.6175
  145TCq2    C8 2214   2.152   4.664   1.206 -0.6019 -0.1739  0.6921
  145TCq2    O4 2215   2.268   4.645   1.233  0.2294 -0.1854 -0.4592
  145TCq2    C9 2216   2.260   4.390   0.827 -0.0333  0.0128 -0.1372
  145TCq2    O5 2217   2.370   4.455   0.819  0.1221 -0.2421 -0.0169
  145TCq2    O6 2218   2.230   4.286   0.770  0.1989 -0.0948  0.3382
  145TCq2    H2 2219   2.010   4.336   0.814 -2.5358  2.3838 -1.6158
  145TCq2    H3 2220   2.302   4.570   1.009  1.5153 -3.4793 -1.2744
  145TCq2    H4 2221   1.922   4.556   1.179  1.0092  1.2219  0.7925
  146TMC2    C1 2222   2.876   3.001  12.388 -0.3962  0.1043  0.2050
  146TMC2    C2 2223   2.871   3.049  12.261 -0.2392 -0.6856 -0.3530
  146TMC2    C3 2224   2.955   2.998  12.167  0.4678  0.3196  0.3760
  146TMC2    C4 2225   2.955   2.891  12.411 -0.2964 -0.2958  0.3671
  146TMC2    C5 2226   3.046   2.850  12.314 -0.4440  0.3926 -0.1122
  146TMC2    C6 2227   3.042   2.897  12.191  0.0033 -0.1525 -0.4412
  146TMC2     C 2228   2.771   3.047  12.474 -0.4989 -0.0455  0.7304
  146TMC2     O 2229   2.668   3.101  12.425  0.5071 -0.0159  0.6254
  146TMC2     H 2230   2.811   3.138  12.245 -2.9705 -2.6857 -1.2272
  146TMC2    H1 2231   2.964   2.838  12.505  1.2504 -0.9203 -0.1223
  146TMC2    H2 2232   3.129   2.884  12.126  0.4055 -1.1904  0.3072
  146TMC2    C7 2233   3.158   2.754  12.344 -0.8855 -0.3659  0.1014
  146TMC2    C8 2234   2.948   3.055  12.042  0.3840 -0.0193  0.0601
  146TMC2    O1 2235   3.238   2.740  12.258 -0.2144 -0.0513 -0.3735
  146TMC2    O2 2236   2.969   3.174  12.024  0.5626  0.1500 -0.0602
  146TMC2    O5 2237   2.881   2.967  11.967 -0.1293 -0.0324 -0.1808
  146TMC2    H5 2238   2.848   2.882  12.003 -1.5283  0.2632 -0.8015
  147MPD2     C 2239   3.487   2.559  12.709  0.0770 -0.0235 -0.9660
  147MPD2    C1 2240   3.370   2.605  12.770  0.0871 -0.1247  0.4818
  147MPD2    C2 2241   3.263   2.647  12.689  0.2381  0.7317  0.0894
  147MPD2    C3 2242   3.277   2.653  12.550  0.2538 -0.1294  0.1198
  147MPD2    C4 2243   3.396   2.616  12.495 -0.0490  0.5979  0.4678
  147MPD2    C5 2244   3.500   2.568  12.569 -0.1047 -0.3714  0.3029
  147MPD2     H 2245   3.169   2.674  12.735  0.1231  0.3366  0.0858
  147MPD2    H1 2246   3.416   2.638  12.390 -2.5753 -1.1463 -0.3965
  147MPD2    H2 2247   3.571   2.535  12.773 -0.7690  0.0479  0.1742
  147MPD2    H3 2248   3.590   2.546  12.512 -0.4198 -1.5069  0.2464
  147MPD2     N 2249   3.163   2.701  12.475  0.6320  0.0231 -0.4357
  147MPD2    H5 2250   3.079   2.705  12.531  0.2578 -0.1152 -0.9962
  147MPD2    N1 2251   3.370   2.612  12.911 -0.2443  0.6641  0.9210
  147MPD2    H7 2252   3.460   2.588  12.951 -0.3300 -1.8057 -0.3906
  148MPD2     C 2253   3.505   1.772  10.745 -0.6003  0.6952  0.6482
  148MPD2    C1 2254   3.497   1.644  10.698  0.7263 -0.6666 -0.1476
  148MPD2    C2 2255   3.375   1.600  10.650 -0.0671 -0.4819 -1.0359
  148MPD2    C3 2256   3.265   1.688  10.647  0.1950 -0.0514  0.1690
  148MPD2    C4 2257   3.279   1.817  10.681  0.4115  0.4483 -0.1199
  148MPD2    C5 2258   3.395   1.861  10.738 -0.7645  0.5454  0.4749
  148MPD2     H 2259   3.368   1.496  10.619  1.0061 -0.9209  0.1729
  148MPD2    H1 2260   3.195   1.886  10.684  0.2216  0.1594  1.0651
  148MPD2    H2 2261   3.600   1.812  10.777  0.6866 -1.5592 -0.3480
  148MPD2    H3 2262   3.400   1.963  10.774  0.7996  0.5500  0.2574
  148MPD2     N 2263   3.134   1.645  10.598 -0.3937  0.1442 -0.1024
  148MPD2    H5 2264   3.069   1.719  10.574 -1.3898  0.0420  2.2556
  148MPD2    N1 2265   3.597   1.549  10.711 -0.4693  0.5552 -0.3962
  148MPD2    H7 2266   3.583   1.457  10.670  1.4007 -1.4087  3.2968
  149TCq2    C1 2267   3.714   1.565  10.789  0.8076  0.2365  0.2585
  149TCq2    O2 2268   3.755   1.668  10.851 -0.0484 -0.6149 -0.3668
  149TCq2    C2 2269   3.811   1.459  10.748  0.3154 -0.6682 -0.1870
  149TCq2    C3 2270   3.944   1.490  10.737 -0.2559  0.5047 -0.3855
  149TCq2    C4 2271   4.028   1.395  10.694 -0.0293  1.0371 -0.4275
  149TCq2    C5 2272   3.988   1.266  10.698 -0.3713  1.2007  0.9480
  149TCq2    C6 2273   3.860   1.233  10.699 -0.3544  0.5827 -0.3583
  149TCq2    C7 2274   3.770   1.328  10.725  0.7328  0.1772  0.2556
  149TCq2    C8 2275   3.813   1.109  10.632 -0.2025  0.2542 -0.2386
  149TCq2    O4 2276   3.697   1.083  10.661 -0.1462  0.2153  0.2311
  149TCq2    C9 2277   4.169   1.418  10.700  0.6352  0.1115 -0.5620
  149TCq2    O5 2278   4.203   1.521  10.766  0.1728  0.2019 -0.4464
  149TCq2    O6 2279   4.241   1.318  10.671 -0.3303 -0.0256 -0.0392
  149TCq2    H2 2280   3.974   1.593  10.752  1.6294 -0.1518  0.3188
  149TCq2    H3 2281   4.066   1.191  10.710 -4.2517 -3.0630 -0.7006
  149TCq2    H4 2282   3.665   1.305  10.737  0.6616  0.2552 -0.2179
  150MPD2     C 2283   0.138   1.223  12.290 -0.4610  0.1664  0.3131
  150MPD2    C1 2284   0.057   1.323  12.334 -0.1026 -0.5210  0.7502
  150MPD2    C2 2285   0.112   1.403  12.435  0.7951 -0.1733 -0.0365
  150MPD2    C3 2286   0.242   1.381  12.478 -0.0946  0.4568 -0.2082
  150MPD2    C4 2287   0.323   1.277  12.421 -0.0461 -0.0299  0.1755
  150MPD2    C5 2288   0.267   1.195  12.330 -0.0844  0.4213  0.3232
  150MPD2     H 2289   0.060   1.484  12.485  3.3755  1.1423  0.5155
  150MPD2    H1 2290   0.428   1.267  12.444  0.2412 -0.6019 -1.3786
  150MPD2    H2 2291   0.094   1.165  12.210 -1.4784 -0.5839  1.4227
  150MPD2    H3 2292   0.336   1.128  12.281  1.7496  2.0236  0.7069
  150MPD2     N 2293   0.284   1.463  12.588 -0.3817  0.1814  0.0796
  150MPD2    H5 2294   0.215   1.529  12.621  0.6111  0.7155  1.0525
  150MPD2    N1 2295   4.656   1.343  12.268  0.1619 -0.2374  0.2336
  150MPD2    H7 2296   4.620   1.268  12.211  1.2169  1.1076 -2.2062
  151TCq2    C1 2297   0.405   1.451  12.649 -0.1807  0.3605  0.3221
  151TCq2    O2 2298   0.505   1.391  12.616  0.3151  0.2101 -0.0831
  151TCq2    C2 2299   0.426   1.546  12.756 -0.9275  0.0863  0.3349
  151TCq2    C3 2300   0.320   1.624  12.803  0.1281  0.1313  0.5882
  151TCq2    C4 2301   0.342   1.686  12.922  0.1850  0.1326  0.0649
  151TCq2    C5 2302   0.463   1.682  12.982 -0.5086 -0.2339  0.3235
  151TCq2    C6 2303   0.568   1.605  12.933  0.0052  0.3997 -0.0273
  151TCq2    C7 2304   0.550   1.536  12.821  0.5768 -0.4635 -0.3659
  151TCq2    C8 2305   0.700   1.604  12.989  0.2055  0.2781  0.1992
  151TCq2    O4 2306   0.729   1.698  13.062 -0.6611  0.3540 -0.1327
  151TCq2    C9 2307   0.234   1.736  12.998  0.2564 -0.3540 -0.0482
  151TCq2    O5 2308   0.259   1.767  13.117 -0.3993  0.3544 -0.3475
  151TCq2    O6 2309   0.123   1.695  12.972 -0.1918 -0.1490 -0.0246
  151TCq2    H2 2310   0.220   1.624  12.760  0.8447 -1.4329 -1.0657
  151TCq2    H3 2311   0.481   1.729  13.078 -0.7961 -0.7013  0.6058
  151TCq2    H4 2312   0.635   1.482  12.780  0.1307 -1.7893  0.4534
  152MPD2     C 2313   4.655   0.620  12.617 -0.0675 -0.8080 -0.0347
  152MPD2    C1 2314   4.655   0.756  12.635  0.1109  0.2007 -0.1984
  152MPD2    C2 2315   4.538   0.808  12.684 -1.0266  0.0184 -0.5660
  152MPD2    C3 2316   4.428   0.730  12.696 -0.4623 -0.6932 -0.2154
  152MPD2    C4 2317   4.427   0.594  12.659 -0.0913 -0.0709 -0.1416
  152MPD2    C5 2318   4.543   0.537  12.628 -0.4811 -0.1039  0.0538
  152MPD2     H 2319   4.520   0.911  12.713 -0.3051 -1.0368  3.6168
  152MPD2    H1 2320   4.339   0.532  12.666  0.5583 -1.1844 -2.0490
  152MPD2    H2 2321   0.019   0.571  12.575  0.5148 -1.3204  1.7828
  152MPD2    H3 2322   4.565   0.432  12.616  0.6759  0.0792  0.5740
  152MPD2     N 2323   4.311   0.799  12.722 -0.5697 -0.0471  0.7046
  152MPD2    H5 2324   4.322   0.896  12.747 -0.6110 -0.5219  2.5505
  152MPD2    N1 2325   0.040   0.837  12.610  0.4027  0.5890  0.0436
  152MPD2    H7 2326   0.131   0.792  12.608  0.1412 -0.0353  1.9337
  153TCq2    C1 2327   0.034   0.973  12.614  0.4820  0.5877  0.0801
  153TCq2    O2 2328   4.662   1.044  12.615  0.0497 -0.5478 -0.0274
  153TCq2    C2 2329   0.161   1.022  12.656 -0.2451  1.1965  0.1706
  153TCq2    C3 2330   0.276   0.955  12.618  0.8503 -0.0819 -0.3100
  153TCq2    C4 2331   0.398   1.009  12.651 -0.5354 -0.0328 -0.4298
  153TCq2    C5 2332   0.404   1.113  12.746 -0.8185  0.8200 -0.5159
  153TCq2    C6 2333   0.290   1.169  12.795 -0.0241  0.3754 -0.0362
  153TCq2    C7 2334   0.167   1.129  12.744 -0.1550 -0.1300 -0.8169
  153TCq2    C8 2335   0.281   1.244  12.920 -0.9306 -0.2131  0.0596
  153TCq2    O4 2336   0.179   1.313  12.933  0.2453  0.5597 -0.2886
  153TCq2    C9 2337   0.513   0.971  12.575 -0.0853 -0.6953  0.0142
  153TCq2    O5 2338   0.504   0.882  12.485  0.2266  0.0432 -0.1787
  153TCq2    O6 2339   0.618   1.028  12.612  0.0505 -0.1194 -0.0209
  153TCq2    H2 2340   0.273   0.893  12.529 -3.9921 -0.8457  0.3602
  153TCq2    H3 2341   0.501   1.160  12.754 -0.9552  1.1759 -0.9555
  153TCq2    H4 2342   0.073   1.178  12.767 -0.3828 -0.7862 -0.3553
  154MPD2     C 2343   0.836   1.163   0.653  0.1029 -0.1255 -0.8609
  154MPD2    C1 2344   0.906   1.113   0.763  0.4844  0.2947 -0.0308
  154MPD2    C2 2345   0.842   1.024   0.844 -0.4289 -0.2628 -0.5340
  154MPD2    C3 2346   0.709   0.979   0.821 -0.5208  0.2815  0.4307
  154MPD2    C4 2347   0.645   1.042   0.717  0.0507 -0.7798 -0.3853
  154MPD2    C5 2348   0.702   1.147   0.644 -0.8746 -0.0859  0.1469
  154MPD2     H 2349   0.898   0.979   0.925  0.3137  0.7291 -0.4993
  154MPD2    H1 2350   0.539   1.027   0.700 -0.1852 -0.2665  0.6487
  154MPD2    H2 2351   0.887   1.239   0.595 -1.0262 -0.0615 -1.7837
  154MPD2    H3 2352   0.664   1.196   0.555  0.2586  1.0389  0.2824
  154MPD2     N 2353   0.646   0.892   0.904  0.1465  0.4047 -0.5863
  154MPD2    H5 2354   0.693   0.866   0.990 -2.4493  0.1318  0.7380
  154MPD2    N1 2355   1.038   1.154   0.770 -0.1054 -0.0066  0.4161
  154MPD2    H7 2356   1.065   1.213   0.692  0.0338 -0.5144  0.0786
  155TCq2    C1 2357   1.120   1.143   0.880 -0.3343 -0.4439  0.6834
  155TCq2    O2 2358   1.101   1.087   0.990 -0.5473 -0.2220  0.4494
  155TCq2    C2 2359   1.251   1.205   0.854 -0.3321 -0.5153  0.3520
  155TCq2    C3 2360   1.327   1.254   0.960  0.2024  0.2308  0.2594
  155TCq2    C4 2361   1.431   1.334   0.923 -0.5547 -0.0634  0.2813
  155TCq2    C5 2362   1.480   1.352   0.797  0.0315  0.8118  0.0079
  155TCq2    C6 2363   1.411   1.284   0.703 -0.9040 -0.3693  0.0210
  155TCq2    C7 2364   1.294   1.221   0.729  0.4894  0.4600 -0.4547
  155TCq2    C8 2365   1.446   1.293   0.559 -0.4354 -0.0073  0.2205
  155TCq2    O4 2366   1.383   1.217   0.484 -0.2793 -0.2974 -0.1706
  155TCq2    C9 2367   1.495   1.412   1.024  0.5305  0.1366 -0.3465
  155TCq2    O5 2368   1.599   1.480   0.999  1.0457  0.2697 -0.2014
  155TCq2    O6 2369   1.418   1.440   1.120 -0.2885 -0.1483  0.4998
  155TCq2    H2 2370   1.290   1.246   1.061 -0.1407  0.7444  0.1761
  155TCq2    H3 2371   1.551   1.431   0.775  1.2449 -1.6887 -5.0840
  155TCq2    H4 2372   1.245   1.164   0.651 -0.8727  0.3649  0.4860
  156MPD2     C 2373   4.173   3.208  11.749  0.5960  0.4364 -0.2643
  156MPD2    C1 2374   4.311   3.206  11.752 -0.0911 -0.3075 -0.0330
  156MPD2    C2 2375   4.377   3.207  11.871  0.1217 -0.4431 -0.1920
  156MPD2    C3 2376   4.312   3.227  11.987 -0.1427 -1.0075 -1.0377
  156MPD2    C4 2377   4.174   3.224  11.991 -0.0909 -0.3841  0.1537
  156MPD2    C5 2378   4.110   3.211  11.868  0.0457 -0.2398 -0.1205
  156MPD2     H 2379   4.485   3.205  11.866  0.1288 -1.3037  0.2715
  156MPD2    H1 2380   4.114   3.221  12.081 -1.0883  0.0244 -0.4976
  156MPD2    H2 2381   4.117   3.190  11.658  0.2632  0.3372 -0.0407
  156MPD2    H3 2382   4.006   3.183  11.876 -0.2932  1.7465  2.1746
  156MPD2     N 2383   4.385   3.266  12.099  0.4474  0.0350 -0.0330
  156MPD2    H5 2384   4.482   3.234  12.099  0.4165 -0.0542  0.6586
  156MPD2    N1 2385   4.388   3.223  11.630 -0.0042 -0.3058  0.2391
  156MPD2    H7 2386   4.486   3.251  11.640 -0.2966  0.2592  1.5925
  157TCq2    C1 2387   4.335   3.235  11.505 -0.4265  0.5937 -0.3452
  157TCq2    O2 2388   4.222   3.209  11.464 -0.0106  0.5472  0.6902
  157TCq2    C2 2389   4.442   3.282  11.414  0.7373  0.1575  0.5429
  157TCq2    C3 2390   4.577   3.271  11.447 -0.1992 -0.3072 -0.2338
  157TCq2    C4 2391   4.663   3.325  11.355  0.1563 -0.1921  0.1907
  157TCq2    C5 2392   4.620   3.401  11.252 -0.2439  0.5927  0.6694
  157TCq2    C6 2393   4.484   3.421  11.229 -0.6581  0.0424  0.5697
  157TCq2    C7 2394   4.392   3.366  11.319 -0.3777  0.3455  1.4111
  157TCq2    C8 2395   4.450   3.549  11.171  0.3243  0.3336 -0.1813
  157TCq2    O4 2396   4.540   3.616  11.127 -0.2915 -0.5036 -0.3817
  157TCq2    C9 2397   0.085   3.309  11.368 -0.4320  0.6679  0.1477
  157TCq2    O5 2398   0.141   3.300  11.253 -0.5566  0.4761 -0.2784
  157TCq2    O6 2399   0.129   3.264  11.476  0.0065  0.0081 -0.2724
  157TCq2    H2 2400   4.614   3.219  11.535  0.7754  0.4392 -0.2016
  157TCq2    H3 2401   4.692   3.448  11.185  2.1444 -1.1590  1.9985
  157TCq2    H4 2402   4.285   3.370  11.303 -0.1795 -0.7248 -0.0927
  158TMC2    C1 2403   0.806   2.376  14.284 -0.2061  0.7189 -0.8103
  158TMC2    C2 2404   0.855   2.503  14.283  0.2332 -0.0109 -0.2037
  158TMC2    C3 2405   0.791   2.599  14.210 -0.5845  0.4778  0.3426
  158TMC2    C4 2406   0.691   2.340  14.217  0.5452  0.1946 -0.1076
  158TMC2    C5 2407   0.614   2.443  14.167 -1.5062  0.2283 -0.1843
  158TMC2    C6 2408   0.669   2.570  14.152 -0.9158  0.3884  0.0071
  158TMC2     C 2409   0.893   2.273  14.346  0.6711  0.5067 -0.9849
  158TMC2     O 2410   0.993   2.308  14.404 -0.2403 -0.3634  0.2689
  158TMC2     H 2411   0.953   2.528  14.322  0.8132 -0.3364 -1.4306
  158TMC2    H1 2412   0.657   2.237  14.215 -1.9973  0.9906  1.4667
  158TMC2    H2 2413   0.602   2.648  14.117 -1.1572  0.7534  1.2873
  158TMC2    C7 2414   0.480   2.426  14.113  0.9896  0.8990 -1.1682
  158TMC2    C8 2415   0.874   2.701  14.152 -0.2660 -0.2510  0.3000
  158TMC2    O1 2416   0.427   2.516  14.051  0.3119  0.2397 -0.5358
  158TMC2    O2 2417   0.987   2.721  14.200 -0.0686  0.0430 -0.2211
  158TMC2    O5 2418   0.841   2.713  14.022 -0.3130  0.7640  0.4501
  158TMC2    H5 2419   0.765   2.661  13.988 -0.2183 -1.1658  3.1894
  159MPD2     C 2420   0.945   1.837  14.636 -0.3522 -0.1397  0.8659
  159MPD2    C1 2421   0.846   1.827  14.541  0.8844 -0.7896  0.7573
  159MPD2    C2 2422   0.827   1.926  14.450  0.4560  0.5929  0.6261
  159MPD2    C3 2423   0.894   2.046  14.453  1.0655 -0.3001 -0.0795
  159MPD2    C4 2424   0.995   2.060  14.542 -0.0683  0.0240  0.0231
  159MPD2    C5 2425   1.021   1.957  14.635  0.2445  0.1056 -0.0887
  159MPD2     H 2426   0.747   1.916  14.377 -1.0814  0.7272  2.3184
  159MPD2    H1 2427   1.060   2.147  14.553  0.2834  0.0157 -2.1486
  159MPD2    H2 2428   0.963   1.758  14.708 -0.6812  0.9299  2.1296
  159MPD2    H3 2429   1.098   1.977  14.708  0.8558  0.8361 -0.9407
  159MPD2     N 2430   0.828   2.153  14.381  0.0257  0.0714 -0.2754
  159MPD2    H5 2431   0.744   2.122  14.333 -0.7236  1.0932  0.3903
  159MPD2    N1 2432   0.764   1.711  14.550 -0.1660 -0.3848  0.2745
  159MPD2    H7 2433   0.803   1.637  14.608 -1.3081 -0.5846  0.7692
  160TMC2    C1 2434   4.234   4.565   1.632  0.2565 -0.2584  0.0263
  160TMC2    C2 2435   4.270   4.448   1.568  0.0908  0.5919 -0.2596
  160TMC2    C3 2436   4.368   4.452   1.485 -0.6456  0.2683 -0.3397
  160TMC2    C4 2437   4.302   4.686   1.620 -0.7014 -0.3966  0.6069
  160TMC2    C5 2438   4.409   4.681   1.536  0.7155 -0.8486 -0.3232
  160TMC2    C6 2439   4.439   4.570   1.460  0.0402  0.3119  0.3825
  160TMC2     C 2440   4.120   4.557   1.724  0.5119  0.5128 -0.3816
  160TMC2     O 2441   4.079   4.448   1.752 -0.0726 -0.0156 -0.2192
  160TMC2     H 2442   4.226   4.351   1.590 -0.9072  1.0363 -0.2736
  160TMC2    H1 2443   4.272   0.052   1.673 -2.8486 -0.7221 -0.0427
  160TMC2    H2 2444   4.522   4.567   1.391  0.3982  1.3134  0.7727
  160TMC2    C7 2445   4.444   0.084   1.476 -1.1298 -0.1753 -0.3258
  160TMC2    C8 2446   4.398   4.331   1.416 -0.4410  0.1972  0.0457
  160TMC2    O1 2447   4.355   0.166   1.457 -0.3275 -0.2773 -0.2413
  160TMC2    O2 2448   4.503   4.339   1.354  0.0909  0.0773  0.1259
  160TMC2    O5 2449   4.291   4.311   1.345 -0.4186  0.4840  0.1985
  160TMC2    H5 2450   4.216   4.312   1.408  0.1444 -0.5552  0.8801
  161MPD2     C 2451   3.886   4.617   1.909 -0.1244  0.1234 -0.5594
  161MPD2    C1 2452   3.959   4.711   1.839 -0.4302  0.2814 -0.3731
  161MPD2    C2 2453   3.910   0.118   1.860  0.3028  0.3726  0.4880
  161MPD2    C3 2454   3.796   0.144   1.944 -0.2863  0.3110  0.0421
  161MPD2    C4 2455   3.738   0.043   2.005  0.0619 -0.8814 -0.5924
  161MPD2    C5 2456   3.784   4.643   1.990 -0.3840  0.4814  0.2534
  161MPD2     H 2457   3.975   0.198   1.826  1.0315  0.1003  1.2288
  161MPD2    H1 2458   3.654   0.063   2.070  0.4462 -1.0243 -0.0485
  161MPD2    H2 2459   3.916   4.513   1.909 -1.2082 -0.1846  1.1233
  161MPD2    H3 2460   3.736   4.562   2.043 -1.2496  2.9546  3.2687
  161MPD2     N 2461   3.738   0.275   1.953 -0.4993  0.4602  0.0506
  161MPD2    H5 2462   3.663   0.290   2.020 -1.0780 -0.1352 -0.4619
  161MPD2    N1 2463   4.069   4.685   1.752  0.3019 -0.0152  0.2158
  161MPD2    H7 2464   4.095   0.039   1.693  0.4720 -0.3969 -0.2160
  162TMC2    C1 2465   2.903   2.556   1.600 -0.0820 -0.4546  0.4428
  162TMC2    C2 2466   2.883   2.684   1.557  0.7094 -0.4548 -0.3100
  162TMC2    C3 2467   2.815   2.777   1.636 -0.4135  0.0069  0.2070
  162TMC2    C4 2468   2.864   2.517   1.728 -0.3271 -0.3207 -0.0660
  162TMC2    C5 2469   2.805   2.606   1.813 -0.3091  0.5121 -0.6652
  162TMC2    C6 2470   2.792   2.737   1.771  0.0270 -0.4586  0.5320
  162TMC2     C 2471   2.961   2.460   1.507  0.4669  0.2758  0.8899
  162TMC2     O 2472   3.024   2.505   1.417 -0.4934  0.2015 -0.3020
  162TMC2     H 2473   2.918   2.718   1.460 -0.6378 -0.3885 -0.7779
  162TMC2    H1 2474   2.878   2.412   1.752  1.6585  0.1751  0.9803
  162TMC2    H2 2475   2.734   2.802   1.835  1.2293  1.9490 -0.8111
  162TMC2    C7 2476   2.724   2.563   1.932  0.2576 -0.0612 -0.4712
  162TMC2    C8 2477   2.798   2.905   1.572 -0.2100  0.1371 -0.0253
  162TMC2    O1 2478   2.638   2.640   1.970 -0.1412 -0.6220 -0.8172
  162TMC2    O2 2479   2.822   2.923   1.457 -0.4196  0.1184  0.3650
  162TMC2    O5 2480   2.753   3.000   1.661 -0.4286 -0.1297  0.5568
  162TMC2    H5 2481   2.732   2.964   1.749  0.8091 -0.7779  0.5791
  163MPD2     C 2482   3.131   1.989   1.378 -0.6238  0.1926 -0.0373
  163MPD2    C1 2483   3.185   2.105   1.337 -0.4266  0.2439 -0.0890
  163MPD2    C2 2484   3.128   2.217   1.399  0.6097 -0.0368 -0.2704
  163MPD2    C3 2485   3.021   2.212   1.493 -1.1274  0.3540  0.5403
  163MPD2    C4 2486   2.984   2.087   1.541 -0.7306  0.1510  0.5306
  163MPD2    C5 2487   3.036   1.980   1.481  0.3636 -0.9635  0.6928
  163MPD2     H 2488   3.171   2.315   1.380 -0.0825  0.1518 -0.9037
  163MPD2    H1 2489   2.909   2.068   1.618 -2.7339 -1.4988 -1.8350
  163MPD2    H2 2490   3.157   1.898   1.325  0.8388  0.6603 -0.1209
  163MPD2    H3 2491   2.990   1.887   1.514  0.2955 -1.2269 -0.1500
  163MPD2     N 2492   2.951   2.327   1.547  0.1738 -0.2947 -0.3831
  163MPD2    H5 2493   2.891   2.312   1.627  0.2768 -2.3452 -0.7058
  163MPD2    N1 2494   3.284   2.109   1.232  0.2048  0.8626  0.1947
  163MPD2    H7 2495   3.305   2.016   1.196  0.4544  0.8233  0.4433
  164TCq2    C1 2496   3.254   1.635  11.028  0.4386 -0.4055 -0.9393
  164TCq2    O2 2497   3.161   1.560  11.010  0.4359 -0.5550 -0.1515
  164TCq2    C2 2498   3.230   1.764  11.094  0.3920 -0.3536  0.2584
  164TCq2    C3 2499   3.315   1.871  11.081  0.0193 -0.0931 -0.1139
  164TCq2    C4 2500   3.278   1.993  11.123 -0.2310  0.1726  1.2609
  164TCq2    C5 2501   3.164   2.011  11.192 -0.1289  0.4240  0.3083
  164TCq2    C6 2502   3.078   1.912  11.200  0.3587 -0.8801  0.0157
  164TCq2    C7 2503   3.101   1.784  11.147 -0.6491 -0.7497  0.7503
  164TCq2    C8 2504   2.963   1.929  11.289 -0.3557  0.7819  0.1108
  164TCq2    O4 2505   2.933   2.044  11.327  0.2638  0.2209  0.3414
  164TCq2    C9 2506   3.364   2.098  11.105 -0.4733  0.2133  0.3027
  164TCq2    O5 2507   3.360   2.201  11.173 -0.2131  0.2510  0.1091
  164TCq2    O6 2508   3.458   2.084  11.020 -0.2408 -0.2561 -0.0647
  164TCq2    H2 2509   3.415   1.863  11.039  1.2937  0.3052  2.8647
  164TCq2    H3 2510   3.141   2.110  11.229  3.3281  1.0790  0.6921
  164TCq2    H4 2511   3.024   1.707  11.144 -2.4416  1.0652  0.6700
  165MPD2     C 2512   0.528   2.940   1.928  0.1898  0.2993 -0.3897
  165MPD2    C1 2513   0.414   2.886   1.897 -0.0798 -0.9681 -0.4906
  165MPD2    C2 2514   0.298   2.954   1.912  0.1231  0.5135 -0.9213
  165MPD2    C3 2515   0.300   3.082   1.975 -0.0839 -0.2558 -0.3944
  165MPD2    C4 2516   0.415   3.130   2.029  0.3810  0.2617  0.1065
  165MPD2    C5 2517   0.534   3.065   1.997  0.0155 -0.0218 -0.1609
  165MPD2     H 2518   0.203   2.912   1.881  0.5808 -0.3507 -1.1569
  165MPD2    H1 2519   0.419   3.225   2.082 -2.5631  1.9418 -2.6798
  165MPD2    H2 2520   0.620   2.885   1.913  0.3834  0.6922 -0.6370
  165MPD2    H3 2521   0.628   3.101   2.036 -0.0573  0.6853 -0.6380
  165MPD2     N 2522   0.183   3.158   1.995 -0.4822  0.0797 -0.0889
  165MPD2    H5 2523   0.204   3.243   2.047  0.6251  0.7051 -1.5790
  165MPD2    N1 2524   0.426   2.756   1.840  0.0504  0.8971 -0.0283
  165MPD2    H7 2525   0.518   2.713   1.839  0.4317  1.6693  1.5183
  166TCq2    C1 2526   0.052   3.126   1.963 -0.2051  0.8320  0.4076
  166TCq2    O2 2527   0.013   3.011   1.946 -0.4507 -0.0053 -0.2789
  166TCq2    C2 2528   4.677   3.229   1.975 -0.3034 -0.6056 -0.0933
  166TCq2    C3 2529   4.555   3.182   2.012  0.4141 -0.0961 -0.1510
  166TCq2    C4 2530   4.462   3.276   2.031  0.4101 -0.0915  0.1111
  166TCq2    C5 2531   4.477   3.410   1.995 -1.0500  0.1655  0.3288
  166TCq2    C6 2532   4.603   3.452   1.961 -0.3583 -1.0077  0.2635
  166TCq2    C7 2533   4.708   3.365   1.957 -0.2720 -0.1389  0.0746
  166TCq2    C8 2534   4.641   3.593   1.939 -0.0687 -0.3862  0.5699
  166TCq2    O4 2535   0.035   3.621   1.916  0.2952 -0.8220 -0.1629
  166TCq2    C9 2536   4.333   3.238   2.073  1.1293 -0.0241 -0.2516
  166TCq2    O5 2537   4.335   3.129   2.137  0.0579 -0.4438  0.1730
  166TCq2    O6 2538   4.236   3.320   2.068 -0.3757 -0.5087  0.1981
  166TCq2    H2 2539   4.528   3.078   2.022 -1.6516  0.3752 -0.7629
  166TCq2    H3 2540   4.393   3.479   1.993  0.7031  2.2736 -0.7182
  166TCq2    H4 2541   0.073   3.395   1.902  0.1751  1.2588  1.5856
  167TMC2    C1 2542   2.469   1.802  13.128  0.1757  0.2563  0.0507
  167TMC2    C2 2543   2.398   1.791  13.247  0.5413  0.1599 -0.4688
  167TMC2    C3 2544   2.425   1.683  13.319 -0.2985 -0.1849 -0.3641
  167TMC2    C4 2545   2.550   1.701  13.080  0.0320  0.8669  0.2647
  167TMC2    C5 2546   2.557   1.591  13.158 -1.1342 -0.6891 -0.0100
  167TMC2    C6 2547   2.510   1.584  13.283  0.6039  0.3429  0.6443
  167TMC2     C 2548   2.449   1.923  13.050 -0.0134 -0.6334 -0.2161
  167TMC2     O 2549   2.347   1.986  13.072  0.5726  0.1944  0.8013
  167TMC2     H 2550   2.342   1.870  13.294 -1.5505 -1.0591 -0.9297
  167TMC2    H1 2551   2.605   1.713  12.988  0.9981 -0.3415  0.6775
  167TMC2    H2 2552   2.536   1.513  13.360  0.8991  0.5060  0.6975
  167TMC2    C7 2553   2.645   1.470  13.130 -0.8287  0.7031 -0.3496
  167TMC2    C8 2554   2.410   1.684  13.464 -0.3799 -1.0106 -0.5021
  167TMC2    O1 2555   2.623   1.369  13.204 -0.9100  0.4100  0.4064
  167TMC2    O2 2556   2.494   1.646  13.542 -0.4044  0.1797 -0.3364
  167TMC2    O5 2557   2.306   1.758  13.509 -0.5057  0.0632 -0.3908
  167TMC2    H5 2558   2.232   1.756  13.445 -0.2014  0.8498 -0.7600
  168MPD2     C 2559   2.489   2.165  12.866 -0.3195 -0.2149  0.4128
  168MPD2    C1 2560   2.559   2.047  12.864 -0.5063  0.5058  0.4439
  168MPD2    C2 2561   2.639   2.020  12.749 -0.1341  0.3557  0.0953
  168MPD2    C3 2562   2.646   2.103  12.636  0.8433  1.2021  0.1133
  168MPD2    C4 2563   2.582   2.225  12.651 -0.3720 -0.3201 -0.4997
  168MPD2    C5 2564   2.509   2.256  12.768  0.3568 -0.2523  0.6431
  168MPD2     H 2565   2.689   1.924  12.749 -2.0012 -0.6246  0.8297
  168MPD2    H1 2566   2.577   2.299  12.572 -1.1750  0.6430  0.4596
  168MPD2    H2 2567   2.430   2.196  12.951 -1.4615 -1.7871  0.1974
  168MPD2    H3 2568   2.455   2.350  12.771  1.4268  0.4869 -2.9583
  168MPD2     N 2569   2.710   2.066  12.516  0.0275  0.2670  0.1984
  168MPD2    H5 2570   2.675   2.114  12.434  0.8310 -1.6014 -1.2222
  168MPD2    N1 2571   2.550   1.939  12.957  0.1443 -0.0205  0.0292
  168MPD2    H7 2572   2.625   1.871  12.970  0.2024  0.0443  0.0291
  169MPD1     C 2573   1.684   4.065  10.316 -0.1697  0.2784 -0.1012
  169MPD1    C1 2574   1.772   4.152  10.255 -0.1115  0.3907  0.1183
  169MPD1    C2 2575   1.729   4.266  10.202 -0.1271  0.4109  0.5204
  169MPD1    C3 2576   1.595   4.296  10.216 -0.7072 -0.0717 -0.0603
  169MPD1    C4 2577   1.505   4.205  10.276 -0.4290 -0.2275 -0.0475
  169MPD1    C5 2578   1.555   4.086  10.324 -0.0538 -0.4081  0.1025
  169MPD1     H 2579   1.805   4.332  10.161  0.7146 -0.4450  0.7042
  169MPD1    H1 2580   1.401   4.232  10.289 -0.3239 -1.2593  2.9165
  169MPD1    H2 2581   1.721   3.971  10.355 -1.1764 -0.5930 -1.2090
  169MPD1    H3 2582   1.489   4.018  10.376 -1.6177  2.3448  1.6913
  169MPD1     N 2583   1.558   4.424  10.171  0.3647  0.4640 -0.3104
  169MPD1    H5 2584   1.632   4.475  10.124  2.4360 -0.5790  1.8070
  169MPD1    N1 2585   1.904   4.102  10.222 -0.2432 -0.6386  0.2112
  169MPD1    H6 2586   1.971   4.164  10.177  1.0141 -1.3539  1.0631
  169MPD1    H7 2587   1.948   4.055  10.302  1.2773  1.6262  0.6936
  170MPD1     C 2588   4.165   4.022  12.937 -0.1400  0.4268 -0.7447
  170MPD1    C1 2589   4.067   4.102  12.888  0.4451 -0.0568 -0.2353
  170MPD1    C2 2590   3.977   4.162  12.976  0.4184  0.3159  0.0615
  170MPD1    C3 2591   4.005   4.148  13.113  1.5750  0.4630 -0.3627
  170MPD1    C4 2592   4.105   4.066  13.162  0.1174 -0.2553  0.1475
  170MPD1    C5 2593   4.190   4.013  13.070  1.0677 -0.1578 -0.4078
  170MPD1     H 2594   3.894   4.225  12.944 -0.9354 -0.4029  2.1277
  170MPD1    H1 2595   4.129   4.043  13.265 -2.5369 -0.4164  0.7239
  170MPD1    H2 2596   4.232   3.961  12.877 -0.3472 -1.0755  0.5419
  170MPD1    H3 2597   4.275   3.956  13.104  1.7922  0.9251 -0.3991
  170MPD1     N 2598   3.922   4.218  13.205  0.6456 -0.3202  0.4216
  170MPD1    H5 2599   3.869   4.298  13.172  1.2661  0.3571  1.0646
  170MPD1    N1 2600   4.037   4.093  12.754 -0.1943 -0.1580 -0.5781
  170MPD1    H6 2601   3.984   4.167  12.706  1.2440  0.8494 -0.5968
  170MPD1    H7 2602   4.118   4.079  12.694 -0.4925  3.8887 -1.9297
  171MPD1     C 2603   2.344   0.748  15.283 -0.6312  0.3793 -0.5663
  171MPD1    C1 2604   2.331   0.622  15.232 -0.0562  0.5038  0.4320
  171MPD1    C2 2605   2.357   0.516  15.320  0.4730 -0.6840 -0.4298
  171MPD1    C3 2606   2.417   0.542  15.443  0.0332 -0.0314  0.5369
  171MPD1    C4 2607   2.433   0.673  15.486 -0.4623 -0.6589  0.2139
  171MPD1    C5 2608   2.396   0.773  15.405 -0.0214  0.5491  0.5728
  171MPD1     H 2609   2.340   0.417  15.280  1.2302 -0.5801 -0.9951
  171MPD1    H1 2610   2.481   0.688  15.582  1.1418 -0.2750 -0.6397
  171MPD1    H2 2611   2.308   0.835  15.230 -2.3747 -1.4913 -2.4939
  171MPD1    H3 2612   2.412   0.871  15.450  0.3086  0.4025  0.7752
  171MPD1     N 2613   2.469   0.445  15.529 -0.7860 -0.3545  0.3347
  171MPD1    H5 2614   2.501   0.482  15.617  1.4841  0.9059 -1.0453
  171MPD1    N1 2615   2.250   0.591  15.120  0.0391 -0.6088  0.1804
  171MPD1    H6 2616   2.276   0.498  15.087  1.0289  0.1353 -1.1352
  171MPD1    H7 2617   2.261   0.652  15.039  0.0206  0.0402  0.6717
  172MPD1     C 2618   1.123   4.602   0.077 -0.5437  0.2653 -0.2048
  172MPD1    C1 2619   1.254   4.597   0.064  0.0038 -0.6118  0.2154
  172MPD1    C2 2620   1.331   4.547   0.166  0.1088  0.6046 -0.6734
  172MPD1    C3 2621   1.274   4.510   0.290 -0.4930 -0.0187 -0.1712
  172MPD1    C4 2622   1.134   4.511   0.300  0.4930 -0.4780 -0.3918
  172MPD1    C5 2623   1.063   4.571   0.198  0.1505  0.1044  0.0745
  172MPD1     H 2624   1.437   4.541   0.147  0.0644  0.6911 -0.9516
  172MPD1    H1 2625   1.092   4.497   0.399 -2.3089  0.4544 -1.4545
  172MPD1    H2 2626   1.062   4.646  17.696  0.6013  1.5997 -0.3435
  172MPD1    H3 2627   0.958   4.597   0.202  0.6140  2.0302 -0.5719
  172MPD1     N 2628   1.356   4.483   0.402 -0.3922 -0.4481 -0.1115
  172MPD1    H5 2629   1.296   4.472   0.484 -1.0970 -0.1146 -0.5892
  172MPD1    N1 2630   1.318   4.652  17.650  0.1447 -0.0523  0.3103
  172MPD1    H6 2631   1.272   4.707  17.577 -0.2715  0.0709  0.6703
  172MPD1    H7 2632   1.416   4.676  17.665  1.1078 -1.7653 -3.0209
  173MPD1     C 2633   3.069   4.434  14.566 -0.1251  0.0514  1.3458
  173MPD1    C1 2634   3.046   4.326  14.491  0.4693 -0.1936 -0.8217
  173MPD1    C2 2635   2.939   4.247  14.531 -0.8599 -0.1540  0.5453
  173MPD1    C3 2636   2.856   4.276  14.638  0.5959 -1.2314 -0.4435
  173MPD1    C4 2637   2.885   4.387  14.715 -0.3322 -0.6715  0.4370
  173MPD1    C5 2638   2.983   4.467  14.668 -0.0170 -0.3236 -0.1002
  173MPD1     H 2639   2.916   4.161  14.469  1.2787 -0.2778 -0.0845
  173MPD1    H1 2640   2.824   4.425  14.797  0.4371  1.0286  0.2223
  173MPD1    H2 2641   3.156   4.492  14.539 -0.1781 -0.6522 -0.3113
  173MPD1    H3 2642   3.000   4.565  14.711 -0.2605 -0.1734 -0.3478
  173MPD1     N 2643   2.759   4.179  14.668  0.3459 -0.0432  0.0444
  173MPD1    H5 2644   2.722   4.126  14.590  0.3925 -0.9266  0.6140
  173MPD1    N1 2645   3.136   4.281  14.390 -0.7415  0.2738  0.2297
  173MPD1    H6 2646   3.193   4.356  14.351  0.6255 -0.0888  1.5311
  173MPD1    H7 2647   3.086   4.253  14.306 -0.9767 -4.6741  2.0081
  174MPD1     C 2648   2.385   3.728  14.090 -0.0650 -0.0144  0.9165
  174MPD1    C1 2649   2.373   3.642  14.197  0.1163  0.2442  0.6860
  174MPD1    C2 2650   2.397   3.693  14.328 -0.2890  0.6934 -0.3034
  174MPD1    C3 2651   2.433   3.828  14.343 -0.1790  0.1103 -0.2198
  174MPD1    C4 2652   2.453   3.909  14.233  0.2719 -0.3142  0.5052
  174MPD1    C5 2653   2.428   3.858  14.111  0.0491  0.0037  0.9526
  174MPD1     H 2654   2.384   3.619  14.406  2.4299 -0.0691 -0.5544
  174MPD1    H1 2655   2.483   4.011  14.254 -1.0373  0.1064  0.3307
  174MPD1    H2 2656   2.363   3.706  13.986  0.4153  0.9060  0.6247
  174MPD1    H3 2657   2.441   3.915  14.021 -0.2527 -2.5745 -0.7354
  174MPD1     N 2658   2.466   3.878  14.469 -0.2033 -0.5690 -0.4383
  174MPD1    H5 2659   2.503   3.972  14.476 -1.6399  0.0891 -1.5497
  174MPD1    N1 2660   2.310   3.521  14.183 -0.0116 -0.0326  0.0584
  174MPD1    H6 2661   2.343   3.453  14.252  0.3529  0.0006 -0.0832
  174MPD1    H7 2662   2.329   3.470  14.097  1.5457 -0.4877  0.6809
  175MPD1     C 2663   1.433   0.452  15.706  0.2322 -0.3691 -0.5907
  175MPD1    C1 2664   1.393   0.545  15.802  0.2327  0.3710 -0.2277
  175MPD1    C2 2665   1.358   0.500  15.929 -0.2638 -0.4783 -0.0167
  175MPD1    C3 2666   1.382   0.371  15.971 -0.0781 -0.0768 -0.0614
  175MPD1    C4 2667   1.424   0.279  15.879  0.5776  0.4449  0.3502
  175MPD1    C5 2668   1.447   0.319  15.749 -0.1730  0.1725  0.1441
  175MPD1     H 2669   1.324   0.570  16.005  3.5833 -0.0078  1.2315
  175MPD1    H1 2670   1.414   0.174  15.904  1.0242  0.1345 -0.7839
  175MPD1    H2 2671   1.431   0.470  15.599 -0.8781  1.8961 -0.2053
  175MPD1    H3 2672   1.462   0.246  15.671  1.2491  0.1897  0.4130
  175MPD1     N 2673   1.350   0.347  16.103 -0.2886 -0.6609  0.3559
  175MPD1    H5 2674   1.304   0.420  16.158 -0.5307 -0.4305 -0.1509
  175MPD1    N1 2675   1.358   0.671  15.765 -0.7358  0.0564 -0.3285
  175MPD1    H6 2676   1.335   0.750  15.826 -0.5175  1.1766 -1.7094
  175MPD1    H7 2677   1.389   0.708  15.676  0.0884  0.5448  0.1589
  176MPD1     C 2678   3.218   1.885  16.536  0.2201  0.1424  0.1251
  176MPD1    C1 2679   3.224   2.013  16.585 -0.5497 -0.0296  0.4715
  176MPD1    C2 2680   3.168   2.049  16.705 -0.0933 -0.2682  0.4522
  176MPD1    C3 2681   3.128   1.946  16.790 -0.1835  0.4258  0.2975
  176MPD1    C4 2682   3.125   1.813  16.750  0.0933  0.5997 -0.1556
  176MPD1    C5 2683   3.173   1.782  16.621 -0.0680  0.6175 -0.1966
  176MPD1     H 2684   3.168   2.156  16.720 -0.6468 -0.2526  0.3536
  176MPD1    H1 2685   3.094   1.730  16.812  1.7772 -0.4056 -0.6542
  176MPD1    H2 2686   3.259   1.863  16.438  1.0035  2.7206 -0.1312
  176MPD1    H3 2687   3.186   1.679  16.590 -1.2901 -0.3069  2.3496
  176MPD1     N 2688   3.060   1.978  16.915 -0.1428 -0.3469  0.6960
  176MPD1    H5 2689   3.061   2.075  16.945 -0.1283 -0.4293  0.9615
  176MPD1    N1 2690   3.275   2.116  16.504  0.2006  0.1617 -0.3485
  176MPD1    H6 2691   3.343   2.074  16.440 -1.1447 -1.7829 -0.5088
  176MPD1    H7 2692   3.329   2.192  16.545 -1.9297  0.6584  1.4966
  177MPD1     C 2693   1.336   1.449  10.566  0.0361 -0.0698  0.2125
  177MPD1    C1 2694   1.385   1.574  10.600  0.1459  0.2712 -0.6200
  177MPD1    C2 2695   1.430   1.655  10.498  0.3796 -0.9090  0.0451
  177MPD1    C3 2696   1.422   1.615  10.367  0.0289  0.3482  0.1891
  177MPD1    C4 2697   1.373   1.488  10.334  0.2538 -0.4415  0.4994
  177MPD1    C5 2698   1.332   1.407  10.434 -0.1573  0.4845 -0.5315
  177MPD1     H 2699   1.471   1.756  10.502  0.8714 -1.0095 -2.5733
  177MPD1    H1 2700   1.349   1.469  10.230  0.7556  0.0722  0.2849
  177MPD1    H2 2701   1.297   1.380  10.640 -1.7971 -0.2457 -0.9034
  177MPD1    H3 2702   1.286   1.309  10.425 -0.3239  0.6069 -1.0081
  177MPD1     N 2703   1.462   1.716  10.274  0.2364 -0.0801 -0.4004
  177MPD1    H5 2704   1.493   1.801  10.320  0.3516 -0.1469 -0.3566
  177MPD1    N1 2705   1.376   1.617  10.734 -0.2167 -0.1803 -0.7005
  177MPD1    H6 2706   1.451   1.676  10.769 -2.4838  1.6022  1.1315
  177MPD1    H7 2707   1.361   1.542  10.802 -2.4290 -0.3375 -1.3600
  178MPD1     C 2708   3.599   2.986   0.642  0.3931  0.1036  0.4288
  178MPD1    C1 2709   3.601   3.122   0.628  0.0489 -0.3892  1.3794
  178MPD1    C2 2710   3.624   3.166   0.497  0.2524  0.3607  0.1803
  178MPD1    C3 2711   3.644   3.076   0.391  0.1345  0.5240 -0.1909
  178MPD1    C4 2712   3.628   2.943   0.415 -0.3790  0.3191 -0.1497
  178MPD1    C5 2713   3.607   2.901   0.541 -0.7645 -0.0931  0.4006
  178MPD1     H 2714   3.636   3.272   0.479  0.1638  0.1262 -1.2744
  178MPD1    H1 2715   3.650   2.871   0.337  1.4816 -0.2034  0.8689
  178MPD1    H2 2716   3.595   2.936   0.738 -2.5181 -0.9673 -0.2417
  178MPD1    H3 2717   3.617   2.797   0.571 -1.0573 -0.4024 -0.5843
  178MPD1     N 2718   3.682   3.113   0.260  0.6238  0.6578 -0.7757
  178MPD1    H5 2719   3.677   3.044   0.186  0.5882  0.5791 -0.6999
  178MPD1    N1 2720   3.607   3.207   0.744 -0.0011  0.7715 -0.2044
  178MPD1    H6 2721   3.570   3.161   0.826  0.0110  2.2257  0.6177
  178MPD1    H7 2722   3.559   3.296   0.729  2.8803  2.0709 -1.8275
  179MPD1     C 2723   3.030   2.099  15.918  0.2578 -0.3287  0.0434
  179MPD1    C1 2724   3.146   2.050  15.852  0.0685 -0.2162 -0.2695
  179MPD1    C2 2725   3.135   1.914  15.801  0.3837  0.3477 -0.7262
  179MPD1    C3 2726   3.014   1.852  15.779  0.3237 -0.4493 -0.5537
  179MPD1    C4 2727   2.904   1.922  15.812 -0.3050 -0.0735 -0.5403
  179MPD1    C5 2728   2.911   2.038  15.884 -0.7603 -0.5109  0.1216
  179MPD1     H 2729   3.225   1.861  15.771 -0.1668 -1.4139  0.7157
  179MPD1    H1 2730   2.806   1.882  15.789 -0.5079  0.0812  0.0613
  179MPD1    H2 2731   3.027   2.188  15.980  2.0311  1.2167 -2.0708
  179MPD1    H3 2732   2.823   2.091  15.918 -0.9088  2.0399 -4.2146
  179MPD1     N 2733   2.999   1.715  15.741 -0.7108 -0.3050  0.8088
  179MPD1    H5 2734   2.909   1.670  15.758 -2.1515  1.6354 -1.6935
  179MPD1    N1 2735   3.273   2.090  15.881  0.4136 -0.1659 -0.4548
  179MPD1    H6 2736   3.278   2.192  15.877  0.6844 -0.1220  1.1650
  179MPD1    H7 2737   3.334   2.058  15.805 -0.4499  2.3428 -2.1894
  180MPD1     C 2738   3.607   3.234  15.556  0.5833 -0.3174  0.0173
  180MPD1    C1 2739   3.681   3.244  15.443  0.9770  0.2664  0.7008
  180MPD1    C2 2740   3.638   3.197  15.327  0.7094  0.2201 -0.0909
  180MPD1    C3 2741   3.507   3.146  15.313  0.1160 -0.0754  0.2326
  180MPD1    C4 2742   3.428   3.148  15.420 -0.1829  0.1978 -0.2138
  180MPD1    C5 2743   3.480   3.192  15.541  0.4814 -0.0670  0.8946
  180MPD1     H 2744   3.696   3.189  15.236  0.6309  0.7293 -0.1865
  180MPD1    H1 2745   3.324   3.119  15.413 -0.0555 -0.7054  1.6124
  180MPD1    H2 2746   3.653   3.269  15.648  0.3661 -1.8311  0.7017
  180MPD1    H3 2747   3.422   3.195  15.633  1.0714  0.2195  1.2550
  180MPD1     N 2748   3.474   3.091  15.188 -0.2915  0.6372 -0.1254
  180MPD1    H5 2749   3.531   3.112  15.107  1.5938  0.7468  1.2140
  180MPD1    N1 2750   3.813   3.291  15.460 -0.2455  0.2029  0.4340
  180MPD1    H6 2751   3.849   3.335  15.376  2.9134 -0.4221  1.4739
  180MPD1    H7 2752   3.822   3.353  15.540 -0.5712  0.5168  0.2285
  181MPD1     C 2753   0.429   3.586   8.901 -0.4835  0.8918 -0.1292
  181MPD1    C1 2754   0.403   3.720   8.935 -0.7188  0.7385 -0.2080
  181MPD1    C2 2755   0.371   3.748   9.067 -0.0566  0.2171 -0.4986
  181MPD1    C3 2756   0.386   3.661   9.169  0.4636 -0.2974 -0.4670
  181MPD1    C4 2757   0.416   3.535   9.133 -0.2345 -0.2161 -0.0744
  181MPD1    C5 2758   0.440   3.499   9.006  0.1525 -0.4953  0.4860
  181MPD1     H 2759   0.340   3.849   9.088 -0.5008  0.1302 -0.7320
  181MPD1    H1 2760   0.425   3.460   9.211  0.9616  0.0824  0.0790
  181MPD1    H2 2761   0.455   3.558   8.800  0.8975 -1.0993  0.7854
  181MPD1    H3 2762   0.479   3.401   8.983 -2.4549 -0.6196 -3.3879
  181MPD1     N 2763   0.386   3.698   9.302  0.5345  1.0069  0.0004
  181MPD1    H5 2764   0.422   3.631   9.369  0.9731  2.0134  0.7728
  181MPD1    N1 2765   0.388   3.819   8.838  0.5726 -0.5829 -0.2375
  181MPD1    H6 2766   0.446   3.797   8.758  1.4666 -3.2676  1.1571
  181MPD1    H7 2767   0.404   3.917   8.863 -1.0130 -0.2483 -0.5128
  182MPD1     C 2768   1.386   4.065   1.759 -0.0623 -0.1628 -0.7428
  182MPD1    C1 2769   1.264   4.041   1.817  0.1632 -0.2741 -0.0886
  182MPD1    C2 2770   1.151   4.036   1.731  0.3919 -0.0386  1.1485
  182MPD1    C3 2771   1.167   4.041   1.591 -0.1619 -0.0328 -0.0388
  182MPD1    C4 2772   1.290   4.045   1.537  0.1668 -0.5119 -0.1662
  182MPD1    C5 2773   1.399   4.065   1.616  0.2499  0.3334 -0.5802
  182MPD1     H 2774   1.056   4.018   1.782 -0.2755  0.4326  0.0750
  182MPD1    H1 2775   1.303   4.041   1.429  0.9627 -0.1253 -0.0845
  182MPD1    H2 2776   1.474   4.063   1.823  0.1624 -0.2666 -1.0511
  182MPD1    H3 2777   1.499   4.079   1.577  0.2051 -0.8414 -1.0853
  182MPD1     N 2778   1.060   4.023   1.502  0.1723 -0.0479  0.4889
  182MPD1    H5 2779   1.087   4.018   1.404 -0.2370 -1.3833  0.4310
  182MPD1    N1 2780   1.272   3.983   1.948 -0.8018 -0.6965 -0.1843
  182MPD1    H6 2781   1.363   4.002   1.990 -0.7760  0.2065 -0.6477
  182MPD1    H7 2782   1.207   4.029   2.011  1.7575 -0.1228  2.0367
  183MPD1     C 2783   1.648   3.168   9.573  0.0707  0.5149  0.1763
  183MPD1    C1 2784   1.676   3.191   9.712 -0.1699 -0.0464 -0.8764
  183MPD1    C2 2785   1.649   3.314   9.776  0.1854 -0.0441  0.1423
  183MPD1    C3 2786   1.608   3.419   9.699 -0.1211  0.2811  0.0769
  183MPD1    C4 2787   1.590   3.403   9.564  0.2136  0.3696 -0.8206
  183MPD1    C5 2788   1.618   3.283   9.506 -0.4468 -0.2165  0.3691
  183MPD1     H 2789   1.668   3.334   9.881 -0.9048  0.3627  0.2682
  183MPD1    H1 2790   1.568   3.482   9.493  1.8973  1.4140 -0.2005
  183MPD1    H2 2791   1.661   3.074   9.520 -2.2294  0.3923 -0.1550
  183MPD1    H3 2792   1.605   3.283   9.398 -0.9422  1.4214  0.4396
  183MPD1     N 2793   1.566   3.534   9.772  0.6213  0.0432  0.5541
  183MPD1    H5 2794   1.590   3.547   9.869  1.5862 -1.3194  0.5034
  183MPD1    N1 2795   1.726   3.083   9.791  0.3478  0.5965  0.0752
  183MPD1    H6 2796   1.728   2.996   9.740  0.1563  1.1206 -0.8279
  183MPD1    H7 2797   1.694   3.075   9.887  2.5268  1.0005  0.8332
  184MPD1     C 2798   0.852   1.467  10.961 -0.1371 -0.0434 -0.4083
  184MPD1    C1 2799   0.811   1.389  10.858 -0.2605  0.0760 -0.4342
  184MPD1    C2 2800   0.864   1.413  10.735  0.1893 -0.1962  0.1123
  184MPD1    C3 2801   0.938   1.523  10.704 -0.2074  0.3774 -0.0321
  184MPD1    C4 2802   0.977   1.608  10.799  0.0218 -0.0728 -0.1924
  184MPD1    C5 2803   0.932   1.577  10.929  0.6808 -0.0471 -0.0199
  184MPD1     H 2804   0.834   1.338  10.663 -1.4163  0.6224 -0.0848
  184MPD1    H1 2805   1.047   1.685  10.770 -1.6743  0.7282 -2.1653
  184MPD1    H2 2806   0.813   1.454  11.061  0.1290  0.2279 -0.2711
  184MPD1    H3 2807   0.939   1.652  11.007 -0.6451 -0.6399  0.6711
  184MPD1     N 2808   1.007   1.547  10.580  0.0962 -0.2405  0.7351
  184MPD1    H5 2809   1.070   1.626  10.571 -0.2081 -0.1326 -0.4671
  184MPD1    N1 2810   0.754   1.264  10.884 -0.4216  0.3975  0.0474
  184MPD1    H6 2811   0.701   1.250  10.798 -1.1974  0.2704  0.5531
  184MPD1    H7 2812   0.700   1.258  10.970 -0.1271 -2.8380 -0.0025
  185MPD1     C 2813   0.851   1.464   9.494  0.0537  0.0850  0.2528
  185MPD1    C1 2814   0.785   1.402   9.596  0.0279  0.6540 -0.2818
  185MPD1    C2 2815   0.834   1.403   9.725 -0.1578  0.0314  1.0215
  185MPD1    C3 2816   0.962   1.452   9.750  0.8886 -0.0767 -0.4283
  185MPD1    C4 2817   1.033   1.512   9.646 -0.2937 -0.0625 -0.2256
  185MPD1    C5 2818   0.981   1.507   9.515  0.3576 -0.1125  0.3232
  185MPD1     H 2819   0.783   1.364   9.812  1.4461 -2.6006  0.8159
  185MPD1    H1 2820   1.130   1.559   9.654  0.4540 -1.4168 -1.2548
  185MPD1    H2 2821   0.815   1.469   9.392  0.5840  0.2301  0.0713
  185MPD1    H3 2822   1.037   1.550   9.432 -0.9794 -0.3329 -0.6861
  185MPD1     N 2823   1.014   1.475   9.878  0.1270  0.3604  0.5765
  185MPD1    H5 2824   1.103   1.523   9.874  1.3959 -1.7931  2.9142
  185MPD1    N1 2825   0.652   1.358   9.570  0.5016  1.2622 -0.1626
  185MPD1    H6 2826   0.642   1.328   9.474 -2.8524  2.0892 -0.0875
  185MPD1    H7 2827   0.629   1.279   9.630 -1.4660 -0.1613 -2.7546
  186MPD1     C 2828   3.496   1.636  15.853 -0.3087 -0.3791  0.2092
  186MPD1    C1 2829   3.541   1.550  15.958  0.9560  0.1758  0.2016
  186MPD1    C2 2830   3.557   1.605  16.087  0.5573  0.2178  0.4793
  186MPD1    C3 2831   3.522   1.736  16.116  0.1451  0.3525 -1.1874
  186MPD1    C4 2832   3.478   1.818  16.016 -0.3601  0.5478  0.0908
  186MPD1    C5 2833   3.477   1.763  15.891 -0.4985 -0.0666  0.7373
  186MPD1     H 2834   3.585   1.535  16.165 -0.9386 -1.7057 -0.6938
  186MPD1    H1 2835   3.446   1.920  16.029  1.9463  1.4244 -1.0157
  186MPD1    H2 2836   3.483   1.606  15.749 -1.6024 -4.0066  1.4319
  186MPD1    H3 2837   3.446   1.827  15.809  0.8200 -0.9934 -0.4679
  186MPD1     N 2838   3.514   1.784  16.246  0.1177 -0.7773  0.6503
  186MPD1    H5 2839   3.493   1.883  16.254 -3.0259 -1.3424 -0.6402
  186MPD1    N1 2840   3.592   1.423  15.919  0.3816  0.1528 -0.1052
  186MPD1    H6 2841   3.556   1.394  15.828 -0.5514  0.0919  0.2923
  186MPD1    H7 2842   3.570   1.353  15.989  2.7036 -0.8884 -0.3893
  187MPD1     C 2843   3.562   3.523  17.044 -0.6294  0.3444  0.3796
  187MPD1    C1 2844   3.501   3.422  17.109 -0.1634 -0.6589 -0.0901
  187MPD1    C2 2845   3.370   3.444  17.145 -0.1307  0.3440  0.5029
  187MPD1    C3 2846   3.314   3.576  17.147 -0.4252  0.0669 -0.5870
  187MPD1    C4 2847   3.380   3.674  17.081 -1.3720 -0.4104  0.2535
  187MPD1    C5 2848   3.505   3.643  17.026 -0.5620 -0.0100  0.2612
  187MPD1     H 2849   3.317   3.361  17.190 -0.5005 -0.2725 -1.0511
  187MPD1    H1 2850   3.341   3.775  17.076  0.4330  0.2236 -1.0456
  187MPD1    H2 2851   3.654   3.513  16.987  0.7819  1.9775  2.3585
  187MPD1    H3 2852   3.565   3.713  16.969 -0.8590 -1.0999 -1.3635
  187MPD1     N 2853   3.194   3.614  17.209  0.3074 -0.0415 -0.6643
  187MPD1    H5 2854   3.173   3.712  17.201  1.0090  0.1093 -0.7100
  187MPD1    N1 2855   3.563   3.300  17.118  0.1174 -0.0652 -0.4338
  187MPD1    H6 2856   3.546   3.267  17.212  1.8605 -0.6002 -0.3031
  187MPD1    H7 2857   3.665   3.301  17.114  0.0540  3.2354 -1.2600
  188MPD1     C 2858   3.191   3.419  10.912  0.7270 -0.1906  0.2165
  188MPD1    C1 2859   3.170   3.454  10.780 -0.3157  0.0509  0.2587
  188MPD1    C2 2860   3.101   3.356  10.706  0.6580  0.6082 -0.1331
  188MPD1    C3 2861   3.090   3.226  10.738  0.2795  0.4102  0.0953
  188MPD1    C4 2862   3.132   3.195  10.864 -0.1448  0.1096  0.1189
  188MPD1    C5 2863   3.177   3.290  10.954  0.5790  0.0251 -0.3095
  188MPD1     H 2864   3.078   3.372  10.601  1.4468  3.6171  0.1611
  188MPD1    H1 2865   3.097   3.099  10.901 -2.1273  0.6435 -0.3950
  188MPD1    H2 2866   3.238   3.491  10.978  0.1142  0.9592 -0.6075
  188MPD1    H3 2867   3.185   3.259  11.057  1.0555 -0.2506 -0.4283
  188MPD1     N 2868   3.053   3.120  10.654  0.6223  0.0673  0.5133
  188MPD1    H5 2869   3.066   3.026  10.689  1.5846  0.1694  0.4158
  188MPD1    N1 2870   3.184   3.592  10.742  0.1620  0.1757 -0.4590
  188MPD1    H6 2871   3.277   3.627  10.764  0.4962 -1.1469  0.2553
  188MPD1    H7 2872   3.180   3.604  10.641 -1.9634  0.3067 -0.3436
  189MPD1     C 2873   0.001   4.035   0.080  0.1348  0.0183  0.8552
  189MPD1    C1 2874   4.601   3.998   0.133  0.3616 -0.3102 -0.4292
  189MPD1    C2 2875   4.492   3.998   0.045  0.2418  0.3104  0.0994
  189MPD1    C3 2876   4.501   4.040  17.614 -0.1840  0.4895  0.7895
  189MPD1    C4 2877   4.620   4.081  17.564 -0.4039 -0.0818 -0.4893
  189MPD1    C5 2878   0.003   4.084  17.647 -0.8873  0.1483 -0.1570
  189MPD1     H 2879   4.395   3.974   0.087  1.0432 -1.7467  0.7580
  189MPD1    H1 2880   4.628   4.141  17.474  1.8471 -1.7150 -1.3820
  189MPD1    H2 2881   0.082   4.051   0.150  0.7779  0.7987 -0.0624
  189MPD1    H3 2882   0.098   4.115  17.605  0.0069 -2.1615  0.1545
  189MPD1     N 2883   4.380   4.051  17.550 -0.2217  0.4004 -1.2136
  189MPD1    H5 2884   4.298   4.044  17.610 -0.3509 -1.5321 -1.6205
  189MPD1    N1 2885   4.575   3.968   0.261 -0.7298 -0.2347  0.3447
  189MPD1    H6 2886   4.495   3.908   0.278 -0.8710 -0.1070  0.1439
  189MPD1    H7 2887   4.662   3.935   0.301 -0.9438  0.2817  1.2337
  190MPD1     C 2888   3.188   3.542  16.285  1.0660  0.0483  0.5354
  190MPD1    C1 2889   3.180   3.427  16.365  0.2632 -0.2192 -0.1863
  190MPD1    C2 2890   3.231   3.309  16.310 -0.2804 -0.0349  0.4003
  190MPD1    C3 2891   3.297   3.307  16.191  0.5433 -0.1951  0.4338
  190MPD1    C4 2892   3.323   3.424  16.131 -0.7028 -0.2131  0.9445
  190MPD1    C5 2893   3.265   3.536  16.175 -0.0696 -0.1158 -0.1226
  190MPD1     H 2894   3.226   3.223  16.376  0.1217 -1.0435 -0.8858
  190MPD1    H1 2895   3.395   3.435  16.051  0.7060 -2.5000  1.8625
  190MPD1    H2 2896   3.129   3.631  16.301  0.6038 -0.4055  1.3335
  190MPD1    H3 2897   3.269   3.621  16.108  0.5935 -0.3693 -0.4063
  190MPD1     N 2898   3.351   3.184  16.151 -0.3519 -0.0857  0.7120
  190MPD1    H5 2899   3.329   3.101  16.205 -1.1622 -0.7104 -0.5735
  190MPD1    N1 2900   3.091   3.407  16.477 -0.8353  0.3021  0.2928
  190MPD1    H6 2901   3.057   3.494  16.517  1.7445  0.3111  2.4574
  190MPD1    H7 2902   3.119   3.345  16.552  1.1954  1.2224  0.2881
  191MPD1     C 2903   3.060   4.134  12.706 -0.3475 -0.6089 -0.0486
  191MPD1    C1 2904   3.112   4.253  12.678 -0.5236 -0.4227 -0.1650
  191MPD1    C2 2905   3.063   4.338  12.579  0.0906 -0.0568  0.2976
  191MPD1    C3 2906   2.962   4.289  12.493 -0.2365 -0.2207  0.4623
  191MPD1    C4 2907   2.895   4.168  12.530  0.1948  0.0422 -0.3252
  191MPD1    C5 2908   2.955   4.091  12.629 -0.3050 -0.1430  0.2548
  191MPD1     H 2909   3.104   4.437  12.563 -0.3359 -0.2302 -1.9043
  191MPD1    H1 2910   2.812   4.129  12.472 -0.4080  0.5672  0.1883
  191MPD1    H2 2911   3.085   4.062  12.783  0.4386  0.7043  0.9028
  191MPD1    H3 2912   2.915   3.992  12.648 -0.4788  0.0834  1.0983
  191MPD1     N 2913   2.915   4.380  12.394 -1.0182  0.3566 -0.6212
  191MPD1    H5 2914   2.969   4.466  12.385 -0.2871 -0.2659 -2.0724
  191MPD1    N1 2915   3.199   4.303  12.777 -0.1606 -1.0795  0.3141
  191MPD1    H6 2916   3.260   4.377  12.743 -2.4990 -0.0293 -1.6325
  191MPD1    H7 2917   3.260   4.229  12.811  2.5861  0.8620 -0.4242
  192MPD1     C 2918   2.299   4.223  11.601 -1.1756  0.0218 -0.0726
  192MPD1    C1 2919   2.292   4.358  11.623 -0.0272  0.0137  0.6349
  192MPD1    C2 2920   2.359   4.410  11.735  0.5301 -0.3557 -0.5247
  192MPD1    C3 2921   2.438   4.334  11.821  0.0590  0.5645 -0.2506
  192MPD1    C4 2922   2.439   4.200  11.793 -0.0720  0.4163  0.8722
  192MPD1    C5 2923   2.376   4.149  11.683 -0.3039 -0.9406  0.8577
  192MPD1     H 2924   2.350   4.516  11.751  1.3804  0.2908 -4.3384
  192MPD1    H1 2925   2.503   4.131  11.848  0.6449  2.9062  3.1741
  192MPD1    H2 2926   2.261   4.174  11.512  0.3984 -0.6404 -0.3868
  192MPD1    H3 2927   2.383   4.041  11.676 -1.0386 -0.9075 -0.2406
  192MPD1     N 2928   2.520   4.390  11.922 -0.2445  0.4053  0.4500
  192MPD1    H5 2929   2.587   4.326  11.962 -1.2046 -0.6760  0.3443
  192MPD1    N1 2930   2.207   4.434  11.548  0.6249  0.5841 -0.8636
  192MPD1    H6 2931   2.190   4.404  11.452 -1.5349  0.2340 -0.3607
  192MPD1    H7 2932   2.245   4.528  11.531  1.0635  0.5609 -0.0124
  193MPD1     C 2933   2.232   0.008  16.613 -0.0745  0.1076  0.4113
  193MPD1    C1 2934   2.163   0.107  16.679 -0.2853  0.2027 -0.9883
  193MPD1    C2 2935   2.238   0.203  16.740 -0.5390 -0.9122 -0.6209
  193MPD1    C3 2936   2.379   0.204  16.743 -0.1946  0.1223  0.1282
  193MPD1    C4 2937   2.439   0.103  16.680  0.3036 -0.3396 -0.6279
  193MPD1    C5 2938   2.366   0.006  16.619  0.1351  0.4648  0.1341
  193MPD1     H 2939   2.188   0.278  16.800  2.1291  0.0292  0.4097
  193MPD1    H1 2940   2.546   0.113  16.663  0.6330 -0.8441  1.1709
  193MPD1    H2 2941   2.184   4.658  16.550 -1.8526  1.4769  0.1564
  193MPD1    H3 2942   2.414   4.647  16.567 -1.6149 -1.1066  1.0290
  193MPD1     N 2943   2.461   0.315  16.796  0.0899  0.6447  0.0720
  193MPD1    H5 2944   2.557   0.284  16.797 -0.2154 -0.3564 -0.4709
  193MPD1    N1 2945   2.029   0.127  16.659 -0.2903  0.5320  0.2643
  193MPD1    H6 2946   1.975   0.044  16.680 -1.1858  0.6950 -1.4018
  193MPD1    H7 2947   1.990   0.197  16.722 -3.6003  0.0680 -1.2997
  194MPD1     C 2948   0.508   2.251  16.929  0.1785 -0.5748 -0.0548
  194MPD1    C1 2949   0.418   2.160  16.871  0.1542  0.2518  0.1762
  194MPD1    C2 2950   0.363   2.065  16.951  0.8519 -0.2971 -0.5146
  194MPD1    C3 2951   0.407   2.041  17.079  0.3626  0.6871 -0.0116
  194MPD1    C4 2952   0.498   2.128  17.131  0.0714  0.8873 -0.5923
  194MPD1    C5 2953   0.550   2.234  17.055  0.2747  0.3606  0.5674
  194MPD1     H 2954   0.272   2.024  16.910  0.4678  0.5242 -0.4769
  194MPD1    H1 2955   0.538   2.114  17.231  0.5561  0.5090 -0.8373
  194MPD1    H2 2956   0.549   2.335  16.875 -0.7791 -0.9319 -1.3553
  194MPD1    H3 2957   0.640   2.284  17.089  1.2397 -0.5104 -0.6874
  194MPD1     N 2958   0.345   1.947  17.171 -0.6140  0.3205  0.8507
  194MPD1    H5 2959   0.385   1.929  17.262  1.3312 -4.5589 -0.9228
  194MPD1    N1 2960   0.354   2.193  16.749 -0.2013  1.0751  0.5732
  194MPD1    H6 2961   0.320   2.112  16.698 -1.4987  1.3384  1.0124
  194MPD1    H7 2962   0.412   2.246  16.684  0.0216  1.2599  0.9199
  195MPD1     C 2963   2.069   3.326   0.073  0.1872 -0.2137 -0.0499
  195MPD1    C1 2964   2.168   3.254   0.006 -0.2247 -0.5968 -0.4491
  195MPD1    C2 2965   2.150   3.116  17.682  0.0404  0.0331 -0.3804
  195MPD1    C3 2966   2.030   3.053   0.024  0.1699 -0.1058  0.5673
  195MPD1    C4 2967   1.934   3.129   0.086  0.1966 -0.7789 -0.0689
  195MPD1    C5 2968   1.954   3.262   0.116  0.0876  0.4789 -0.1089
  195MPD1     H 2969   2.230   3.059  17.636 -1.4932 -1.4489 -1.2173
  195MPD1    H1 2970   1.849   3.084   0.138 -0.2540  0.1455  0.0028
  195MPD1    H2 2971   2.075   3.428   0.108  0.3463 -0.1425 -0.2884
  195MPD1    H3 2972   1.885   3.315   0.180  1.7139 -0.1785  2.1902
  195MPD1     N 2973   2.004   2.918   0.008 -0.1424 -0.5283  0.1714
  195MPD1    H5 2974   1.915   2.883   0.040  0.1791 -1.9307 -0.4781
  195MPD1    N1 2975   2.285   3.320  17.676  0.1240  0.7448 -0.4731
  195MPD1    H6 2976   2.259   3.407  17.631 -1.4589 -0.3213 -1.6242
  195MPD1    H7 2977   2.338   3.276  17.601 -0.1986 -1.5464  0.6174
  196MPD1     C 2978   2.191   3.140   0.909 -0.1893 -0.1396  0.3129
  196MPD1    C1 2979   2.188   3.250   0.828  0.0359  0.4155 -0.2024
  196MPD1    C2 2980   2.110   3.360   0.872  0.0014  0.4873 -0.1824
  196MPD1    C3 2981   2.023   3.346   0.979 -1.2193 -0.6713 -0.8808
  196MPD1    C4 2982   2.025   3.231   1.057 -0.2178  0.9368 -0.1889
  196MPD1    C5 2983   2.108   3.131   1.016 -0.2905  0.5441 -0.5537
  196MPD1     H 2984   2.128   3.452   0.818  1.9278  0.8392  1.0377
  196MPD1    H1 2985   1.962   3.227   1.145 -0.1825 -0.6635 -0.2377
  196MPD1    H2 2986   2.259   3.056   0.902 -1.6370 -1.2221 -0.6954
  196MPD1    H3 2987   2.117   3.039   1.073 -1.1616  1.1905  0.6070
  196MPD1     N 2988   1.942   3.453   1.032  0.1521 -0.4791  0.8251
  196MPD1    H5 2989   1.874   3.434   1.105 -1.4211  1.6263 -0.1163
  196MPD1    N1 2990   2.292   3.258   0.732  0.5634 -0.1188  0.8313
  196MPD1    H6 2991   2.287   3.324   0.655 -0.4796 -0.5765  0.5036
  196MPD1    H7 2992   2.308   3.166   0.690 -2.5636  0.9116 -2.5934
  197MPD1     C 2993   1.347   0.318   0.213 -0.2341 -0.4925 -0.0767
  197MPD1    C1 2994   1.377   0.453   0.219 -0.0959  0.3550 -0.1491
  197MPD1    C2 2995   1.367   0.528   0.107 -0.0114 -0.0743 -0.4666
  197MPD1    C3 2996   1.298   0.483  17.692 -0.1825  0.4247  0.2355
  197MPD1    C4 2997   1.250   0.353   0.002 -0.7006  0.5775 -0.0156
  197MPD1    C5 2998   1.279   0.269   0.108 -0.4727  0.1292 -0.1459
  197MPD1     H 2999   1.403   0.630   0.104 -2.7943  1.0145  2.3074
  197MPD1    H1 3000   1.178   0.321  17.623  0.5027  2.3633 -1.9332
  197MPD1    H2 3001   1.389   0.254   0.290  0.9888  2.0329  1.3690
  197MPD1    H3 3002   1.248   0.165   0.120  1.3441 -0.1498  2.3417
  197MPD1     N 3003   1.264   0.572  17.592  0.2800  0.1532  0.2250
  197MPD1    H5 3004   1.223   0.537  17.506  0.2339 -3.2924  1.6286
  197MPD1    N1 3005   1.473   0.496   0.311  0.1514  0.0337  0.0649
  197MPD1    H6 3006   1.461   0.452   0.402  0.1018  0.3246  0.1975
  197MPD1    H7 3007   1.475   0.597   0.322  2.6761 -0.0380  0.2424
  198MPD1     C 3008   2.908   3.459  15.331  0.5598 -0.3520 -0.0071
  198MPD1    C1 3009   2.911   3.507  15.459  0.2518  0.2590  0.4426
  198MPD1    C2 3010   2.921   3.642  15.484 -0.3060 -0.5239 -0.2923
  198MPD1    C3 3011   2.927   3.729  15.378  0.4037  0.1257 -0.3116
  198MPD1    C4 3012   2.919   3.684  15.247 -0.2784 -0.0877 -0.0303
  198MPD1    C5 3013   2.910   3.547  15.227  0.2942 -0.0904  0.1784
  198MPD1     H 3014   2.922   3.678  15.587 -0.4167  0.5018 -0.6526
  198MPD1    H1 3015   2.920   3.746  15.159 -4.0517  0.0222 -0.0261
  198MPD1    H2 3016   2.893   3.353  15.314  1.5369 -0.3212 -1.0277
  198MPD1    H3 3017   2.897   3.503  15.129  1.0588  0.9506 -0.4010
  198MPD1     N 3018   2.929   3.867  15.404 -0.3300 -0.1338  0.3434
  198MPD1    H5 3019   2.943   3.888  15.502  2.1627  0.7985 -0.2200
  198MPD1    N1 3020   2.905   3.410  15.564  0.2134  0.5195 -0.5618
  198MPD1    H6 3021   2.900   3.460  15.653  1.0753  0.2854 -0.3899
  198MPD1    H7 3022   2.822   3.351  15.559  0.8334 -0.4102  0.3141
  199MPD1     C 3023   0.782   3.739   9.337 -0.2419 -0.4639  0.6247
  199MPD1    C1 3024   0.721   3.829   9.251  0.3136  0.2392  0.6782
  199MPD1    C2 3025   0.695   3.951   9.302 -0.1004 -0.6095  0.0108
  199MPD1    C3 3026   0.705   3.978   9.438 -0.2470  0.3770 -0.1566
  199MPD1    C4 3027   0.771   3.886   9.519  0.0969  0.9823 -0.1913
  199MPD1    C5 3028   0.811   3.770   9.467 -0.4654 -0.4026  0.4910
  199MPD1     H 3029   0.669   4.036   9.240  1.4265 -1.5537 -1.9416
  199MPD1    H1 3030   0.793   3.895   9.625  2.7793 -3.0393 -0.4237
  199MPD1    H2 3031   0.820   3.641   9.307  1.8221  1.1390 -2.0157
  199MPD1    H3 3032   0.867   3.701   9.530  1.0177  0.2151 -0.1633
  199MPD1     N 3033   0.669   4.106   9.495 -0.4765  0.5052 -0.2986
  199MPD1    H5 3034   0.696   4.125   9.591 -0.6175  2.0439 -0.5534
  199MPD1    N1 3035   0.703   3.818   9.113  0.3007  0.0600 -0.1294
  199MPD1    H6 3036   0.668   3.726   9.088  0.3143  0.2917 -1.0138
  199MPD1    H7 3037   0.622   3.875   9.088  0.2126  0.6407  1.4760
  200MPD1     C 3038   4.073   0.450  14.899  0.1127 -0.0152 -0.6965
  200MPD1    C1 3039   4.043   0.405  14.772 -0.6123 -0.0691  0.2232
  200MPD1    C2 3040   4.143   0.350  14.692 -0.2095 -0.5339 -0.3109
  200MPD1    C3 3041   4.266   0.318  14.749  0.2691 -0.1876  0.4004
  200MPD1    C4 3042   4.294   0.348  14.882  0.9170 -0.5236 -0.4267
  200MPD1    C5 3043   4.190   0.410  14.958  0.6902 -0.0167 -0.4702
  200MPD1     H 3044   4.123   0.303  14.597  1.7385  0.1040 -1.0238
  200MPD1    H1 3045   4.389   0.327  14.929  0.1731 -2.4283  0.2285
  200MPD1    H2 3046   4.003   0.501  14.965  0.0522 -0.9024 -0.0868
  200MPD1    H3 3047   4.199   0.437  15.063  3.0458 -2.8099  0.0460
  200MPD1     N 3048   4.363   0.250  14.666 -0.1874 -0.3258  0.4141
  200MPD1    H5 3049   4.343   0.243  14.567  0.2586  0.1672  0.2901
  200MPD1    N1 3050   3.917   0.440  14.715 -0.5797  0.6458  0.4882
  200MPD1    H6 3051   3.890   0.378  14.638  0.2659  0.5780  0.2438
  200MPD1    H7 3052   3.848   0.470  14.784  0.7795  3.2663  0.7232
  201MPD1     C 3053   1.742   4.520  13.377  0.3388 -0.3141 -0.0482
  201MPD1    C1 3054   1.869   4.489  13.431 -0.0535  0.2197  0.1055
  201MPD1    C2 3055   1.920   4.366  13.401 -0.3275  0.3127 -0.2133
  201MPD1    C3 3056   1.841   4.263  13.349  0.2896 -0.2424  0.2351
  201MPD1    C4 3057   1.712   4.287  13.311  0.0879 -0.1827 -0.3749
  201MPD1    C5 3058   1.672   4.424  13.321  0.5834  0.1241 -0.5063
  201MPD1     H 3059   2.023   4.346  13.430 -0.3000  0.3343 -0.2952
  201MPD1    H1 3060   1.637   4.224  13.264  1.4698 -1.6789 -0.5476
  201MPD1    H2 3061   1.685   4.612  13.386  0.2740 -0.5618  2.1979
  201MPD1    H3 3062   1.572   4.447  13.286 -1.0721 -1.9384  2.9092
  201MPD1     N 3063   1.898   4.132  13.333  0.1510 -0.1937 -1.2575
  201MPD1    H5 3064   1.991   4.122  13.373 -0.6780  1.4247  1.0523
  201MPD1    N1 3065   1.954   4.585  13.498  0.5683  0.5953  0.1389
  201MPD1    H6 3066   1.899   4.663  13.532 -0.6125  1.3227 -3.4351
  201MPD1    H7 3067   2.027   4.562  13.565 -0.7009 -1.9237  0.6568
  202MPD1     C 3068   2.732   4.115  10.697  0.7138 -0.5107  0.0537
  202MPD1    C1 3069   2.681   4.088  10.577  0.1081 -0.0328  0.4712
  202MPD1    C2 3070   2.586   3.985  10.562  0.5458 -0.3331  0.3992
  202MPD1    C3 3071   2.577   3.882  10.659  0.5306  0.5296  0.0596
  202MPD1    C4 3072   2.654   3.896  10.769 -0.0787 -0.6764 -0.9936
  202MPD1    C5 3073   2.717   4.017  10.795  0.6395  0.2348  1.1437
  202MPD1     H 3074   2.540   3.989  10.464  0.5910  0.7984  0.4206
  202MPD1    H1 3075   2.646   3.827  10.852 -0.8515 -2.2303 -2.3746
  202MPD1    H2 3076   2.784   4.207  10.722 -0.5534 -0.3573  2.1219
  202MPD1    H3 3077   2.770   4.025  10.889  1.1174  1.7640  0.7406
  202MPD1     N 3078   2.493   3.775  10.644 -1.1748 -0.1354  0.1745
  202MPD1    H5 3079   2.495   3.704  10.716 -0.5875 -1.1480 -0.8534
  202MPD1    N1 3080   2.664   4.205  10.500 -0.2430 -0.4200  0.7243
  202MPD1    H6 3081   2.649   4.188  10.401 -0.8438 -1.8941  1.0685
  202MPD1    H7 3082   2.740   4.273  10.505  0.2543 -0.8423 -1.2047
  203MPD1     C 3083   0.549   0.019  12.875 -0.4575 -0.0274  0.7560
  203MPD1    C1 3084   0.522   4.669  12.756 -0.1306 -0.5631  0.2482
  203MPD1    C2 3085   0.568   4.540  12.759  0.1799 -0.5991 -0.3792
  203MPD1    C3 3086   0.647   4.490  12.858  0.1239  0.9764 -0.5452
  203MPD1    C4 3087   0.677   4.567  12.971  0.3255 -0.2687  0.5951
  203MPD1    C5 3088   0.630   4.696  12.974 -0.2890 -0.4788  0.4938
  203MPD1     H 3089   0.551   4.482  12.668  1.1443  0.9644 -1.5498
  203MPD1    H1 3090   0.741   4.528  13.049 -1.0509 -1.7504  0.9961
  203MPD1    H2 3091   0.504   0.116  12.892 -0.7354 -0.3396  1.8154
  203MPD1    H3 3092   0.655   0.030  13.063  0.6224  2.3267 -1.5824
  203MPD1     N 3093   0.695   4.358  12.832 -0.1509  0.3772 -0.0045
  203MPD1    H5 3094   0.653   4.318  12.748  2.4466 -1.0228 -0.6392
  203MPD1    N1 3095   0.476   0.004  12.635  0.0434  0.4302 -0.3411
  203MPD1    H6 3096   0.414   4.664  12.584 -0.4357 -0.1876  1.0126
  203MPD1    H7 3097   0.420   0.078  12.676 -0.5535  0.1948 -0.7224
  204MPD1     C 3098   4.505   0.230   0.539 -0.6026  0.1878 -0.9996
  204MPD1    C1 3099   4.624   0.152   0.544 -0.7668  0.3382 -0.3415
  204MPD1    C2 3100   4.660   0.087   0.431 -0.4306 -0.7627 -0.9553
  204MPD1    C3 3101   4.596   0.113   0.310 -0.0282  0.1029 -0.6773
  204MPD1    C4 3102   4.479   0.189   0.306 -0.6763  0.5785  0.0407
  204MPD1    C5 3103   4.436   0.240   0.425  0.5906 -0.1591  0.2905
  204MPD1     H 3104   0.029   0.031   0.419 -0.7838 -1.1945 -1.6611
  204MPD1    H1 3105   4.426   0.216   0.215  1.1566  1.2125 -0.8429
  204MPD1    H2 3106   4.470   0.283   0.626 -0.9915  1.2652 -1.8216
  204MPD1    H3 3107   4.356   0.313   0.426 -0.6108 -1.4806  0.7920
  204MPD1     N 3108   4.656   0.062   0.190 -0.3528 -0.5723  0.4985
  204MPD1    H5 3109   0.000   4.712   0.209  2.1589  2.5651  3.7253
  204MPD1    N1 3110   4.701   0.160   0.657  0.0984  0.7505  1.1925
  204MPD1    H6 3111   0.055   0.095   0.664 -2.6541 -2.7846 -1.0317
  204MPD1    H7 3112   4.655   0.151   0.747  0.1334  0.4305  1.1788
  205MPD1     C 3113   0.143   3.566  16.747  0.9199  0.2162 -0.3085
  205MPD1    C1 3114   0.107   3.684  16.800  0.7182  0.4070 -0.2727
  205MPD1    C2 3115   0.204   3.758  16.869  0.1211 -0.2547  0.1170
  205MPD1    C3 3116   0.325   3.699  16.890 -0.0985  0.1718 -0.7864
  205MPD1    C4 3117   0.359   3.572  16.846  0.4236  0.3629  1.3102
  205MPD1    C5 3118   0.267   3.507  16.763 -0.5880 -0.1723 -0.1136
  205MPD1     H 3119   0.192   3.854  16.919  0.2137 -1.2513  2.0628
  205MPD1    H1 3120   0.465   3.549  16.853 -0.0258 -1.9901  0.6162
  205MPD1    H2 3121   0.065   3.523  16.686  1.2237  0.4877 -0.8846
  205MPD1    H3 3122   0.300   3.414  16.718 -0.3288 -1.0695  1.9727
  205MPD1     N 3123   0.422   3.758  16.969  0.1514 -0.1828  0.4111
  205MPD1    H5 3124   0.505   3.701  16.978 -0.2759 -1.1538 -1.7747
  205MPD1    N1 3125   4.705   3.729  16.760  0.0481 -0.2283  0.8095
  205MPD1    H6 3126   4.655   3.784  16.829 -0.0949  0.7552 -0.0715
  205MPD1    H7 3127   4.648   3.649  16.733 -0.7860  0.3075  0.9763
  206MPD1     C 3128   4.555   2.247  16.724  0.2259  0.1280 -0.1526
  206MPD1    C1 3129   4.661   2.157  16.749  0.4255  0.6769  0.2775
  206MPD1    C2 3130   0.033   2.126  16.655  0.1404 -0.3732 -0.3401
  206MPD1    C3 3131   0.011   2.169  16.526 -0.7613  0.7729  0.3707
  206MPD1    C4 3132   4.621   2.236  16.499 -0.7567 -0.0390  0.0552
  206MPD1    C5 3133   4.540   2.289  16.590  0.8596  0.2322  0.6259
  206MPD1     H 3134   0.123   2.071  16.682 -0.0330 -0.5823 -0.1838
  206MPD1    H1 3135   4.593   2.267  16.400 -0.2581 -1.0558 -0.4055
  206MPD1    H2 3136   4.492   2.283  16.805  0.1340  0.5688 -0.4139
  206MPD1    H3 3137   4.476   2.373  16.563 -1.7244 -1.9246 -0.0278
  206MPD1     N 3138   0.096   2.132  16.416 -0.0522  0.0823 -0.2009
  206MPD1    H5 3139   0.064   2.163  16.325 -0.3744  0.3903  0.0108
  206MPD1    N1 3140   4.685   2.135  16.886 -0.6329 -0.8302 -0.6758
  206MPD1    H6 3141   0.011   2.047  16.899  0.9322  0.1463 -0.0022
  206MPD1    H7 3142   4.603   2.131  16.945 -1.6675 -1.7799 -2.1619
  207MPD1     C 3143   2.650   3.446  10.345 -0.1901 -0.5221  0.1768
  207MPD1    C1 3144   2.652   3.573  10.282 -0.5757 -0.0165  0.0996
  207MPD1    C2 3145   2.712   3.671  10.355  0.1910 -0.2254 -0.0602
  207MPD1    C3 3146   2.789   3.640  10.470 -0.3210  0.4732  0.0463
  207MPD1    C4 3147   2.789   3.511  10.524 -0.1432 -0.2899  0.1195
  207MPD1    C5 3148   2.718   3.418  10.460 -0.1328 -0.3054 -0.2890
  207MPD1     H 3149   2.706   3.774  10.321  1.7097  0.0337  0.4473
  207MPD1    H1 3150   2.857   3.468  10.597  0.9765 -0.8718 -1.2616
  207MPD1    H2 3151   2.592   3.366  10.300 -2.1438  0.0853  1.6289
  207MPD1    H3 3152   2.705   3.319  10.503 -0.3354 -0.4047 -0.5788
  207MPD1     N 3153   2.869   3.734  10.528 -0.8019  0.0685 -0.3988
  207MPD1    H5 3154   2.882   3.729  10.628  0.8161  0.9471 -0.5719
  207MPD1    N1 3155   2.576   3.599  10.167 -0.1672  0.0773 -0.4012
  207MPD1    H6 3156   2.622   3.667  10.106  1.0025  0.8086  1.2852
  207MPD1    H7 3157   2.564   3.521  10.103 -0.3998 -0.7325  0.6547
  208MPD1     C 3158   2.037   3.683   0.513 -0.0913  0.5051  0.4163
  208MPD1    C1 3159   1.977   3.575   0.456  0.4520  0.1139  0.5446
  208MPD1    C2 3160   1.840   3.566   0.434  0.6391 -0.1896  0.2068
  208MPD1    C3 3161   1.761   3.663   0.499 -0.2735 -0.0799  0.0862
  208MPD1    C4 3162   1.819   3.772   0.562 -0.4122  0.3188 -0.3871
  208MPD1    C5 3163   1.956   3.780   0.564 -0.3350  0.2468  0.3250
  208MPD1     H 3164   1.791   3.490   0.375 -1.5829  2.0123 -0.8108
  208MPD1    H1 3165   1.767   3.863   0.588 -1.7243 -0.5517 -0.0207
  208MPD1    H2 3166   2.143   3.699   0.527 -0.4802  2.0135  1.5706
  208MPD1    H3 3167   1.994   3.867   0.617  1.9776 -0.4265 -0.1940
  208MPD1     N 3168   1.621   3.643   0.488  1.0411 -0.0474  0.0711
  208MPD1    H5 3169   1.591   3.570   0.424  1.4113 -0.4769  0.3931
  208MPD1    N1 3170   2.058   3.476   0.395 -0.1174  0.0135  0.0626
  208MPD1    H6 3171   2.021   3.382   0.383  2.1484 -0.9516  0.5219
  208MPD1    H7 3172   2.149   3.474   0.442  1.1727  0.3185 -2.3843
  209MPD1     C 3173   3.682   4.118  12.167 -0.3388  0.0283  0.3135
  209MPD1    C1 3174   3.708   4.224  12.081 -0.3139 -0.4093  0.1553
  209MPD1    C2 3175   3.608   4.257  11.990  0.2534 -0.2257 -0.1184
  209MPD1    C3 3176   3.490   4.186  11.970 -0.0413  0.8058 -0.1494
  209MPD1    C4 3177   3.474   4.067  12.048 -0.0290  0.6020 -0.1941
  209MPD1    C5 3178   3.569   4.048  12.147 -0.4853  0.2142  0.2374
  209MPD1     H 3179   3.622   4.343  11.925  0.3762 -2.0373 -2.4760
  209MPD1    H1 3180   3.385   4.007  12.035  0.2725  0.0431  0.2989
  209MPD1    H2 3181   3.754   4.083  12.240 -0.4427 -0.3139  0.2541
  209MPD1    H3 3182   3.558   3.962  12.212  1.9710 -0.5219 -0.3554
  209MPD1     N 3183   3.389   4.227  11.881 -0.6690  0.3711  0.3414
  209MPD1    H5 3184   3.418   4.313  11.837 -1.6813  0.5330 -0.0044
  209MPD1    N1 3185   3.829   4.293  12.098  0.0415 -0.4072  0.1717
  209MPD1    H6 3186   3.852   4.356  12.022 -1.6062  1.8439  1.5430
  209MPD1    H7 3187   3.906   4.235  12.130  0.9909  1.3585  1.0825
  210MPD1     C 3188   3.344   0.282  11.536 -0.1973 -0.4215 -0.6229
  210MPD1    C1 3189   3.237   0.223  11.470 -0.2412  0.0353 -0.4330
  210MPD1    C2 3190   3.212   0.087  11.474  0.6531 -0.8173 -0.3979
  210MPD1    C3 3191   3.281   0.010  11.563 -0.2753  0.0061  0.2992
  210MPD1    C4 3192   3.382   0.072  11.632  0.4408 -1.2655  0.2189
  210MPD1    C5 3193   3.414   0.206  11.621  0.4772 -0.0204 -0.0545
  210MPD1     H 3194   3.130   0.054  11.411  1.3863  0.7415 -2.1674
  210MPD1    H1 3195   3.446   0.019  11.702  3.3817  1.3815 -0.4806
  210MPD1    H2 3196   3.346   0.391  11.535 -0.5060 -0.3996  0.9441
  210MPD1    H3 3197   3.490   0.251  11.684 -1.2881  2.6212  0.1959
  210MPD1     N 3198   3.258   4.597  11.598  0.1545 -0.1439  0.6910
  210MPD1    H5 3199   3.309   4.548  11.671 -0.6743 -4.0171 -1.3698
  210MPD1    N1 3200   3.158   0.302  11.386  0.3461  0.0828 -0.4084
  210MPD1    H6 3201   3.060   0.279  11.375  0.5337 -0.1822 -1.5375
  210MPD1    H7 3202   3.162   0.403  11.401 -1.4166 -0.0787  1.0986
  211MPD1     C 3203   0.388   3.686  16.212  0.2715  0.0699  0.4733
  211MPD1    C1 3204   0.335   3.659  16.336  0.3208  0.1016  0.1856
  211MPD1    C2 3205   0.246   3.750  16.391 -0.2144 -0.3456  1.0009
  211MPD1    C3 3206   0.194   3.854  16.322  0.3937 -0.6725 -0.0655
  211MPD1    C4 3207   0.250   3.881  16.204  0.0063 -0.4779 -0.3175
  211MPD1    C5 3208   0.346   3.799  16.148 -0.2480  0.3320 -0.0380
  211MPD1     H 3209   0.217   3.732  16.494  2.3940 -1.1608  1.5797
  211MPD1    H1 3210   0.220   3.960  16.136  0.6520 -2.1649 -2.5886
  211MPD1    H2 3211   0.457   3.619  16.162 -0.9602  0.3603 -1.5852
  211MPD1    H3 3212   0.387   3.811  16.049  1.8564  1.9886  1.0221
  211MPD1     N 3213   0.095   3.938  16.376  0.4301 -0.4553 -0.0826
  211MPD1    H5 3214   0.078   3.940  16.476  0.6683  1.6688 -0.0853
  211MPD1    N1 3215   0.384   3.551  16.413 -0.0407  0.0142  0.1028
  211MPD1    H6 3216   0.315   3.522  16.482 -0.8995 -1.6747 -1.4388
  211MPD1    H7 3217   0.420   3.472  16.359 -0.5798  0.3633 -0.7681
  212MPD1     C 3218   4.600   2.681  17.206 -0.1632 -0.3118 -0.4533
  212MPD1    C1 3219   4.640   2.573  17.128  0.5165  0.1683 -0.3285
  212MPD1    C2 3220   4.566   2.461  17.105 -0.1545 -0.2257  0.1038
  212MPD1    C3 3221   4.450   2.449  17.186 -0.7543  0.3248 -0.4568
  212MPD1    C4 3222   4.406   2.560  17.260 -0.5952 -0.2925 -0.5932
  212MPD1    C5 3223   4.483   2.669  17.274  0.1984 -0.1227 -0.5637
  212MPD1     H 3224   4.601   2.374  17.050  0.1294 -0.5651  0.8276
  212MPD1    H1 3225   4.312   2.561  17.314  0.2487  1.4844  0.8261
  212MPD1    H2 3226   4.651   2.776  17.211 -1.1937  0.1716  0.9191
  212MPD1    H3 3227   4.447   2.765  17.311 -0.3625  0.1463 -1.7804
  212MPD1     N 3228   4.372   2.331  17.198 -0.3207  0.2177  0.0638
  212MPD1    H5 3229   4.285   2.338  17.248 -0.6867  0.7141 -0.6402
  212MPD1    N1 3230   0.032   2.596  17.050  0.2183  0.0972 -0.2932
  212MPD1    H6 3231   0.071   2.508  17.019 -0.4893  0.1679 -1.3852
  212MPD1    H7 3232   0.109   2.624  17.110 -1.2047 -0.8134  1.9718
  213MPD1     C 3233   2.716   3.701  15.835  0.4914  0.3269  0.4537
  213MPD1    C1 3234   2.677   3.781  15.728  0.1161  0.3173  0.0647
  213MPD1    C2 3235   2.598   3.725  15.634  0.6867  0.1279 -0.0565
  213MPD1    C3 3236   2.581   3.586  15.624 -0.6000 -0.2332 -0.1847
  213MPD1    C4 3237   2.629   3.507  15.727 -0.2727  0.7335  0.5744
  213MPD1    C5 3238   2.690   3.573  15.833 -0.2128 -0.4791  0.2273
  213MPD1     H 3239   2.537   3.786  15.569  0.2866 -1.0209 -0.7708
  213MPD1    H1 3240   2.610   3.400  15.732  0.6244  0.4726 -1.8616
  213MPD1    H2 3241   2.744   3.755  15.924  1.6415  0.5757 -0.0655
  213MPD1    H3 3242   2.738   3.517  15.914 -2.0639 -0.4364  1.3547
  213MPD1     N 3243   2.517   3.544  15.511  0.2286 -0.1933 -0.3030
  213MPD1    H5 3244   2.483   3.611  15.442 -0.7963 -1.7568 -1.3283
  213MPD1    N1 3245   2.670   3.921  15.756  0.1474  0.5156 -0.6137
  213MPD1    H6 3246   2.756   3.960  15.794 -0.2749  0.9699 -0.1160
  213MPD1    H7 3247   2.641   3.964  15.668  2.7434 -1.0020 -2.2140
  214MPD1     C 3248   1.902   2.775  15.267 -0.3601 -0.3733 -0.2202
  214MPD1    C1 3249   1.951   2.814  15.146  0.5770  0.4428  0.0784
  214MPD1    C2 3250   2.038   2.923  15.142 -0.2672 -0.0090  0.3512
  214MPD1    C3 3251   2.092   2.980  15.255  0.5034  0.5692 -0.5314
  214MPD1    C4 3252   2.047   2.930  15.375  0.3306 -0.0703  0.4199
  214MPD1    C5 3253   1.951   2.832  15.383  0.8570 -0.6660  0.5342
  214MPD1     H 3254   2.076   2.957  15.046 -0.7382  2.3869  1.0025
  214MPD1    H1 3255   2.078   2.989  15.460 -0.2396  0.3611  0.3321
  214MPD1    H2 3256   1.820   2.705  15.278  0.4448 -1.4904 -1.3351
  214MPD1    H3 3257   1.914   2.813  15.483  1.7832  0.1769  1.0321
  214MPD1     N 3258   2.190   3.085  15.256 -0.1285  0.3257  0.0931
  214MPD1    H5 3259   2.232   3.117  15.343  1.6960 -1.5818 -0.0718
  214MPD1    N1 3260   1.898   2.763  15.031 -0.3371  0.5667 -0.0452
  214MPD1    H6 3261   1.878   2.664  15.036 -0.6332  0.6679  0.7689
  214MPD1    H7 3262   1.974   2.766  14.963 -1.1038 -0.1943 -0.9357
  215MPD1     C 3263   1.923   0.054  11.272  0.3228 -0.2866 -0.2642
  215MPD1    C1 3264   2.016   0.004  11.182  0.0734 -1.1439 -0.7416
  215MPD1    C2 3265   2.146   4.717  11.229  0.3113 -0.8063  0.1309
  215MPD1    C3 3266   2.175   0.004  11.359  0.7655  0.4788  0.4973
  215MPD1    C4 3267   2.080   0.039  11.452  0.2904  0.4441 -0.1979
  215MPD1    C5 3268   1.955   0.073  11.401 -0.1145 -0.0013  0.0608
  215MPD1     H 3269   2.225   4.692  11.160  1.0638  2.2829 -0.1125
  215MPD1    H1 3270   2.098   0.062  11.556 -2.1409  1.1720  0.0754
  215MPD1    H2 3271   1.820   0.075  11.246  1.2405  0.3879 -3.3383
  215MPD1    H3 3272   1.881   0.103  11.474  1.0663  2.0010  0.4152
  215MPD1     N 3273   2.316   0.012  11.393  0.3629  0.0325 -0.2539
  215MPD1    H5 3274   2.383   0.031  11.318 -0.6240  0.4030 -1.0334
  215MPD1    N1 3275   1.990   0.013  11.044  0.3499 -0.5722 -0.4365
  215MPD1    H6 3276   2.052   4.675  10.992  1.6345 -0.7519  1.2801
  215MPD1    H7 3277   1.892   0.015  11.018  0.1770 -1.0265  0.1600
  216MPD1     C 3278   4.579   1.803  17.373 -0.1410 -0.2982 -0.4989
  216MPD1    C1 3279   4.640   1.726  17.468 -0.6552  0.8384  0.3862
  216MPD1    C2 3280   4.610   1.590  17.462  0.7393 -0.1114 -0.5672
  216MPD1    C3 3281   4.532   1.541  17.362 -0.1320  0.8772 -0.9272
  216MPD1    C4 3282   4.480   1.618  17.262  0.2766 -0.1735 -0.0527
  216MPD1    C5 3283   4.505   1.751  17.270 -0.0556  0.1193 -0.2304
  216MPD1     H 3284   4.647   1.516  17.532 -0.6306  0.1358  0.4236
  216MPD1    H1 3285   4.424   1.586  17.175 -1.6295 -0.4488  1.2671
  216MPD1    H2 3286   4.591   1.911  17.374  4.6392 -0.8211  2.1696
  216MPD1    H3 3287   4.477   1.817  17.189  0.1327 -1.0206 -1.2149
  216MPD1     N 3288   4.539   1.398  17.350  0.1881  0.2837 -0.7292
  216MPD1    H5 3289   4.593   1.342  17.415 -0.0420 -0.6498 -1.3395
  216MPD1    N1 3290   0.001   1.788  17.569 -0.2691 -0.5133  0.0722
  216MPD1    H6 3291   0.053   1.724  17.630 -0.5978 -1.3340 -0.5111
  216MPD1    H7 3292   0.058   1.867  17.541  3.0874 -1.5656  3.8701
  217MPD1     C 3293   0.760   2.054   8.454  0.5414  0.3133 -0.3509
  217MPD1    C1 3294   0.730   2.185   8.446  0.1018  0.2579  0.2987
  217MPD1    C2 3295   0.745   2.266   8.558 -0.5208  0.1040 -0.0547
  217MPD1    C3 3296   0.782   2.217   8.682  0.5614 -0.7369 -0.3321
  217MPD1    C4 3297   0.809   2.081   8.681 -0.7647 -0.1375 -0.2134
  217MPD1    C5 3298   0.797   1.996   8.571 -0.2885  0.0100 -0.2949
  217MPD1     H 3299   0.731   2.374   8.552 -2.9720 -0.2522 -0.7346
  217MPD1    H1 3300   0.847   2.031   8.769 -0.3660 -0.6983 -0.6972
  217MPD1    H2 3301   0.771   1.992   8.366  1.3242  0.8235 -0.6137
  217MPD1    H3 3302   0.826   1.892   8.573  2.7107  0.8536 -0.6132
  217MPD1     N 3303   0.808   2.293   8.799 -0.6593  0.1558 -0.3064
  217MPD1    H5 3304   0.854   2.251   8.879 -0.9727 -0.0478 -0.2335
  217MPD1    N1 3305   0.683   2.241   8.325  1.1294 -0.4577 -0.4871
  217MPD1    H6 3306   0.664   2.167   8.257  1.6926  0.7887 -1.9827
  217MPD1    H7 3307   0.593   2.286   8.342  1.7870  0.8769 -0.5728
  218MPD1     C 3308   2.969   0.258  12.530  0.4847  0.4149 -0.4278
  218MPD1    C1 3309   2.839   0.278  12.494  0.2071  1.0595  0.4663
  218MPD1    C2 3310   2.754   0.165  12.485 -0.3533 -0.3943  0.0457
  218MPD1    C3 3311   2.802   0.044  12.527  0.2548  0.2859  0.7118
  218MPD1    C4 3312   2.926   0.024  12.581 -0.2151  0.2913  0.1601
  218MPD1    C5 3313   3.006   0.134  12.576 -0.5860  0.7993  0.1101
  218MPD1     H 3314   2.651   0.165  12.451 -0.4095  2.1636  0.1995
  218MPD1    H1 3315   2.966   4.655  12.619 -0.7992  0.4035  1.0301
  218MPD1    H2 3316   3.041   0.338  12.544 -0.4214  1.0508  0.5657
  218MPD1    H3 3317   3.114   0.122  12.585 -0.4813  2.2227  0.6796
  218MPD1     N 3318   2.703   4.667  12.525 -0.1952  0.0982 -0.3081
  218MPD1    H5 3319   2.624   4.672  12.461  0.5321  1.1362 -1.1130
  218MPD1    N1 3320   2.788   0.407  12.469 -0.3668  0.2367 -0.7651
  218MPD1    H6 3321   2.862   0.457  12.421 -0.5778 -0.5433 -1.9219
  218MPD1    H7 3322   2.709   0.404  12.405 -0.1685  2.5045 -1.0948
  219MPD1     C 3323   1.995   4.220  12.004 -0.6616  0.7253 -0.6190
  219MPD1    C1 3324   2.083   4.321  11.994 -0.2519  0.0698  0.8114
  219MPD1    C2 3325   2.181   4.330  12.087 -0.1750 -0.4650  0.3318
  219MPD1    C3 3326   2.202   4.236  12.184  0.1131  0.1687  0.7605
  219MPD1    C4 3327   2.128   4.122  12.174  1.2108 -0.4420  0.5023
  219MPD1    C5 3328   2.022   4.118  12.094  0.2684 -0.4372  0.0057
  219MPD1     H 3329   2.256   4.408  12.085 -0.8130  0.1482  0.5011
  219MPD1    H1 3330   2.143   4.030  12.229  3.1722  0.5476  1.6113
  219MPD1    H2 3331   1.911   4.213  11.937 -1.5066  1.1108  0.4025
  219MPD1    H3 3332   1.952   4.036  12.099 -0.5703  0.2788  0.0458
  219MPD1     N 3333   2.303   4.239  12.284  0.1323 -0.5928 -0.6638
  219MPD1    H5 3334   2.318   4.153  12.335  0.7742 -0.7124 -1.0478
  219MPD1    N1 3335   2.060   4.424  11.895  0.6962  0.4354 -0.1375
  219MPD1    H6 3336   1.967   4.465  11.898 -0.4998 -2.3292  0.4903
  219MPD1    H7 3337   2.126   4.500  11.882  0.8845  0.3409  0.2686
  220MPD1     C 3338   2.127   1.104  10.189 -0.0245  0.1694 -0.6785
  220MPD1    C1 3339   2.087   1.088  10.323 -0.1319 -0.2615 -0.1080
  220MPD1    C2 3340   2.127   0.972  10.380  0.1898 -0.2607  0.1851
  220MPD1    C3 3341   2.200   0.874  10.311 -0.4612 -0.4645  0.2526
  220MPD1    C4 3342   2.237   0.896  10.184 -0.6747  0.7776  0.2884
  220MPD1    C5 3343   2.194   1.003  10.117  0.3633 -0.3475  0.1994
  220MPD1     H 3344   2.117   0.958  10.487  0.4975  1.3251  0.4141
  220MPD1    H1 3345   2.289   0.827  10.119 -0.9827 -1.1806  2.1138
  220MPD1    H2 3346   2.104   1.199  10.143 -2.5706 -1.0480 -1.8484
  220MPD1    H3 3347   2.228   1.020  10.015  0.1896  1.5625  0.4663
  220MPD1     N 3348   2.236   0.760  10.376  0.1376 -0.0758 -0.3309
  220MPD1    H5 3349   2.215   0.747  10.474  0.4979  0.2784 -0.2070
  220MPD1    N1 3350   2.014   1.194  10.387 -1.0627 -0.0887 -0.2861
  220MPD1    H6 3351   1.947   1.166  10.458  1.6900  2.4081  3.3496
  220MPD1    H7 3352   1.971   1.266  10.330 -0.7868 -0.5695 -1.0967
  221MPD1     C 3353   4.634   3.426  16.056  0.1936 -0.1494  0.5093
  221MPD1    C1 3354   0.015   3.470  16.132 -0.0451 -0.4347  0.0303
  221MPD1    C2 3355   0.025   3.410  16.257  0.2861 -0.1620 -0.4566
  221MPD1    C3 3356   4.672   3.300  16.297  0.1603  0.7182  0.0891
  221MPD1    C4 3357   4.580   3.249  16.214  0.7393  0.0590  0.0862
  221MPD1    C5 3358   4.554   3.313  16.099  0.5436 -0.5495 -0.1880
  221MPD1     H 3359   0.089   3.462  16.328 -1.8846  2.8571 -0.7374
  221MPD1    H1 3360   4.530   3.155  16.234 -0.1327  0.7753  1.2806
  221MPD1    H2 3361   4.602   3.474  15.964  1.9755 -1.4500 -0.7736
  221MPD1    H3 3362   4.470   3.274  16.042  0.4465  1.6199 -1.5220
  221MPD1     N 3363   4.687   3.238  16.426  0.2428  0.5492 -0.4883
  221MPD1    H5 3364   4.634   3.154  16.443  3.5422 -0.4870  4.7636
  221MPD1    N1 3365   0.078   3.589  16.107  0.2326 -0.4820 -0.0269
  221MPD1    H6 3366   0.161   3.610  16.162 -1.1038  1.1331  1.3492
  221MPD1    H7 3367   0.104   3.594  16.008  1.0831 -0.2221  0.2044
  222MPD1     C 3368   4.413   2.086  17.552  0.3390 -0.0113  0.3509
  222MPD1    C1 3369   4.430   2.213  17.512 -0.8051  0.2040 -0.0264
  222MPD1    C2 3370   4.330   2.302  17.550 -0.0338 -0.0546  0.0324
  222MPD1    C3 3371   4.215   2.257  17.603 -0.1141 -0.2916 -0.2488
  222MPD1    C4 3372   4.198   2.124  17.632 -0.2530  0.3328  0.0166
  222MPD1    C5 3373   4.300   2.038  17.611 -0.3840 -0.7433  0.5075
  222MPD1     H 3374   4.341   2.406  17.522  2.7735 -0.2380  0.4743
  222MPD1    H1 3375   4.110   2.088  17.685  0.1923  0.7198  1.0090
  222MPD1    H2 3376   4.502   2.024  17.540  0.5253  0.4634 -0.7232
  222MPD1    H3 3377   4.305   1.934  17.643  0.6028  0.0176  2.8204
  222MPD1     N 3378   4.112   2.344  17.654  0.2681 -0.0992 -0.3602
  222MPD1    H5 3379   4.030   2.307   0.004  0.1895 -0.1770 -0.5616
  222MPD1    N1 3380   4.555   2.254  17.451 -0.1833  0.4074 -0.1374
  222MPD1    H6 3381   4.546   2.342  17.401  0.6877  0.8022  0.4046
  222MPD1    H7 3382   4.608   2.185  17.397 -0.0636  0.8378 -0.5676
  223MPD1     C 3383   3.917   2.329   0.780 -0.4627 -0.0114 -0.1081
  223MPD1    C1 3384   3.977   2.245   0.687  0.0177  0.2859  0.1845
  223MPD1    C2 3385   3.952   2.276   0.555  0.6000  0.2567  0.6593
  223MPD1    C3 3386   3.905   2.398   0.510 -0.1233  0.1793 -0.2803
  223MPD1    C4 3387   3.857   2.483   0.610 -0.3023 -0.3372  0.2020
  223MPD1    C5 3388   3.864   2.448   0.740  0.6948  0.6440 -0.0516
  223MPD1     H 3389   3.984   2.203   0.482  0.2702  0.9156 -0.1408
  223MPD1    H1 3390   3.798   2.570   0.582 -0.9056 -1.8004 -3.1350
  223MPD1    H2 3391   3.912   2.315   0.888 -0.3811  0.6361 -0.0208
  223MPD1    H3 3392   3.823   2.510   0.819  0.6976 -0.6322  0.9451
  223MPD1     N 3393   3.898   2.426   0.375  0.1332 -0.5124  0.4395
  223MPD1    H5 3394   3.951   2.369   0.310  3.3916  3.3859 -0.2993
  223MPD1    N1 3395   4.034   2.124   0.721  1.1143  0.4004  0.3851
  223MPD1    H6 3396   4.120   2.099   0.672  0.5451 -1.0635  0.1205
  223MPD1    H7 3397   4.048   2.128   0.822  2.9669 -1.5348  0.2123
  224MPD1     C 3398   1.137   3.045   8.858  0.3648 -0.6499 -0.3438
  224MPD1    C1 3399   1.213   3.155   8.883 -1.0207  0.1311 -0.0004
  224MPD1    C2 3400   1.241   3.189   9.013  0.7294  0.2823 -0.3839
  224MPD1    C3 3401   1.187   3.120   9.118 -0.6113 -0.1449  0.2069
  224MPD1    C4 3402   1.107   3.017   9.095 -0.5617 -0.0325 -0.6767
  224MPD1    C5 3403   1.084   2.988   8.967  0.0048 -0.2513  0.5917
  224MPD1     H 3404   1.306   3.275   9.026  2.0982 -0.9968  1.2216
  224MPD1    H1 3405   1.055   2.966   9.175 -0.1888 -1.8585 -1.5721
  224MPD1    H2 3406   1.126   3.014   8.754 -3.5827 -0.5696  0.0454
  224MPD1    H3 3407   1.022   2.901   8.947  1.4353 -1.4178  1.2164
  224MPD1     N 3408   1.215   3.158   9.254 -0.1855 -0.2739 -0.5050
  224MPD1    H5 3409   1.163   3.100   9.320  1.2415 -0.3689  0.5213
  224MPD1    N1 3410   1.275   3.226   8.775  0.7062  0.4862 -0.0586
  224MPD1    H6 3411   1.206   3.242   8.701 -1.5216  0.3044  1.9825
  224MPD1    H7 3412   1.298   3.316   8.817  2.0129  0.3456 -0.4875
  225MPD1     C 3413   2.750   0.808  12.764  0.2108  0.0722 -0.0622
  225MPD1    C1 3414   2.743   0.695  12.690  0.1080  0.1747 -0.1369
  225MPD1    C2 3415   2.620   0.665  12.635 -0.1321  1.0678  0.1606
  225MPD1    C3 3416   2.515   0.759  12.641 -0.0450  0.0850  0.0138
  225MPD1    C4 3417   2.532   0.878  12.710 -0.0232  0.6419  0.2440
  225MPD1    C5 3418   2.656   0.898  12.775 -0.3011  0.1945  0.3523
  225MPD1     H 3419   2.611   0.566  12.592 -1.6824  1.0965  0.4349
  225MPD1    H1 3420   2.448   0.946  12.713  1.6015  2.8119 -2.5218
  225MPD1    H2 3421   2.835   0.824  12.830  0.7393  0.5415 -0.8567
  225MPD1    H3 3422   2.669   0.981  12.843 -0.0187  1.7005 -1.5199
  225MPD1     N 3423   2.391   0.745  12.578 -0.2290  0.2327 -0.4978
  225MPD1    H5 3424   2.331   0.824  12.597  0.3421  0.2362  1.3103
  225MPD1    N1 3425   2.835   0.593  12.711 -0.1699 -0.2241  0.1729
  225MPD1    H6 3426   2.929   0.631  12.716 -0.0171 -0.5760 -0.0389
  225MPD1    H7 3427   2.843   0.527  12.634  0.7654  1.5234 -1.2395
  226MPD1     C 3428   0.698   0.679   9.408 -0.4920  0.2336  0.0808
  226MPD1    C1 3429   0.654   0.551   9.396 -0.5532 -0.5687  0.0503
  226MPD1    C2 3430   0.732   0.440   9.411  0.2759  0.2844 -0.3009
  226MPD1    C3 3431   0.869   0.460   9.422  1.1480 -0.3664 -0.1792
  226MPD1    C4 3432   0.918   0.592   9.420 -0.2841  0.8971  0.1056
  226MPD1    C5 3433   0.831   0.700   9.426 -0.0661  0.6978 -0.6060
  226MPD1     H 3434   0.697   0.337   9.416 -3.3648  1.5473  0.2240
  226MPD1    H1 3435   1.025   0.607   9.421 -0.3411  1.3939 -4.3223
  226MPD1    H2 3436   0.631   0.764   9.411  0.0041  0.6835 -1.9173
  226MPD1    H3 3437   0.856   0.805   9.437  0.6189  0.4173  0.5192
  226MPD1     N 3438   0.948   0.346   9.428 -0.2680 -0.2122 -0.0065
  226MPD1    H5 3439   0.899   0.256   9.426  0.0187 -0.3308 -1.5496
  226MPD1    N1 3440   0.515   0.535   9.375 -0.0892  0.1912  0.6353
  226MPD1    H6 3441   0.459   0.616   9.351  0.0523  0.1502  0.1607
  226MPD1    H7 3442   0.489   0.462   9.308  2.6654 -0.7136  0.5623
  227MPD1     C 3443   1.943   0.261   9.688 -0.1236  0.3152 -0.0000
  227MPD1    C1 3444   1.877   0.361   9.632  0.3500 -0.4948  0.2110
  227MPD1    C2 3445   1.743   0.345   9.616 -0.0658  0.0144  0.3051
  227MPD1    C3 3446   1.675   0.238   9.666  0.4381  0.0347 -0.0694
  227MPD1    C4 3447   1.747   0.146   9.745 -0.0602  0.4081 -0.1115
  227MPD1    C5 3448   1.879   0.157   9.751 -0.3571 -0.6482  0.2034
  227MPD1     H 3449   1.679   0.413   9.562  0.4237  0.3948  0.1980
  227MPD1    H1 3450   1.704   0.060   9.796 -1.5832  1.0110 -0.3876
  227MPD1    H2 3451   2.052   0.255   9.687 -0.1540  0.0101 -2.0015
  227MPD1    H3 3452   1.940   0.082   9.800 -1.0497 -1.7225 -0.5876
  227MPD1     N 3453   1.543   0.217   9.632 -0.0036  0.5030 -0.1099
  227MPD1    H5 3454   1.496   0.288   9.577  1.7990  1.0770 -0.8889
  227MPD1    N1 3455   1.939   0.472   9.573  0.2180  0.7553 -0.0092
  227MPD1    H6 3456   1.878   0.551   9.589  0.0537  0.4788  0.7299
  227MPD1    H7 3457   2.030   0.492   9.615  0.6470 -0.5951 -0.2780
  228MPD1     C 3458   3.566   3.317  13.423 -0.5579  0.1176  0.7325
  228MPD1    C1 3459   3.514   3.311  13.299 -0.1777  0.1574 -0.1866
  228MPD1    C2 3460   3.481   3.181  13.258  0.6424  0.2637  0.1919
  228MPD1    C3 3461   3.503   3.072  13.339 -0.1571  0.3882  0.1478
  228MPD1    C4 3462   3.542   3.090  13.471 -0.0457 -0.2874  0.1151
  228MPD1    C5 3463   3.572   3.216  13.508 -0.0853 -0.2080  0.5573
  228MPD1     H 3464   3.450   3.165  13.155 -1.4157 -1.9010  1.1636
  228MPD1    H1 3465   3.557   3.013  13.546 -0.2811  0.8675  1.3451
  228MPD1    H2 3466   3.600   3.415  13.453  0.5146  0.5720 -1.9663
  228MPD1    H3 3467   3.624   3.221  13.603 -0.1609 -0.8534  0.6367
  228MPD1     N 3468   3.461   2.949  13.292  0.1751 -0.1412 -0.2455
  228MPD1    H5 3469   3.405   2.941  13.208 -0.0612  0.1479 -0.1173
  228MPD1    N1 3470   3.521   3.416  13.202 -0.0271 -0.4471  0.4062
  228MPD1    H6 3471   3.532   3.514  13.228  0.7789 -0.5022  0.2817
  228MPD1    H7 3472   3.474   3.418  13.112  1.1391  0.3383 -0.1877
  229MPD1     C 3473   2.997   1.670  15.173 -0.0632  0.2091  1.1127
  229MPD1    C1 3474   3.035   1.596  15.067  0.2009 -0.2377 -0.3759
  229MPD1    C2 3475   3.146   1.512  15.078 -0.0805 -0.6258  1.5185
  229MPD1    C3 3476   3.191   1.477  15.200 -0.0614 -0.9101 -0.4969
  229MPD1    C4 3477   3.146   1.540  15.309  0.0048 -0.2972 -0.0469
  229MPD1    C5 3478   3.057   1.637  15.289 -0.0966 -0.5116  0.7799
  229MPD1     H 3479   3.184   1.467  14.987  1.0445  1.9719  0.7041
  229MPD1    H1 3480   3.181   1.516  15.409  0.0065 -0.4480 -0.0829
  229MPD1    H2 3481   2.922   1.747  15.161 -0.2699 -0.3795 -1.2564
  229MPD1    H3 3482   3.016   1.683  15.378 -0.3539 -0.6918  0.7567
  229MPD1     N 3483   3.298   1.386  15.214  0.1761 -0.6150 -0.5095
  229MPD1    H5 3484   3.335   1.382  15.309  0.1620  0.0138 -0.4780
  229MPD1    N1 3485   2.979   1.621  14.943 -0.6083  0.5747  0.1553
  229MPD1    H6 3486   2.984   1.547  14.873  0.6909  0.9144 -0.1069
  229MPD1    H7 3487   2.901   1.686  14.941 -0.6854  0.4393 -0.9466
  230MPD1     C 3488   3.927   1.114  15.893  1.0167  0.9928  0.5412
  230MPD1    C1 3489   3.932   0.992  15.824 -0.2257  0.1917 -0.3981
  230MPD1    C2 3490   3.845   0.985  15.721  0.1990  0.8177 -0.8152
  230MPD1    C3 3491   3.770   1.096  15.678 -0.1460 -0.1618 -0.4956
  230MPD1    C4 3492   3.775   1.214  15.745  0.7973 -0.0792 -0.1645
  230MPD1    C5 3493   3.863   1.220  15.849 -0.8499  0.0466 -0.2818
  230MPD1     H 3494   3.843   0.896  15.660 -0.4329  0.0821  0.2848
  230MPD1    H1 3495   3.729   1.307  15.712  3.4766  0.5498 -2.0698
  230MPD1    H2 3496   3.977   1.135  15.987  0.1122  0.5227  1.1290
  230MPD1    H3 3497   3.879   1.315  15.897 -0.8204  0.3209 -0.8361
  230MPD1     N 3498   3.690   1.079  15.556 -0.3678  0.2206 -0.6095
  230MPD1    H5 3499   3.716   1.003  15.495 -0.2227  0.3666 -0.7310
  230MPD1    N1 3500   4.019   0.891  15.869  1.3235  0.0430 -0.3855
  230MPD1    H6 3501   3.969   0.802  15.877 -0.3580  0.9949 -0.1719
  230MPD1    H7 3502   4.067   0.915  15.956  0.6663  0.5442 -0.1554
  231MPD1     C 3503   1.452   2.700  15.785  0.1789 -0.2082  0.1637
  231MPD1    C1 3504   1.539   2.642  15.692  0.6418  0.0538  0.1204
  231MPD1    C2 3505   1.592   2.724  15.599 -0.2639  0.4474  0.0795
  231MPD1    C3 3506   1.583   2.860  15.616 -0.0831 -0.1139 -0.0023
  231MPD1    C4 3507   1.502   2.911  15.718 -0.5711 -0.5218 -0.2953
  231MPD1    C5 3508   1.437   2.834  15.810  0.4194  0.1274  0.4494
  231MPD1     H 3509   1.651   2.679  15.520 -0.4973 -2.1783  1.4051
  231MPD1    H1 3510   1.490   3.018  15.732  1.1038 -0.2480 -1.0524
  231MPD1    H2 3511   1.400   2.635  15.855 -0.0297  1.5377  1.6047
  231MPD1    H3 3512   1.390   2.872  15.900 -0.9940 -1.4711  0.3810
  231MPD1     N 3513   1.664   2.944  15.527  0.1210  0.0236 -0.1658
  231MPD1    H5 3514   1.717   2.896  15.455 -0.0393 -0.8823  0.3150
  231MPD1    N1 3515   1.543   2.506  15.669  0.5887  0.6096 -0.0545
  231MPD1    H6 3516   1.630   2.471  15.629  0.4686  0.4311 -0.1572
  231MPD1    H7 3517   1.517   2.447  15.748  0.6966  1.5459  0.6802
  232MPD1     C 3518   3.814   0.518   0.363 -0.0081 -0.1307 -0.4090
  232MPD1    C1 3519   3.743   0.578   0.262  0.5860 -0.0370 -0.3926
  232MPD1    C2 3520   3.606   0.594   0.278  0.4783  0.0885  0.1806
  232MPD1    C3 3521   3.532   0.532   0.376  0.3354  0.1978 -0.4780
  232MPD1    C4 3522   3.599   0.452   0.460  0.0590 -0.4795 -0.4767
  232MPD1    C5 3523   3.738   0.453   0.458 -0.5704 -0.2526  0.4778
  232MPD1     H 3524   3.551   0.644   0.198  1.4763  1.2190  0.2025
  232MPD1    H1 3525   3.559   0.387   0.536 -1.1096  1.5859  0.6637
  232MPD1    H2 3526   3.922   0.520   0.358 -0.0032  2.6536  1.1427
  232MPD1    H3 3527   3.793   0.399   0.534 -0.6091 -1.9115 -0.6609
  232MPD1     N 3528   3.392   0.552   0.382 -0.6170  0.3367 -0.1323
  232MPD1    H5 3529   3.349   0.621   0.322  0.8778  1.1263 -0.2936
  232MPD1    N1 3530   3.808   0.654   0.164  0.1175 -0.3267  0.5376
  232MPD1    H6 3531   3.745   0.685   0.090 -1.3758 -0.1798  1.8502
  232MPD1    H7 3532   3.887   0.599   0.132  1.1710  2.5323 -1.7291
  233MPD1     C 3533   3.804   4.038   1.789  0.2629  0.4845  0.3213
  233MPD1    C1 3534   3.909   4.124   1.775 -0.1527  0.2427 -0.0255
  233MPD1    C2 3535   4.021   4.082   1.710  0.1434  0.3996 -0.5361
  233MPD1    C3 3536   4.026   3.958   1.644 -0.0786 -0.3889  0.6129
  233MPD1    C4 3537   3.923   3.874   1.663 -0.6733  0.3354  0.0183
  233MPD1    C5 3538   3.813   3.913   1.732 -0.3339  0.1042  0.3689
  233MPD1     H 3539   4.107   4.148   1.705  0.6011 -0.1245  0.4394
  233MPD1    H1 3540   3.916   3.779   1.612 -1.5445  0.4159 -0.0137
  233MPD1    H2 3541   3.716   4.073   1.843  1.7789  0.1531  3.0430
  233MPD1    H3 3542   3.731   3.846   1.753  0.2716 -0.5669  0.5990
  233MPD1     N 3543   4.129   3.905   1.576 -0.3123  0.5585  0.2043
  233MPD1    H5 3544   4.136   3.804   1.572  1.4679  0.6907  0.0633
  233MPD1    N1 3545   3.910   4.241   1.855  0.5126  0.2275 -0.1200
  233MPD1    H6 3546   3.971   4.309   1.810  0.7858  0.3666  0.4687
  233MPD1    H7 3547   3.820   4.282   1.881  0.1725  0.0755 -1.0357
  234MPD1     C 3548   2.150   1.746   9.703 -0.2165  0.0836 -0.9781
  234MPD1    C1 3549   2.031   1.738   9.626 -0.1775  0.3721  0.2367
  234MPD1    C2 3550   1.952   1.850   9.643 -0.6577  0.1020 -0.0657
  234MPD1    C3 3551   1.993   1.973   9.693  0.4995 -0.2078  0.7191
  234MPD1    C4 3552   2.119   1.986   9.743 -0.7454 -0.5589 -0.2699
  234MPD1    C5 3553   2.192   1.872   9.745  1.0635 -0.5464  0.4004
  234MPD1     H 3554   1.853   1.851   9.599 -0.0090  0.3860 -1.5221
  234MPD1    H1 3555   2.153   2.071   9.801  1.9438 -0.7241 -1.6036
  234MPD1    H2 3556   2.215   1.666   9.735  0.4935  1.1299  0.1878
  234MPD1    H3 3557   2.289   1.874   9.793  2.0429  1.5951 -1.7411
  234MPD1     N 3558   1.897   2.082   9.680 -0.3887  0.5128  0.1589
  234MPD1    H5 3559   1.804   2.050   9.654  0.5772 -0.4851 -2.0210
  234MPD1    N1 3560   1.982   1.616   9.587 -0.0219 -0.0948  0.1458
  234MPD1    H6 3561   2.058   1.559   9.550 -1.0959 -0.0229 -2.1565
  234MPD1    H7 3562   1.921   1.627   9.506 -0.6125 -0.7417  0.5016
  235MPD1     C 3563   3.352   0.458  10.007 -0.0101  0.2576  0.1479
  235MPD1    C1 3564   3.216   0.436  10.030 -0.1045 -0.2339 -0.0464
  235MPD1    C2 3565   3.126   0.544  10.006 -0.5327  0.0437  0.0773
  235MPD1    C3 3566   3.172   0.673   9.980  0.4794 -0.6665  0.8979
  235MPD1    C4 3567   3.309   0.689   9.974  0.6022 -0.3337  0.1394
  235MPD1    C5 3568   3.398   0.588  10.003  0.7363 -0.5037  0.3513
  235MPD1     H 3569   3.019   0.529  10.004 -0.5735 -0.0831  2.3288
  235MPD1    H1 3570   3.355   0.787   9.962 -1.4186  0.3033 -2.5674
  235MPD1    H2 3571   3.421   0.375  10.010  0.0089  0.1639 -3.8279
  235MPD1    H3 3572   3.502   0.610   9.985  0.1011  2.5625  0.3784
  235MPD1     N 3573   3.080   0.770   9.938 -0.0200 -0.0784 -0.1764
  235MPD1    H5 3574   2.980   0.761   9.952 -0.3656 -0.4298 -2.9114
  235MPD1    N1 3575   3.158   0.308  10.041 -0.3089 -0.4774 -0.6226
  235MPD1    H6 3576   3.070   0.314  10.092 -0.2045 -0.4431 -0.4452
  235MPD1    H7 3577   3.218   0.236  10.079  3.2250  0.9109 -3.6543
  236MPD1     C 3578   2.654   2.060  10.026  0.0470  0.1027  0.2957
  236MPD1    C1 3579   2.643   1.934   9.968  0.1449 -0.1261  0.6969
  236MPD1    C2 3580   2.689   1.823  10.037 -0.0637 -0.1094 -0.2075
  236MPD1    C3 3581   2.757   1.841  10.156  0.4923 -0.3134 -0.1557
  236MPD1    C4 3582   2.781   1.970  10.204  0.7802  0.0328 -0.3772
  236MPD1    C5 3583   2.717   2.075  10.144 -0.2787  0.0290  0.1597
  236MPD1     H 3584   2.677   1.724   9.996  0.2442 -0.8515  1.4944
  236MPD1    H1 3585   2.842   1.983  10.292 -1.0695  0.2346  0.8765
  236MPD1    H2 3586   2.589   2.142  10.000 -1.3410 -1.2765 -0.5740
  236MPD1    H3 3587   2.713   2.171  10.194  0.4977 -0.0930  0.4488
  236MPD1     N 3588   2.816   1.741  10.228 -0.4923  0.4566 -0.3122
  236MPD1    H5 3589   2.885   1.772  10.296 -1.2829 -2.4755  1.8074
  236MPD1    N1 3590   2.556   1.906   9.862 -0.2251  0.3122  0.1470
  236MPD1    H6 3591   2.576   1.963   9.779  1.8772 -3.3407 -1.8200
  236MPD1    H7 3592   2.566   1.811   9.827  1.6388  0.5212  0.1379
  237MPD1     C 3593   0.903   0.046  16.183  0.6958  0.3670 -0.1810
  237MPD1    C1 3594   0.917   0.123  16.071 -0.4210  0.0669 -0.2118
  237MPD1    C2 3595   0.997   0.077  15.968 -0.3345 -0.0272 -0.6468
  237MPD1    C3 3596   1.070   4.691  15.988 -0.6324 -0.2596 -0.7546
  237MPD1    C4 3597   1.064   4.610  16.099  0.3230 -1.1111  0.1311
  237MPD1    C5 3598   0.974   4.645  16.192  0.4377 -0.3698  0.0412
  237MPD1     H 3599   1.009   0.134  15.877 -1.4552  0.1959 -0.6588
  237MPD1    H1 3600   1.137   4.533  16.123  2.3796  0.9622  0.4880
  237MPD1    H2 3601   0.824   0.069  16.254  0.7435 -1.6746  0.5315
  237MPD1    H3 3602   0.974   4.587  16.283 -2.1317  1.3085  1.0760
  237MPD1     N 3603   1.177   4.652  15.896 -0.4425 -0.5811  0.9481
  237MPD1    H5 3604   1.232   4.570  15.920  0.3804  0.2984  2.0519
  237MPD1    N1 3605   0.819   0.227  16.049 -0.2431  0.3589  0.1548
  237MPD1    H6 3606   0.857   0.305  15.994 -1.5812 -0.1373 -1.4711
  237MPD1    H7 3607   0.753   0.254  16.121 -0.1221 -0.2717  0.5041
  238MPD1     C 3608   3.420   3.729  15.762 -0.3533  0.3994 -1.3876
  238MPD1    C1 3609   3.448   3.796  15.643  0.1719 -0.0129  0.1127
  238MPD1    C2 3610   3.468   3.711  15.533 -0.7647 -0.1998 -0.2204
  238MPD1    C3 3611   3.428   3.573  15.526  0.1511  0.1798 -0.0129
  238MPD1    C4 3612   3.383   3.522  15.647 -0.1623 -0.1692 -0.2890
  238MPD1    C5 3613   3.394   3.596  15.762  0.6655 -0.1320  0.0583
  238MPD1     H 3614   3.472   3.768  15.441 -1.6628 -2.5965 -1.7488
  238MPD1    H1 3615   3.340   3.422  15.652 -0.4798 -0.1184 -1.8479
  238MPD1    H2 3616   3.399   3.781  15.855  3.8434  2.4227 -1.5873
  238MPD1    H3 3617   3.359   3.557  15.857 -0.5419  0.5973 -0.0898
  238MPD1     N 3618   3.423   3.497  15.406 -0.2033  0.1403 -0.3538
  238MPD1    H5 3619   3.372   3.410  15.414  1.6718 -0.8325  1.2355
  238MPD1    N1 3620   3.438   3.938  15.630 -0.5989 -0.2977 -1.0863
  238MPD1    H6 3621   3.482   3.992  15.705  0.2859 -1.6483 -0.6386
  238MPD1    H7 3622   3.491   3.970  15.549  2.1027  0.5589  1.0078
  239MPD1     C 3623   4.342   4.246  15.030  1.0121 -0.5799  0.4892
  239MPD1    C1 3624   4.376   4.149  14.940 -0.4176 -0.4215  0.4013
  239MPD1    C2 3625   4.315   4.149  14.816  0.1081  0.3147 -0.1032
  239MPD1    C3 3626   4.212   4.233  14.779 -0.0056  0.5755 -0.0520
  239MPD1    C4 3627   4.175   4.333  14.869  0.3787 -0.0466 -0.8360
  239MPD1    C5 3628   4.240   4.322  14.991  0.4170 -0.5308  0.1097
  239MPD1     H 3629   4.332   4.068  14.746  0.6416 -0.3576  0.8006
  239MPD1    H1 3630   4.107   4.415  14.849 -0.6567 -0.4339  1.0835
  239MPD1    H2 3631   4.377   4.255  15.133  0.4017 -0.4866  0.6898
  239MPD1    H3 3632   4.207   4.395  15.064  1.1499 -1.3432  1.2569
  239MPD1     N 3633   4.140   4.240  14.661  0.4360  0.1902  0.3324
  239MPD1    H5 3634   4.068   4.312  14.656 -0.1642 -0.3081  1.7714
  239MPD1    N1 3635   4.495   4.072  14.965 -0.0708  0.5227  0.3134
  239MPD1    H6 3636   4.528   4.073  15.061  0.3541  0.3908  0.1656
  239MPD1    H7 3637   4.488   3.978  14.925  1.4183  0.3315  0.5089
  240MPD1     C 3638   3.234   3.947  13.900  0.1672  0.2693  0.3664
  240MPD1    C1 3639   3.273   4.022  14.010  0.6000  0.8115 -0.0197
  240MPD1    C2 3640   3.282   3.956  14.130 -0.2913 -0.0231 -0.0492
  240MPD1    C3 3641   3.251   3.824  14.141 -1.2891  0.7410 -0.4762
  240MPD1    C4 3642   3.217   3.754  14.027 -0.3805  0.6279  0.4053
  240MPD1    C5 3643   3.225   3.813  13.905  0.6811 -0.4891  0.4775
  240MPD1     H 3644   3.322   4.005  14.218 -3.3872  1.2357  0.6580
  240MPD1    H1 3645   3.190   3.649  14.032  0.8870  0.3026  0.2507
  240MPD1    H2 3646   3.224   3.996  13.804 -0.9565  2.3093  1.5279
  240MPD1    H3 3647   3.188   3.766  13.815  1.3204 -2.9363  1.4873
  240MPD1     N 3648   3.246   3.761  14.270  0.1711 -0.2519 -0.1023
  240MPD1    H5 3649   3.260   3.817  14.353 -1.1685 -1.6154  1.0257
  240MPD1    N1 3650   3.277   4.161  14.009 -0.2875 -0.3338 -0.2878
  240MPD1    H6 3651   3.304   4.189  13.914 -1.1437  2.6918  0.3730
  240MPD1    H7 3652   3.335   4.207  14.079 -0.6813  0.2534 -0.3487
  241MPD1     C 3653   3.373   3.952  15.226  0.2083  0.0065 -0.3993
  241MPD1    C1 3654   3.435   3.971  15.109 -0.2840 -0.3859  0.7740
  241MPD1    C2 3655   3.404   3.895  15.001  0.3573  0.4142 -0.1498
  241MPD1    C3 3656   3.301   3.811  14.997 -1.3143 -0.8866 -0.2942
  241MPD1    C4 3657   3.222   3.803  15.111  0.2208 -0.6510  0.0357
  241MPD1    C5 3658   3.261   3.876  15.221  0.0828  0.0820 -0.5989
  241MPD1     H 3659   3.453   3.930  14.911 -1.5909  1.1625 -0.9232
  241MPD1    H1 3660   3.142   3.730  15.116  0.6260 -1.1101 -0.2558
  241MPD1    H2 3661   3.393   4.003  15.319 -0.9771  0.6216 -0.4771
  241MPD1    H3 3662   3.199   3.867  15.309 -1.7924  0.4156 -1.8862
  241MPD1     N 3663   3.259   3.738  14.881 -0.0099 -0.3167 -0.5712
  241MPD1    H5 3664   3.171   3.688  14.889  0.1905 -0.7800 -1.3421
  241MPD1    N1 3665   3.550   4.044  15.105  0.1825  0.5429  0.0800
  241MPD1    H6 3666   3.550   4.105  15.186 -0.3926 -0.4523  0.8299
  241MPD1    H7 3667   3.568   4.089  15.015  1.9040 -0.7736 -0.2415
  242MPD1     C 3668   2.901   2.580  16.101 -0.3205 -0.2481 -0.7892
  242MPD1    C1 3669   2.802   2.491  16.069 -0.3578  0.5412 -0.5700
  242MPD1    C2 3670   2.811   2.411  15.953 -0.3404 -0.1115  0.6323
  242MPD1    C3 3671   2.906   2.438  15.858  0.0505  0.3986  0.3846
  242MPD1    C4 3672   2.993   2.533  15.882 -0.3401  0.0189 -0.2731
  242MPD1    C5 3673   3.000   2.598  16.004  0.5012 -0.2033 -0.3468
  242MPD1     H 3674   2.746   2.327  15.931  1.9065 -2.1656  1.6548
  242MPD1    H1 3675   3.067   2.560  15.807  0.3400  1.0804  0.7786
  242MPD1    H2 3676   2.907   2.643  16.189 -1.7537 -1.9727  0.5359
  242MPD1    H3 3677   3.077   2.673  16.018  1.4603 -1.6088  1.8333
  242MPD1     N 3678   2.927   2.360  15.746 -0.7645  0.0977 -0.8407
  242MPD1    H5 3679   3.002   2.386  15.684 -3.1036  1.2236 -3.2117
  242MPD1    N1 3680   2.721   2.437  16.166  0.0581 -1.0810 -0.0318
  242MPD1    H6 3681   2.639   2.387  16.133  0.3322 -1.7107  0.2423
  242MPD1    H7 3682   2.684   2.498  16.239  1.0223 -0.5608  0.0164
  243MPD1     C 3683   3.524   0.526  17.626  0.6308 -0.2333 -0.5632
  243MPD1    C1 3684   3.596   0.626  17.557 -0.1495  0.0818 -0.1878
  243MPD1    C2 3685   3.730   0.604  17.511 -0.4511  0.7786 -0.2006
  243MPD1    C3 3686   3.792   0.497  17.565 -0.6133  0.0221 -0.1962
  243MPD1    C4 3687   3.721   0.406  17.638  0.0266  0.8022 -0.1064
  243MPD1    C5 3688   3.591   0.416  17.668 -0.3225 -0.0834 -0.4414
  243MPD1     H 3689   3.780   0.670  17.442 -0.0415  0.0677 -0.5845
  243MPD1    H1 3690   3.770   0.316  17.674 -0.6648  1.1928  1.7984
  243MPD1    H2 3691   3.425   0.544  17.667  1.7505  1.3363  1.4607
  243MPD1    H3 3692   3.539   0.346   0.036 -2.9142  1.2289 -1.1427
  243MPD1     N 3693   3.929   0.484  17.518 -0.4020  0.0306 -0.3115
  243MPD1    H5 3694   3.963   0.543  17.443 -0.1458 -0.3811 -0.5217
  243MPD1    N1 3695   3.526   0.735  17.505  0.4470 -0.1617 -0.2108
  243MPD1    H6 3696   3.593   0.810  17.487  1.7855 -1.3459 -0.1635
  243MPD1    H7 3697   3.449   0.767  17.563 -1.0803 -1.5833 -1.4475
  244MPD1     C 3698   4.497   4.375  17.660 -0.4579  0.3556 -1.3189
  244MPD1    C1 3699   4.419   4.439   0.067 -0.1025  0.0629  0.2355
  244MPD1    C2 3700   4.369   4.564   0.031 -0.5844 -0.0117 -0.2678
  244MPD1    C3 3701   4.387   4.619  17.591  0.0552  0.7333 -0.1331
  244MPD1    C4 3702   4.439   4.527  17.495  0.3304 -0.3470 -0.5007
  244MPD1    C5 3703   4.495   4.410  17.533 -0.5142 -0.3865 -0.1388
  244MPD1     H 3704   4.315   4.625   0.102  1.3060  0.2267  0.9683
  244MPD1    H1 3705   4.451   4.551  17.389 -1.0209  1.8374 -0.1657
  244MPD1    H2 3706   4.568   4.300  17.690 -0.7128  0.3700 -0.6744
  244MPD1    H3 3707   4.580   4.368  17.480  0.3633  2.2307 -0.8137
  244MPD1     N 3708   4.340   0.026  17.561  0.0016 -0.1530  0.3533
  244MPD1    H5 3709   4.295   0.080  17.634 -0.4677  2.1887 -1.6695
  244MPD1    N1 3710   4.423   4.398   0.201  0.2708 -0.0341  0.0672
  244MPD1    H6 3711   4.436   4.297   0.208  1.1624  0.1639  1.3426
  244MPD1    H7 3712   4.331   4.403   0.244  0.5107 -0.4197  0.6207
  245MPD1     C 3713   1.872   1.212  13.937  0.3139  0.1577  0.1972
  245MPD1    C1 3714   1.775   1.267  13.861 -0.1701 -0.0745 -0.4062
  245MPD1    C2 3715   1.780   1.396  13.826  0.3267 -0.1598 -0.4414
  245MPD1    C3 3716   1.896   1.464  13.844 -0.1959 -0.1569  0.5864
  245MPD1    C4 3717   2.001   1.404  13.909  0.5832  0.5581 -0.0967
  245MPD1    C5 3718   1.985   1.281  13.964 -0.2741 -0.2288  0.0697
  245MPD1     H 3719   1.698   1.440  13.770  1.1362  1.8210 -0.0969
  245MPD1    H1 3720   2.096   1.454  13.923  1.1203 -0.5482  0.2885
  245MPD1    H2 3721   1.862   1.114  13.981 -2.2303  0.6003  0.5950
  245MPD1    H3 3722   2.070   1.237  14.014  0.3142 -1.4095 -1.9969
  245MPD1     N 3723   1.904   1.598  13.792 -0.3117 -0.1751 -0.2632
  245MPD1    H5 3724   1.818   1.632  13.748 -0.1484 -1.5107 -1.6029
  245MPD1    N1 3725   1.646   1.204  13.836  0.0624 -0.5059 -0.9566
  245MPD1    H6 3726   1.606   1.242  13.750  0.2809  1.2808 -0.2574
  245MPD1    H7 3727   1.663   1.108  13.806 -1.9286 -0.5212 -2.0568
  246MPD1     C 3728   1.598   2.471   9.284  0.6095  0.4262  0.9214
  246MPD1    C1 3729   1.567   2.369   9.194 -0.0987  0.0772  0.5090
  246MPD1    C2 3730   1.657   2.267   9.172  0.2166 -0.5194 -0.2356
  246MPD1    C3 3731   1.777   2.266   9.241 -0.2453  0.3912  0.1308
  246MPD1    C4 3732   1.801   2.364   9.329  0.1420 -0.6904  0.2340
  246MPD1    C5 3733   1.714   2.466   9.351  0.2464 -0.2388 -0.3255
  246MPD1     H 3734   1.628   2.187   9.106 -1.0215  0.3377 -0.7388
  246MPD1    H1 3735   1.882   2.358   9.401 -0.2697 -0.4070  0.7172
  246MPD1    H2 3736   1.536   2.559   9.295 -0.2434 -0.1639  0.8822
  246MPD1    H3 3737   1.724   2.531   9.438  0.9159 -1.7738  0.7516
  246MPD1     N 3738   1.869   2.158   9.217 -0.0934 -0.3429  0.2371
  246MPD1    H5 3739   1.824   2.083   9.165 -2.0505 -0.6425  2.3364
  246MPD1    N1 3740   1.455   2.380   9.117 -0.0748 -0.3201  0.4083
  246MPD1    H6 3741   1.372   2.411   9.167 -0.7237  0.0798 -0.8950
  246MPD1    H7 3742   1.450   2.298   9.056  1.3037 -0.8465  0.9973
  247MPD1     C 3743   1.084   2.062  16.683  0.6224  0.4787  0.4256
  247MPD1    C1 3744   1.109   2.000  16.807 -0.1624 -0.1897  0.1303
  247MPD1    C2 3745   1.122   1.860  16.806  0.2577  0.0989 -0.5268
  247MPD1    C3 3746   1.134   1.786  16.693 -0.1463  0.1120  0.5582
  247MPD1    C4 3747   1.118   1.850  16.576 -0.2903 -0.0238 -0.1276
  247MPD1    C5 3748   1.088   1.983  16.566 -0.6763 -0.7253 -0.0415
  247MPD1     H 3749   1.120   1.807  16.900 -0.5785  2.1522  0.6173
  247MPD1    H1 3750   1.122   1.799  16.480 -3.5321  0.7469 -0.6921
  247MPD1    H2 3751   1.075   2.170  16.679 -0.5238  0.3793  0.3173
  247MPD1    H3 3752   1.086   2.033  16.469  4.7287 -1.3956 -0.4633
  247MPD1     N 3753   1.150   1.645  16.687  0.3244 -0.0647 -0.4237
  247MPD1    H5 3754   1.140   1.604  16.594  0.9819 -0.2584 -0.4084
  247MPD1    N1 3755   1.076   2.071  16.924  0.8442 -0.2630  0.2169
  247MPD1    H6 3756   1.098   2.168  16.906 -1.0802  0.1651  0.1922
  247MPD1    H7 3757   1.134   2.041  17.002  0.6270 -0.5682  0.2616
  248MPD1     C 3758   1.801   1.314   0.179 -0.2702 -0.1631  0.3069
  248MPD1    C1 3759   1.850   1.371   0.292  0.0747  0.4961  0.2760
  248MPD1    C2 3760   1.770   1.386   0.406 -0.5472  0.5973 -0.1507
  248MPD1    C3 3761   1.637   1.345   0.414 -0.1484  0.1141  0.7511
  248MPD1    C4 3762   1.592   1.286   0.296 -0.0592 -0.0161 -0.0965
  248MPD1    C5 3763   1.673   1.276   0.179 -0.1469  0.1582 -0.0357
  248MPD1     H 3764   1.816   1.428   0.494  0.3666 -0.5413 -0.0906
  248MPD1    H1 3765   1.494   1.239   0.286 -0.0827  0.1923 -0.8053
  248MPD1    H2 3766   1.857   1.288   0.089 -0.6996  1.3885 -0.4122
  248MPD1    H3 3767   1.638   1.214   0.098  0.2918  0.0103 -0.1149
  248MPD1     N 3768   1.566   1.349   0.539 -0.2496 -0.1322  0.3331
  248MPD1    H5 3769   1.616   1.394   0.615  0.1959 -1.8077  1.0111
  248MPD1    N1 3770   1.977   1.418   0.286 -0.0825  0.2960  0.3084
  248MPD1    H6 3771   1.977   1.491   0.215 -1.1367  1.5783  1.6292
  248MPD1    H7 3772   1.995   1.455   0.380  0.5213  1.1480 -0.1402
  249MPD1     C 3773   3.519   3.253   9.712  0.0629 -0.6602 -0.1867
  249MPD1    C1 3774   3.403   3.326   9.691  0.1249  0.2026 -0.0718
  249MPD1    C2 3775   3.367   3.429   9.777 -0.2643 -0.1199  0.1254
  249MPD1    C3 3776   3.438   3.454   9.888 -0.3350 -0.9096 -0.4509
  249MPD1    C4 3777   3.544   3.370   9.920  0.0644  0.3814 -0.3102
  249MPD1    C5 3778   3.593   3.282   9.825 -0.4163  0.1016 -0.5586
  249MPD1     H 3779   3.289   3.502   9.758  0.7346  1.0264  0.4459
  249MPD1    H1 3780   3.598   3.370  10.014 -0.2046  0.0771 -0.1563
  249MPD1    H2 3781   3.550   3.174   9.643  1.6808  0.8161 -1.1544
  249MPD1    H3 3782   3.687   3.233   9.846 -0.8020 -0.4530 -0.1038
  249MPD1     N 3783   3.403   3.565   9.968  0.2400 -0.3988  1.3507
  249MPD1    H5 3784   3.337   3.630   9.926  0.7884  0.7011  2.2120
  249MPD1    N1 3785   3.331   3.296   9.573  0.6106 -0.0693 -0.4048
  249MPD1    H6 3786   3.233   3.324   9.574  1.3365  2.5341 -1.4891
  249MPD1    H7 3787   3.344   3.200   9.544  0.3914 -1.0986  2.8861
  250MPD2     C 3788   4.638   0.047  13.245 -0.2456 -0.8782  0.2121
  250MPD2    C1 3789   4.606   0.108  13.132 -0.2908 -0.5943  0.2226
  250MPD2    C2 3790   4.535   0.043  13.032  0.3768  0.6803 -0.0481
  250MPD2    C3 3791   4.516   4.627  13.041  0.2700  0.2735 -0.1832
  250MPD2    C4 3792   4.531   4.566  13.165  0.4565  0.6117  0.1154
  250MPD2    C5 3793   4.594   4.644  13.258  0.3783 -0.2385  0.3041
  250MPD2     H 3794   4.500   0.103  12.949 -1.1254 -2.2362 -1.5467
  250MPD2    H1 3795   4.514   4.461  13.187  1.0067 -0.0928 -2.9182
  250MPD2    H2 3796   4.692   0.100  13.324  0.0920 -2.4984  1.0765
  250MPD2    H3 3797   4.612   4.593  13.353 -0.8251  2.1332  1.7954
  250MPD2     N 3798   4.463   4.551  12.931  0.0216  0.2274 -0.4642
  250MPD2    H5 3799   4.433   4.460  12.967 -1.1806  0.9331  0.3227
  250MPD2    N1 3800   4.643   0.249  13.127 -0.3602  0.1630 -0.1360
  250MPD2    H7 3801   4.714   0.281  13.193  2.1338 -0.8243 -2.3758
  251TMC3    C1 3802   4.688   0.458  13.041  0.2496 -0.2932 -0.7462
  251TMC3    C2 3803   0.027   0.481  13.157  0.0343  0.3477  0.6917
  251TMC3    C3 3804   0.144   0.548  13.163 -0.2155 -0.0048  0.1213
  251TMC3    C4 3805   0.031   0.490  12.923  0.6713 -0.5106  0.4861
  251TMC3    C5 3806   0.161   0.535  12.927  0.1467 -1.3161 -0.4218
  251TMC3    C6 3807   0.213   0.576  13.049 -0.6702  0.1198  0.1675
  251TMC3     C 3808   4.615   0.337  13.026 -0.5627 -0.0681  0.0817
  251TMC3     O 3809   4.553   0.317  12.923  0.4531  0.3346  0.1027
  251TMC3     H 3810   4.701   0.459  13.251 -0.3294  1.4185  0.7428
  251TMC3    H1 3811   4.713   0.461  12.827  1.4167 -0.0099  0.0161
  251TMC3    H2 3812   0.314   0.615  13.050 -1.0001  0.9655 -0.0008
  251TMC3    C7 3813   0.235   0.570  12.803 -0.4990  0.1112  0.7412
  251TMC3    C8 3814   0.170   0.627  13.282 -0.5429  0.7443  0.5924
  251TMC3    O1 3815   0.267   0.688  12.806 -0.1284 -0.0403 -0.0975
  251TMC3    O2 3816   0.136   0.579  13.387 -0.3094  0.1867  0.3029
  252TMC3    C1 3817   1.440   4.623  10.156  0.2766  0.0630  0.2241
  252TMC3    C2 3818   1.566   4.670  10.146  0.8594 -0.0321  0.4936
  252TMC3    C3 3819   1.578   0.074  10.086  0.7656 -0.2094 -0.7623
  252TMC3    C4 3820   1.327   4.675  10.098 -0.2403 -0.5153 -0.1172
  252TMC3    C5 3821   1.347   0.058  10.023 -0.1879  0.1962 -0.1989
  252TMC3    C6 3822   1.467   0.128  10.031 -0.7841 -0.1054 -0.1616
  252TMC3     C 3823   1.431   4.477  10.174 -0.4554 -0.1880 -0.9085
  252TMC3     O 3824   1.320   4.431  10.188 -0.6666 -0.8056 -0.8615
  252TMC3     H 3825   1.655   4.631  10.193  0.3129 -2.6584 -0.6718
  252TMC3    H1 3826   1.240   4.612  10.098 -3.0020  3.2948 -1.5140
  252TMC3    H2 3827   1.474   0.216   9.968 -0.6754  1.4591  2.0364
  252TMC3    C7 3828   1.236   0.137   9.975 -0.6541 -0.8475 -0.1144
  252TMC3    C8 3829   1.708   0.128  10.073  0.4096  0.0488  0.7560
  252TMC3    O1 3830   1.259   0.260   9.966  0.7464 -0.0984 -1.0950
  252TMC3    O2 3831   1.796   0.043  10.089 -0.4134 -0.4238 -0.4105
  253MPD2     C 3832   1.117   4.122  16.099 -0.1308 -0.6085 -0.2836
  253MPD2    C1 3833   0.981   4.133  16.063  0.0336  0.1108 -0.5728
  253MPD2    C2 3834   0.882   4.074  16.142 -0.1046  0.1354 -0.2280
  253MPD2    C3 3835   0.914   3.982  16.238  0.3790 -0.0316 -0.0894
  253MPD2    C4 3836   1.049   3.962  16.267 -0.2412 -0.0544  0.5402
  253MPD2    C5 3837   1.141   4.044  16.206 -0.2661 -0.2466 -0.1897
  253MPD2     H 3838   0.782   4.110  16.124  0.0538 -0.8425 -3.1212
  253MPD2    H1 3839   1.086   3.890  16.339  3.1561  0.1038 -1.0742
  253MPD2    H2 3840   1.199   4.172  16.048  0.4130  0.0769  1.2897
  253MPD2    H3 3841   1.246   4.031  16.231  0.0492  3.4066  0.4001
  253MPD2     N 3842   0.813   3.914  16.319  0.2802 -0.5794 -0.0901
  253MPD2    H5 3843   0.853   3.864  16.399 -1.2648 -0.2248  0.8997
  253MPD2    N1 3844   0.933   4.214  15.953 -0.0647  0.4847 -0.5190
  253MPD2    H7 3845   0.832   4.222  15.948 -0.2816 -1.6434  0.4912
  254TMC3    C1 3846   0.602   3.919  16.414 -0.9880  0.2564  0.2581
  254TMC3    C2 3847   0.505   4.017  16.410 -0.7640 -0.1950 -0.0171
  254TMC3    C3 3848   0.473   4.079  16.526  0.5457  0.1966 -0.7706
  254TMC3    C4 3849   0.662   3.876  16.533  0.1374 -0.6797  0.4629
  254TMC3    C5 3850   0.604   3.918  16.647  0.9028  0.4769 -0.2076
  254TMC3    C6 3851   0.512   4.022  16.646 -0.4862  0.0633 -0.2187
  254TMC3     C 3852   0.679   3.923  16.291  0.4426 -0.4296  0.5160
  254TMC3     O 3853   0.625   3.961  16.188 -0.1021  0.0430 -0.1906
  254TMC3     H 3854   0.475   4.052  16.312 -0.2329 -1.4262 -0.6210
  254TMC3    H1 3855   0.727   3.789  16.541  0.0249 -0.8090 -0.0163
  254TMC3    H2 3856   0.481   4.078  16.733  3.0654  1.4757  0.1576
  254TMC3    C7 3857   0.676   3.911  16.773 -0.0319 -0.1013  0.2111
  254TMC3    C8 3858   0.444   4.222  16.524  0.0365  0.2592 -0.1396
  254TMC3    O1 3859   0.697   4.007  16.842  0.4585 -0.1231 -0.1119
  254TMC3    O2 3860   0.441   4.281  16.634 -0.0122  0.5108 -0.4278
  255MPD2     C 3861   0.003   1.940  10.724  0.6344 -0.3490  0.1932
  255MPD2    C1 3862   0.118   2.016  10.742  0.3506 -0.2928 -0.2206
  255MPD2    C2 3863   0.221   1.964  10.822 -0.3038 -0.2905 -0.3118
  255MPD2    C3 3864   0.209   1.830  10.873 -0.5704  0.0144  0.6802
  255MPD2    C4 3865   0.088   1.762  10.854  0.0744  0.2929 -0.6936
  255MPD2    C5 3866   4.710   1.818  10.781  0.0948  0.1750  0.7825
  255MPD2     H 3867   0.312   2.019  10.843 -1.0581  1.1157 -0.7042
  255MPD2    H1 3868   0.077   1.661  10.891  0.1524  1.0279  1.3114
  255MPD2    H2 3869   4.646   1.975  10.661 -0.2263  0.0420  1.5222
  255MPD2    H3 3870   4.617   1.764  10.771  1.7806 -2.9756  1.9231
  255MPD2     N 3871   0.323   1.778  10.942 -0.4217 -0.3445  0.3333
  255MPD2    H5 3872   0.402   1.841  10.941 -0.2843 -0.5684 -4.2951
  255MPD2    N1 3873   0.145   2.130  10.662  0.4916  0.4717  0.3548
  255MPD2    H7 3874   0.060   2.181  10.639 -0.2677  0.0311  2.1392
  256TMC3    C1 3875   0.250   2.316  10.563 -0.9665 -0.0197 -0.3071
  256TMC3    C2 3876   0.360   2.356  10.496  0.9028 -0.2840 -0.0931
  256TMC3    C3 3877   0.350   2.453  10.400 -0.2447  0.1900 -0.1728
  256TMC3    C4 3878   0.124   2.375  10.532  0.6799 -0.5600  0.4908
  256TMC3    C5 3879   0.121   2.473  10.440  0.6652  0.2852  0.5237
  256TMC3    C6 3880   0.230   2.508  10.361  0.5026  0.2070  0.5950
  256TMC3     C 3881   0.262   2.195  10.639 -0.5281  0.7766  0.2240
  256TMC3     O 3882   0.372   2.165  10.680  0.0306  0.0191  0.1008
  256TMC3     H 3883   0.453   2.306  10.520  0.8589 -1.9284 -3.5364
  256TMC3    H1 3884   0.032   2.345  10.580 -0.8023  0.3375 -1.7909
  256TMC3    H2 3885   0.217   2.580  10.281  0.5445 -0.7635 -0.2921
  256TMC3    C7 3886   0.005   2.552  10.436 -0.4127  0.3182 -0.0167
  256TMC3    C8 3887   0.464   2.468  10.317  0.3158 -0.4955  0.4874
  256TMC3    O1 3888   4.622   2.499  10.445 -0.4463  0.4792 -0.3114
  256TMC3    O2 3889   0.536   2.368  10.309  0.7535  0.3094  0.1398
  257MPD2     C 3890   3.879   0.252  13.083 -0.1636 -0.2046 -0.0052
  257MPD2    C1 3891   3.808   0.147  13.019  0.0980  0.4991 -0.5021
  257MPD2    C2 3892   3.756   0.047  13.099  0.0474  0.3942  0.2259
  257MPD2    C3 3893   3.795   0.040  13.231  0.5303  0.3988  0.1726
  257MPD2    C4 3894   3.866   0.139  13.286 -0.1658  0.5752  0.1312
  257MPD2    C5 3895   3.915   0.243  13.209  0.0870  0.6561  0.1839
  257MPD2     H 3896   3.708   4.685  13.052 -0.1358  0.3150  0.5572
  257MPD2    H1 3897   3.868   0.144  13.394  0.6014 -1.4775  0.2144
  257MPD2    H2 3898   3.918   0.337  13.027 -1.8969 -0.7597 -2.0517
  257MPD2    H3 3899   3.959   0.332  13.252  0.2761  0.5523  0.2064
  257MPD2     N 3900   3.749   4.649  13.303  0.8445  0.4128 -0.1922
  257MPD2    H5 3901   3.688   4.581  13.259  0.5596  1.0121 -0.7216
  257MPD2    N1 3902   3.777   0.172  12.884  0.0537  0.3062 -0.5164
  257MPD2    H7 3903   3.818   0.257  12.847 -1.3743  1.9159  1.6186
  258TMC3    C1 3904   3.763   4.482  13.463  0.2432 -0.2983 -0.1584
  258TMC3    C2 3905   3.825   4.399  13.373  0.5350  0.1651 -0.2211
  258TMC3    C3 3906   3.848   4.272  13.422  0.2754 -0.2610 -0.5858
  258TMC3    C4 3907   3.741   4.444  13.597 -0.2867  0.2605  0.3289
  258TMC3    C5 3908   3.783   4.320  13.639  0.0612 -0.2030  0.2124
  258TMC3    C6 3909   3.827   4.227  13.552 -0.1967  0.0995  0.1464
  258TMC3     C 3910   3.757   4.623  13.435 -0.7593 -0.2013 -0.5729
  258TMC3     O 3911   3.789   4.701  13.524  0.2460  0.2345 -0.0180
  258TMC3     H 3912   3.834   4.418  13.267 -0.6169 -0.5730 -0.4546
  258TMC3    H1 3913   3.697   4.521  13.659  2.4138  2.0936 -0.0016
  258TMC3    H2 3914   3.833   4.120  13.568  1.7334  0.1758 -0.0597
  258TMC3    C7 3915   3.740   4.279  13.772 -0.0420 -0.0625 -0.5757
  258TMC3    C8 3916   3.900   4.171  13.336  0.0726  0.9036 -0.0680
  258TMC3    O1 3917   3.652   4.342  13.829 -0.7154  0.4000 -0.3999
  258TMC3    O2 3918   3.928   4.061  13.380 -0.7058  0.3543  0.0841
  259MPD2     C 3919   2.403   1.651   1.452 -0.0685 -0.6850  0.1466
  259MPD2    C1 3920   2.411   1.519   1.471  1.1021 -0.3696 -0.0968
  259MPD2    C2 3921   2.460   1.436   1.371 -0.3324 -0.1204 -0.5002
  259MPD2    C3 3922   2.509   1.490   1.249 -0.5332  0.5243 -0.6625
  259MPD2    C4 3923   2.500   1.621   1.237  0.2581  0.1472  0.2966
  259MPD2    C5 3924   2.440   1.703   1.333  0.0144 -0.0237  0.0767
  259MPD2     H 3925   2.463   1.329   1.380  2.0326  0.0117  0.2468
  259MPD2    H1 3926   2.538   1.677   1.152  1.3452  0.4247  0.9789
  259MPD2    H2 3927   2.366   1.720   1.527  2.4703  0.6028  0.2122
  259MPD2    H3 3928   2.441   1.805   1.298 -1.3872 -0.4975 -1.3410
  259MPD2     N 3929   2.574   1.404   1.160  0.6911  0.2001  0.1095
  259MPD2    H5 3930   2.583   1.307   1.190  0.9179  0.4098  0.7053
  259MPD2    N1 3931   2.372   1.467   1.596 -0.0359  0.0799 -0.0693
  259MPD2    H7 3932   2.344   1.545   1.655 -0.2775  0.4015 -0.6107
  260TMC3    C1 3933   2.719   1.334   0.990  0.7510 -0.5529  0.2414
  260TMC3    C2 3934   2.822   1.367   0.908  0.4534 -0.2158  0.3365
  260TMC3    C3 3935   2.901   1.265   0.868 -0.3527 -0.4332 -0.2410
  260TMC3    C4 3936   2.684   1.203   1.029  0.1112  0.7806 -0.4472
  260TMC3    C5 3937   2.770   1.107   0.980 -0.2992  0.1336 -1.1361
  260TMC3    C6 3938   2.883   1.139   0.909  0.5222  0.4188  0.2568
  260TMC3     C 3939   2.647   1.444   1.048 -0.3861  0.5455 -0.6919
  260TMC3     O 3940   2.667   1.556   0.999 -0.3105  0.2897 -0.3793
  260TMC3     H 3941   2.836   1.464   0.863 -1.0416  1.0935  2.7079
  260TMC3    H1 3942   2.582   1.180   1.058  0.0356  2.4360  0.5831
  260TMC3    H2 3943   2.960   1.069   0.879  0.1466 -1.2332  3.1475
  260TMC3    C7 3944   2.711   0.978   0.952  0.3238 -0.0739 -0.2298
  260TMC3    C8 3945   2.970   1.290   0.742  0.4329  0.8006 -0.5698
  260TMC3    O1 3946   2.765   0.916   0.861  0.1799 -0.4283  0.0206
  260TMC3    O2 3947   3.007   1.402   0.715  0.0215 -0.5017 -0.8048
  261MPD2     C 3948   4.184   4.497  12.116  0.0539  0.1109 -0.6502
  261MPD2    C1 3949   4.256   4.576  12.201  0.2087 -1.0073 -0.1852
  261MPD2    C2 3950   4.310   4.697  12.155 -0.0306 -0.1917  0.2598
  261MPD2    C3 3951   4.306   0.001  12.019  0.6201  0.0857 -0.4837
  261MPD2    C4 3952   4.232   4.635  11.936  0.2341  0.4390 -0.4759
  261MPD2    C5 3953   4.167   4.532  11.989 -0.1905 -0.1415 -0.1572
  261MPD2     H 3954   4.364   0.029  12.230 -1.3061  1.1742  0.1623
  261MPD2    H1 3955   4.222   4.651  11.829 -3.1794 -1.5365 -0.4573
  261MPD2    H2 3956   4.133   4.404  12.138 -0.6710  0.6637 -0.0300
  261MPD2    H3 3957   4.123   4.454  11.927 -0.2824 -0.9861  0.9756
  261MPD2     N 3958   4.375   0.112  11.969  0.2206 -0.2523 -0.4571
  261MPD2    H5 3959   4.381   0.193  12.030  0.4789  1.5275 -2.8312
  261MPD2    N1 3960   4.287   4.536  12.336  0.4391  0.7876  0.0932
  261MPD2    H7 3961   4.358   4.591  12.384  2.4687 -0.5860 -1.3503
  262TMC3    C1 3962   4.421   0.274  11.799 -0.0372  0.7076  0.4473
  262TMC3    C2 3963   4.441   0.377  11.888  0.4469 -0.1854  0.0713
  262TMC3    C3 3964   4.505   0.488  11.843 -0.1262  0.4175 -0.3507
  262TMC3    C4 3965   4.436   0.287  11.669  1.1316  0.2387 -0.5446
  262TMC3    C5 3966   4.496   0.400  11.630 -0.7445 -1.2756  0.0215
  262TMC3    C6 3967   4.542   0.499  11.713  0.3359 -0.4701  0.2434
  262TMC3     C 3968   4.401   0.137  11.838  0.0985  0.2730  0.8324
  262TMC3     O 3969   4.406   0.045  11.756 -0.1024 -0.4634  0.3876
  262TMC3     H 3970   4.418   0.368  11.994  1.0991 -1.8047  0.0641
  262TMC3    H1 3971   4.409   0.211  11.597 -0.8580  1.2951 -0.9102
  262TMC3    H2 3972   4.583   0.595  11.685 -1.1623  0.1365  0.1114
  262TMC3    C7 3973   4.504   0.433  11.490  1.0444  1.3945 -0.2104
  262TMC3    C8 3974   4.454   0.618  11.898  0.3599 -0.6071  0.8248
  262TMC3    O1 3975   4.525   0.549  11.457 -0.2906 -0.1152  0.4534
  262TMC3    O2 3976   4.520   0.716  11.866  0.5142 -0.1146 -0.3293
  263MPD2     C 3977   0.441   3.965  11.358 -0.0658 -0.1007 -0.5237
  263MPD2    C1 3978   0.545   4.054  11.370  0.5176  0.9996  0.0744
  263MPD2    C2 3979   0.554   4.156  11.276  0.0242  0.2379 -0.4796
  263MPD2    C3 3980   0.473   4.167  11.166  0.4035 -0.5338 -0.4021
  263MPD2    C4 3981   0.367   4.078  11.157  0.3753 -0.0551 -0.0094
  263MPD2    C5 3982   0.349   3.984  11.253 -0.8150  0.1384  0.1034
  263MPD2     H 3983   0.638   4.223  11.285  3.2467 -3.7402 -0.6457
  263MPD2    H1 3984   0.296   4.081  11.074  1.5488 -2.0859 -1.0856
  263MPD2    H2 3985   0.432   3.880  11.426  0.0900  1.1453  1.0537
  263MPD2    H3 3986   0.272   3.910  11.238 -0.3859 -0.2982  0.0520
  263MPD2     N 3987   0.497   4.278  11.079 -0.1470 -0.0323  0.1274
  263MPD2    H5 3988   0.578   4.337  11.093  0.0808 -0.0258 -1.2412
  263MPD2    N1 3989   0.640   4.031  11.474 -0.2686 -0.3728 -0.6040
  263MPD2    H7 3990   0.627   3.954  11.538  0.5663  0.8288  0.9960
  264TMC3    C1 3991   0.463   4.439  10.913 -0.5612  0.2110  0.3068
  264TMC3    C2 3992   0.384   4.554  10.906 -0.4312  0.9943  0.9312
  264TMC3    C3 3993   0.419   4.632  10.796  0.0579  0.6371  0.3079
  264TMC3    C4 3994   0.565   4.395  10.836 -0.0117  0.0449  0.3662
  264TMC3    C5 3995   0.590   4.478  10.733 -0.8392 -0.8360  0.6868
  264TMC3    C6 3996   0.510   4.591  10.698 -0.4301  1.2378  0.0745
  264TMC3     C 3997   0.407   4.337  10.994 -0.3652 -0.1944  0.1759
  264TMC3     O 3998   0.285   4.321  10.977  0.1413  0.4022  0.4227
  264TMC3     H 3999   0.298   4.573  10.970 -0.3142  1.3167  0.9908
  264TMC3    H1 4000   0.619   4.303  10.856 -0.0638  0.2796  1.5748
  264TMC3    H2 4001   0.535   4.657  10.616  2.0276  0.0226 -0.1509
  264TMC3    C7 4002   0.734   4.490  10.705  0.0592  0.2550  0.4583
  264TMC3    C8 4003   0.472   0.028  10.850  0.5838  0.0973  0.3729
  264TMC3    O1 4004   0.801   4.386  10.715 -0.4962  0.2581 -0.8120
  264TMC3    O2 4005   0.561   0.080  10.782  0.3866 -0.2955 -0.2838
  265MPD2     C 4006   2.621   4.402  15.425 -0.4921  0.4084  0.0716
  265MPD2    C1 4007   2.715   4.501  15.407  0.2492 -0.9946 -0.2042
  265MPD2    C2 4008   2.794   4.493  15.292  0.2841 -0.1182  0.0787
  265MPD2    C3 4009   2.792   4.382  15.206  0.0108  0.2617 -0.4997
  265MPD2    C4 4010   2.693   4.292  15.228 -0.3609  0.3855 -0.0219
  265MPD2    C5 4011   2.613   4.300  15.335  0.3368 -0.4234  0.0919
  265MPD2     H 4012   2.843   4.587  15.268  1.4593 -0.6877  0.2859
  265MPD2    H1 4013   2.671   4.214  15.157  1.5303 -1.5612  1.5130
  265MPD2    H2 4014   2.553   4.396  15.509  0.9606  2.9690  1.4369
  265MPD2    H3 4015   2.549   4.214  15.341  0.2820 -0.3356  0.8213
  265MPD2     N 4016   2.877   4.360  15.094  0.2944 -0.5603  1.1616
  265MPD2    H5 4017   2.841   4.297  15.023 -1.4739  1.2141  0.4498
  265MPD2    N1 4018   2.715   4.614  15.489  0.0107  0.2774  0.6957
  265MPD2    H7 4019   2.741   4.707  15.457  0.2128  0.0419  0.1766
  266TMC3    C1 4020   2.625   0.026  15.656  0.4597 -0.2480 -0.5107
  266TMC3    C2 4021   2.597   0.040  15.790 -0.5554 -0.7036 -0.0156
  266TMC3    C3 4022   2.547   0.161  15.829  0.3592 -0.3808  0.1834
  266TMC3    C4 4023   2.597   0.126  15.567 -0.3199 -0.3801  0.0601
  266TMC3    C5 4024   2.539   0.233  15.606 -0.3604 -0.3687 -0.2767
  266TMC3    C6 4025   2.510   0.265  15.736 -0.1658  0.7380 -0.9538
  266TMC3     C 4026   2.645   4.615  15.608 -0.1667 -0.0912 -0.3492
  266TMC3     O 4027   2.624   4.523  15.689  0.3098  0.4773  0.3182
  266TMC3     H 4028   2.629   4.684  15.855  2.5090 -0.4883 -1.2561
  266TMC3    H1 4029   2.595   0.108  15.460 -1.5067 -1.1502  0.2065
  266TMC3    H2 4030   2.453   0.348  15.775 -0.7520  0.7869 -1.9243
  266TMC3    C7 4031   2.475   0.310  15.494  0.0297  0.6618  0.1842
  266TMC3    C8 4032   2.496   0.160  15.964  1.1209 -0.3872  0.6426
  266TMC3    O1 4033   2.437   0.241  15.398 -0.0869 -0.5297  0.1373
  266TMC3    O2 4034   2.445   0.056  15.989 -0.2335  0.5962 -0.4026
  267MPD2     C 4035   0.315   0.588  17.527 -0.3641 -0.1483 -0.3247
  267MPD2    C1 4036   0.303   0.713  17.579 -0.0603 -0.5204 -0.4489
  267MPD2    C2 4037   0.207   0.790  17.519  0.6391 -0.0997  0.4843
  267MPD2    C3 4038   0.128   0.748  17.415 -0.5119  1.3808 -0.7813
  267MPD2    C4 4039   0.137   0.615  17.376  0.2487  0.5559 -0.0175
  267MPD2    C5 4040   0.229   0.536  17.434 -0.4890  0.1308  0.1289
  267MPD2     H 4041   0.202   0.895  17.544 -0.4634  0.4050 -1.8841
  267MPD2    H1 4042   0.064   0.568  17.312 -1.5160 -0.6474  2.8962
  267MPD2    H2 4043   0.388   0.518  17.567  0.4597  0.1279 -1.3253
  267MPD2    H3 4044   0.243   0.431  17.411  2.0702  0.7670 -1.2257
  267MPD2     N 4045   0.037   0.823  17.345  0.0704 -0.1651 -0.0624
  267MPD2    H5 4046   4.692   0.776  17.287 -0.1521 -1.6383  1.4119
  267MPD2    N1 4047   0.379   0.769  17.690  0.0654 -0.9153  0.1057
  267MPD2    H7 4048   0.366   0.869   0.005  0.3537 -0.9397  0.6334
  268TMC3    C1 4049   0.536   0.776   0.167 -0.5080  0.3460 -0.7888
  268TMC3    C2 4050   0.562   0.906   0.146 -0.1602 -0.0952 -0.3390
  268TMC3    C3 4051   0.645   0.965   0.241 -0.2077  0.3502 -0.2577
  268TMC3    C4 4052   0.568   0.702   0.279  0.0775 -0.2850 -0.4214
  268TMC3    C5 4053   0.647   0.771   0.371  0.3083  0.1664  0.6620
  268TMC3    C6 4054   0.694   0.899   0.354  0.0836  0.3802  0.4015
  268TMC3     C 4055   0.476   0.697   0.061  0.5719 -0.3035 -0.4515
  268TMC3     O 4056   0.472   0.579   0.088 -0.0875  0.0497 -0.4347
  268TMC3     H 4057   0.555   0.955   0.049  0.1528 -0.0632 -0.3462
  268TMC3    H1 4058   0.540   0.598   0.294 -2.8228  0.6677  0.5518
  268TMC3    H2 4059   0.765   0.947   0.419  1.2364 -0.6143 -0.1192
  268TMC3    C7 4060   0.680   0.694   0.484 -0.3930 -0.0320  0.1409
  268TMC3    C8 4061   0.687   1.102   0.224 -0.4728 -0.8783 -0.0131
  268TMC3    O1 4062   0.618   0.590   0.497 -0.3796 -0.1950 -1.0173
  268TMC3    O2 4063   0.803   1.130   0.256 -0.1439  0.2913 -0.4088
  269MPD2     C 4064   0.251   0.017  16.399  0.1337  0.3450  0.2398
  269MPD2    C1 4065   0.140   0.040  16.317  0.0661 -0.5985  0.1215
  269MPD2    C2 4066   0.117   0.169  16.274  0.3940 -0.6985 -0.2316
  269MPD2    C3 4067   0.201   0.275  16.314  0.2776 -0.1513 -0.2983
  269MPD2    C4 4068   0.299   0.246  16.409  0.0210  0.0212  0.2403
  269MPD2    C5 4069   0.313   0.122  16.454  0.4394 -0.4634 -0.5573
  269MPD2     H 4070   0.032   0.195  16.212 -0.5971 -1.6000  0.7540
  269MPD2    H1 4071   0.373   0.316  16.446 -1.9044  2.4908 -0.5705
  269MPD2    H2 4072   0.279   4.643  16.437 -0.2901 -0.4777 -1.5163
  269MPD2    H3 4073   0.389   0.096  16.527 -2.1904 -0.2831  2.1994
  269MPD2     N 4074   0.181   0.402  16.255 -0.1918 -0.2675  0.6212
  269MPD2    H5 4075   0.104   0.408  16.189 -0.6478  0.2170  1.1853
  269MPD2    N1 4076   0.067   4.646  16.273 -0.8947 -0.0791 -0.1086
  269MPD2    H7 4077   0.091   4.565  16.330  1.1780  0.0463 -0.7916
  270TMC3    C1 4078   4.694   4.495  16.124 -0.5692  0.3056  0.2385
  270TMC3    C2 4079   4.596   4.474  16.031  0.1685  0.0326  0.8300
  270TMC3    C3 4080   4.604   4.357  15.959  0.4049 -0.1420  0.2246
  270TMC3    C4 4081   0.060   4.400  16.170  0.5862 -0.0449 -0.2585
  270TMC3    C5 4082   0.054   4.278  16.103  0.5680 -0.1367 -0.0516
  270TMC3    C6 4083   4.688   4.261  16.002 -0.8681 -0.4568 -0.3779
  270TMC3     C 4084   4.706   4.635  16.166  0.2224  0.3106 -0.1360
  270TMC3     O 4085   4.670   4.724  16.092  0.4499  0.4936  0.6819
  270TMC3     H 4086   4.539   4.560  15.999 -1.9535 -2.3271 -1.6966
  270TMC3    H1 4087   0.148   4.426  16.227  1.3960 -2.3520 -0.4569
  270TMC3    H2 4088   4.679   4.160  15.963 -0.5929 -0.5607 -0.1710
  270TMC3    C7 4089   0.182   4.218  16.066 -0.2707  0.4370  0.4015
  270TMC3    C8 4090   4.594   4.377  15.819 -0.4779 -0.4734  0.9524
  270TMC3    O1 4091   0.264   4.199  16.155 -0.7707  0.4667 -0.5638
  270TMC3    O2 4092   4.690   4.324  15.757  0.0573 -0.1811 -0.7241
  271MPD2     C 4093   4.516   4.537  13.907  0.6099 -0.3045 -0.3171
  271MPD2    C1 4094   4.453   4.601  14.020  0.3840 -0.0367  0.6830
  271MPD2    C2 4095   4.371   4.713  14.001 -0.1071 -0.5037  0.2414
  271MPD2    C3 4096   4.332   0.028  13.870  0.1553 -0.5705  0.1059
  271MPD2    C4 4097   4.391   4.681  13.769  0.0484  0.5256  0.6763
  271MPD2    C5 4098   4.480   4.581  13.787 -0.2146  0.3745 -0.1901
  271MPD2     H 4099   4.325   0.032  14.089 -0.8285 -0.4195 -0.1719
  271MPD2    H1 4100   4.358   4.696  13.667  0.8023  0.6221  0.4485
  271MPD2    H2 4101   4.579   4.449  13.910  1.5345  0.3858  0.1769
  271MPD2    H3 4102   4.522   4.529  13.702 -2.1159  1.8206 -2.0184
  271MPD2     N 4103   4.241   0.129  13.836  0.1103 -0.0588  0.6608
  271MPD2    H5 4104   4.250   0.158  13.739 -2.0100 -1.1381  0.1350
  271MPD2    N1 4105   4.461   4.543  14.152  0.5725  0.2676  0.2977
  271MPD2    H7 4106   4.413   4.596  14.223 -0.5103 -0.6432  0.2432
  272TMC3    C1 4107   4.532   4.403  14.318 -0.2038  0.3662 -0.3000
  272TMC3    C2 4108   4.614   4.298  14.362  0.7844 -0.0586  0.3257
  272TMC3    C3 4109   4.602   4.256  14.490  0.2937 -0.2510  0.2409
  272TMC3    C4 4110   4.439   4.465  14.401  0.1769 -0.8056 -0.1809
  272TMC3    C5 4111   4.432   4.423  14.532  0.3385  0.4740  0.1948
  272TMC3    C6 4112   4.512   4.319  14.575  0.0691  0.2928  0.1883
  272TMC3     C 4113   4.538   4.440  14.178  0.0972  0.6477 -0.3301
  272TMC3     O 4114   4.613   4.373  14.107  0.4691 -0.4444  0.0151
  272TMC3     H 4115   4.684   4.245  14.298  0.6580  0.0091  0.1306
  272TMC3    H1 4116   4.359   4.526  14.361 -0.3980  0.1278  2.3920
  272TMC3    H2 4117   4.501   4.288  14.679 -1.1196  1.5616  0.4421
  272TMC3    C7 4118   4.345   4.505  14.616 -0.2526 -0.0852 -0.0407
  272TMC3    C8 4119   4.665   4.127  14.526 -0.3512 -0.4619  0.7209
  272TMC3    O1 4120   4.256   4.564  14.559 -0.1655  0.0762 -0.3808
  272TMC3    O2 4121   4.699   4.060  14.426  0.1876 -0.2864 -0.3761
  273MPD2     C 4122   1.301   2.797  11.963 -0.1891 -0.3929 -0.3578
  273MPD2    C1 4123   1.338   2.926  12.000 -0.2260  0.2624 -0.2937
  273MPD2    C2 4124   1.380   3.008  11.898  0.1682  0.7052 -0.0755
  273MPD2    C3 4125   1.409   2.956  11.771 -0.0862  0.2860 -0.1084
  273MPD2    C4 4126   1.390   2.826  11.737 -0.0328  0.1316  0.1768
  273MPD2    C5 4127   1.328   2.752  11.837  0.3392  0.6300  0.0042
  273MPD2     H 4128   1.396   3.115  11.912 -0.5736  0.8188 -0.0948
  273MPD2    H1 4129   1.405   2.789  11.636  0.8018 -0.7375  0.6152
  273MPD2    H2 4130   1.263   2.729  12.038 -2.5293 -0.0108 -1.2173
  273MPD2    H3 4131   1.322   2.644  11.827 -4.1847  1.1012 -2.3151
  273MPD2     N 4132   1.478   3.034  11.673 -0.1215  0.0131 -0.5605
  273MPD2    H5 4133   1.509   2.979  11.593  0.1371 -1.7243  0.7474
  273MPD2    N1 4134   1.326   2.962  12.134  0.1079  1.0040  0.0517
  273MPD2    H7 4135   1.287   2.898  12.202 -1.2353  1.9554  0.1884
  274TMC3    C1 4136   1.551   3.236  11.551  0.4405 -0.4544 -0.3053
  274TMC3    C2 4137   1.501   3.185  11.438 -0.1027  0.5864  0.3798
  274TMC3    C3 4138   1.486   3.273  11.330  0.8469 -0.8242 -0.4686
  274TMC3    C4 4139   1.585   3.368  11.562  0.5186 -0.5168  0.4758
  274TMC3    C5 4140   1.567   3.449  11.455  0.0242 -0.2908 -0.3210
  274TMC3    C6 4141   1.524   3.401  11.334 -1.0296 -0.4738  1.1892
  274TMC3     C 4142   1.513   3.173  11.683 -0.1242  0.5650  0.7389
  274TMC3     O 4143   1.500   3.245  11.774  0.5095  0.1679 -0.0696
  274TMC3     H 4144   1.465   3.083  11.423 -0.1303  0.6324  0.1264
  274TMC3    H1 4145   1.625   3.395  11.659 -0.4903  0.7350  0.5448
  274TMC3    H2 4146   1.461   3.466  11.275  0.0110  0.5886  1.2663
  274TMC3    C7 4147   1.508   3.576  11.496 -0.7937 -0.3287 -0.3661
  274TMC3    C8 4148   1.384   3.242  11.235  0.7288  0.3825 -0.4387
  274TMC3    O1 4149   1.437   3.591  11.598  0.3696 -0.3499 -0.1305
  274TMC3    O2 4150   1.287   3.181  11.273 -0.5863  0.3726  0.0134
  275MPD2     C 4151   1.188   0.643  14.710  0.3150 -0.3898 -0.6943
  275MPD2    C1 4152   1.141   0.555  14.808  0.5198 -0.0533  0.9527
  275MPD2    C2 4153   1.020   0.494  14.789 -0.0945  0.0524  0.3557
  275MPD2    C3 4154   0.957   0.506  14.667 -0.3793 -0.1167 -0.3426
  275MPD2    C4 4155   1.007   0.576  14.562  0.0384 -0.0108 -0.1592
  275MPD2    C5 4156   1.121   0.651  14.594 -0.4978 -0.1257 -0.0814
  275MPD2     H 4157   0.982   0.424  14.862  0.8399  0.1466  0.9381
  275MPD2    H1 4158   0.956   0.583  14.467  1.7159  0.5910 -1.0184
  275MPD2    H2 4159   1.279   0.701  14.717 -0.1196  0.0257  1.6133
  275MPD2    H3 4160   1.170   0.705  14.513  1.2028 -1.5150  0.0275
  275MPD2     N 4161   0.822   0.457  14.654  0.0019 -0.3779  0.3789
  275MPD2    H5 4162   0.771   0.479  14.569  1.0535  0.9288  0.0939
  275MPD2    N1 4163   1.195   0.539  14.932  0.6439  0.0932  0.6041
  275MPD2    H7 4164   1.168   0.461  14.991  0.5211 -1.2712 -1.2624
  276TMC3    C1 4165   1.313   0.571  15.125  0.7220 -0.6301 -0.5004
  276TMC3    C2 4166   1.199   0.530  15.195  0.6932 -0.2345 -0.1536
  276TMC3    C3 4167   1.215   0.528  15.329  0.1240 -0.0450  0.1695
  276TMC3    C4 4168   1.427   0.612  15.186  0.1776 -0.3346  0.1848
  276TMC3    C5 4169   1.428   0.617  15.326  0.0559  0.1467  0.4301
  276TMC3    C6 4170   1.318   0.582  15.397  0.5969  0.5281 -1.0815
  276TMC3     C 4171   1.291   0.614  14.988  0.0646 -0.1846  0.7675
  276TMC3     O 4172   1.358   0.707  14.950 -0.5365 -0.4019  0.1430
  276TMC3     H 4173   1.098   0.545  15.160  1.1891 -2.9271 -2.7448
  276TMC3    H1 4174   1.506   0.635  15.116  1.4822  2.0365  2.4555
  276TMC3    H2 4175   1.303   0.602  15.503 -1.3496 -1.0191 -1.0780
  276TMC3    C7 4176   1.518   0.713  15.390  0.7827  0.5798  0.6890
  276TMC3    C8 4177   1.102   0.521  15.415  0.0932  0.8875  0.4110
  276TMC3    O1 4178   1.511   0.717  15.510 -0.2920 -0.0723 -0.0309
  276TMC3    O2 4179   1.052   0.630  15.448 -0.4744  0.2647 -0.1581
  277MPD2     C 4180   3.063   0.197  13.569 -0.4958 -0.7233  0.0336
  277MPD2    C1 4181   3.019   0.086  13.505  0.5886 -0.5102  0.0392
  277MPD2    C2 4182   2.935   0.000  13.578  0.3283 -0.2344 -0.1837
  277MPD2    C3 4183   2.910   0.019  13.715 -0.1377  0.8711 -0.2699
  277MPD2    C4 4184   2.963   0.128  13.780  0.6580  0.3083  0.5568
  277MPD2    C5 4185   3.037   0.216  13.700  0.3582 -0.5517 -0.1868
  277MPD2     H 4186   2.886   4.642  13.527  1.4100 -1.3199  0.5211
  277MPD2    H1 4187   2.962   0.143  13.887  1.1478 -0.7327  0.7107
  277MPD2    H2 4188   3.121   0.274  13.520 -2.0746  0.3998 -0.0825
  277MPD2    H3 4189   3.079   0.306  13.743  1.5654 -0.6952 -1.0885
  277MPD2     N 4190   2.823   4.652  13.781 -0.1090 -0.4053  0.2567
  277MPD2    H5 4191   2.797   4.566  13.732  0.0846 -0.2874 -0.0535
  277MPD2    N1 4192   3.038   0.069  13.357 -0.7000 -0.6450 -0.3522
  277MPD2    H7 4193   3.074   0.150  13.309  1.6056 -1.5349 -0.1326
  278TMC3    C1 4194   2.680   4.560  13.939  0.0849  0.4246 -0.6685
  278TMC3    C2 4195   2.691   4.432  13.883 -0.5355 -0.3051  0.6046
  278TMC3    C3 4196   2.603   4.332  13.924 -0.0056 -0.6155 -0.4011
  278TMC3    C4 4197   2.580   4.586  14.030  0.2474 -0.2876 -0.2353
  278TMC3    C5 4198   2.481   4.491  14.052 -0.3753  0.4332  0.4587
  278TMC3    C6 4199   2.500   4.358  14.002  0.0713  0.7379 -0.5487
  278TMC3     C 4200   2.772   4.663  13.904  0.0980 -0.1173 -0.3494
  278TMC3     O 4201   2.768   0.038  13.975  0.3527  0.0936 -0.7473
  278TMC3     H 4202   2.778   4.406  13.823  0.7273 -0.9127  2.6993
  278TMC3    H1 4203   2.573   4.679  14.087  0.1033  0.1048 -0.8951
  278TMC3    H2 4204   2.423   4.287  14.029  0.4988 -0.3973 -2.2919
  278TMC3    C7 4205   2.381   4.528  14.155  0.1435  0.1027  0.1939
  278TMC3    C8 4206   2.607   4.205  13.849  0.4678  0.2325 -0.5555
  278TMC3    O1 4207   2.396   4.623  14.227 -0.0772 -0.3244  0.5716
  278TMC3    O2 4208   2.715   4.146  13.822 -0.0840 -0.1656  0.3388
  279MPD2     C 4209   1.995   4.114   0.407 -0.4804 -0.0405 -0.6412
  279MPD2    C1 4210   1.987   4.247   0.398 -0.1472 -0.6375  0.3349
  279MPD2    C2 4211   2.041   4.314   0.289 -0.7338  0.0472  0.3715
  279MPD2    C3 4212   2.093   4.250   0.180 -0.3077  0.3703  0.0463
  279MPD2    C4 4213   2.093   4.112   0.193  0.7461 -0.1882 -0.0129
  279MPD2    C5 4214   2.051   4.048   0.303 -0.2955  0.1762  0.4132
  279MPD2     H 4215   2.028   4.422   0.281 -0.8052  0.1687  2.0364
  279MPD2    H1 4216   2.122   4.050   0.108  0.4982  1.2598 -1.1647
  279MPD2    H2 4217   1.945   4.059   0.486 -2.6268 -2.0714 -3.4155
  279MPD2    H3 4218   2.042   3.940   0.312  0.2629  0.1227  0.2837
  279MPD2     N 4219   2.124   4.309   0.059  0.0113 -0.2753 -0.1414
  279MPD2    H5 4220   2.164   4.247  17.686  1.8172  1.3687 -0.5511
  279MPD2    N1 4221   1.922   4.314   0.510  0.0737  0.0113  0.2922
  279MPD2    H7 4222   1.859   4.250   0.558 -0.8874 -0.5030 -1.6865
  280TMC3    C1 4223   1.772   4.472   0.592  0.2542  0.4493 -0.3628
  280TMC3    C2 4224   1.671   4.406   0.531  0.3052 -0.2452  0.6859
  280TMC3    C3 4225   1.547   4.460   0.530  0.6370 -0.1353 -0.0513
  280TMC3    C4 4226   1.758   4.591   0.659  0.4404  0.4737  0.0774
  280TMC3    C5 4227   1.636   4.645   0.652 -1.0910  0.4932  0.3350
  280TMC3    C6 4228   1.531   4.590   0.583  0.0231  0.2312  0.4487
  280TMC3     C 4229   1.906   4.443   0.527 -0.3558  0.2681  0.5264
  280TMC3     O 4230   1.978   4.533   0.485  0.0981 -0.2234  0.1741
  280TMC3     H 4231   1.698   4.330   0.459 -1.7298 -1.3047  1.0596
  280TMC3    H1 4232   1.841   4.645   0.702  1.3649  0.9901 -2.3044
  280TMC3    H2 4233   1.446   4.651   0.554 -0.9906 -0.4344  2.0319
  280TMC3    C7 4234   1.625   0.064   0.691 -0.8393  0.1639 -0.1354
  280TMC3    C8 4235   1.492   4.466   0.399  0.3226  0.3050  0.0305
  280TMC3    O1 4236   1.726   0.126   0.717  0.5184  0.3102 -0.4720
  280TMC3    O2 4237   1.574   4.495   0.313  0.4824 -0.0147  0.3730
  281TMC3    C1 4238   0.398   4.613  13.272  0.1523  0.4476 -0.0513
  281TMC3    C2 4239   0.311   4.705  13.221  0.5768  0.4058  0.1689
  281TMC3    C3 4240   0.258   4.661  13.098 -0.2294 -0.3322 -0.4821
  281TMC3    C4 4241   0.417   4.484  13.228 -0.3754 -0.3232  0.8883
  281TMC3    C5 4242   0.351   4.446  13.114 -0.1212  0.3599  0.5437
  281TMC3    C6 4243   0.283   4.535  13.040  0.4043  0.9209  0.1925
  281TMC3     C 4244   0.498   4.654  13.367  0.3994  0.2518 -0.7671
  281TMC3     O 4245   0.596   4.583  13.378 -0.1996  0.2541 -0.3338
  281TMC3     H 4246   0.278   0.076  13.262 -1.0388  1.0389 -2.6318
  281TMC3    H1 4247   0.483   4.419  13.283  0.4849 -1.3818 -1.4232
  281TMC3    H2 4248   0.231   4.500  12.951 -1.1008 -2.1181  2.2870
  281TMC3    C7 4249   0.368   4.312  13.063 -0.1880  0.3322  0.1659
  281TMC3    C8 4250   0.222   0.054  13.008  0.0374  0.7358 -0.4800
  281TMC3    O1 4251   0.346   4.288  12.945  0.0112  0.3292 -0.6634
  281TMC3    O2 4252   0.253   0.158  13.064  0.4561  0.0987 -0.6341
  282MPD2     C 4253   2.685   1.678  15.464 -0.9103 -0.0897 -0.0153
  282MPD2    C1 4254   2.565   1.713  15.517  0.4651 -0.2523 -0.0881
  282MPD2    C2 4255   2.450   1.710  15.443  0.4776 -0.2970 -0.3635
  282MPD2    C3 4256   2.454   1.687  15.304  0.2100  0.7297  0.2799
  282MPD2    C4 4257   2.582   1.656  15.258 -0.4191  0.2413 -0.1791
  282MPD2    C5 4258   2.697   1.654  15.335 -0.5840  0.2587  0.2806
  282MPD2     H 4259   2.353   1.744  15.478  1.6226 -0.2231  2.7093
  282MPD2    H1 4260   2.595   1.623  15.156 -0.2584  0.4371 -0.2218
  282MPD2    H2 4261   2.779   1.675  15.517 -2.4451 -1.8928  2.5848
  282MPD2    H3 4262   2.794   1.618  15.305 -0.1845  1.1844  0.4878
  282MPD2     N 4263   2.344   1.678  15.220 -0.3208  0.2069  0.4413
  282MPD2    H5 4264   2.254   1.707  15.256  0.9051  2.7078  1.4589
  282MPD2    N1 4265   2.547   1.747  15.660  0.1689 -0.2171 -0.9245
  282MPD2    H7 4266   2.458   1.776  15.699  0.3168 -2.3360  0.9898
  283TMC3    C1 4267   2.566   1.745  15.887 -0.0192  0.2856  0.6646
  283TMC3    C2 4268   2.527   1.877  15.911  0.2508  0.0784 -0.3205
  283TMC3    C3 4269   2.476   1.901  16.037  0.5489  0.4303 -0.6157
  283TMC3    C4 4270   2.548   1.646  15.986  0.9026 -0.6342 -0.9849
  283TMC3    C5 4271   2.477   1.676  16.097 -0.4735 -0.3891  0.9700
  283TMC3    C6 4272   2.439   1.800  16.121 -0.6111 -0.5236 -0.0938
  283TMC3     C 4273   2.629   1.707  15.759 -0.0448  0.2636 -0.2486
  283TMC3     O 4274   2.727   1.644  15.750  0.1645 -0.4831 -0.5508
  283TMC3     H 4275   2.532   1.947  15.829  0.2103 -0.4027 -0.7339
  283TMC3    H1 4276   2.602   1.555  15.962  0.5431 -1.0974 -0.0095
  283TMC3    H2 4277   2.394   1.824  16.217 -1.0859  0.7436 -0.6311
  283TMC3    C7 4278   2.386   1.571  16.145 -0.1211 -0.9521 -0.4613
  283TMC3    C8 4279   2.451   2.034  16.085 -0.5093 -0.4021  0.1843
  283TMC3    O1 4280   2.335   1.587  16.254  0.6292  0.0733  0.3490
  283TMC3    O2 4281   2.453   2.061  16.200 -0.4028 -0.2054  0.4220
  284MPD2     C 4282   0.687   1.025  12.087 -1.0195  0.2463  0.4414
  284MPD2    C1 4283   0.754   0.980  11.979  0.4731  0.1676  0.4276
  284MPD2    C2 4284   0.717   0.849  11.926 -0.5322  0.3225 -0.7437
  284MPD2    C3 4285   0.612   0.779  11.981  0.3028  0.1334 -0.2593
  284MPD2    C4 4286   0.539   0.838  12.084  0.4700 -0.3762 -0.4938
  284MPD2    C5 4287   0.574   0.963  12.135  0.1981  0.3819 -0.5375
  284MPD2     H 4288   0.780   0.799  11.853  1.0439 -0.2883  1.0425
  284MPD2    H1 4289   0.451   0.789  12.125  1.5433 -2.2581 -0.4447
  284MPD2    H2 4290   0.726   1.107  12.146 -0.7078  0.6609 -0.3428
  284MPD2    H3 4291   0.523   1.011  12.218  0.6063 -0.3900  0.1676
  284MPD2     N 4292   0.564   0.654  11.934  0.0404 -0.2223  0.0574
  284MPD2    H5 4293   0.482   0.619  11.982 -1.5680  0.4527 -2.1747
  284MPD2    N1 4294   0.875   1.035  11.938  1.0024 -0.4814 -0.1383
  284MPD2    H7 4295   0.927   0.990  11.864  2.3080 -0.5569  0.8138
  285TMC3    C1 4296   1.045   1.185  11.901  0.8816  0.6186 -0.1660
  285TMC3    C2 4297   1.100   1.085  11.828 -0.0405  0.5412 -0.2201
  285TMC3    C3 4298   1.202   1.121  11.738 -0.2355 -0.1114  0.7574
  285TMC3    C4 4299   1.084   1.310  11.891 -0.5940  0.4709 -0.5133
  285TMC3    C5 4300   1.183   1.340  11.806 -0.4640  0.5280  0.4509
  285TMC3    C6 4301   1.251   1.250  11.728 -0.3206 -0.0613 -0.6491
  285TMC3     C 4302   0.937   1.148  11.989  1.0455  0.2019  0.0401
  285TMC3     O 4303   0.892   1.236  12.061 -0.2749  0.3327  0.5579
  285TMC3     H 4304   1.077   0.979  11.833 -0.4547  0.6966  1.1677
  285TMC3    H1 4305   1.032   1.377  11.959  0.0913  1.0788 -0.5888
  285TMC3    H2 4306   1.316   1.285  11.648 -1.6510  0.3412 -1.5570
  285TMC3    C7 4307   1.198   1.479  11.755 -0.2119  0.4193 -0.2582
  285TMC3    C8 4308   1.208   1.036  11.617 -0.3379  0.8254  0.0749
  285TMC3    O1 4309   1.307   1.510  11.707  0.1649 -0.3811  0.0626
  285TMC3    O2 4310   1.103   0.976  11.586 -0.1448  0.3516  0.1099
  286MPD2     C 4311   0.692   4.260   1.899 -0.0538 -0.2875 -0.0221
  286MPD2    C1 4312   0.662   4.345   1.793  0.5007  0.4779 -1.0036
  286MPD2    C2 4313   0.770   4.398   1.732 -0.0102 -0.4115 -0.5836
  286MPD2    C3 4314   0.901   4.368   1.756  0.9453 -0.3088 -0.6258
  286MPD2    C4 4315   0.931   4.284   1.863  0.4875  0.1049  0.3324
  286MPD2    C5 4316   0.818   4.230   1.931  0.3367  0.9234 -0.3244
  286MPD2     H 4317   0.754   4.473   1.655 -1.6676 -0.5919 -0.4146
  286MPD2    H1 4318   1.031   4.255   1.892  0.1067 -0.6209  0.9294
  286MPD2    H2 4319   0.613   4.214   1.957  1.2406 -0.4524  1.6066
  286MPD2    H3 4320   0.850   4.169   2.015  0.1311  0.2361 -0.7421
  286MPD2     N 4321   1.003   4.410   1.671 -0.1322 -0.4820 -0.9264
  286MPD2    H5 4322   1.099   4.399   1.704 -0.3255  0.3173 -0.0984
  286MPD2    N1 4323   0.535   4.354   1.730 -0.1107 -0.0215 -0.6043
  286MPD2    H7 4324   0.525   4.406   1.643  1.3453 -0.0605 -0.7972
  287TMC3    C1 4325   1.117   4.508   1.497  0.0914 -0.4784 -0.2691
  287TMC3    C2 4326   1.136   4.432   1.390  0.2539  0.2769 -0.3877
  287TMC3    C3 4327   1.256   4.374   1.362  0.3728 -0.2194  0.1218
  287TMC3    C4 4328   1.211   4.505   1.592  0.7565  0.5639  0.0798
  287TMC3    C5 4329   1.331   4.452   1.563  1.0782  0.4505  0.5260
  287TMC3    C6 4330   1.366   4.394   1.443 -0.2859 -0.3530 -0.0811
  287TMC3     C 4331   0.984   4.488   1.552 -0.3155 -0.0392 -0.5610
  287TMC3     O 4332   0.890   4.504   1.481  0.1529 -0.4871  0.4551
  287TMC3     H 4333   1.054   4.415   1.321  0.7858 -0.9567 -0.7271
  287TMC3    H1 4334   1.192   4.553   1.688  0.0914 -0.1364  0.2943
  287TMC3    H2 4335   1.449   4.326   1.430 -1.2206 -0.9969 -2.8421
  287TMC3    C7 4336   1.401   4.403   1.677 -1.1372  0.1766  0.1630
  287TMC3    C8 4337   1.251   4.278   1.251  0.0678  0.4741  0.6086
  287TMC3    O1 4338   1.330   4.396   1.777 -0.2620 -0.0131  0.0219
  287TMC3    O2 4339   1.141   4.225   1.231  0.3530 -0.2473  0.0002
  288TMC3    C1 4340   2.471   3.890  14.700 -0.0110  0.2139 -0.7623
  288TMC3    C2 4341   2.394   3.886  14.815  0.1984  0.2819  0.1344
  288TMC3    C3 4342   2.432   3.957  14.927 -0.1311  0.0058  0.1663
  288TMC3    C4 4343   2.576   3.984  14.683  0.7898 -0.4849  0.3465
  288TMC3    C5 4344   2.600   4.064  14.788 -0.7147 -0.3969 -0.4797
  288TMC3    C6 4345   2.524   4.054  14.909 -0.7086 -0.8790  0.1934
  288TMC3     C 4346   2.433   3.806  14.582 -0.1732  0.0566  0.2320
  288TMC3     O 4347   2.359   3.711  14.602  0.4675 -0.3256 -0.4352
  288TMC3     H 4348   2.324   3.803  14.817  0.0712  0.3851 -0.1101
  288TMC3    H1 4349   2.642   3.980  14.598  0.0941 -1.1501 -0.1645
  288TMC3    H2 4350   2.559   4.113  14.994  0.1842 -0.5442 -0.4069
  288TMC3    C7 4351   2.708   4.161  14.793  0.3682  0.5881  0.0563
  288TMC3    C8 4352   2.384   3.926  15.060  0.5013 -0.6282  0.1659
  288TMC3    O1 4353   2.750   4.211  14.898 -0.7369  0.0755 -0.2000
  288TMC3    O2 4354   2.431   4.004  15.147 -0.3009  0.0135  0.7811
  289MPD2     C 4355   2.858   3.134  14.659  0.3764  0.5715 -0.3268
  289MPD2    C1 4356   2.823   3.245  14.593 -0.3223  0.5273 -0.1829
  289MPD2    C2 4357   2.696   3.260  14.556  0.8910 -0.8824 -0.1180
  289MPD2    C3 4358   2.603   3.162  14.589 -0.5206 -0.4512 -0.1491
  289MPD2    C4 4359   2.645   3.043  14.654  0.2070  0.0070 -0.0601
  289MPD2    C5 4360   2.772   3.031  14.694 -0.1871  1.0647  0.2647
  289MPD2     H 4361   2.664   3.355  14.514  1.2026 -1.2600 -1.2115
  289MPD2    H1 4362   2.573   2.965  14.678 -0.0704  0.9286  2.1284
  289MPD2    H2 4363   2.964   3.132  14.684  1.1393  4.3898 -3.1720
  289MPD2    H3 4364   2.808   2.944  14.746  2.4151  0.2124 -2.9738
  289MPD2     N 4365   2.463   3.179  14.569 -0.1642  0.7025 -0.4985
  289MPD2    H5 4366   2.405   3.115  14.622  0.4453  0.3322 -0.2724
  289MPD2    N1 4367   2.908   3.353  14.565  0.4596  0.1744 -0.1422
  289MPD2    H7 4368   2.876   3.420  14.496  1.1345  0.3716 -0.2599
  290TMC3    C1 4369   2.260   3.288  14.521  0.3052 -0.1316  0.3009
  290TMC3    C2 4370   2.196   3.409  14.509  0.1888  0.1396 -0.5323
  290TMC3    C3 4371   2.060   3.410  14.498 -0.3989  0.4375  0.1929
  290TMC3    C4 4372   2.191   3.174  14.511  0.2370 -0.1792  0.0874
  290TMC3    C5 4373   2.054   3.181  14.493 -0.0399  0.0820  0.0873
  290TMC3    C6 4374   1.985   3.297  14.489  0.2585 -0.0581 -0.3008
  290TMC3     C 4375   2.403   3.283  14.498 -0.0760 -0.3929  0.5544
  290TMC3     O 4376   2.453   3.358  14.415  0.2069  0.0284 -0.0512
  290TMC3     H 4377   2.254   3.499  14.522 -1.3017  0.7117  2.1391
  290TMC3    H1 4378   2.242   3.081  14.532 -1.1157 -0.7151  1.0024
  290TMC3    H2 4379   1.877   3.300  14.474  0.2341 -1.4661 -0.3919
  290TMC3    C7 4380   1.973   3.067  14.528 -0.7325 -0.2435 -0.6060
  290TMC3    C8 4381   1.998   3.527  14.453  0.1248  0.5288 -0.2205
  290TMC3    O1 4382   1.856   3.078  14.565 -0.3706  0.6586 -0.0580
  290TMC3    O2 4383   1.909   3.512  14.373  0.2697 -0.0390  0.0339
  291MPD2     C 4384   1.837   2.527   0.730  0.0918  0.2837  0.4246
  291MPD2    C1 4385   1.742   2.485   0.638  0.0675 -0.2428  0.3714
  291MPD2    C2 4386   1.774   2.490   0.500 -0.6082 -0.2322  0.0985
  291MPD2    C3 4387   1.898   2.534   0.457  0.3347 -0.0069 -0.0122
  291MPD2    C4 4388   1.984   2.578   0.550 -0.1878 -0.0463  0.5850
  291MPD2    C5 4389   1.954   2.572   0.683  0.7469  0.2535 -0.2177
  291MPD2     H 4390   1.704   2.452   0.426 -0.9352 -1.2129  0.9077
  291MPD2    H1 4391   2.070   2.635   0.516 -0.2043  0.8951  2.1230
  291MPD2    H2 4392   1.821   2.524   0.837  0.6768 -1.8030  0.4609
  291MPD2    H3 4393   2.033   2.606   0.749 -0.7757  0.2545  1.5800
  291MPD2     N 4394   1.925   2.553   0.320 -0.8113 -0.6956 -0.9174
  291MPD2    H5 4395   2.012   2.601   0.299 -1.6812  0.3260 -2.1434
  291MPD2    N1 4396   1.614   2.435   0.675 -0.7061 -0.4937  0.3106
  291MPD2    H7 4397   1.568   2.395   0.593  0.4149  0.5544 -0.8314
  292TMC3    C1 4398   1.417   2.387   0.810 -0.3159  0.0566  0.0138
  292TMC3    C2 4399   1.341   2.416   0.926  0.3633  0.9369 -0.1355
  292TMC3    C3 4400   1.218   2.369   0.932  0.9339  0.3856 -0.3967
  292TMC3    C4 4401   1.368   2.311   0.708 -0.5766  0.1384  0.2190
  292TMC3    C5 4402   1.238   2.268   0.722 -0.0897  0.0263  0.3880
  292TMC3    C6 4403   1.160   2.291   0.836 -0.0448 -0.5431  0.6120
  292TMC3     C 4404   1.552   2.449   0.801 -0.3676  0.4762 -0.7883
  292TMC3     O 4405   1.582   2.512   0.901  0.1291  0.0960  0.3220
  292TMC3     H 4406   1.365   2.494   0.997  2.0565 -0.3993  0.7478
  292TMC3    H1 4407   1.436   2.269   0.635 -3.5734  0.0674 -2.5200
  292TMC3    H2 4408   1.057   2.258   0.852 -0.2915  0.3395  0.8223
  292TMC3    C7 4409   1.217   2.135   0.663 -0.5407 -0.4137 -0.1067
  292TMC3    C8 4410   1.152   2.372   1.066 -0.0799  0.2349 -0.3515
  292TMC3    O1 4411   1.311   2.060   0.638  0.3616  0.0126 -0.4519
  292TMC3    O2 4412   1.185   2.465   1.140  0.1916 -0.9580  0.3543
  293MPD2     C 4413   3.978   4.690  12.558  0.6410 -0.0665 -0.5022
  293MPD2    C1 4414   3.920   4.600  12.649  0.0749  0.4087  0.1367
  293MPD2    C2 4415   3.961   4.604  12.782 -0.2661 -0.1015  0.5613
  293MPD2    C3 4416   4.070   4.687  12.821  0.3692 -0.0583 -0.5406
  293MPD2    C4 4417   4.134   0.045  12.725 -0.3919 -0.2125 -0.0414
  293MPD2    C5 4418   4.090   0.043  12.592 -0.4419  0.6551 -0.4051
  293MPD2     H 4419   3.910   4.544  12.857 -0.6496 -0.0128  0.3717
  293MPD2    H1 4420   4.213   0.112  12.757 -0.5266  0.0713 -0.2980
  293MPD2    H2 4421   3.939   4.697  12.457  0.6048  2.8865 -0.3026
  293MPD2    H3 4422   4.136   0.100  12.513  0.6220 -0.7350 -0.7831
  293MPD2     N 4423   4.100   4.692  12.957  0.4201  0.3339 -0.2285
  293MPD2    H5 4424   4.038   4.642  13.020  0.7681  1.2832  0.8667
  293MPD2    N1 4425   3.800   4.532  12.602  0.0452  0.1601  0.5139
  293MPD2    H7 4426   3.788   4.531  12.501 -0.3421  1.5781  0.5423
  294TMC3    C1 4427   3.614   4.405  12.582 -0.0691  0.6771 -0.9838
  294TMC3    C2 4428   3.553   4.286  12.611 -0.4644 -0.1366 -0.2354
  294TMC3    C3 4429   3.450   4.247  12.531 -0.3410 -0.2986  0.1446
  294TMC3    C4 4430   3.586   4.480  12.474  0.4011  0.1367 -0.3712
  294TMC3    C5 4431   3.477   4.445  12.408  0.0182  0.8568  0.2443
  294TMC3    C6 4432   3.405   4.329  12.421  0.4737 -0.0303 -0.0796
  294TMC3     C 4433   3.715   4.459  12.677  0.0191 -0.7213  0.5618
  294TMC3     O 4434   3.725   4.406  12.786 -0.2319  0.4357 -0.6306
  294TMC3     H 4435   3.585   4.234  12.701  1.3130  0.8054 -0.3205
  294TMC3    H1 4436   3.617   4.583  12.463 -1.3896  0.5848 -1.1696
  294TMC3    H2 4437   3.337   4.282  12.351 -0.4565  3.5255 -1.5759
  294TMC3    C7 4438   3.463   4.510  12.285  0.2428  0.0313 -0.8026
  294TMC3    C8 4439   3.424   4.104  12.506  0.4435  0.2594 -0.0735
  294TMC3    O1 4440   3.347   4.527  12.239 -0.1373  0.1382  0.2832
  294TMC3    O2 4441   3.381   4.067  12.397 -0.0895 -0.0815  0.0876
  295MPD2     C 4442   4.231   3.555   0.746 -0.6697 -0.2693  0.3445
  295MPD2    C1 4443   4.252   3.440   0.682  0.6531 -0.3034 -0.0370
  295MPD2    C2 4444   4.241   3.314   0.740 -0.3740 -0.5489  0.0568
  295MPD2    C3 4445   4.202   3.306   0.874 -0.1515 -0.3294 -0.0787
  295MPD2    C4 4446   4.177   3.421   0.942  0.4283  0.5694  0.0955
  295MPD2    C5 4447   4.183   3.541   0.878 -0.7034  0.1075 -0.0441
  295MPD2     H 4448   4.264   3.223   0.686 -1.1439 -0.2659 -0.7699
  295MPD2    H1 4449   4.142   3.429   1.045  1.6716 -2.3898  0.7486
  295MPD2    H2 4450   4.228   3.657   0.710 -0.4557 -0.9035 -1.4565
  295MPD2    H3 4451   4.151   3.633   0.926 -1.0590 -0.1394  0.1862
  295MPD2     N 4452   4.196   3.185   0.949  0.1944  0.2361  0.0434
  295MPD2    H5 4453   4.175   3.197   1.048  1.9890  0.0363  0.4387
  295MPD2    N1 4454   4.290   3.436   0.551 -0.0059  0.1948  0.1383
  295MPD2    H7 4455   4.306   3.346   0.506  1.0587  1.3348 -1.7482
  296TMC3    C1 4456   4.214   2.952   0.993  0.2558 -0.0895 -0.1317
  296TMC3    C2 4457   4.327   2.873   1.008 -0.0524  0.1701  0.0846
  296TMC3    C3 4458   4.324   2.775   1.103  0.5550 -0.5244  0.4128
  296TMC3    C4 4459   4.106   2.937   1.073  0.2105  0.4298 -0.0589
  296TMC3    C5 4460   4.112   2.843   1.177  0.3646  0.1405 -0.2856
  296TMC3    C6 4461   4.220   2.760   1.193 -0.5112  0.2709 -0.3368
  296TMC3     C 4462   4.235   3.062   0.907  0.4849 -0.1400  0.2515
  296TMC3     O 4463   4.299   3.030   0.811  0.3252 -0.5151  0.4335
  296TMC3     H 4464   4.417   2.887   0.951  0.4536 -2.5932  0.2128
  296TMC3    H1 4465   4.025   3.007   1.056 -0.0200  0.4627  1.1507
  296TMC3    H2 4466   4.224   2.696   1.280 -1.6564 -0.3002 -0.6974
  296TMC3    C7 4467   4.002   2.848   1.266 -0.5085 -0.2293  0.6702
  296TMC3    C8 4468   4.451   2.700   1.132 -0.1056 -0.1998 -0.1151
  296TMC3    O1 4469   3.915   2.921   1.234 -0.2219  0.5855  0.2403
  296TMC3    O2 4470   4.452   2.637   1.242 -0.6760 -0.1319  0.1614
  297MPD2     C 4471   1.719   0.160  16.801 -0.2505 -0.2732 -0.2116
  297MPD2    C1 4472   1.694   0.244  16.691 -0.2659  0.4655 -0.6286
  297MPD2    C2 4473   1.744   0.371  16.688 -0.1041 -0.0318 -0.0395
  297MPD2    C3 4474   1.810   0.420  16.795  0.3506 -0.1860  0.1257
  297MPD2    C4 4475   1.844   0.338  16.904  0.0342 -0.0389 -0.3252
  297MPD2    C5 4476   1.802   0.207  16.903 -0.3111  0.2818  0.4978
  297MPD2     H 4477   1.715   0.434  16.604 -0.4286  1.3776  1.1250
  297MPD2    H1 4478   1.897   0.375  16.991  0.3549 -0.3500 -0.3904
  297MPD2    H2 4479   1.662   0.068  16.806 -1.2119  0.2921 -0.6828
  297MPD2    H3 4480   1.833   0.145  16.986  1.5666  1.2901  0.5293
  297MPD2     N 4481   1.841   0.559  16.793 -0.0959 -0.2889  0.0303
  297MPD2    H5 4482   1.834   0.604  16.702  2.5865  1.1698  0.5241
  297MPD2    N1 4483   1.593   0.219  16.596  0.4771 -0.2959 -0.1442
  297MPD2    H7 4484   1.583   0.291  16.526 -0.2581 -0.1519  0.1030
  298TMC3    C1 4485   1.387   0.142  16.518  0.6329  0.1966  0.4650
  298TMC3    C2 4486   1.422   0.173  16.393 -0.7668  0.0038  0.3596
  298TMC3    C3 4487   1.332   0.226  16.302  0.0177 -0.1152 -0.9006
  298TMC3    C4 4488   1.273   0.192  16.565 -0.1470  0.4375 -0.6851
  298TMC3    C5 4489   1.176   0.237  16.475  0.3263 -0.1589 -0.0464
  298TMC3    C6 4490   1.205   0.256  16.345  0.8884 -0.3487  0.4837
  298TMC3     C 4491   1.488   0.130  16.615 -0.2654  0.3205  0.0634
  298TMC3     O 4492   1.446   0.059  16.707 -0.0175  0.1471  0.5007
  298TMC3     H 4493   1.517   0.137  16.356  0.7671  1.3550  3.0151
  298TMC3    H1 4494   1.246   0.186  16.669  2.5323 -0.2280 -0.0268
  298TMC3    H2 4495   1.131   0.282  16.270  1.1527  0.3726  0.4733
  298TMC3    C7 4496   1.052   0.299  16.523 -0.7970 -0.2774 -0.4752
  298TMC3    C8 4497   1.367   0.225  16.160 -0.3879  0.2976  0.8095
  298TMC3    O1 4498   1.032   0.303  16.643 -0.2492  0.0677 -0.1121
  298TMC3    O2 4499   1.420   0.119  16.123  0.1692  0.4493 -0.3006
  299MPD2     C 4500   2.153   0.224  10.800 -0.0345 -1.0555  0.3960
  299MPD2    C1 4501   2.180   0.356  10.798  0.2790  0.2301  0.8248
  299MPD2    C2 4502   2.100   0.436  10.709  0.0512 -0.0038  0.1859
  299MPD2    C3 4503   1.996   0.376  10.636 -0.2236  0.0721 -0.1617
  299MPD2    C4 4504   1.962   0.242  10.655 -0.1314 -0.3768 -0.6724
  299MPD2    C5 4505   2.045   0.170  10.733  0.9901 -0.9079  0.5211
  299MPD2     H 4506   2.113   0.543  10.701  2.9471 -0.2142  2.3425
  299MPD2    H1 4507   1.888   0.189  10.596 -2.0405 -0.2669  1.5941
  299MPD2    H2 4508   2.208   0.164  10.872 -0.0742 -2.3716 -0.6808
  299MPD2    H3 4509   2.032   0.065  10.754 -0.3650 -0.8721 -0.0909
  299MPD2     N 4510   1.916   0.441  10.535  0.2626 -0.3071  0.2841
  299MPD2    H5 4511   1.856   0.373  10.490  1.1987  0.2015 -1.7016
  299MPD2    N1 4512   2.280   0.397  10.890  0.0626 -0.0856  0.1097
  299MPD2    H7 4513   2.336   0.332  10.945  0.6620 -0.3415 -0.8153
  300TMC3    C1 4514   1.817   0.623  10.409 -0.3526 -0.6494  0.7805
  300TMC3    C2 4515   1.819   0.756  10.397  1.1144  0.1018  0.4604
  300TMC3    C3 4516   1.725   0.808  10.314 -0.0066 -0.4844 -0.1739
  300TMC3    C4 4517   1.736   0.540  10.338 -0.4144 -0.0822  0.6051
  300TMC3    C5 4518   1.647   0.592  10.252 -0.6556 -0.5083  1.0699
  300TMC3    C6 4519   1.634   0.731  10.244  0.0437  0.4789  0.2605
  300TMC3     C 4520   1.914   0.581  10.511 -0.0525 -0.4672  1.1574
  300TMC3     O 4521   1.980   0.668  10.564  0.3740  0.3935 -0.1184
  300TMC3     H 4522   1.899   0.815  10.440  0.5737  1.2771 -0.1705
  300TMC3    H1 4523   1.745   0.433  10.353 -1.9384 -0.6255 -2.4378
  300TMC3    H2 4524   1.547   0.774  10.194  0.4225  0.9098 -0.0240
  300TMC3    C7 4525   1.529   0.503  10.253  0.0795  0.6719 -0.6649
  300TMC3    C8 4526   1.697   0.947  10.336 -0.2325 -0.4122 -0.7491
  300TMC3    O1 4527   1.515   0.417  10.168  0.3281 -0.8024  0.5066
  300TMC3    O2 4528   1.624   0.999  10.255  0.3259  0.2201 -0.0896
  301MPD2     C 4529   3.957   1.293   1.984  0.9725 -0.2765  0.0272
  301MPD2    C1 4530   3.830   1.278   1.933  0.4145  0.5075 -0.0600
  301MPD2    C2 4531   3.778   1.151   1.919 -0.0953  0.4007 -0.3553
  301MPD2    C3 4532   3.838   1.038   1.961  0.2065  0.0529  0.3758
  301MPD2    C4 4533   3.969   1.058   2.016 -0.7356 -0.3445 -0.0317
  301MPD2    C5 4534   4.023   1.183   2.026  0.2679 -0.0460  0.2503
  301MPD2     H 4535   3.677   1.148   1.878 -0.5658 -2.3066  0.9771
  301MPD2    H1 4536   4.028   0.972   2.048 -0.8812 -0.2280  0.5434
  301MPD2    H2 4537   4.004   1.389   2.003 -1.7621  0.8816  0.9316
  301MPD2    H3 4538   4.125   1.192   2.063  0.6679 -0.7149 -0.6864
  301MPD2     N 4539   3.786   0.904   1.950  0.8001  0.2738 -0.2908
  301MPD2    H5 4540   3.848   0.825   1.968  0.2699 -0.4589 -1.7429
  301MPD2    N1 4541   3.746   1.389   1.891  0.1074  0.0757 -0.1312
  301MPD2    H7 4542   3.660   1.362   1.842 -1.2929  1.9624  1.2853
  302TMC3    C1 4543   3.635   0.731   1.900  0.2439 -0.4782 -0.3374
  302TMC3    C2 4544   3.728   0.627   1.907 -0.9070 -0.2449  0.4213
  302TMC3    C3 4545   3.686   0.496   1.919 -0.2937 -0.7468  0.3246
  302TMC3    C4 4546   3.504   0.698   1.894 -0.6886  0.1962 -0.4277
  302TMC3    C5 4547   3.469   0.567   1.895 -0.1203  0.3852  0.5645
  302TMC3    C6 4548   3.554   0.463   1.921 -0.2151  0.1578 -0.0524
  302TMC3     C 4549   3.660   0.874   1.917 -0.3343  0.4060 -0.5680
  302TMC3     O 4550   3.564   0.945   1.932  0.0836  0.7652  0.2389
  302TMC3     H 4551   3.834   0.648   1.902 -0.8841 -0.1468  1.2587
  302TMC3    H1 4552   3.429   0.775   1.892  0.9453  1.7824 -0.7038
  302TMC3    H2 4553   3.516   0.361   1.925 -0.4206  0.2266 -0.2070
  302TMC3    C7 4554   3.334   0.535   1.857  0.4549 -0.1511 -0.0941
  302TMC3    C8 4555   3.782   0.391   1.895 -0.3907 -0.1417 -0.0345
  302TMC3    O1 4556   3.280   0.441   1.909 -0.0954 -0.6585  0.8261
  302TMC3    O2 4557   3.891   0.417   1.843 -0.2887 -0.2294 -0.0729
  303MPD2     C 4558   4.663   4.140  10.444 -0.2005  0.9147  0.0902
  303MPD2    C1 4559   4.531   4.098  10.434 -0.4927 -0.2053 -0.3443
  303MPD2    C2 4560   4.479   4.065  10.307 -0.9999 -1.3038  0.0254
  303MPD2    C3 4561   4.555   4.082  10.190  0.7229 -0.2380 -0.7412
  303MPD2    C4 4562   4.681   4.137  10.206  0.6056  0.6492 -0.1702
  303MPD2    C5 4563   0.009   4.157  10.331  0.2368  0.5026 -0.0774
  303MPD2     H 4564   4.384   4.013  10.306 -2.2149  0.9357  0.9114
  303MPD2    H1 4565   0.014   4.168  10.119  1.8903  1.9705  1.1471
  303MPD2    H2 4566   4.715   4.164  10.536  0.7977 -0.0662 -0.2121
  303MPD2    H3 4567   0.109   4.200  10.336  0.5380 -0.1756 -0.2773
  303MPD2     N 4568   4.510   4.043  10.065 -0.4513 -0.0093  0.0506
  303MPD2    H5 4569   4.564   4.076   9.986 -0.4310 -1.8302 -0.7015
  303MPD2    N1 4570   4.469   4.070  10.558 -0.5903 -0.8634  0.0954
  303MPD2    H7 4571   4.526   4.082  10.641  0.8448  2.6426 -1.4089
  304TMC3    C1 4572   4.302   3.987  10.711  0.6752  0.7797  0.3427
  304TMC3    C2 4573   4.167   3.981  10.719 -0.7478  0.0323 -0.2940
  304TMC3    C3 4574   4.110   3.876  10.789  0.0187 -0.1960  0.5350
  304TMC3    C4 4575   4.382   3.888  10.757 -0.2457 -0.2155 -0.0923
  304TMC3    C5 4576   4.323   3.779  10.815  0.2413  0.8382  0.2888
  304TMC3    C6 4577   4.189   3.781  10.845 -0.4205  0.2735 -0.0597
  304TMC3     C 4578   4.338   4.037  10.575 -0.1108  0.3501 -0.1658
  304TMC3     O 4579   4.253   4.022  10.490  0.0764  1.0919  0.5052
  304TMC3     H 4580   4.104   4.059  10.678 -1.2165 -0.5264 -0.6334
  304TMC3    H1 4581   4.483   3.873  10.721  0.5123  2.0332  1.0570
  304TMC3    H2 4582   4.161   3.699  10.910 -0.4600  0.0822 -0.3212
  304TMC3    C7 4583   4.380   3.649  10.787  0.2036 -0.6031  0.9735
  304TMC3    C8 4584   4.011   3.803  10.723 -0.5410 -0.4218  0.3140
  304TMC3    O1 4585   4.504   3.646  10.777  0.7876 -0.2408 -0.2933
  304TMC3    O2 4586   4.017   3.679  10.741  0.0111 -0.1595 -0.3525
  305MPD2     C 4587   2.672   1.919  14.203  0.1756 -0.5018 -0.1909
  305MPD2    C1 4588   2.641   1.790  14.215  0.4777 -0.0800  0.5308
  305MPD2    C2 4589   2.636   1.707  14.101 -0.0612  0.6430  0.3020
  305MPD2    C3 4590   2.681   1.758  13.980 -0.5640 -0.7573 -0.2819
  305MPD2    C4 4591   2.704   1.889  13.973 -0.3504  0.4437  0.7668
  305MPD2    C5 4592   2.694   1.972  14.083 -0.9208  0.7432 -0.2365
  305MPD2     H 4593   2.609   1.602  14.107 -0.4876  0.8119  1.4476
  305MPD2    H1 4594   2.732   1.934  13.878  1.2464 -0.7524  0.6652
  305MPD2    H2 4595   2.671   1.984  14.289  0.5834 -0.9030  0.1143
  305MPD2    H3 4596   2.716   2.077  14.067 -0.0929  0.7892  1.2824
  305MPD2     N 4597   2.686   1.674  13.862  0.4881  0.4291 -0.7184
  305MPD2    H5 4598   2.718   1.719  13.777  0.6750 -0.4327 -1.0941
  305MPD2    N1 4599   2.609   1.742  14.343 -0.0633 -0.0129 -0.2771
  305MPD2    H7 4600   2.628   1.799  14.424  1.8719  1.4024 -1.7293
  306TMC3    C1 4601   2.508   1.604  14.498  0.0580 -0.9163  0.3705
  306TMC3    C2 4602   2.557   1.496  14.568 -0.1617 -0.2959  0.5002
  306TMC3    C3 4603   2.572   1.514  14.707  1.1371  0.0242 -0.9866
  306TMC3    C4 4604   2.455   1.712  14.570  0.2942  0.4240  1.1058
  306TMC3    C5 4605   2.464   1.715  14.708  0.1043 -0.0685 -0.4134
  306TMC3    C6 4606   2.538   1.624  14.774 -1.0140  0.2378 -0.2176
  306TMC3     C 4607   2.564   1.616  14.367 -0.0690 -0.0473 -0.2788
  306TMC3     O 4608   2.581   1.510  14.310  0.1023  0.1156 -0.0102
  306TMC3     H 4609   2.589   1.403  14.521 -1.9787  0.1302 -1.5329
  306TMC3    H1 4610   2.397   1.788  14.518 -0.0108  0.5485  1.6264
  306TMC3    H2 4611   2.545   1.638  14.881  0.2216  0.7439 -0.3677
  306TMC3    C7 4612   2.413   1.838  14.771 -0.2120  0.5103 -0.2668
  306TMC3    C8 4613   2.669   1.427  14.770 -0.0178  0.0170  0.0658
  306TMC3    O1 4614   2.322   1.905  14.726  0.1947  0.2146 -0.0923
  306TMC3    O2 4615   2.734   1.360  14.693  0.2611  0.2361  0.2853
  307MPD2     C 4616   4.381   3.613   1.224  0.0893 -0.5879  0.4888
  307MPD2    C1 4617   4.386   3.742   1.187 -0.3019 -0.1528  0.2311
  307MPD2    C2 4618   4.273   3.815   1.194  0.1700  0.0094 -0.4763
  307MPD2    C3 4619   4.151   3.766   1.243 -0.2692 -0.3495  0.1031
  307MPD2    C4 4620   4.148   3.631   1.290  1.0194 -0.5557  0.4330
  307MPD2    C5 4621   4.267   3.559   1.275 -0.2956  0.7861  0.1540
  307MPD2     H 4622   4.285   3.918   1.164  0.2542  0.4485  1.0669
  307MPD2    H1 4623   4.057   3.590   1.333 -0.6610  1.6732 -0.9906
  307MPD2    H2 4624   4.470   3.551   1.233  0.8328  0.1818 -1.4376
  307MPD2    H3 4625   4.278   3.458   1.312 -0.8795  0.5928 -0.1995
  307MPD2     N 4626   4.047   3.849   1.249  0.0815 -0.2384  0.4644
  307MPD2    H5 4627   4.062   3.945   1.219 -0.3597 -0.3393 -0.0719
  307MPD2    N1 4628   4.507   3.802   1.142  0.7182  0.2413  0.1164
  307MPD2    H7 4629   4.498   3.898   1.111 -0.4049  0.3041  0.6322
  308TMC3    C1 4630   3.689   4.085   1.195 -0.1314  0.3015  1.0193
  308TMC3    C2 4631   3.767   4.201   1.202 -0.2728 -0.2397  0.1333
  308TMC3    C3 4632   3.888   4.188   1.272 -0.1598 -0.5993  0.2936
  308TMC3    C4 4633   3.723   3.958   1.243 -0.1130  0.3639 -0.0264
  308TMC3    C5 4634   3.848   3.953   1.304  0.3201 -0.1817 -0.0477
  308TMC3    C6 4635   3.930   4.066   1.326 -0.2815  0.3548 -0.1547
  308TMC3     C 4636   3.572   4.080   1.103  0.0696  0.7290  0.6730
  308TMC3     O 4637   3.513   3.976   1.079  0.3864  0.2994 -0.2667
  308TMC3     H 4638   3.731   4.300   1.177 -0.9647 -0.6835 -0.6403
  308TMC3    H1 4639   3.666   3.870   1.214 -0.4111  0.2286  0.9642
  308TMC3    H2 4640   4.027   4.060   1.373  1.5283  2.4822 -3.6243
  308TMC3    C7 4641   3.920   3.819   1.284 -0.7440 -0.6176  0.6429
  308TMC3    C8 4642   3.965   4.308   1.297 -0.1824  0.1508 -0.2776
  308TMC3    O1 4643   3.858   3.713   1.311  0.3597  0.3948  0.4825
  308TMC3    O2 4644   4.037   4.318   1.400  0.1889 -0.4563  0.2583
  309MPD2     C 4645   3.887   0.216  17.190  0.3573  0.9062  0.0195
  309MPD2    C1 4646   3.849   0.315  17.105  0.2920 -0.2901 -0.6503
  309MPD2    C2 4647   3.726   0.370  17.120  0.7516 -0.3191  0.5641
  309MPD2    C3 4648   3.638   0.330  17.223  0.8224 -0.7007 -0.2801
  309MPD2    C4 4649   3.678   0.227  17.311 -0.5330 -1.0659  0.4053
  309MPD2    C5 4650   3.804   0.176  17.292  0.5520  0.3692 -0.2213
  309MPD2     H 4651   3.704   0.452  17.052 -0.5603 -0.8592  0.3330
  309MPD2    H1 4652   3.612   0.191  17.389 -1.8962 -0.2319 -0.3632
  309MPD2    H2 4653   3.986   0.171  17.187  0.2394  0.7771 -1.6293
  309MPD2    H3 4654   3.829   0.095  17.360 -0.5390 -2.0689 -2.6775
  309MPD2     N 4655   3.514   0.400  17.249  0.0899  0.7825  0.8416
  309MPD2    H5 4656   3.467   0.369  17.334 -2.2882 -1.2516 -1.2393
  309MPD2    N1 4657   3.941   0.366  17.014  0.0000 -0.4201 -0.3436
  309MPD2    H7 4658   3.898   0.407  16.931 -2.0062 -0.6896  0.5489
  310TMC3    C1 4659   4.147   0.421  16.916  0.5314 -0.2583  0.1298
  310TMC3    C2 4660   4.105   0.545  16.866  0.1773 -0.1527  0.8403
  310TMC3    C3 4661   4.188   0.597  16.768  0.0875  0.6538  0.0058
  310TMC3    C4 4662   4.270   0.364  16.890  0.5160 -0.5962 -0.2036
  310TMC3    C5 4663   4.352   0.426  16.802  0.4316 -0.4712 -0.6235
  310TMC3    C6 4664   4.309   0.546  16.739  0.2374 -0.0115  0.0684
  310TMC3     C 4665   4.076   0.361  17.022 -0.3343  0.4091  0.1513
  310TMC3     O 4666   4.145   0.317  17.114  0.0184  0.0401 -0.7869
  310TMC3     H 4667   4.015   0.591  16.904  0.0395 -1.6501  2.3465
  310TMC3    H1 4668   4.312   0.282  16.947  2.2689  1.5205  1.5971
  310TMC3    H2 4669   4.368   0.595  16.662  1.1088 -2.4177 -0.8188
  310TMC3    C7 4670   4.477   0.365  16.759  0.2746 -0.7215  0.2951
  310TMC3    C8 4671   4.132   0.705  16.692 -0.7802  0.0989  0.2406
  310TMC3    O1 4672   4.566   0.441  16.725  0.3339 -0.3743 -0.0163
  310TMC3    O2 4673   4.013   0.728  16.717  1.1984  0.1238  0.3131
  311MPD2     C 4674   1.700   1.180  13.000 -0.5222 -0.3243 -0.4427
  311MPD2    C1 4675   1.701   1.294  13.071 -0.0232 -0.0870 -0.5028
  311MPD2    C2 4676   1.594   1.308  13.157 -0.1504 -0.5789  0.0197
  311MPD2    C3 4677   1.486   1.222  13.174  0.1817  0.1477  0.2107
  311MPD2    C4 4678   1.512   1.096  13.122  0.4587 -0.0223 -0.2929
  311MPD2    C5 4679   1.613   1.080  13.035 -1.2879  0.0477  0.0876
  311MPD2     H 4680   1.582   1.406  13.201 -4.3099 -0.8892 -0.4412
  311MPD2    H1 4681   1.441   1.014  13.128  1.5769 -1.0392 -0.8873
  311MPD2    H2 4682   1.767   1.149  12.921  0.3738 -1.9649  0.9632
  311MPD2    H3 4683   1.627   0.989  12.978  3.8988  1.3597 -0.8197
  311MPD2     N 4684   1.381   1.275  13.257 -0.4261 -0.0823 -0.5826
  311MPD2    H5 4685   1.376   1.375  13.274  2.5583  0.1679 -1.2571
  311MPD2    N1 4686   1.794   1.393  13.055 -0.4727 -0.0471 -0.0754
  311MPD2    H7 4687   1.774   1.479  13.105 -1.2518 -0.5709  0.5087
  312TMC3    C1 4688   1.178   1.279  13.351 -0.5551 -0.7289  0.3263
  312TMC3    C2 4689   1.056   1.228  13.328  0.1452  0.3493  0.6142
  312TMC3    C3 4690   0.948   1.311  13.350  0.3783 -0.6962 -0.1151
  312TMC3    C4 4691   1.205   1.401  13.397  0.1814 -0.0813 -0.1122
  312TMC3    C5 4692   1.095   1.482  13.425 -0.5611 -1.1588  0.0925
  312TMC3    C6 4693   0.971   1.442  13.388  0.5003  0.4695  0.6816
  312TMC3     C 4694   1.281   1.195  13.293  0.0255 -0.1761  0.4129
  312TMC3     O 4695   1.262   1.078  13.265  0.4427 -1.3706 -0.5639
  312TMC3     H 4696   1.044   1.127  13.290  0.3746  1.6097 -2.8060
  312TMC3    H1 4697   1.303   1.431  13.434  0.4217 -0.4165 -0.4788
  312TMC3    H2 4698   0.895   1.519  13.385  1.4782  1.2952 -2.9276
  312TMC3    C7 4699   1.121   1.623  13.454  0.9445 -0.2184 -0.3724
  312TMC3    C8 4700   0.820   1.282  13.282 -0.0201 -0.3767  0.4386
  312TMC3    O1 4701   1.035   1.699  13.411 -0.6904 -0.5239  0.1071
  312TMC3    O2 4702   0.817   1.189  13.202 -1.2375 -0.6099  0.1033
  313MPD2     C 4703   0.626   0.550  10.697  1.0695  0.1181  0.6515
  313MPD2    C1 4704   0.711   0.596  10.598 -0.4187  0.3112 -0.2057
  313MPD2    C2 4705   0.751   0.516  10.497  0.0171  0.4427  0.0443
  313MPD2    C3 4706   0.712   0.385  10.497  0.1279  0.0489 -0.8284
  313MPD2    C4 4707   0.631   0.332  10.595 -0.2219  0.1742  0.1343
  313MPD2    C5 4708   0.588   0.419  10.695 -0.9601  0.2395  0.0039
  313MPD2     H 4709   0.813   0.543  10.412 -0.7979 -3.1574 -1.6743
  313MPD2    H1 4710   0.595   0.229  10.596  0.7378 -0.1818 -1.9816
  313MPD2    H2 4711   0.584   0.615  10.773 -2.2895  1.1251 -2.0799
  313MPD2    H3 4712   0.526   0.387  10.778 -0.2788  0.1155  0.4707
  313MPD2     N 4713   0.768   0.304  10.395 -0.0029  0.0137 -0.1243
  313MPD2    H5 4714   0.821   0.357  10.326 -0.1047  0.9437  0.5193
  313MPD2    N1 4715   0.757   0.729  10.591 -0.1543  0.3203 -0.4914
  313MPD2    H7 4716   0.800   0.755  10.502  1.1806 -0.1782  0.0137
  314TMC3    C1 4717   0.808   0.951  10.648 -0.2838  0.2493  0.3327
  314TMC3    C2 4718   0.885   1.002  10.751  0.5058 -0.4385  0.2703
  314TMC3    C3 4719   0.998   1.063  10.710  0.0225 -0.7532 -0.1836
  314TMC3    C4 4720   0.846   0.957  10.508  0.2874  0.8931  0.2122
  314TMC3    C5 4721   0.967   1.006  10.479  0.1947 -0.1608 -0.2696
  314TMC3    C6 4722   1.040   1.064  10.582  0.1501  0.4113  0.3229
  314TMC3     C 4723   0.734   0.831  10.685 -0.1936  0.7833  0.5033
  314TMC3     O 4724   0.681   0.835  10.797 -0.2563 -0.0639  0.0864
  314TMC3     H 4725   0.870   0.986  10.857  0.1694  3.0281  0.7433
  314TMC3    H1 4726   0.783   0.914  10.430  0.2808  0.0845  0.6609
  314TMC3    H2 4727   1.133   1.114  10.557 -0.2375 -0.1007 -2.1663
  314TMC3    C7 4728   0.976   1.044  10.338 -0.3982 -0.0670 -0.2375
  314TMC3    C8 4729   1.089   1.116  10.811  0.3220 -0.7720  0.8087
  314TMC3    O1 4730   0.878   1.070  10.266 -0.0797  0.1744 -0.0238
  314TMC3    O2 4731   1.208   1.110  10.784 -0.0033 -0.3353  0.1017
  315MPD2     C 4732   0.642   4.539   0.377  0.1161  0.2628 -0.0783
  315MPD2    C1 4733   0.763   4.561   0.441 -0.3545 -0.1902 -0.2712
  315MPD2    C2 4734   0.816   4.687   0.427  0.7047  0.2305 -0.0523
  315MPD2    C3 4735   0.763   0.057   0.333  0.5156 -0.6323 -0.1488
  315MPD2    C4 4736   0.653   0.024   0.265  0.4461 -0.7797  0.5017
  315MPD2    C5 4737   0.590   4.629   0.291 -0.3714 -0.0968 -0.7037
  315MPD2     H 4738   0.900   4.716   0.489  1.8714  0.5601 -1.7873
  315MPD2    H1 4739   0.603   0.099   0.205 -0.1736 -1.0283  0.7066
  315MPD2    H2 4740   0.606   4.436   0.371 -2.7364  1.3242 -1.2316
  315MPD2    H3 4741   0.504   4.603   0.230 -1.4809 -0.1777  0.8890
  315MPD2     N 4742   0.834   0.175   0.320 -0.0370  0.7876 -0.2493
  315MPD2    H5 4743   0.912   0.189   0.383 -0.7277  2.0582  0.3103
  315MPD2    N1 4744   0.834   4.459   0.516 -0.0350  0.0698  0.1716
  315MPD2    H7 4745   0.908   4.498   0.573  1.6314 -1.9419 -0.6165
  316TMC3    C1 4746   0.887   0.394   0.253  0.3064 -0.0320 -0.4993
  316TMC3    C2 4747   0.969   0.419   0.363 -0.7141 -0.2061  0.3476
  316TMC3    C3 4748   1.043   0.530   0.381  0.1788 -0.2301 -0.0533
  316TMC3    C4 4749   0.875   0.498   0.163  0.1047  0.2599  0.3435
  316TMC3    C5 4750   0.939   0.616   0.181  0.0442  0.8711 -0.5037
  316TMC3    C6 4751   1.026   0.630   0.287  0.7484 -0.3021  0.6340
  316TMC3     C 4752   0.812   0.271   0.226  0.3593  0.7547 -0.5400
  316TMC3     O 4753   0.717   0.271   0.150 -0.2369  0.2861 -0.3049
  316TMC3     H 4754   0.979   0.345   0.441  2.8848 -0.3617 -0.2524
  316TMC3    H1 4755   0.813   0.479   0.077  0.0540 -1.1766  0.7007
  316TMC3    H2 4756   1.085   0.721   0.286 -1.6114  1.2393 -0.9245
  316TMC3    C7 4757   0.899   0.733   0.112  0.2014  0.1423  0.0634
  316TMC3    C8 4758   1.138   0.555   0.494  0.1241  0.1431  0.1432
  316TMC3    O1 4759   0.940   0.842   0.150  0.3979 -0.0732  0.2052
  316TMC3    O2 4760   1.182   0.671   0.486 -0.3469 -0.0119 -0.3318
  317MPD2     C 4761   2.591   3.079  12.712 -0.1809 -0.1598 -0.6435
  317MPD2    C1 4762   2.723   3.044  12.720  0.3127 -0.0066  0.0354
  317MPD2    C2 4763   2.774   3.015  12.844  0.5197  0.3054  0.9991
  317MPD2    C3 4764   2.695   3.029  12.953  0.9861  0.0549  0.8759
  317MPD2    C4 4765   2.563   3.063  12.945 -0.1798  0.2902 -0.7969
  317MPD2    C5 4766   2.504   3.084  12.824  0.3409  0.3650  0.1115
  317MPD2     H 4767   2.880   2.992  12.852  0.7138 -0.4656 -4.1432
  317MPD2    H1 4768   2.506   3.068  13.037  1.9000 -0.4228  0.5351
  317MPD2    H2 4769   2.545   3.078  12.613  0.5752  2.6307 -1.0351
  317MPD2    H3 4770   2.400   3.113  12.815  0.2439  0.3407  1.2129
  317MPD2     N 4771   2.734   2.977  13.077  0.0326 -0.0200 -1.1156
  317MPD2    H5 4772   2.668   2.985  13.154  0.4633 -2.4546 -0.4864
  317MPD2    N1 4773   2.811   3.030  12.605  0.3032  0.0183  0.2087
  317MPD2    H7 4774   2.898   2.978  12.619 -0.1492 -0.3313  1.7201
  318TMC3    C1 4775   2.869   2.896  13.245  0.5979  0.4215  0.0313
  318TMC3    C2 4776   2.779   2.806  13.292  0.0418  0.5946 -0.3209
  318TMC3    C3 4777   2.787   2.777  13.429 -0.3888  0.8260  0.7731
  318TMC3    C4 4778   2.967   2.949  13.325 -0.2648  0.3418 -0.8081
  318TMC3    C5 4779   2.978   2.900  13.453 -0.3906  0.3184  0.4397
  318TMC3    C6 4780   2.893   2.819  13.509  0.5175  0.5389  0.3296
  318TMC3     C 4781   2.863   2.934  13.106 -0.2375 -0.2885  0.4045
  318TMC3     O 4782   2.966   2.932  13.043  0.0733 -0.4559  0.1178
  318TMC3     H 4783   2.701   2.765  13.229  1.6420 -2.1153 -0.5298
  318TMC3    H1 4784   3.042   3.009  13.276  1.4965 -1.2567 -0.0447
  318TMC3    H2 4785   2.885   2.792  13.614 -0.1387 -0.8327 -0.0619
  318TMC3    C7 4786   3.088   2.946  13.530  0.0021 -0.1929 -0.2609
  318TMC3    C8 4787   2.687   2.686  13.490 -0.7161 -0.3162  0.0946
  318TMC3    O1 4788   3.125   3.062  13.515 -0.0310 -0.2562  0.1420
  318TMC3    O2 4789   2.719   2.636  13.594 -0.0327  0.5992  0.3719
  319MPD2     C 4790   3.748   0.042  16.399  0.0068 -0.4996 -0.0526
  319MPD2    C1 4791   3.716   0.045  16.536  0.1854  0.6042  0.0243
  319MPD2    C2 4792   3.592   0.097  16.560  0.6182  0.8282  1.0508
  319MPD2    C3 4793   3.499   0.132  16.466  0.1602 -0.6436  0.4681
  319MPD2    C4 4794   3.541   0.135  16.338 -0.9605  0.0283  0.3839
  319MPD2    C5 4795   3.669   0.089  16.303  0.0644  0.4389  0.7605
  319MPD2     H 4796   3.551   0.100  16.661  1.1505  0.8922  1.2663
  319MPD2    H1 4797   3.481   0.155  16.250  0.4552  1.3491 -0.2728
  319MPD2    H2 4798   3.848   0.018  16.365  0.4945  2.2719 -0.5760
  319MPD2    H3 4799   3.698   0.073  16.200 -0.7380 -1.9853  0.9044
  319MPD2     N 4800   3.366   0.167  16.498 -0.3395 -0.2513 -0.3362
  319MPD2    H5 4801   3.322   0.218  16.423 -1.4517 -0.4177  0.2052
  319MPD2    N1 4802   3.801   0.000  16.636  0.4149 -0.8185  0.3254
  319MPD2    H7 4803   3.780   0.042  16.726 -1.6302 -0.2427 -0.4229
  320TMC3    C1 4804   3.166   0.190  16.620 -0.1065  0.5256  0.3893
  320TMC3    C2 4805   3.123   0.287  16.536 -0.0703 -0.9213  0.7825
  320TMC3    C3 4806   2.989   0.331  16.533 -0.0499 -0.7290  0.5583
  320TMC3    C4 4807   3.077   0.146  16.722  0.5006 -0.0311 -0.1656
  320TMC3    C5 4808   2.950   0.195  16.725  0.1568 -0.3132 -0.7105
  320TMC3    C6 4809   2.903   0.282  16.629  0.5507  1.0486  0.2693
  320TMC3     C 4810   3.300   0.139  16.618  0.3238  0.4399 -0.3760
  320TMC3     O 4811   3.341   0.055  16.697  0.0230 -0.4604  0.3447
  320TMC3     H 4812   3.179   0.318  16.448 -2.0424  0.0433 -0.1303
  320TMC3    H1 4813   3.110   0.069  16.790  0.0393  0.1454  0.2617
  320TMC3    H2 4814   2.801   0.317  16.632 -0.7750 -2.5375 -2.5675
  320TMC3    C7 4815   2.853   0.099  16.762 -0.5248 -0.1006 -0.3227
  320TMC3    C8 4816   2.924   0.389  16.423 -0.5000 -0.3777 -0.6163
  320TMC3    O1 4817   2.748   0.137  16.813  0.1393  0.3075 -0.4924
  320TMC3    O2 4818   2.812   0.433  16.443 -0.0302 -0.0642  0.3516
  321TMC3    C1 4819   3.965   4.587  16.742 -0.1016 -0.0814  0.0936
  321TMC3    C2 4820   3.955   4.463  16.799  0.1462 -0.3228  0.1402
  321TMC3    C3 4821   3.986   4.448  16.932  0.2491  0.2505  0.2170
  321TMC3    C4 4822   4.018   4.692  16.802 -0.3773 -0.4249  0.2625
  321TMC3    C5 4823   4.067   4.670  16.925 -0.1879 -0.2543 -0.0383
  321TMC3    C6 4824   4.026   4.566  17.000  0.4386  0.5796  0.0458
  321TMC3     C 4825   3.882   4.616  16.622  0.4403  0.7357 -0.0083
  321TMC3     O 4826   3.873   4.541  16.524  0.1137  0.1070 -0.8087
  321TMC3     H 4827   3.938   4.382  16.730  0.8766  0.0926 -0.5292
  321TMC3    H1 4828   4.034   0.067  16.760  2.6922 -0.7637  0.6039
  321TMC3    H2 4829   4.042   4.564  17.107 -3.2284 -0.8122  0.5645
  321TMC3    C7 4830   4.204   4.700  16.935 -0.0579  0.3043  0.4662
  321TMC3    C8 4831   4.055   4.330  16.984  0.3605  0.0940  0.0098
  321TMC3    O1 4832   4.254   0.054  16.855  0.1851 -0.4685  0.6840
  321TMC3    O2 4833   4.136   4.356  17.073 -0.8206  0.3471  0.6635
  322MPD2     C 4834   3.018   1.291  13.833 -0.3666 -0.1035 -0.0908
  322MPD2    C1 4835   2.923   1.188  13.846  0.0090 -0.1297 -0.2927
  322MPD2    C2 4836   2.889   1.109  13.737  0.5855  0.2600 -0.0302
  322MPD2    C3 4837   2.962   1.121  13.622  0.0473 -0.1238  0.0704
  322MPD2    C4 4838   3.043   1.227  13.602  0.8040  0.5917  0.0574
  322MPD2    C5 4839   3.081   1.299  13.713  0.2754 -0.5045 -0.3588
  322MPD2     H 4840   2.817   1.029  13.752 -0.9092  1.8209  1.2018
  322MPD2    H1 4841   3.074   1.258  13.502  1.4421 -0.7375 -0.1581
  322MPD2    H2 4842   3.038   1.370  13.905 -1.1004 -0.1935  0.2128
  322MPD2    H3 4843   3.155   1.376  13.694  0.8287 -1.3105 -1.4461
  322MPD2     N 4844   2.931   1.028  13.522  0.0781  1.0486  0.2161
  322MPD2    H5 4845   2.879   0.947  13.552  2.1570 -0.4430 -0.1912
  322MPD2    N1 4846   2.865   1.180  13.979  0.2031  0.0919  0.0989
  322MPD2    H7 4847   2.889   1.252  14.046  1.8610  0.0592 -0.4744
  323TMC3    C1 4848   2.753   1.107  14.161 -0.4377  0.1833  0.5746
  323TMC3    C2 4849   2.772   1.232  14.206  0.2766  0.4253 -0.2330
  323TMC3    C3 4850   2.797   1.251  14.338  0.1714 -0.1822 -0.0910
  323TMC3    C4 4851   2.764   0.999  14.239 -0.0731 -0.5870 -0.5100
  323TMC3    C5 4852   2.782   1.019  14.376 -0.4717 -0.0649  0.3113
  323TMC3    C6 4853   2.807   1.140  14.430 -0.7634 -0.1924  0.7351
  323TMC3     C 4854   2.776   1.087  14.021 -0.3680 -0.7567 -0.2514
  323TMC3     O 4855   2.724   0.989  13.971 -0.0894 -0.6846  0.4703
  323TMC3     H 4856   2.770   1.320  14.143  1.1747  2.0884  2.1012
  323TMC3    H1 4857   2.738   0.900  14.206 -0.5773 -0.5182 -0.3225
  323TMC3    H2 4858   2.842   1.165  14.529 -0.7307  2.5126  0.0652
  323TMC3    C7 4859   2.790   0.899  14.462  0.1761  0.5358 -0.2914
  323TMC3    C8 4860   2.908   1.340  14.342 -0.3321  0.1541  0.2558
  323TMC3    O1 4861   2.808   0.791  14.406  0.2807 -0.2093 -0.3391
  323TMC3    O2 4862   2.979   1.331  14.242  0.3779  0.4015  0.2587
  324MPD2     C 4863   4.374   1.727  14.469 -0.1128 -0.5012 -0.4620
  324MPD2    C1 4864   4.438   1.850  14.453 -0.2382  0.1674 -0.4255
  324MPD2    C2 4865   4.365   1.961  14.411  0.2447  0.1148 -0.8661
  324MPD2    C3 4866   4.224   1.950  14.408  0.2204 -0.2492 -0.1359
  324MPD2    C4 4867   4.158   1.828  14.433  0.4325 -0.0199  0.6207
  324MPD2    C5 4868   4.237   1.726  14.469  0.7413 -0.1994 -0.3121
  324MPD2     H 4869   4.420   2.051  14.388  1.3557 -0.6670 -1.3281
  324MPD2    H1 4870   4.050   1.814  14.429  0.2028  0.9528  3.4416
  324MPD2    H2 4871   4.423   1.634  14.495 -0.4604 -0.8373 -1.0126
  324MPD2    H3 4872   4.191   1.629  14.485 -0.7697  0.4634 -0.6398
  324MPD2     N 4873   4.132   2.058  14.388  0.1357  0.4323  0.2867
  324MPD2    H5 4874   4.035   2.034  14.402 -0.0836  0.6920 -0.7554
  324MPD2    N1 4875   4.582   1.864  14.467 -0.0206 -0.2492 -0.2422
  324MPD2    H7 4876   4.622   1.952  14.439 -0.2959  0.1313  0.5514
  325TMC3    C1 4877   4.063   2.283  14.376 -0.7205  0.1477 -0.0925
  325TMC3    C2 4878   3.934   2.244  14.353  0.4963  0.0340  0.2283
  325TMC3    C3 4879   3.840   2.339  14.347  0.2836 -0.0904  0.1627
  325TMC3    C4 4880   4.100   2.411  14.407  0.3551  0.0149 -0.1637
  325TMC3    C5 4881   3.997   2.501  14.401 -0.2198 -0.4578  0.4558
  325TMC3    C6 4882   3.867   2.472  14.371  0.2018  0.8821  0.2385
  325TMC3     C 4883   4.165   2.185  14.367  0.6253 -0.2520  0.2824
  325TMC3     O 4884   4.275   2.223  14.333  0.1155  0.0119  0.0835
  325TMC3     H 4885   3.905   2.145  14.319 -1.3187  0.8784 -0.6941
  325TMC3    H1 4886   4.204   2.441  14.419  0.4058 -0.2562  0.0667
  325TMC3    H2 4887   3.795   2.549  14.345 -0.4849  0.2113  0.1582
  325TMC3    C7 4888   4.022   2.637  14.434  0.8740 -0.1852 -0.0834
  325TMC3    C8 4889   3.707   2.305  14.296  0.1132  0.1591  1.0384
  325TMC3    O1 4890   4.122   2.693  14.396  0.2074 -0.0228  0.7228
  325TMC3    O2 4891   3.689   2.200  14.237 -0.3493  0.0186 -0.1108
  326MPD2     C 4892   0.699   3.150  11.371 -0.0423  0.2859  0.8847
  326MPD2    C1 4893   0.775   3.162  11.253  0.3383  0.0302  0.2525
  326MPD2    C2 4894   0.851   3.276  11.227 -0.0814  0.6789 -1.0164
  326MPD2    C3 4895   0.872   3.372  11.323 -0.3878  0.3293 -0.7384
  326MPD2    C4 4896   0.793   3.360  11.438  0.2920  0.5688  0.3936
  326MPD2    C5 4897   0.701   3.257  11.462  0.5261  0.2971  0.1378
  326MPD2     H 4898   0.889   3.284  11.126 -1.2386  0.8300 -1.4359
  326MPD2    H1 4899   0.790   3.441  11.510 -1.8942  0.9933 -0.1809
  326MPD2    H2 4900   0.645   3.063  11.405  0.8923 -0.0604  1.4890
  326MPD2    H3 4901   0.649   3.267  11.557  1.1105 -0.3099  0.5229
  326MPD2     N 4902   0.948   3.492  11.308  0.6425  0.0550 -0.2962
  326MPD2    H5 4903   0.952   3.551  11.391 -0.1722 -0.5283  0.1614
  326MPD2    N1 4904   0.779   3.066  11.146  0.1434  0.0212 -0.1572
  326MPD2    H7 4905   0.832   3.100  11.067 -0.8602  0.3675 -0.6891
  327TMC3    C1 4906   0.727   2.902  11.003  0.9378 -0.2966  0.0364
  327TMC3    C2 4907   0.624   2.919  10.917 -0.0440  0.1865 -0.3894
  327TMC3    C3 4908   0.645   2.917  10.782  0.0482 -0.3132  0.4237
  327TMC3    C4 4909   0.853   2.924  10.961  0.3323 -0.4068  0.4072
  327TMC3    C5 4910   0.872   2.937  10.822  0.7787  0.3436  0.2349
  327TMC3    C6 4911   0.774   2.930  10.734  0.0018  0.0511  0.3110
  327TMC3     C 4912   0.706   2.959  11.129 -0.0366  0.2337 -0.1831
  327TMC3     O 4913   0.620   2.904  11.204 -0.5994 -1.1328 -0.6453
  327TMC3     H 4914   0.524   2.904  10.957  0.1318 -0.7411 -0.2792
  327TMC3    H1 4915   0.937   2.915  11.028 -2.4288  2.5697  4.2976
  327TMC3    H2 4916   0.795   2.918  10.629 -0.9029  1.1157  0.0115
  327TMC3    C7 4917   0.990   3.000  10.772 -0.1770 -0.9121  0.4923
  327TMC3    C8 4918   0.550   2.996  10.701 -0.2237  1.3377  0.8652
  327TMC3    O1 4919   0.996   3.027  10.653 -0.0132 -0.3476 -0.2868
  327TMC3    O2 4920   0.579   3.058  10.602  0.5048  0.0826 -0.6608
  328MPD2     C 4921   2.943   2.624  17.241 -0.0618 -0.4733 -0.7456
  328MPD2    C1 4922   2.833   2.556  17.192  0.0872  0.1873  0.6304
  328MPD2    C2 4923   2.726   2.628  17.142 -0.8926  0.5351  0.1146
  328MPD2    C3 4924   2.732   2.767  17.136 -0.0346  0.0217  0.0621
  328MPD2    C4 4925   2.845   2.834  17.179  0.3866 -0.2383 -0.2076
  328MPD2    C5 4926   2.947   2.758  17.225 -0.4222 -0.1586 -0.4278
  328MPD2     H 4927   2.641   2.569  17.108  0.1367 -0.5123 -0.5989
  328MPD2    H1 4928   2.861   2.941  17.167 -0.0705  0.1007  2.1840
  328MPD2    H2 4929   3.030   2.573  17.284 -0.8822 -1.3560 -0.1278
  328MPD2    H3 4930   3.042   2.804  17.249 -1.0541  0.1588  1.4572
  328MPD2     N 4931   2.626   2.848  17.104  0.3905  0.0789 -0.8953
  328MPD2    H5 4932   2.655   2.945  17.104  2.0561 -0.4289 -1.4278
  328MPD2    N1 4933   2.829   2.414  17.197  0.4888  0.3133 -0.4589
  328MPD2    H7 4934   2.744   2.366  17.168  0.0845  1.8240 -1.7246
  329TMC3    C1 4935   2.897   2.183  17.209 -0.0585 -0.5606  0.5367
  329TMC3    C2 4936   2.762   2.160  17.229 -0.5223  0.9675  0.2304
  329TMC3    C3 4937   2.707   2.042  17.182  0.0224  0.2827  0.5004
  329TMC3    C4 4938   2.979   2.090  17.150 -0.1743 -0.2571 -0.8120
  329TMC3    C5 4939   2.921   1.972  17.107 -0.0301  0.9150  0.4961
  329TMC3    C6 4940   2.787   1.946  17.119  0.0463  0.2128  0.1209
  329TMC3     C 4941   2.934   2.328  17.225 -0.6650  0.6860 -0.7973
  329TMC3     O 4942   3.052   2.357  17.252  0.5163 -0.1722 -0.2601
  329TMC3     H 4943   2.707   2.230  17.289 -1.6178 -0.4917  0.9397
  329TMC3    H1 4944   3.078   2.116  17.114  0.0473 -0.9346 -0.6909
  329TMC3    H2 4945   2.735   1.861  17.076 -1.1496  0.1986  1.5700
  329TMC3    C7 4946   2.976   1.899  16.991  0.1186 -0.1249  0.3406
  329TMC3    C8 4947   2.562   2.021  17.172 -0.0516 -0.5079 -0.7027
  329TMC3    O1 4948   2.923   1.792  16.973 -0.1426  0.6345  0.4963
  329TMC3    O2 4949   2.511   1.944  17.092  0.4736 -0.4039 -0.3053
  330TMC3    C1 4950   1.469   2.048  10.007  0.0534  0.4869 -0.6987
  330TMC3    C2 4951   1.511   2.024   9.879  0.8855 -0.1048 -0.2449
  330TMC3    C3 4952   1.536   1.900   9.835  1.2353  0.5277  0.3002
  330TMC3    C4 4953   1.468   1.947  10.102  0.8334  0.9730  0.2152
  330TMC3    C5 4954   1.500   1.820  10.061  0.2667 -0.3685 -0.1166
  330TMC3    C6 4955   1.535   1.798   9.924 -1.0523 -0.0769  0.0588
  330TMC3     C 4956   1.442   2.180  10.053  0.3564  0.4314  0.0452
  330TMC3     O 4957   1.485   2.223  10.158  0.0049  0.1518 -0.3683
  330TMC3     H 4958   1.517   2.103   9.805  0.7955  1.8026  1.8029
  330TMC3    H1 4959   1.447   1.963  10.207  2.3390  0.2423  0.6246
  330TMC3    H2 4960   1.564   1.696   9.898 -0.1027 -0.3354  2.1038
  330TMC3    C7 4961   1.457   1.702  10.135 -0.1864 -0.3533 -0.6144
  330TMC3    C8 4962   1.572   1.882   9.692  0.1126  0.0639  0.2443
  330TMC3    O1 4963   1.439   1.600  10.071  0.3869  0.0995  0.5530
  330TMC3    O2 4964   1.603   1.982   9.626 -0.4597 -0.6649  0.2864
  331MPD2     C 4965   3.383   1.101  13.184 -0.5893  0.0564  0.4196
  331MPD2    C1 4966   3.395   1.172  13.065 -0.9572 -0.6646  0.6546
  331MPD2    C2 4967   3.500   1.142  12.982  0.2774 -0.0981  0.0772
  331MPD2    C3 4968   3.590   1.040  13.004 -0.8559  0.8132  0.2111
  331MPD2    C4 4969   3.576   0.968  13.121  0.6423 -0.1574  0.5547
  331MPD2    C5 4970   3.466   1.000  13.208  0.1177 -0.3836  0.9790
  331MPD2     H 4971   3.522   1.198  12.892  0.8570  1.3342  1.1066
  331MPD2    H1 4972   3.646   0.889  13.145  1.9546  0.3599 -1.5695
  331MPD2    H2 4973   3.304   1.130  13.253  0.6840  0.5550  1.6770
  331MPD2    H3 4974   3.453   0.938  13.295  0.9548 -1.5181  0.2945
  331MPD2     N 4975   3.694   1.013  12.912  0.2086 -0.0004  0.4267
  331MPD2    H5 4976   3.695   1.059  12.821  2.7638 -0.7729  0.0648
  331MPD2    N1 4977   3.320   1.290  13.051  0.3827  0.2491  0.0161
  331MPD2    H7 4978   3.278   1.323  13.137 -0.7058 -0.9820 -0.0376
  332TMC3    C1 4979   3.885   0.932  12.810  0.3402 -0.9854 -0.3497
  332TMC3    C2 4980   3.917   1.063  12.776 -0.3927  0.1584  0.6815
  332TMC3    C3 4981   4.038   1.083  12.707  0.0357  0.1307 -0.5265
  332TMC3    C4 4982   3.980   0.836  12.800 -0.1319 -0.2783 -0.4709
  332TMC3    C5 4983   4.100   0.865  12.742 -0.0722  0.3791 -0.3425
  332TMC3    C6 4984   4.134   0.984  12.684  0.1156  0.0043 -0.0483
  332TMC3     C 4985   3.804   0.930  12.927 -0.6746 -0.5341  0.5394
  332TMC3     O 4986   3.834   0.867  13.027  0.2066  0.0684  0.1967
  332TMC3     H 4987   3.862   1.144  12.823 -1.8190 -0.4497  0.0441
  332TMC3    H1 4988   3.962   0.743  12.852 -0.1140 -0.4724 -0.8127
  332TMC3    H2 4989   4.234   1.010  12.650 -1.3616  3.4328 -1.7824
  332TMC3    C7 4990   4.189   0.751  12.724 -0.2027 -0.0541 -0.2121
  332TMC3    C8 4991   4.083   1.215  12.702 -0.0687  0.9288 -0.0278
  332TMC3    O1 4992   4.145   0.634  12.730  0.2182  0.2215 -0.2120
  332TMC3    O2 4993   4.203   1.236  12.719 -0.0290  1.2103  0.4446
  333MPD2     C 4994   3.729   1.896  11.248 -0.4026 -0.0610  0.0715
  333MPD2    C1 4995   3.841   1.811  11.278 -0.1878  0.4172 -0.7618
  333MPD2    C2 4996   3.812   1.694  11.343 -0.3834  0.2019 -0.0954
  333MPD2    C3 4997   3.683   1.654  11.386  1.0994  0.5453  0.1389
  333MPD2    C4 4998   3.576   1.739  11.353 -0.2465 -0.0519  0.6133
  333MPD2    C5 4999   3.605   1.853  11.286  0.4153  0.1398 -0.6150
  333MPD2     H 5000   3.896   1.629  11.364 -1.6068 -0.8391  1.5317
  333MPD2    H1 5001   3.470   1.728  11.374 -0.1352 -1.2135  0.5951
  333MPD2    H2 5002   3.740   1.980  11.181  2.3408  1.5532  2.5279
  333MPD2    H3 5003   3.519   1.915  11.266  0.0368  0.1262  0.9552
  333MPD2     N 5004   3.661   1.524  11.444 -0.0276  0.0994 -0.8687
  333MPD2    H5 5005   3.743   1.476  11.482  0.6922  1.4915 -0.6691
  333MPD2    N1 5006   3.969   1.846  11.226 -0.3330 -0.0325  0.1808
  333MPD2    H7 5007   3.984   1.940  11.192  0.4429 -0.2730 -0.1349
  334TMC3    C1 5008   4.212   1.816  11.187 -0.7028 -0.3185  0.8617
  334TMC3    C2 5009   4.330   1.768  11.241  0.2026  0.1195 -0.7775
  334TMC3    C3 5010   4.447   1.806  11.191  0.2967 -0.0526 -1.2024
  334TMC3    C4 5011   4.211   1.899  11.079 -0.6804  0.3913 -0.8849
  334TMC3    C5 5012   4.335   1.943  11.034 -0.6651 -0.2906  0.3493
  334TMC3    C6 5013   4.453   1.885  11.085  0.4064  0.0414  0.0236
  334TMC3     C 5014   4.084   1.768  11.254 -0.6243 -0.2830 -0.3021
  334TMC3     O 5015   4.097   1.682  11.342 -0.6268 -0.1892 -0.3795
  334TMC3     H 5016   4.338   1.691  11.317  3.7575  1.3530  0.1015
  334TMC3    H1 5017   4.120   1.939  11.036 -0.7936  0.8839 -0.1736
  334TMC3    H2 5018   4.551   1.928  11.063  0.6436  0.7746  2.4832
  334TMC3    C7 5019   4.342   2.064  10.947 -0.1747  0.7333  0.2078
  334TMC3    C8 5020   4.554   1.705  11.196 -0.5684 -0.2494  0.1191
  334TMC3    O1 5021   4.450   2.120  10.935  0.0280 -0.3108  0.1095
  334TMC3    O2 5022   4.511   1.590  11.208  0.0678 -0.0391  0.3966
  335TMC3    C1 5023   3.731   3.259   0.079 -0.3911 -0.2627  0.1195
  335TMC3    C2 5024   3.634   3.197   0.005  0.2253  0.4116 -0.4254
  335TMC3    C3 5025   3.631   3.227  17.565  0.2558  0.0409  0.0711
  335TMC3    C4 5026   3.814   3.358   0.036  0.5382  0.5924 -0.0647
  335TMC3    C5 5027   3.809   3.385  17.593 -0.1488  0.7472  0.0147
  335TMC3    C6 5028   3.723   3.313  17.512 -0.1923 -0.0449  0.1506
  335TMC3     C 5029   3.734   3.235   0.221  0.5112  1.3310 -0.1033
  335TMC3     O 5030   3.787   3.309   0.295 -0.7838  0.4934 -0.4025
  335TMC3     H 5031   3.564   3.127   0.051  1.4125 -1.0916 -0.9140
  335TMC3    H1 5032   3.892   3.398   0.099  1.6817  0.2972 -1.2790
  335TMC3    H2 5033   3.718   3.329  17.405 -0.1584  0.5730  0.2437
  335TMC3    C7 5034   3.896   3.477  17.520  0.5079  0.5048 -0.0338
  335TMC3    C8 5035   3.564   3.136  17.458 -0.0611  0.1867 -0.6733
  335TMC3    O1 5036   3.903   3.478  17.399 -0.1605 -0.1188 -0.0167
  335TMC3    O2 5037   3.560   3.175  17.342  0.1844  0.5552 -0.2902
  336MPD2     C 5038   3.150   1.204  16.308 -0.3397  0.9576 -0.2839
  336MPD2    C1 5039   3.175   1.128  16.200 -0.3255 -0.3628  0.1291
  336MPD2    C2 5040   3.232   1.005  16.210 -0.2328  0.0187 -0.0498
  336MPD2    C3 5041   3.285   0.964  16.336  0.5587  0.2557 -0.1899
  336MPD2    C4 5042   3.280   1.053  16.437 -0.0216  0.4011 -0.2575
  336MPD2    C5 5043   3.208   1.168  16.427 -0.4402 -0.6400  0.7978
  336MPD2     H 5044   3.239   0.941  16.123 -1.5265  2.6665 -2.0926
  336MPD2    H1 5045   3.319   1.037  16.537  0.5321 -0.7550 -0.6558
  336MPD2    H2 5046   3.095   1.297  16.305 -0.3882  1.0353  2.2645
  336MPD2    H3 5047   3.201   1.241  16.508 -0.3773 -0.7484  0.8996
  336MPD2     N 5048   3.342   0.834  16.365  0.8691 -0.3665 -0.1234
  336MPD2    H5 5049   3.364   0.824  16.463  0.7515  1.2798  0.0798
  336MPD2    N1 5050   3.127   1.170  16.079  0.2065  0.1890 -0.5906
  336MPD2    H7 5051   3.111   1.107  16.001 -0.6645  1.3418 -1.3556
  337TMC3    C1 5052   3.083   1.340  15.915 -0.1925 -0.6152 -0.4044
  337TMC3    C2 5053   2.958   1.295  15.885  0.4144  0.0170  0.5408
  337TMC3    C3 5054   2.895   1.351  15.779 -0.5270 -0.6626 -0.2294
  337TMC3    C4 5055   3.137   1.446  15.849 -0.6434  0.4621  0.7370
  337TMC3    C5 5056   3.077   1.493  15.738 -0.4905 -0.4941  0.2147
  337TMC3    C6 5057   2.952   1.453  15.704  0.5222 -0.4672  0.6442
  337TMC3     C 5058   3.136   1.302  16.050 -0.0549  0.1593 -0.3328
  337TMC3     O 5059   3.204   1.386  16.102  0.0745  0.1057  0.2826
  337TMC3     H 5060   2.908   1.230  15.956  1.9218  0.1701  1.7525
  337TMC3    H1 5061   3.227   1.495  15.883  0.7388 -2.7543  1.6856
  337TMC3    H2 5062   2.900   1.508  15.627  0.2606 -1.2554  0.2551
  337TMC3    C7 5063   3.109   1.631  15.708 -0.4191  0.0568 -0.4121
  337TMC3    C8 5064   2.752   1.347  15.761 -0.3003  0.4618  0.8954
  337TMC3    O1 5065   3.224   1.660  15.678 -0.1563  0.3772  0.1966
  337TMC3    O2 5066   2.684   1.348  15.866 -0.3338 -0.3971 -0.7218
  338MPD2     C 5067   3.873   0.242   0.757  1.1124 -0.2840  0.5524
  338MPD2    C1 5068   3.738   0.207   0.750  0.2917  0.0726 -0.4584
  338MPD2    C2 5069   3.658   0.243   0.856 -0.0667 -0.3270 -0.7827
  338MPD2    C3 5070   3.703   0.313   0.963  0.5160 -0.2829  0.2602
  338MPD2    C4 5071   3.839   0.342   0.976 -0.0685  0.3975  0.6506
  338MPD2    C5 5072   3.921   0.307   0.870  0.5202 -0.8231 -0.2213
  338MPD2     H 5073   3.551   0.226   0.860  0.3090 -1.9330  2.8102
  338MPD2    H1 5074   3.881   0.388   1.065  1.4726 -0.0528  0.1623
  338MPD2    H2 5075   3.944   0.220   0.679  1.0004  1.9462 -0.1809
  338MPD2    H3 5076   4.027   0.324   0.886  0.1149 -0.4561  2.1286
  338MPD2     N 5077   3.617   0.351   1.070  0.5634  0.7180  0.2083
  338MPD2    H5 5078   3.521   0.354   1.039  0.6326 -1.3839 -0.2456
  338MPD2    N1 5079   3.681   0.149   0.637 -0.1561 -0.3012  0.6338
  338MPD2    H7 5080   3.587   0.111   0.640 -0.0773 -0.5982 -0.5845
  339TMC3    C1 5081   3.534   0.409   1.283 -0.3229  0.0111  0.3347
  339TMC3    C2 5082   3.551   0.364   1.414  0.4647 -0.5066 -0.2185
  339TMC3    C3 5083   3.425   0.345   1.479 -0.0317  0.0342  0.3654
  339TMC3    C4 5084   3.409   0.437   1.226  0.0976 -0.5401  0.4173
  339TMC3    C5 5085   3.297   0.431   1.299  0.3047 -0.0489  0.3212
  339TMC3    C6 5086   3.303   0.375   1.422  0.2641 -0.2085  0.4033
  339TMC3     C 5087   3.651   0.388   1.199 -0.1515  0.6793 -0.2671
  339TMC3     O 5088   3.765   0.381   1.251 -0.1859 -0.1743  1.1070
  339TMC3     H 5089   3.651   0.341   1.449  0.2585 -3.1232 -1.3245
  339TMC3    H1 5090   3.406   0.497   1.136 -1.9958 -0.0109  0.8236
  339TMC3    H2 5091   3.210   0.369   1.478 -0.2062  2.8353 -0.0376
  339TMC3    C7 5092   3.176   0.499   1.245 -0.4785  0.1968 -0.2733
  339TMC3    C8 5093   3.441   0.266   1.605  0.0888 -0.2525 -0.6105
  339TMC3    O1 5094   3.203   0.603   1.183 -0.1705  0.2097  0.2733
  339TMC3    O2 5095   3.549   0.211   1.622 -0.4162 -0.0902  0.2966
  340MPD2     C 5096   4.522   2.990  10.275 -0.5611  0.1101 -0.4333
  340MPD2    C1 5097   4.467   2.860  10.262 -0.2141 -0.4719  0.0304
  340MPD2    C2 5098   4.536   2.756  10.326  0.0213  0.1592 -0.7475
  340MPD2    C3 5099   4.664   2.781  10.371  0.1585  0.3929 -0.3336
  340MPD2    C4 5100   4.708   2.910  10.388  0.1990  0.5942  0.5485
  340MPD2    C5 5101   4.642   3.017  10.337 -0.2265 -0.5401 -0.0568
  340MPD2     H 5102   4.499   2.654  10.329 -1.1962  0.5810 -1.0793
  340MPD2    H1 5103   0.075   2.928  10.445  1.1052  0.7163 -0.9387
  340MPD2    H2 5104   4.465   3.075  10.240 -1.0199  0.5760  1.4195
  340MPD2    H3 5105   4.677   3.119  10.352  0.1293 -1.1737  3.3172
  340MPD2     N 5106   0.031   2.687  10.420 -0.2684 -0.3405 -0.5575
  340MPD2    H5 5107   0.121   2.718  10.455 -2.3615  1.8571  2.7976
  340MPD2    N1 5108   4.332   2.849  10.218  0.7622  0.6397 -0.3817
  340MPD2    H7 5109   4.274   2.932  10.207  1.5858  0.9707 -2.1640
  341TMC3    C1 5110   4.322   2.607  10.160  0.1343  0.3624 -0.4256
  341TMC3    C2 5111   4.253   2.495  10.204 -0.1104 -0.5290  0.3488
  341TMC3    C3 5112   4.311   2.374  10.164 -0.0729 -0.4227  1.0451
  341TMC3    C4 5113   4.435   2.606  10.079 -0.3737 -0.0700 -0.0104
  341TMC3    C5 5114   4.483   2.482  10.042  0.0010 -0.0743 -0.1939
  341TMC3    C6 5115   4.420   2.365  10.084 -0.8091  0.1660 -0.1160
  341TMC3     C 5116   4.258   2.729  10.197 -0.7094 -1.5878 -0.3387
  341TMC3     O 5117   4.140   2.723  10.206  0.5396 -0.6166  0.0280
  341TMC3     H 5118   4.162   2.503  10.261  0.9069  2.0849  1.6148
  341TMC3    H1 5119   4.494   2.694  10.060 -0.3887 -0.1894 -0.6143
  341TMC3    H2 5120   4.453   2.269  10.044 -0.2174  0.1878  0.3225
  341TMC3    C7 5121   4.619   2.469   9.991 -0.2925  0.2577 -0.3536
  341TMC3    C8 5122   4.219   2.269  10.166 -0.1194 -0.2404 -0.2807
  341TMC3    O1 5123   4.668   2.360  10.013 -0.1572  0.1887 -0.3378
  341TMC3    O2 5124   4.103   2.313  10.169 -0.5145 -0.2883 -0.3553
  342MPD2     C 5125   1.547   1.012  17.326  0.2779 -0.0572  0.1466
  342MPD2    C1 5126   1.538   0.988  17.466  0.4571  0.7251  0.1012
  342MPD2    C2 5127   1.504   1.099  17.546 -0.6952  0.5647  0.7209
  342MPD2    C3 5128   1.465   1.211  17.479 -0.1090  0.3139  0.5260
  342MPD2    C4 5129   1.469   1.232  17.346  0.2649  0.6887 -0.2521
  342MPD2    C5 5130   1.510   1.129  17.272  0.0802 -0.2219  0.7902
  342MPD2     H 5131   1.501   1.090  17.654 -1.6378 -0.2121  0.6322
  342MPD2    H1 5132   1.433   1.325  17.304  1.3668  0.9565 -0.6039
  342MPD2    H2 5133   1.587   0.938  17.257  1.0816  0.6554 -0.1531
  342MPD2    H3 5134   1.522   1.144  17.166 -0.5113  0.6405  0.8431
  342MPD2     N 5135   1.413   1.321  17.551 -0.0194  0.2371 -0.2382
  342MPD2    H5 5136   1.402   1.406  17.497  1.0656 -0.1338 -1.0423
  342MPD2    N1 5137   1.587   0.879  17.541  0.1763  0.0248 -0.4049
  342MPD2    H7 5138   1.596   0.887  17.642 -0.7346 -1.7443 -0.1711
  343TMC3    C1 5139   1.671   0.668  17.572  0.1519 -0.2730 -0.5945
  343TMC3    C2 5140   1.787   0.698  17.639 -0.0963 -0.3127  0.5479
  343TMC3    C3 5141   1.892   0.608  17.637 -0.3954 -0.1905  0.3823
  343TMC3    C4 5142   1.651   0.544  17.517  0.4904  0.0481  0.2820
  343TMC3    C5 5143   1.759   0.457  17.519  0.3136 -0.9755  0.2324
  343TMC3    C6 5144   1.878   0.488  17.571 -0.3231 -0.6905  0.0485
  343TMC3     C 5145   1.623   0.769  17.480 -0.3969 -0.2336 -0.1255
  343TMC3     O 5146   1.596   0.729  17.366 -0.0738  0.4118  0.5282
  343TMC3     H 5147   1.806   0.795  17.682  0.8287  0.6062 -1.9567
  343TMC3    H1 5148   1.553   0.519  17.480  0.3311  0.3928  0.4727
  343TMC3    H2 5149   1.964   0.426  17.548  0.1669 -0.3273  0.9052
  343TMC3    C7 5150   1.745   0.345  17.427  0.4570 -0.7342 -0.3799
  343TMC3    C8 5151   2.027   0.660  17.656  0.2776  0.5197 -0.8927
  343TMC3    O1 5152   1.822   0.252  17.428 -0.4035 -0.9643  0.2168
  343TMC3    O2 5153   2.035   0.755   0.036  0.1290  0.4961  0.3398
  344MPD2     C 5154   2.862   1.005  10.922  0.2276 -0.6652 -0.0796
  344MPD2    C1 5155   2.831   0.886  10.854  0.3312 -0.3873 -0.3592
  344MPD2    C2 5156   2.876   0.872  10.722 -0.3736  0.0911 -0.1768
  344MPD2    C3 5157   2.948   0.972  10.663 -0.0177  0.2675 -0.2584
  344MPD2    C4 5158   2.982   1.081  10.737 -0.3435  0.2242 -0.5780
  344MPD2    C5 5159   2.952   1.096  10.872 -0.4302 -0.4115 -0.1134
  344MPD2     H 5160   2.838   0.783  10.674 -0.5093 -0.0053  0.1052
  344MPD2    H1 5161   3.045   1.157  10.692  0.5364  1.0523  2.0402
  344MPD2    H2 5162   2.825   1.024  11.022 -2.1889 -2.6689 -0.5755
  344MPD2    H3 5163   2.983   1.181  10.931 -0.4128  0.3129 -1.1537
  344MPD2     N 5164   3.000   0.964  10.532 -0.1575 -0.1229  0.3060
  344MPD2    H5 5165   3.057   1.037  10.491 -0.8834  0.1922 -0.1372
  344MPD2    N1 5166   2.738   0.800  10.904 -0.6421 -0.3689 -0.3054
  344MPD2    H7 5167   2.706   0.727  10.842  2.3354 -1.1046 -1.0165
  345TMC3    C1 5168   3.088   0.862  10.349 -0.3952  0.2801  0.5488
  345TMC3    C2 5169   3.208   0.786  10.364 -0.4021 -0.3576  0.0875
  345TMC3    C3 5170   3.314   0.839  10.290 -1.0073  0.0835  0.0896
  345TMC3    C4 5171   3.076   0.969  10.264 -0.5539 -0.7876 -0.0233
  345TMC3    C5 5172   3.179   1.007  10.186 -0.3826 -0.8426  0.6431
  345TMC3    C6 5173   3.304   0.944  10.204 -0.9638 -0.1832 -0.3962
  345TMC3     C 5174   2.998   0.847  10.461  0.1782  0.6917  0.1709
  345TMC3     O 5175   2.971   0.735  10.501 -0.1201 -0.4417 -0.4093
  345TMC3     H 5176   3.207   0.712  10.443 -1.0624 -0.5338 -0.0821
  345TMC3    H1 5177   2.985   1.025  10.278  0.5734  1.6105 -2.3337
  345TMC3    H2 5178   3.392   0.992  10.164 -1.7084  0.7393 -0.9243
  345TMC3    C7 5179   3.168   1.139  10.128 -0.6694  0.2924  0.7870
  345TMC3    C8 5180   3.443   0.816  10.348  0.4422 -0.2367 -0.5045
  345TMC3    O1 5181   3.271   1.194  10.092 -0.0665  0.3097 -0.3731
  345TMC3    O2 5182   3.454   0.793  10.468  0.3697 -0.5488  0.3481
  346MPD2     C 5183   2.865   2.475  14.558  0.3626  0.4461  0.0848
  346MPD2    C1 5184   2.891   2.582  14.477 -0.1180  0.1453 -0.0059
  346MPD2    C2 5185   2.954   2.696  14.526  0.1672  1.1589 -0.1332
  346MPD2    C3 5186   2.983   2.698  14.662  0.4127 -0.1916 -0.1816
  346MPD2    C4 5187   2.946   2.595  14.745 -0.0390 -0.1431 -0.0967
  346MPD2    C5 5188   2.900   2.475  14.687 -0.5680  1.0430  1.1085
  346MPD2     H 5189   2.962   2.791  14.474  1.5106  1.0530 -0.1245
  346MPD2    H1 5190   2.955   2.601  14.852 -1.1033  0.1781 -0.0251
  346MPD2    H2 5191   2.816   2.384  14.525  1.4148  0.3290 -1.1708
  346MPD2    H3 5192   2.871   2.392  14.752 -2.1277  0.7099 -0.0234
  346MPD2     N 5193   3.034   2.822  14.717 -0.0256 -0.3478  0.1443
  346MPD2    H5 5194   3.083   2.883  14.652  1.9380 -0.5502  1.4559
  346MPD2    N1 5195   2.860   2.580  14.336  0.1386  0.5825 -0.1442
  346MPD2    H7 5196   2.905   2.654  14.284  1.9836 -0.3927  0.0641
  347TMC3    C1 5197   3.181   2.921  14.870  0.8405  0.0278 -0.2453
  347TMC3    C2 5198   3.281   2.929  14.769 -0.6425  0.0673 -0.0313
  347TMC3    C3 5199   3.406   2.973  14.807  0.6693 -0.6162  0.5066
  347TMC3    C4 5200   3.217   2.932  15.003  0.6841  0.3260  0.2551
  347TMC3    C5 5201   3.351   2.964  15.031  0.0272  0.9619  0.2542
  347TMC3    C6 5202   3.442   2.983  14.936  0.7223 -0.3417  0.3731
  347TMC3     C 5203   3.063   2.838  14.845 -0.9314  0.3135  0.2178
  347TMC3     O 5204   2.994   2.806  14.943  0.3006 -0.7931  0.4949
  347TMC3     H 5205   3.267   2.922  14.662 -1.3027 -0.8289  0.1124
  347TMC3    H1 5206   3.142   2.937  15.082 -1.3580 -1.4137 -1.6078
  347TMC3    H2 5207   3.548   2.982  14.958  0.4548 -0.7949  1.6270
  347TMC3    C7 5208   3.369   3.007  15.168  0.3046 -0.0977 -0.8717
  347TMC3    C8 5209   3.514   2.945  14.718 -0.7110 -0.4025 -0.5085
  347TMC3    O1 5210   3.296   2.960  15.253  0.2747 -0.3715  0.1369
  347TMC3    O2 5211   3.492   2.862  14.635 -0.2003  0.1381 -0.7708
  348MPD2     C 5212   1.849   2.391  12.607 -0.5986  0.9955 -0.3964
  348MPD2    C1 5213   1.778   2.311  12.517  0.1350  0.2711  0.7231
  348MPD2    C2 5214   1.724   2.363  12.403  0.0980 -0.3565  0.4964
  348MPD2    C3 5215   1.733   2.500  12.375 -0.0740 -0.3838 -0.0083
  348MPD2    C4 5216   1.798   2.582  12.472 -0.2172  0.4672 -0.2434
  348MPD2    C5 5217   1.858   2.519  12.581 -0.1092  0.4528  0.0114
  348MPD2     H 5218   1.667   2.305  12.331 -1.7878  1.0073  0.8856
  348MPD2    H1 5219   1.802   2.690  12.460  2.2199  0.4098  0.0608
  348MPD2    H2 5220   1.906   2.354  12.692 -2.0704  0.2528  0.2687
  348MPD2    H3 5221   1.909   2.562  12.666  1.7335  0.5615 -1.1532
  348MPD2     N 5222   1.686   2.541  12.247  0.3445  0.4869 -0.1474
  348MPD2    H5 5223   1.626   2.474  12.199 -0.2552 -1.0153  2.6462
  348MPD2    N1 5224   1.767   2.169  12.528 -0.1626 -0.4489  1.1404
  348MPD2    H7 5225   1.713   2.117  12.461  1.5664  2.0602 -2.2038
  349TMC3    C1 5226   1.824   1.959  12.588  0.0505  0.2730 -0.7054
  349TMC3    C2 5227   1.938   1.885  12.612  0.2201 -0.4197  0.3110
  349TMC3    C3 5228   1.989   1.799  12.520  0.1456 -0.3297 -0.3624
  349TMC3    C4 5229   1.757   1.928  12.469 -0.0052  0.1001  0.0757
  349TMC3    C5 5230   1.799   1.825  12.386 -0.8172 -0.7990  0.8737
  349TMC3    C6 5231   1.917   1.763  12.412  0.3773  0.3648  0.4144
  349TMC3     C 5232   1.830   2.095  12.623 -0.5304 -0.7195  0.0137
  349TMC3     O 5233   1.927   2.131  12.690  0.1046 -0.2565 -0.1858
  349TMC3     H 5234   1.997   1.910  12.699  0.3368 -0.9430  0.3801
  349TMC3    H1 5235   1.662   1.976  12.451  0.3767 -0.0629 -2.4645
  349TMC3    H2 5236   1.963   1.711  12.328  0.9537  0.5457  0.6130
  349TMC3    C7 5237   1.794   1.877  12.253 -0.3429  0.5516  0.0244
  349TMC3    C8 5238   2.038   1.685  12.593  0.2465  0.3928  0.8291
  349TMC3    O1 5239   1.716   1.819  12.177  1.0055 -0.0598 -0.1132
  349TMC3    O2 5240   1.975   1.640  12.685 -1.1249  0.5202  0.3925
  350MPD2     C 5241   0.245   4.334   9.875 -0.0586 -0.2440 -0.2699
  350MPD2    C1 5242   0.373   4.278   9.873 -0.2472 -0.4034  0.2661
  350MPD2    C2 5243   0.480   4.350   9.919  0.4863 -0.4529  0.4616
  350MPD2    C3 5244   0.465   4.474   9.952  0.2907  0.4290 -0.1054
  350MPD2    C4 5245   0.344   4.537   9.951  0.1912  0.0714 -0.2367
  350MPD2    C5 5246   0.237   4.462   9.914  0.1841  0.1608  0.9560
  350MPD2     H 5247   0.580   4.309   9.919  0.2887 -0.9342 -0.9099
  350MPD2    H1 5248   0.323   4.640   9.975  2.1637  0.2795  0.6008
  350MPD2    H2 5249   0.164   4.268   9.847  1.0377 -0.7159 -2.3053
  350MPD2    H3 5250   0.146   4.521   9.906  0.1088 -0.1891 -0.8448
  350MPD2     N 5251   0.586   4.539   9.989 -0.2652 -0.1357  0.3720
  350MPD2    H5 5252   0.671   4.485   9.979 -0.3623 -0.3509  0.7155
  350MPD2    N1 5253   0.399   4.147   9.835 -0.1717 -0.0581 -0.0335
  350MPD2    H7 5254   0.495   4.116   9.837 -0.4330 -0.9131 -0.3953
  351TMC3    C1 5255   0.371   3.957   9.692 -0.1218  0.7816 -0.2753
  351TMC3    C2 5256   0.457   3.872   9.763  0.5459  0.6493 -0.7052
  351TMC3    C3 5257   0.489   3.751   9.698  0.1652  0.6530 -0.7151
  351TMC3    C4 5258   0.330   3.924   9.567 -0.0825 -0.5389  0.2498
  351TMC3    C5 5259   0.376   3.817   9.500  0.2483 -0.0895  0.0489
  351TMC3    C6 5260   0.456   3.724   9.568 -0.5824 -0.3270 -0.1226
  351TMC3     C 5261   0.318   4.084   9.741  0.2590  0.3757  0.3578
  351TMC3     O 5262   0.215   4.126   9.690  0.3954  0.2525 -0.3048
  351TMC3     H 5263   0.482   3.890   9.867 -1.9991 -1.9594  0.3466
  351TMC3    H1 5264   0.268   3.993   9.511 -0.4588  0.5527  2.0265
  351TMC3    H2 5265   0.492   3.631   9.526 -0.2038  1.1133 -2.9873
  351TMC3    C7 5266   0.333   3.803   9.360 -0.3396 -0.2753  0.1846
  351TMC3    C8 5267   0.605   3.673   9.744 -0.6840 -0.2557  0.1437
  351TMC3    O1 5268   0.258   3.887   9.313  0.1950 -0.2274 -0.1646
  351TMC3    O2 5269   0.646   3.578   9.680  0.2482  0.4721  0.1766
  352MPD2     C 5270   3.775   2.265   1.366 -0.2245  0.1129 -0.2034
  352MPD2    C1 5271   3.652   2.261   1.425 -0.8036  0.3088 -0.5027
  352MPD2    C2 5272   3.622   2.156   1.508 -1.2054  0.2180  0.3826
  352MPD2    C3 5273   3.717   2.064   1.534  0.1923  0.7748  0.0433
  352MPD2    C4 5274   3.851   2.071   1.475  0.0639  0.8962  0.3294
  352MPD2    C5 5275   3.871   2.165   1.382  0.2689 -0.3541 -1.0671
  352MPD2     H 5276   3.520   2.144   1.541 -1.8699  4.2242 -0.1587
  352MPD2    H1 5277   3.921   1.990   1.493 -1.2079 -0.3773 -0.3634
  352MPD2    H2 5278   3.796   2.346   1.297 -0.9496 -1.1783 -1.9264
  352MPD2    H3 5279   3.959   2.172   1.319  0.3041  0.1617 -0.9630
  352MPD2     N 5280   3.690   1.956   1.624 -0.0858  0.1851 -0.0151
  352MPD2    H5 5281   3.769   1.892   1.632  0.3388  0.5573 -1.2706
  352MPD2    N1 5282   3.570   2.365   1.390 -0.3423  0.0705  0.7784
  352MPD2    H7 5283   3.614   2.430   1.326  0.5341 -3.0579 -1.8098
  353TMC3    C1 5284   3.561   1.798   1.747  0.3076  0.3547  0.1685
  353TMC3    C2 5285   3.672   1.736   1.803  0.0569 -0.8254 -0.1298
  353TMC3    C3 5286   3.659   1.606   1.839  0.2064  0.1793 -0.3522
  353TMC3    C4 5287   3.434   1.735   1.735  0.1007  0.4438 -0.2774
  353TMC3    C5 5288   3.428   1.608   1.782 -0.9052 -0.3489 -0.2288
  353TMC3    C6 5289   3.541   1.545   1.831 -0.6075 -0.5154  0.7901
  353TMC3     C 5290   3.571   1.926   1.682 -0.4209  0.0350 -0.0818
  353TMC3     O 5291   3.473   2.000   1.692 -0.1518  0.2287  0.2453
  353TMC3     H 5292   3.770   1.780   1.816 -0.8644  1.1269  0.1978
  353TMC3    H1 5293   3.348   1.785   1.690 -2.4696 -3.8180 -0.0855
  353TMC3    H2 5294   3.515   1.452   1.881 -0.4970  0.0230  1.8455
  353TMC3    C7 5295   3.327   1.527   1.731 -0.1844 -0.5644  0.0180
  353TMC3    C8 5296   3.770   1.527   1.893 -0.2978  0.2934  0.6471
  353TMC3    O1 5297   3.354   1.412   1.697 -0.0259 -0.3460 -0.2439
  353TMC3    O2 5298   3.870   1.593   1.918 -0.3193  0.4988  0.0165
  354TMC3    C1 5299   0.759   3.104  13.577 -0.0744 -0.5341  0.0187
  354TMC3    C2 5300   0.831   3.222  13.572  0.0390 -0.1410 -0.2641
  354TMC3    C3 5301   0.860   3.277  13.450 -0.5684  0.0421 -0.7301
  354TMC3    C4 5302   0.714   3.055  13.457 -0.2067  0.9092  0.7287
  354TMC3    C5 5303   0.751   3.108  13.340 -0.5158  0.5582  0.2561
  354TMC3    C6 5304   0.822   3.221  13.332 -0.4936 -0.2028 -0.2582
  354TMC3     C 5305   0.703   3.054  13.703  0.3944 -0.1663 -0.2718
  354TMC3     O 5306   0.593   3.003  13.691 -0.2277 -0.5153  0.0317
  354TMC3     H 5307   0.850   3.272  13.667 -0.3416  1.4434 -1.0237
  354TMC3    H1 5308   0.667   2.957  13.457 -0.5372  1.0607  0.0026
  354TMC3    H2 5309   0.888   3.235  13.247 -0.9813 -0.9638 -0.7692
  354TMC3    C7 5310   0.708   3.035  13.218  0.0911 -0.4269 -0.1473
  354TMC3    C8 5311   0.956   3.385  13.440 -0.1343 -0.0301 -0.3394
  354TMC3    O1 5312   0.661   2.922  13.232 -0.0227  0.1078  0.3519
  354TMC3    O2 5313   1.000   3.432  13.545 -0.6145  0.6529  0.0128
  355MPD2     C 5314   0.796   4.236  12.072  0.3424 -0.8943 -0.6550
  355MPD2    C1 5315   0.807   4.284  11.947  0.0123 -0.3267  0.9019
  355MPD2    C2 5316   0.932   4.326  11.910  0.3059 -0.4766  0.4952
  355MPD2    C3 5317   1.035   4.332  12.001 -0.2189 -0.0395  0.0883
  355MPD2    C4 5318   1.027   4.264  12.116 -0.9031  0.0979 -0.7454
  355MPD2    C5 5319   0.906   4.212  12.152  0.1110  0.2125  0.1111
  355MPD2     H 5320   0.954   4.367  11.812 -0.4539 -1.9306 -0.2757
  355MPD2    H1 5321   1.114   4.273  12.179 -2.3563 -2.4549  1.5992
  355MPD2    H2 5322   0.707   4.193  12.116  1.2410 -3.2722 -1.1065
  355MPD2    H3 5323   0.894   4.179  12.254  1.5117  0.1295  0.2487
  355MPD2     N 5324   1.151   4.415  11.989 -0.0476  0.7808 -0.1335
  355MPD2    H5 5325   1.215   4.412  12.067  0.0319 -1.9365 -0.3002
  355MPD2    N1 5326   0.686   4.299  11.877  0.4424 -0.5595  0.2799
  355MPD2    H7 5327   0.610   4.245  11.918 -0.6108 -0.1086 -1.0907
  356TMC3    C1 5328   1.300   4.576  11.900 -0.4601  0.1798 -0.0794
  356TMC3    C2 5329   1.344   4.644  11.789  0.1445 -0.8497  0.4420
  356TMC3    C3 5330   1.433   0.026  11.804  0.6497  0.7884  0.1497
  356TMC3    C4 5331   1.329   4.622  12.027  0.5873  0.0084  0.2648
  356TMC3    C5 5332   1.419   4.722  12.032 -0.5352 -0.5616  0.1912
  356TMC3    C6 5333   1.481   0.063  11.924  0.2034 -0.2814 -0.1309
  356TMC3     C 5334   1.184   4.491  11.877 -0.2046 -0.6761 -0.1330
  356TMC3     O 5335   1.123   4.506  11.775 -0.3592 -0.0877  0.0298
  356TMC3     H 5336   1.297   4.623  11.694 -1.4991  0.5236  0.9286
  356TMC3    H1 5337   1.275   4.588  12.115  1.6089  0.0651  0.9233
  356TMC3    H2 5338   1.552   0.145  11.929  0.8687 -0.9344  1.3461
  356TMC3    C7 5339   1.475   0.012  12.172  0.1569  0.0299  0.1761
  356TMC3    C8 5340   1.462   0.113  11.687  0.8224 -0.1478 -0.9986
  356TMC3    O1 5341   1.418   4.676  12.262 -0.3550  0.4741 -0.4102
  356TMC3    O2 5342   1.375   0.127  11.599 -0.2861 -0.1323 -0.7481
  357MPD2     C 5343   0.250   4.277   1.149  0.4397 -0.9654  0.3492
  357MPD2    C1 5344   0.293   4.185   1.248 -0.3608  0.2399  0.4025
  357MPD2    C2 5345   0.198   4.108   1.317  0.2613 -0.0766  0.2437
  357MPD2    C3 5346   0.064   4.136   1.294 -0.3975  0.4367  0.8034
  357MPD2    C4 5347   0.025   4.232   1.198 -0.6877 -0.5689 -0.4593
  357MPD2    C5 5348   0.118   4.290   1.118  0.4500  0.0252  0.2981
  357MPD2     H 5349   0.227   4.043   1.399  1.5693 -1.1550 -1.0878
  357MPD2    H1 5350   4.645   4.254   1.172 -0.2642  0.9006 -0.8978
  357MPD2    H2 5351   0.316   4.350   1.104  0.6462 -0.2829  1.7338
  357MPD2    H3 5352   0.088   4.362   1.044 -0.6946 -0.5824  0.1845
  357MPD2     N 5353   4.683   4.063   1.359 -0.6949  0.1901 -0.6904
  357MPD2    H5 5354   4.591   4.104   1.346 -1.0155 -0.5836 -0.8841
  357MPD2    N1 5355   0.430   4.168   1.269 -0.3781  0.5174  0.9836
  357MPD2    H7 5356   0.490   4.215   1.202 -1.8579 -2.1784 -2.2872
  358TMC3    C1 5357   0.623   4.069   1.354  0.4136  0.5450 -0.5131
  358TMC3    C2 5358   0.654   4.016   1.235 -0.4723  0.0981 -0.0794
  358TMC3    C3 5359   0.775   3.964   1.220  0.8558 -0.0846  0.0882
  358TMC3    C4 5360   0.709   4.072   1.457  0.5742  0.6077 -0.3702
  358TMC3    C5 5361   0.828   4.004   1.436  0.4554 -0.7601  0.5274
  358TMC3    C6 5362   0.871   3.947   1.314 -0.3389 -0.6077  0.3031
  358TMC3     C 5363   0.487   4.100   1.373  0.0898  0.0388 -0.6850
  358TMC3     O 5364   0.445   4.092   1.486  0.0267 -0.7903 -0.3972
  358TMC3     H 5365   0.587   4.031   1.150 -1.6096 -1.1312  0.5916
  358TMC3    H1 5366   0.676   4.119   1.549 -1.9612 -1.2823 -0.2932
  358TMC3    H2 5367   0.974   3.920   1.291 -0.3570  0.6915 -1.3465
  358TMC3    C7 5368   0.925   4.027   1.539 -0.0551 -0.6320  0.1908
  358TMC3    C8 5369   0.819   3.928   1.088  0.5496  0.0367 -0.0217
  358TMC3    O1 5370   0.876   4.038   1.652 -0.1187 -0.1389 -0.1481
  358TMC3    O2 5371   0.933   3.896   1.063  0.0475  0.1743  0.5763
  359MPD2     C 5372   0.965   2.743  12.702 -0.3014  0.2004 -0.2467
  359MPD2    C1 5373   0.976   2.769  12.564  0.1644  0.1355  1.0411
  359MPD2    C2 5374   0.893   2.694  12.478  0.8739  0.6844  0.4790
  359MPD2    C3 5375   0.809   2.591  12.521 -0.6932 -0.5268  0.2492
  359MPD2    C4 5376   0.809   2.563  12.656 -0.1129  0.7141  0.4202
  359MPD2    C5 5377   0.884   2.640  12.743  0.2357 -0.3466 -0.7753
  359MPD2     H 5378   0.913   2.711  12.373  0.3642 -4.0719 -0.3925
  359MPD2    H1 5379   0.743   2.493  12.704  0.6165 -0.7035 -0.6497
  359MPD2    H2 5380   1.031   2.796  12.770 -0.4276 -0.3894  0.3306
  359MPD2    H3 5381   0.865   2.621  12.848  0.1775  2.3616 -0.2837
  359MPD2     N 5382   0.727   2.514  12.439  0.5578 -0.5105 -0.0438
  359MPD2    H5 5383   0.687   2.431  12.481  0.4164 -0.3758  0.0861
  359MPD2    N1 5384   1.066   2.865  12.513  0.7772  0.0489 -0.6165
  359MPD2    H7 5385   1.079   2.870  12.412  0.6920  0.6209 -0.5998
  360TMC3    C1 5386   1.238   3.022  12.518  0.2363  0.1110 -0.3201
  360TMC3    C2 5387   1.329   3.079  12.596  0.2803  0.6161 -0.0642
  360TMC3    C3 5388   1.431   3.147  12.533 -0.1540 -0.0918 -1.1118
  360TMC3    C4 5389   1.239   3.024  12.381 -0.5900  0.2404  0.1651
  360TMC3    C5 5390   1.333   3.104  12.320  0.4257 -0.0506  0.1826
  360TMC3    C6 5391   1.428   3.168  12.397 -0.8528 -0.1724  0.4623
  360TMC3     C 5392   1.131   2.956  12.588 -0.2583 -0.8056  0.9577
  360TMC3     O 5393   1.108   2.985  12.704 -0.1838  0.1513 -0.2880
  360TMC3     H 5394   1.338   3.037  12.695 -0.2274  2.7025  0.8491
  360TMC3    H1 5395   1.158   2.980  12.325  1.5367  0.2515 -2.9216
  360TMC3    H2 5396   1.499   3.239  12.354 -0.1466  0.1165  2.1119
  360TMC3    C7 5397   1.355   3.088  12.184  0.2698  0.3873  0.1605
  360TMC3    C8 5398   1.562   3.126  12.600  0.0618  0.5167 -0.2369
  360TMC3    O1 5399   1.420   3.174  12.136 -0.9056  0.4690  0.0137
  360TMC3    O2 5400   1.558   3.070  12.713  0.3255 -0.3172  0.2706
  361MPD2     C 5401   2.314   2.057   0.085 -0.1512  0.3810 -0.5266
  361MPD2    C1 5402   2.296   2.002  17.654  0.0499  0.5442 -0.7392
  361MPD2    C2 5403   2.399   1.947  17.585  0.5754 -0.2350 -0.4548
  361MPD2    C3 5404   2.520   1.939  17.651  0.1827 -0.1475  0.1664
  361MPD2    C4 5405   2.543   2.000   0.079  0.3943  0.4030 -0.5531
  361MPD2    C5 5406   2.443   2.070   0.143  0.1326 -0.1265 -0.3618
  361MPD2     H 5407   2.397   1.897  17.489 -1.5635 -2.2599  0.6375
  361MPD2    H1 5408   2.640   2.005   0.128  0.2028 -2.6331  0.1727
  361MPD2    H2 5409   2.229   2.086   0.146 -1.4032 -0.6748 -1.7763
  361MPD2    H3 5410   2.460   2.127   0.233  3.1987 -2.0619  0.2871
  361MPD2     N 5411   2.636   1.870  17.601 -0.9048  0.2950  0.2462
  361MPD2    H5 5412   2.718   1.882  17.659  0.3878 -2.8060 -0.9534
  361MPD2    N1 5413   2.163   1.988  17.596 -0.0338 -0.4596 -0.0445
  361MPD2    H7 5414   2.159   1.938  17.508  0.3109 -0.0048 -0.3169
  362TMC3    C1 5415   1.930   2.002  17.579 -0.2246  0.3719  0.0348
  362TMC3    C2 5416   1.814   2.001  17.653 -0.5486  0.6349 -0.2704
  362TMC3    C3 5417   1.692   2.006  17.588  0.3451 -0.8258  0.6037
  362TMC3    C4 5418   1.929   2.008  17.440 -0.3493 -0.1907 -0.1215
  362TMC3    C5 5419   1.812   2.014  17.380 -0.1120 -0.4318 -0.6248
  362TMC3    C6 5420   1.689   2.004  17.446  0.0845  0.3537 -0.4680
  362TMC3     C 5421   2.046   2.042  17.652 -0.3539  0.1509 -1.2227
  362TMC3     O 5422   2.029   2.128   0.040  0.1629 -0.0049 -0.8153
  362TMC3     H 5423   1.831   2.004   0.064  2.8082  2.0335 -0.8407
  362TMC3    H1 5424   2.022   2.031  17.388 -0.7953 -1.1665 -1.3441
  362TMC3    H2 5425   1.596   2.024  17.395  0.9278  1.6834 -1.4698
  362TMC3    C7 5426   1.810   1.988  17.244 -0.5853  0.2512  0.1130
  362TMC3    C8 5427   1.565   1.969  17.657 -0.2217  0.1447 -0.8696
  362TMC3    O1 5428   1.708   2.018  17.183  0.5080  0.7712 -0.4599
  362TMC3    O2 5429   1.476   1.927  17.589  0.0429  0.3187  0.0081
  363TMC3    C1 5430   1.480   3.747   9.813  0.0491 -0.4314  0.3294
  363TMC3    C2 5431   1.516   3.740   9.943  0.5885 -0.0475  0.3809
  363TMC3    C3 5432   1.448   3.817  10.030  0.3039 -0.1577 -0.3335
  363TMC3    C4 5433   1.389   3.838   9.772  0.3154 -0.6799  0.1474
  363TMC3    C5 5434   1.320   3.913   9.861 -0.2059 -0.5750  0.0398
  363TMC3    C6 5435   1.358   3.909   9.990 -0.6279 -0.5080 -0.1176
  363TMC3     C 5436   1.499   3.643   9.718  0.2406 -0.7652  0.2635
  363TMC3     O 5437   1.480   3.673   9.599  0.5324  0.4284 -0.3765
  363TMC3     H 5438   1.593   3.675   9.982 -0.2920 -0.3969  1.5194
  363TMC3    H1 5439   1.379   3.850   9.664 -2.7100 -0.2923  0.4721
  363TMC3    H2 5440   1.305   3.972  10.060  0.4816 -1.2803  1.4297
  363TMC3    C7 5441   1.266   4.036   9.816  0.2508 -1.2364  0.0525
  363TMC3    C8 5442   1.449   3.787  10.172 -0.2319 -0.3794  0.8032
  363TMC3    O1 5443   1.271   4.136   9.889 -0.1950 -0.6222  0.4903
  363TMC3    O2 5444   1.344   3.779  10.234 -0.3025 -0.4371  0.2824
  364MPD2     C 5445   0.076   3.198  10.662 -0.1257  1.0128  0.2294
  364MPD2    C1 5446   0.192   3.221  10.587 -0.2645 -0.3961  0.2967
  364MPD2    C2 5447   0.303   3.145  10.614 -0.7371 -0.3360  0.2798
  364MPD2    C3 5448   0.306   3.050  10.718  0.4697 -0.1149  0.4298
  364MPD2    C4 5449   0.192   3.030  10.788 -0.1352 -0.6225  0.0830
  364MPD2    C5 5450   0.077   3.106  10.767  0.0961  0.0665  0.5582
  364MPD2     H 5451   0.394   3.164  10.558 -0.1510 -1.5673  0.8078
  364MPD2    H1 5452   0.198   2.952  10.864 -2.6427 -0.4926  0.4192
  364MPD2    H2 5453   4.722   3.273  10.655  0.7165  1.8161 -0.6876
  364MPD2    H3 5454   4.711   3.088  10.826 -0.7323  1.8693 -0.1637
  364MPD2     N 5455   0.423   2.974  10.755 -0.0726  0.3585 -0.2604
  364MPD2    H5 5456   0.417   2.901  10.824 -0.9532 -0.5072 -1.2596
  364MPD2    N1 5457   0.197   3.312  10.475  0.5296  0.3448  0.7286
  364MPD2    H7 5458   0.285   3.310  10.424  0.9433 -0.9312  1.4904
  365TMC3    C1 5459   0.145   3.486  10.327 -0.1064 -0.3063  0.5217
  365TMC3    C2 5460   0.214   3.438  10.222  0.1718  0.7573  0.1292
  365TMC3    C3 5461   0.280   3.534  10.143 -0.5232  0.2565 -0.1392
  365TMC3    C4 5462   0.154   3.617  10.361  0.6415 -0.6699  0.5905
  365TMC3    C5 5463   0.205   3.704  10.278  0.1913 -0.1557  0.3603
  365TMC3    C6 5464   0.260   3.666  10.161 -0.2707  0.4329  0.3000
  365TMC3     C 5465   0.098   3.398  10.432  0.1412 -0.0773  0.0607
  365TMC3     O 5466   0.001   3.443  10.497  0.0811 -0.5503  0.3708
  365TMC3     H 5467   0.212   3.332  10.197  0.1325  0.3683  1.8136
  365TMC3    H1 5468   0.118   3.647  10.458 -1.9586  0.7782 -0.8132
  365TMC3    H2 5469   0.308   3.741  10.100 -0.0325 -0.6613 -0.8438
  365TMC3    C7 5470   0.270   3.818  10.335  0.3781 -0.1329  0.4229
  365TMC3    C8 5471   0.415   3.498  10.098  0.3044 -0.1160 -0.4368
  365TMC3    O1 5472   0.371   3.851  10.276 -0.4399 -0.0855  0.2077
  365TMC3    O2 5473   0.477   3.596  10.061  0.3152  0.2396  0.2099
  366MPD2     C 5474   3.045   4.693  15.667  0.7654 -0.1015  0.1880
  366MPD2    C1 5475   3.136   0.042  15.593  0.1797  0.8263  0.0077
  366MPD2    C2 5476   3.264   0.010  15.605 -0.3207 -0.1964  0.5171
  366MPD2    C3 5477   3.309   4.612  15.659  0.9556  0.1058 -0.3379
  366MPD2    C4 5478   3.218   4.543  15.740 -0.8644 -0.0439  0.0656
  366MPD2    C5 5479   3.089   4.593  15.748 -0.3919 -0.5447  0.0403
  366MPD2     H 5480   3.336   0.081  15.566  0.1718 -0.7978  0.3218
  366MPD2    H1 5481   3.253   4.454  15.791  1.6007  0.1281 -1.3278
  366MPD2    H2 5482   2.938   4.711  15.672  0.1621 -3.9679  1.1869
  366MPD2    H3 5483   3.022   4.538  15.814 -1.8391 -0.4250 -1.3449
  366MPD2     N 5484   3.439   4.580  15.642 -0.2950 -0.3810 -0.4458
  366MPD2    H5 5485   3.489   4.654  15.593 -1.0512  0.1447 -0.4201
  366MPD2    N1 5486   3.099   0.168  15.538 -0.5545 -0.3246 -0.1688
  366MPD2    H7 5487   3.179   0.229  15.522  0.9399 -2.0525  0.8100
  367TMC3    C1 5488   2.968   0.360  15.525 -0.4612 -0.6451  1.0403
  367TMC3    C2 5489   3.062   0.430  15.598  0.0181  0.2319 -0.3789
  367TMC3    C3 5490   3.050   0.567  15.605 -0.2308  0.4167  0.1651
  367TMC3    C4 5491   2.860   0.423  15.466 -0.7226 -0.5935  0.9168
  367TMC3    C5 5492   2.861   0.558  15.464 -0.8030 -0.7419 -0.3487
  367TMC3    C6 5493   2.959   0.630  15.532  1.2527 -0.0080  0.2943
  367TMC3     C 5494   2.969   0.219  15.542 -0.2055  0.1314 -0.3870
  367TMC3     O 5495   2.869   0.154  15.516 -0.4090  0.1259  0.1699
  367TMC3     H 5496   3.129   0.388  15.673 -0.5688 -0.8935 -0.4873
  367TMC3    H1 5497   2.784   0.368  15.413 -1.0841 -0.9711  1.8262
  367TMC3    H2 5498   2.945   0.736  15.547  1.6591 -0.1683  1.8173
  367TMC3    C7 5499   2.803   0.625  15.350 -0.1585 -0.3898  0.1138
  367TMC3    C8 5500   3.152   0.651  15.680 -0.4003 -0.3183 -0.1818
  367TMC3    O1 5501   2.777   0.744  15.362  0.6823  0.4331  0.2574
  367TMC3    O2 5502   3.231   0.592  15.749  0.3239  0.3413  0.1822
  368MPD2     C 5503   4.218   2.251  13.616  0.6702 -0.0664 -0.4189
  368MPD2    C1 5504   4.187   2.331  13.514 -0.2287  0.0230  0.6286
  368MPD2    C2 5505   4.282   2.367  13.423 -0.7519  0.1674 -0.6921
  368MPD2    C3 5506   4.414   2.337  13.453  0.6584  0.5659 -0.1210
  368MPD2    C4 5507   4.440   2.255  13.566 -0.7627  0.3048 -0.0957
  368MPD2    C5 5508   4.340   2.203  13.642 -0.0393  0.1386 -0.3355
  368MPD2     H 5509   4.261   2.426  13.334  0.9655  0.2328 -1.0537
  368MPD2    H1 5510   4.537   2.225  13.605 -0.2403  0.1161 -1.5565
  368MPD2    H2 5511   4.149   2.216  13.692 -0.6558  0.7154 -1.2563
  368MPD2    H3 5512   4.357   2.140  13.728  1.5557 -0.1545 -0.8805
  368MPD2     N 5513   4.520   2.391  13.377  0.6641 -0.5790  0.0684
  368MPD2    H5 5514   4.611   2.350  13.395  2.0795  2.8828  0.7290
  368MPD2    N1 5515   4.049   2.374  13.510  0.1899 -0.6163 -0.1845
  368MPD2    H7 5516   3.989   2.338  13.584 -0.1217 -1.7093 -0.9710
  369TMC3    C1 5517   3.851   2.488  13.433 -0.3826 -0.5577 -0.2764
  369TMC3    C2 5518   3.804   2.572  13.338 -0.4881 -1.2637 -0.3409
  369TMC3    C3 5519   3.699   2.534  13.267 -0.5028  0.0108  0.2124
  369TMC3    C4 5520   3.777   2.380  13.477 -0.0434  0.1038  0.5732
  369TMC3    C5 5521   3.657   2.350  13.413 -0.4634  0.2507 -0.6309
  369TMC3    C6 5522   3.616   2.431  13.307 -0.4417  0.5792  0.5296
  369TMC3     C 5523   3.997   2.477  13.434  0.2220  0.0597 -0.3912
  369TMC3     O 5524   4.056   2.549  13.358 -0.0469 -0.0712 -0.2613
  369TMC3     H 5525   3.867   2.656  13.314  0.2963 -2.2064 -1.6055
  369TMC3    H1 5526   3.808   2.307  13.550 -0.9658  0.3802  1.2378
  369TMC3    H2 5527   3.531   2.401  13.246  0.6353 -1.6072  0.1258
  369TMC3    C7 5528   3.555   2.262  13.477  0.6896 -0.1250 -0.1132
  369TMC3    C8 5529   3.718   2.557  13.131 -0.2090  0.1369  0.0772
  369TMC3    O1 5530   3.571   2.240  13.597  0.0670 -0.8589 -0.6726
  369TMC3    O2 5531   3.623   2.548  13.056  0.2758 -0.0635  0.2254
  370TMC3    C1 5532   3.623   2.730  16.411  0.0252  0.7429 -0.3891
  370TMC3    C2 5533   3.524   2.650  16.472 -0.2289 -0.1097  0.6725
  370TMC3    C3 5534   3.521   2.514  16.463 -0.2582 -0.1956  0.1185
  370TMC3    C4 5535   3.707   2.667  16.322 -0.5069  0.0424  1.0349
  370TMC3    C5 5536   3.700   2.534  16.304  0.0548 -0.3207 -0.0748
  370TMC3    C6 5537   3.617   2.453  16.381 -0.7769  0.5844  0.4127
  370TMC3     C 5538   3.593   2.877  16.410 -0.0954 -0.2920 -0.8086
  370TMC3     O 5539   3.498   2.918  16.472  0.1724 -0.6398 -0.2497
  370TMC3     H 5540   3.456   2.697  16.542 -2.1077 -0.8642 -0.6500
  370TMC3    H1 5541   3.769   2.724  16.253 -2.3529  2.3917  1.3141
  370TMC3    H2 5542   3.603   2.346  16.364 -0.9566  0.6888 -0.1116
  370TMC3    C7 5543   3.760   2.477  16.193 -0.0476 -0.4445  0.0276
  370TMC3    C8 5544   3.443   2.438  16.562  0.3033  0.6205 -0.0789
  370TMC3    O1 5545   3.765   2.546  16.090 -0.6003 -0.1767 -0.1417
  370TMC3    O2 5546   3.508   2.341  16.597  0.4943 -0.4089 -0.1750
  371TMC3    C1 5547   0.238   0.625  16.176 -0.1531 -0.6549  0.2105
  371TMC3    C2 5548   0.113   0.678  16.181  0.1327  0.4736 -0.1922
  371TMC3    C3 5549   0.085   0.807  16.143  0.2708  0.1982 -0.0859
  371TMC3    C4 5550   0.339   0.707  16.140 -0.0847 -0.4354  0.1918
  371TMC3    C5 5551   0.308   0.828  16.085 -0.0466 -0.0930  0.7812
  371TMC3    C6 5552   0.185   0.884  16.080 -0.1989  0.0382 -0.7061
  371TMC3     C 5553   0.274   0.507  16.258  0.3069  0.5733  0.3970
  371TMC3     O 5554   0.384   0.508  16.306 -0.1442  0.3229 -0.3005
  371TMC3     H 5555   0.029   0.619  16.217  1.5272 -1.4255 -0.0738
  371TMC3    H1 5556   0.438   0.665  16.153 -0.2072 -0.8403 -0.1761
  371TMC3    H2 5557   0.164   0.983  16.041 -2.7357  0.0249  0.6023
  371TMC3    C7 5558   0.412   0.897  16.021 -0.3157  0.9546  0.4351
  371TMC3    C8 5559   4.676   0.819  16.105 -0.1553  0.2356 -0.3840
  371TMC3    O1 5560   0.395   1.019  16.005 -0.1371  0.3991  0.0723
  371TMC3    O2 5561   4.629   0.719  16.054  0.0289  0.3069 -0.3942
  372MPD2     C 5562   0.200   2.345  14.038  0.4877  1.0020  0.5716
  372MPD2    C1 5563   0.297   2.255  14.084  0.0408  0.3815 -0.7301
  372MPD2    C2 5564   0.265   2.120  14.091 -0.4901 -0.3717 -0.6001
  372MPD2    C3 5565   0.133   2.077  14.066 -0.5214  0.2379  0.8720
  372MPD2    C4 5566   0.040   2.171  14.025 -0.2682 -0.2468 -0.5275
  372MPD2    C5 5567   0.072   2.302  14.004 -0.2932  0.0576 -0.4306
  372MPD2     H 5568   0.346   2.053  14.118  0.1866  1.3379  1.5916
  372MPD2    H1 5569   4.667   2.146  13.984  0.2983 -0.5005 -1.7185
  372MPD2    H2 5570   0.226   2.446  14.008 -3.9047  1.2177 -2.4909
  372MPD2    H3 5571   4.720   2.365  13.958 -1.4656 -0.6217  0.5624
  372MPD2     N 5572   0.098   1.938  14.069  0.5220 -0.0170  0.2672
  372MPD2    H5 5573   0.171   1.872  14.095  0.4255 -0.3856 -0.3839
  372MPD2    N1 5574   0.433   2.295  14.116  0.4828 -0.2660 -0.3840
  372MPD2    H7 5575   0.497   2.231  14.163 -0.6281 -0.4344  0.9221
  373TMC3    C1 5576   4.698   1.742  14.095 -0.2292  0.0020 -0.4411
  373TMC3    C2 5577   4.600   1.683  14.172 -0.5297 -0.3583  0.1448
  373TMC3    C3 5578   4.606   1.545  14.189 -0.1123  0.4813  0.9412
  373TMC3    C4 5579   0.069   1.664  14.025  0.4425  0.3232  0.3083
  373TMC3    C5 5580   0.072   1.530  14.053 -0.1098  0.3478  0.8782
  373TMC3    C6 5581   4.700   1.467  14.122  0.7220  0.3856  0.1411
  373TMC3     C 5582   4.697   1.884  14.091  0.6712  0.4504  0.8269
  373TMC3     O 5583   4.595   1.934  14.129 -0.2001  0.1287 -0.1360
  373TMC3     H 5584   4.519   1.741  14.214 -0.7976 -1.0442  0.5838
  373TMC3    H1 5585   0.140   1.719  13.963  0.4826 -0.9511 -0.7996
  373TMC3    H2 5586   4.693   1.359  14.125 -2.6609  0.6533  1.3006
  373TMC3    C7 5587   0.183   1.449  14.025 -0.0318  0.8309  0.2551
  373TMC3    C8 5588   4.483   1.478  14.223  0.2668  0.0224 -0.1774
  373TMC3    O1 5589   0.252   1.460  13.923  0.0704 -0.1480 -0.1270
  373TMC3    O2 5590   4.378   1.537  14.210  0.3501  0.1553 -0.1243
  374TMC3    C1 5591   1.039   1.522  10.342  0.3835 -0.1474  0.2162
  374TMC3    C2 5592   1.067   1.655  10.335 -0.2202 -0.0441 -0.1385
  374TMC3    C3 5593   1.060   1.704  10.212  0.1487 -0.2854 -0.0296
  374TMC3    C4 5594   1.015   1.439  10.237  0.8168  0.7347  0.0589
  374TMC3    C5 5595   1.034   1.495  10.116  0.0717 -0.4891  0.0267
  374TMC3    C6 5596   1.043   1.631  10.101 -0.1433 -0.4383 -0.2328
  374TMC3     C 5597   0.990   1.464  10.469  0.2084 -0.8131  0.0056
  374TMC3     O 5598   0.925   1.363  10.457  0.4109  0.0332 -0.6320
  374TMC3     H 5599   1.074   1.723  10.420 -1.2327  0.7459 -0.6814
  374TMC3    H1 5600   0.971   1.339  10.241 -0.7099  1.4357  0.6743
  374TMC3    H2 5601   1.028   1.682  10.007 -0.8394  0.4631  0.3705
  374TMC3    C7 5602   0.964   1.432  10.002  0.4787 -0.5442  0.6143
  374TMC3    C8 5603   1.088   1.845  10.180 -0.2766 -0.4669  0.0623
  374TMC3    O1 5604   0.874   1.352  10.032 -0.5913 -0.2664  0.2326
  374TMC3    O2 5605   1.122   1.871  10.064  0.3426 -0.0173 -0.0685
  375MPD2     C 5606   0.414   3.325  17.043  0.7941  0.4018  0.3868
  375MPD2    C1 5607   0.302   3.248  17.027 -0.3965  0.3154 -0.4181
  375MPD2    C2 5608   0.315   3.114  16.993 -0.1342 -0.3054 -0.6462
  375MPD2    C3 5609   0.436   3.059  16.987 -0.2394  0.8269  0.3196
  375MPD2    C4 5610   0.549   3.140  16.987  0.1251 -0.3822 -0.4031
  375MPD2    C5 5611   0.540   3.275  17.018  0.3156 -0.1755 -0.4456
  375MPD2     H 5612   0.224   3.055  16.991  0.5142 -1.3539  0.2506
  375MPD2    H1 5613   0.643   3.096  16.954  0.1127 -1.0881  0.4881
  375MPD2    H2 5614   0.397   3.423  17.087 -0.1369  0.2871  0.2724
  375MPD2    H3 5615   0.628   3.339  17.016  1.4442 -1.7700 -1.3562
  375MPD2     N 5616   0.457   2.926  16.949 -0.3466  1.1688  0.5336
  375MPD2    H5 5617   0.554   2.898  16.936 -1.4812 -2.2154 -0.6010
  375MPD2    N1 5618   0.174   3.294  17.047 -0.6561 -0.1622  0.2549
  375MPD2    H7 5619   0.098   3.234  17.016 -0.3814 -0.4842  0.1985
  376TMC3    C1 5620   0.433   2.706  16.852  0.0204 -0.0252 -0.1029
  376TMC3    C2 5621   0.572   2.703  16.834  0.1436  0.1168 -0.2730
  376TMC3    C3 5622   0.621   2.613  16.745 -0.5185  0.5114 -0.4078
  376TMC3    C4 5623   0.350   2.636  16.775  0.8368 -0.2113  0.5498
  376TMC3    C5 5624   0.406   2.552  16.682  0.4396  0.3452 -0.2941
  376TMC3    C6 5625   0.543   2.536  16.663  0.1306 -0.9268 -0.1944
  376TMC3     C 5626   0.371   2.820  16.924 -0.5221 -0.6234 -1.1585
  376TMC3     O 5627   0.251   2.831  16.918 -0.5226 -0.1038 -0.1735
  376TMC3     H 5628   0.621   2.755  16.915 -0.2494 -1.8898  1.2536
  376TMC3    H1 5629   0.245   2.655  16.795  0.5660 -2.7420  1.4973
  376TMC3    H2 5630   0.587   2.461  16.600 -1.9236 -3.4319  1.3247
  376TMC3    C7 5631   0.327   2.528  16.562 -0.6403 -0.0802  0.4230
  376TMC3    C8 5632   0.765   2.608  16.715  0.7706 -0.1508 -0.0195
  376TMC3    O1 5633   0.219   2.587  16.562  0.3475 -0.3705  0.3339
  376TMC3    O2 5634   0.789   2.576  16.601  0.5784  0.2124 -0.3996
  377MPD2     C 5635   2.988   2.403  12.548 -0.4847 -0.3765 -0.1258
  377MPD2    C1 5636   3.032   2.356  12.671 -0.9261 -0.4548  0.2125
  377MPD2    C2 5637   2.963   2.383  12.791  0.0552  0.5360  0.9445
  377MPD2    C3 5638   2.842   2.453  12.783  0.0671  0.6042 -0.4840
  377MPD2    C4 5639   2.796   2.504  12.660 -0.1550 -0.2122 -0.1327
  377MPD2    C5 5640   2.867   2.469  12.541  0.5034  0.3369 -0.1255
  377MPD2     H 5641   3.001   2.356  12.889  1.7004 -2.1152 -0.4287
  377MPD2    H1 5642   2.696   2.544  12.654  0.7510  1.7695 -2.1180
  377MPD2    H2 5643   3.034   2.371  12.455 -0.2628  0.3737 -0.2823
  377MPD2    H3 5644   2.827   2.505  12.448 -1.5062  0.7218  0.8937
  377MPD2     N 5645   2.764   2.484  12.898 -0.3967 -0.7680 -0.1319
  377MPD2    H5 5646   2.681   2.541  12.881 -0.4060  0.3050  3.3787
  377MPD2    N1 5647   3.151   2.278  12.673 -0.4284 -0.1872  0.1489
  377MPD2    H7 5648   3.209   2.290  12.590 -0.4687  2.3783  0.5129
  378TMC3    C1 5649   3.546   2.234  12.642 -0.3152 -0.2924 -0.2462
  378TMC3    C2 5650   3.410   2.199  12.638  0.0267 -0.0845  0.1402
  378TMC3    C3 5651   3.356   2.189  12.760  0.6319  0.4017  0.3906
  378TMC3    C4 5652   3.622   2.236  12.758 -0.2571  0.1685  0.2375
  378TMC3    C5 5653   3.559   2.219  12.872 -0.3736 -0.3379 -0.7139
  378TMC3    C6 5654   3.426   2.189  12.878 -0.7700 -0.0224 -0.2030
  378TMC3     C 5655   3.600   2.272  12.515  0.1225 -0.2884 -0.2318
  378TMC3     O 5656   3.529   2.271  12.415  0.1080  0.3998  0.0581
  378TMC3     H 5657   3.349   2.207  12.549 -0.0125  2.2230  0.3809
  378TMC3    H1 5658   3.711   2.298  12.758  0.5712 -1.0208  0.8848
  378TMC3    H2 5659   3.369   2.189  12.970  0.6038 -1.2912  0.6446
  378TMC3    C7 5660   3.623   2.198  13.005  0.7525 -1.0369  0.0965
  378TMC3    C8 5661   3.216   2.216  12.782 -0.1774 -0.8761  0.2977
  378TMC3    O1 5662   3.546   2.204  13.100 -0.8340 -0.2745 -0.4026
  378TMC3    O2 5663   3.161   2.165  12.878 -0.5656  0.6993  0.4550
  379MPD2     C 5664   4.108   1.047  16.311  0.0900  0.8827 -0.2142
  379MPD2    C1 5665   4.020   1.001  16.403 -0.0223 -0.5593  0.1129
  379MPD2    C2 5666   4.058   0.904  16.496 -0.3560 -0.4115  0.6790
  379MPD2    C3 5667   4.181   0.851  16.495  0.1295 -0.5376 -1.2444
  379MPD2    C4 5668   4.269   0.894  16.401 -0.1920 -0.0048  0.3882
  379MPD2    C5 5669   4.236   0.993  16.310  0.8600 -0.0437 -0.3866
  379MPD2     H 5670   3.981   0.860  16.559 -1.0785  1.2476  0.9600
  379MPD2    H1 5671   4.373   0.861  16.400 -0.0684  0.3478  2.0588
  379MPD2    H2 5672   4.085   1.128  16.243 -0.1820  1.3216  0.3986
  379MPD2    H3 5673   4.311   1.031  16.242  0.4385  0.2365 -0.6875
  379MPD2     N 5674   4.217   0.760  16.599 -0.3035  0.3312  0.1847
  379MPD2    H5 5675   4.313   0.726  16.593 -0.1027  0.7816  0.8540
  379MPD2    N1 5676   3.890   1.045  16.379 -0.3239 -0.1827  0.8749
  379MPD2    H7 5677   3.870   1.101  16.297 -0.2823 -1.7422 -0.1841
  380TMC3    C1 5678   3.711   0.941  16.327 -0.5570  0.7290 -0.1042
  380TMC3    C2 5679   3.774   0.827  16.282  0.2282  0.2905  0.5689
  380TMC3    C3 5680   3.770   0.792  16.145 -0.2387 -0.1244 -0.0640
  380TMC3    C4 5681   3.650   1.030  16.233  0.0606 -0.2112  0.6573
  380TMC3    C5 5682   3.645   0.989  16.104 -0.6275 -0.6959 -0.1199
  380TMC3    C6 5683   3.698   0.872  16.062 -0.8617  0.0405  0.2670
  380TMC3     C 5684   3.780   0.988  16.438 -0.0655  0.7382  0.8187
  380TMC3     O 5685   3.759   0.928  16.540 -0.0877 -0.6281  0.2469
  380TMC3     H 5686   3.827   0.768  16.355 -1.4915  1.1210  2.4810
  380TMC3    H1 5687   3.601   1.123  16.260  1.2672  0.6741 -0.1665
  380TMC3    H2 5688   3.683   0.844  15.958 -0.4832  2.2619 -0.3785
  380TMC3    C7 5689   3.550   1.053  16.018  0.1774 -0.0845 -0.7236
  380TMC3    C8 5690   3.879   0.712  16.083  0.0448  0.1098  0.0878
  380TMC3    O1 5691   3.529   1.172  16.037  0.0761  0.1742 -0.1638
  380TMC3    O2 5692   3.863   0.691  15.965  0.5915 -0.1343 -0.0371
  381TMC3    C1 5693   3.551   1.792  16.469 -0.6527 -0.9517 -0.2461
  381TMC3    C2 5694   3.595   1.921  16.456 -0.2623 -0.1785  0.1537
  381TMC3    C3 5695   3.627   1.991  16.568  0.2680  0.1155 -0.1993
  381TMC3    C4 5696   3.518   1.732  16.592  0.0019  0.1865 -0.4844
  381TMC3    C5 5697   3.542   1.811  16.703 -0.4978 -0.1095 -0.2375
  381TMC3    C6 5698   3.584   1.941  16.694  0.7410  0.5308 -0.1512
  381TMC3     C 5699   3.541   1.706  16.357 -0.0869 -0.4349 -0.9177
  381TMC3     O 5700   3.534   1.584  16.376 -0.6100  0.1532 -0.0388
  381TMC3     H 5701   3.617   1.958  16.356 -0.7160  2.1949  0.9359
  381TMC3    H1 5702   3.491   1.627  16.592  0.3897  0.0909  1.1388
  381TMC3    H2 5703   3.612   1.995  16.784  2.1771 -2.5778  1.2609
  381TMC3    C7 5704   3.489   1.764  16.830  0.7853  0.0391 -0.0986
  381TMC3    C8 5705   3.738   2.078  16.552 -0.9059 -0.1299  0.7011
  381TMC3    O1 5706   3.472   1.639  16.837  0.4118  0.2240 -0.0766
  381TMC3    O2 5707   3.807   2.055  16.454 -0.2813  0.3682  0.3017
  382MPD2     C 5708   2.874   4.331  17.105  0.1334 -0.4635  0.3476
  382MPD2    C1 5709   2.904   4.319  17.242  0.6794 -0.2693 -0.8337
  382MPD2    C2 5710   2.902   4.195  17.303  0.4060  0.0867  0.6508
  382MPD2    C3 5711   2.869   4.085  17.228  0.6067 -0.2775 -0.2033
  382MPD2    C4 5712   2.836   4.096  17.098 -0.2862 -0.4090  0.8388
  382MPD2    C5 5713   2.847   4.218  17.039 -0.4909 -0.3901 -0.4780
  382MPD2     H 5714   2.913   4.182  17.410 -1.2316  1.9471  1.0200
  382MPD2    H1 5715   2.832   4.006  17.037  0.8228 -0.1071  0.3193
  382MPD2    H2 5716   2.892   4.420  17.045 -4.1779 -0.2963 -0.7071
  382MPD2    H3 5717   2.831   4.223  16.932 -0.3191  0.8986 -0.4424
  382MPD2     N 5718   2.866   3.956  17.280 -0.3319  0.4694 -0.1767
  382MPD2    H5 5719   2.850   3.887  17.207 -0.7280 -0.2071  0.5526
  382MPD2    N1 5720   2.943   4.423  17.320  0.0595 -0.0201 -0.0086
  382MPD2    H7 5721   2.966   4.399  17.415  0.2378 -0.3084 -0.1250
  383TMC3    C1 5722   2.881   3.782  17.420  0.4940 -0.3152  0.7246
  383TMC3    C2 5723   2.800   3.699  17.494 -0.5885 -0.1749 -0.0033
  383TMC3    C3 5724   2.813   3.565  17.488 -0.2699 -0.1193 -1.3399
  383TMC3    C4 5725   2.985   3.734  17.339 -0.0885 -0.7167  0.4958
  383TMC3    C5 5726   2.989   3.595  17.331 -0.8513 -0.0808 -0.3278
  383TMC3    C6 5727   2.910   3.509  17.401 -0.0333  0.2541  0.1353
  383TMC3     C 5728   2.856   3.916  17.410 -0.3458 -0.6354 -0.0802
  383TMC3     O 5729   2.837   3.979  17.515  0.1449 -0.5354  0.1674
  383TMC3     H 5730   2.711   3.745  17.536  0.6207  0.8071  1.4653
  383TMC3    H1 5731   3.061   3.799  17.298 -1.1635  0.0626 -0.2628
  383TMC3    H2 5732   2.909   3.402  17.381  0.6866  0.1538  0.6501
  383TMC3    C7 5733   3.113   3.531  17.275  0.0044 -0.2007  0.2916
  383TMC3    C8 5734   2.689   3.489  17.503  0.0456 -0.0610 -0.0508
  383TMC3    O1 5735   3.122   3.408  17.283 -0.1569 -0.0152  0.7357
  383TMC3    O2 5736   2.585   3.556  17.504 -0.2689  0.4561 -0.6192
  384MPD2     C 5737   0.043   1.063  11.937  0.0022 -0.9360 -0.6423
  384MPD2    C1 5738   0.049   0.930  11.967 -0.8227 -0.3687  0.9032
  384MPD2    C2 5739   0.091   0.847  11.867 -0.1274 -0.5984  0.1020
  384MPD2    C3 5740   0.131   0.889  11.744  0.7793  0.3546 -0.6658
  384MPD2    C4 5741   0.126   1.024  11.706  0.3459  0.1915 -0.2977
  384MPD2    C5 5742   0.082   1.111  11.812  0.7092 -0.0245 -0.1111
  384MPD2     H 5743   0.091   0.740  11.882 -0.1710 -0.4231  1.3606
  384MPD2    H1 5744   0.149   1.052  11.604 -2.8542  3.2648 -0.1781
  384MPD2    H2 5745   0.017   1.143  12.006  1.3394 -0.9504 -0.1187
  384MPD2    H3 5746   0.088   1.218  11.796  0.5869  0.1881  1.2462
  384MPD2     N 5747   0.166   0.785  11.653  0.0318 -0.2969  0.1123
  384MPD2    H5 5748   0.164   0.693  11.694  0.9443 -0.3652  0.0095
  384MPD2    N1 5749   0.010   0.875  12.091  0.0303 -0.5421 -0.2347
  384MPD2    H7 5750   0.027   0.776  12.106 -0.4116 -0.3316  1.5848
  385TMC3    C1 5751   0.264   0.677  11.463 -0.7481 -0.5904  0.2165
  385TMC3    C2 5752   0.179   0.647  11.361  0.2725 -0.9116  0.3031
  385TMC3    C3 5753   0.133   0.520  11.346 -0.1656 -0.2281 -0.4750
  385TMC3    C4 5754   0.289   0.576  11.552  0.1336 -0.2917  0.3417
  385TMC3    C5 5755   0.228   0.456  11.546 -0.2719 -0.3998  1.0135
  385TMC3    C6 5756   0.139   0.427  11.440 -0.3798 -0.7440  0.8614
  385TMC3     C 5757   0.215   0.804  11.528  0.2150 -0.1189  0.2928
  385TMC3     O 5758   0.221   0.905  11.456  0.6715  0.2972 -0.1992
  385TMC3     H 5759   0.171   0.722  11.283 -1.2788 -0.1061  1.2394
  385TMC3    H1 5760   0.376   0.585  11.617  1.2389  1.0666 -1.3362
  385TMC3    H2 5761   0.068   0.345  11.447  0.7974 -1.5445  3.5387
  385TMC3    C7 5762   0.179   0.433  11.676 -0.3778 -0.4879  0.4029
  385TMC3    C8 5763   0.119   0.470  11.211  0.1560 -1.0459  0.3587
  385TMC3    O1 5764   0.165   0.536  11.741  0.1442  0.2054 -0.2808
  385TMC3    O2 5765   0.142   0.541  11.115 -0.1578  0.0330 -0.0913
  386TMC3    C1 5766   4.570   2.716  11.777 -0.1557  0.1191 -0.5271
  386TMC3    C2 5767   4.608   2.792  11.666  0.2135 -0.0917  0.4915
  386TMC3    C3 5768   4.514   2.869  11.603  0.1522  0.8827 -0.0806
  386TMC3    C4 5769   4.453   2.710  11.830 -0.4364 -0.0909  0.1897
  386TMC3    C5 5770   4.353   2.782  11.762 -0.2025  0.0752  0.2677
  386TMC3    C6 5771   4.384   2.863  11.650 -0.1617 -0.3584  0.0454
  386TMC3     C 5772   4.680   2.642  11.837  0.3756 -0.2353 -0.1868
  386TMC3     O 5773   0.071   2.679  11.815  0.6930 -0.5405 -0.0203
  386TMC3     H 5774   4.704   2.786  11.615 -0.1511  0.6565 -0.3039
  386TMC3    H1 5775   4.430   2.656  11.921 -1.3313 -0.5674 -0.3191
  386TMC3    H2 5776   4.314   2.931  11.603  0.4130  1.1122  1.3201
  386TMC3    C7 5777   4.230   2.817  11.834  0.2826  0.1797 -0.7915
  386TMC3    C8 5778   4.521   2.911  11.462  0.5076  0.0691  0.2281
  386TMC3    O1 5779   4.225   2.791  11.952 -0.3872  0.0810 -0.1928
  386TMC3    O2 5780   4.418   2.930  11.399 -0.0994 -0.3977 -0.0256
  387MPD2     C 5781   3.163   2.718   9.900  0.1010 -0.8661  0.6365
  387MPD2    C1 5782   3.148   2.660  10.023  0.6877 -0.1731 -0.1152
  387MPD2    C2 5783   3.185   2.529  10.041 -0.2501  0.2987 -0.3726
  387MPD2    C3 5784   3.233   2.449   9.937 -0.9868  0.3787  0.0814
  387MPD2    C4 5785   3.252   2.505   9.817  0.3233  0.1596  0.0761
  387MPD2    C5 5786   3.222   2.637   9.799  0.7129  0.2668 -0.4670
  387MPD2     H 5787   3.158   2.482  10.135  0.6980 -0.0187 -0.2570
  387MPD2    H1 5788   3.298   2.451   9.735 -0.9259 -0.5104 -0.1800
  387MPD2    H2 5789   3.130   2.819   9.876  0.4979 -0.9467 -0.2875
  387MPD2    H3 5790   3.252   2.699   9.715 -1.0335  2.0717  0.2391
  387MPD2     N 5791   3.260   2.313   9.957  0.3368  0.0600 -0.2177
  387MPD2    H5 5792   3.323   2.266   9.893  0.7493  1.9287 -1.1896
  387MPD2    N1 5793   3.082   2.724  10.131 -0.2164 -0.2826  0.2283
  387MPD2    H7 5794   3.090   2.675  10.219  1.0261 -0.1034  0.2152
  388TMC3    C1 5795   2.974   2.865  10.269  0.4987  0.0407  0.0902
  388TMC3    C2 5796   3.000   2.987  10.327 -0.1940  0.0775  0.5377
  388TMC3    C3 5797   2.989   2.992  10.464  0.2757  0.0099 -0.2353
  388TMC3    C4 5798   2.939   2.753  10.341  0.3660  0.3122 -0.1408
  388TMC3    C5 5799   2.917   2.768  10.474  0.4778 -0.1264  0.4445
  388TMC3    C6 5800   2.943   2.889  10.540 -0.1598 -0.3688 -0.2090
  388TMC3     C 5801   3.033   2.847  10.138 -0.1560  1.0590  0.8933
  388TMC3     O 5802   3.041   2.944  10.059  0.7225  0.0505  0.1117
  388TMC3     H 5803   3.029   3.073  10.267 -0.9691  2.5339  3.6726
  388TMC3    H1 5804   2.901   2.666  10.288 -2.4478  2.5253 -1.7637
  388TMC3    H2 5805   2.934   2.910  10.646 -0.1677 -2.3386  0.1830
  388TMC3    C7 5806   2.905   2.649  10.555 -0.3101  0.3302 -0.0986
  388TMC3    C8 5807   3.002   3.120  10.526  0.7596 -0.0084  0.1102
  388TMC3    O1 5808   2.874   2.655  10.675  0.2775 -1.3745  0.4179
  388TMC3    O2 5809   2.985   3.217  10.452  0.0753 -0.3566  0.4734
  389MPD2     C 5810   2.144   1.085  11.543 -0.5402  0.1324 -0.9129
  389MPD2    C1 5811   2.054   1.069  11.436 -0.0317  1.1951  0.2297
  389MPD2    C2 5812   1.949   0.993  11.461  0.8055 -0.6334  0.1572
  389MPD2    C3 5813   1.927   0.928  11.574  1.0248  0.3608  0.8475
  389MPD2    C4 5814   2.020   0.932  11.681 -0.3618 -0.3127 -0.1530
  389MPD2    C5 5815   2.124   1.016  11.658  0.4987  0.2966 -0.1644
  389MPD2     H 5816   1.873   0.984  11.384  0.2227 -0.7106  0.7349
  389MPD2    H1 5817   2.012   0.872  11.771  2.1113 -1.0985 -0.4484
  389MPD2    H2 5818   2.231   1.150  11.536 -0.9180  0.8267  0.8523
  389MPD2    H3 5819   2.206   1.029  11.728  0.3663 -0.4273  0.1293
  389MPD2     N 5820   1.816   0.840  11.594 -0.1700  0.4360  0.2083
  389MPD2    H5 5821   1.803   0.816  11.692  1.3291  0.2432  0.3582
  389MPD2    N1 5822   2.081   1.140  11.317  0.2406 -0.3267  0.2803
  389MPD2    H7 5823   2.156   1.209  11.312 -2.0506  2.0560 -1.6257
  390TMC3    C1 5824   1.617   0.710  11.530  0.2308 -0.3364 -0.5398
  390TMC3    C2 5825   1.604   0.665  11.659  1.0979  0.8237 -0.5191
  390TMC3    C3 5826   1.476   0.636  11.698  0.0879 -0.5105 -0.1907
  390TMC3    C4 5827   1.514   0.704  11.438  0.5678 -0.2681 -0.3345
  390TMC3    C5 5828   1.385   0.679  11.484 -0.0760 -0.6569  0.5090
  390TMC3    C6 5829   1.366   0.646  11.615  0.2410  0.5171  0.3549
  390TMC3     C 5830   1.741   0.783  11.494  0.7394  0.1361  0.4782
  390TMC3     O 5831   1.767   0.790  11.374 -0.2360 -0.1264  0.5724
  390TMC3     H 5832   1.680   0.662  11.737  0.0948  2.2001  0.5114
  390TMC3    H1 5833   1.537   0.700  11.332  0.2901 -2.3879 -0.3135
  390TMC3    H2 5834   1.267   0.655  11.659 -0.5281 -0.9007 -1.0604
  390TMC3    C7 5835   1.296   0.597  11.402  0.2931 -0.3532 -0.4051
  390TMC3    C8 5836   1.465   0.526  11.789 -0.0427  0.7362 -0.0064
  390TMC3    O1 5837   1.350   0.558  11.298 -0.7143 -0.3481  0.0467
  390TMC3    O2 5838   1.537   0.511  11.887  0.5591 -0.3199  0.0487
  391MPD2     C 5839   1.270   2.330  11.630 -0.4067 -0.6088  0.0718
  391MPD2    C1 5840   1.380   2.404  11.579 -0.5380  0.3354  0.6887
  391MPD2    C2 5841   1.392   2.409  11.439 -0.8561  0.0459 -0.5657
  391MPD2    C3 5842   1.306   2.348  11.350 -0.3635 -0.2496  0.3400
  391MPD2    C4 5843   1.203   2.274  11.403 -0.2182 -0.4963  0.0054
  391MPD2    C5 5844   1.178   2.285  11.536 -0.5219  0.6291 -0.1982
  391MPD2     H 5845   1.475   2.467  11.401  0.4036 -1.0787  0.4848
  391MPD2    H1 5846   1.129   2.221  11.345  1.2252 -2.9874  0.4400
  391MPD2    H2 5847   1.248   2.316  11.735 -1.2358  2.8988  0.3599
  391MPD2    H3 5848   1.081   2.241  11.560  0.0993 -0.6897 -0.1205
  391MPD2     N 5849   1.334   2.366  11.213 -0.1124  0.3822 -0.2040
  391MPD2    H5 5850   1.421   2.408  11.184 -0.5530  1.4165 -0.0292
  391MPD2    N1 5851   1.479   2.468  11.659  0.3009 -0.4412  0.1905
  391MPD2    H7 5852   1.567   2.491  11.614  1.0679 -2.3648  0.7113
  392TMC3    C1 5853   1.273   2.343  10.978  0.2493  1.6614 -0.6131
  392TMC3    C2 5854   1.179   2.320  10.878 -0.0251 -0.2889  0.3847
  392TMC3    C3 5855   1.193   2.374  10.757 -0.8987  0.6536 -0.0600
  392TMC3    C4 5856   1.388   2.401  10.939  0.3613  0.4520 -0.1588
  392TMC3    C5 5857   1.407   2.450  10.811 -0.4251  0.6256  0.4608
  392TMC3    C6 5858   1.309   2.435  10.722 -0.2092 -0.2075  0.7406
  392TMC3     C 5859   1.234   2.332  11.119  0.1547  0.5209 -0.1662
  392TMC3     O 5860   1.116   2.308  11.137  0.5040  0.3718 -0.5872
  392TMC3     H 5861   1.079   2.294  10.911 -0.4580  1.4613  0.4581
  392TMC3    H1 5862   1.461   2.419  11.017  1.2213 -1.2116 -0.5680
  392TMC3    H2 5863   1.326   2.470  10.621 -2.9058 -1.9112 -0.3061
  392TMC3    C7 5864   1.515   2.541  10.777  0.1415  0.9060  0.0098
  392TMC3    C8 5865   1.131   2.281  10.656  0.5488 -0.2825  0.1756
  392TMC3    O1 5866   1.597   2.560  10.868  0.6588 -0.2480  0.0098
  392TMC3    O2 5867   1.089   2.173  10.696  0.0477  0.8696  0.5574
  393TMC3    C1 5868   0.323   0.285  10.407  0.3608 -0.8828 -0.6975
  393TMC3    C2 5869   0.208   0.320  10.456  0.3671 -0.9395 -0.1190
  393TMC3    C3 5870   0.126   0.218  10.500 -0.3179  0.5199  0.2866
  393TMC3    C4 5871   0.370   0.158  10.398 -0.0777 -0.5820  0.1954
  393TMC3    C5 5872   0.287   0.054  10.434  0.2358  0.5165 -0.0527
  393TMC3    C6 5873   0.167   0.087  10.492 -0.0480  0.0674 -1.3194
  393TMC3     C 5874   0.393   0.389  10.328  0.7721 -0.0571 -0.3990
  393TMC3     O 5875   0.474   0.356  10.242 -0.1352 -0.2260 -0.1663
  393TMC3     H 5876   0.181   0.425  10.446 -1.4864 -1.5223 -1.0675
  393TMC3    H1 5877   0.453   0.147  10.328 -0.9005 -1.1871 -0.6855
  393TMC3    H2 5878   0.100   0.005  10.518  2.2211 -1.7055 -1.0354
  393TMC3    C7 5879   0.316   4.637  10.403 -0.3926 -0.0134 -0.4433
  393TMC3    C8 5880   4.714   0.257  10.533 -1.0079 -0.1746  0.1748
  393TMC3    O1 5881   0.216   4.565  10.397 -0.2524 -0.6021 -0.4450
  393TMC3    O2 5882   4.632   0.163  10.549 -0.7121  0.2049  0.1984
  394TMC3    C1 5883   2.039   1.216  11.090 -0.0496  0.0904 -0.3210
  394TMC3    C2 5884   1.945   1.284  11.024  0.0079 -0.2166 -0.2034
  394TMC3    C3 5885   1.972   1.400  10.945 -0.1192  0.0847 -0.7590
  394TMC3    C4 5886   2.163   1.271  11.079 -1.6869  0.8664 -0.4817
  394TMC3    C5 5887   2.189   1.367  10.985 -0.1089  0.8892  0.5441
  394TMC3    C6 5888   2.097   1.443  10.923  1.0640 -0.4420  0.3158
  394TMC3     C 5889   2.001   1.129  11.201 -0.6535  0.3518  0.2688
  394TMC3     O 5890   1.894   1.067  11.191  0.2248  0.1474  0.3561
  394TMC3     H 5891   1.845   1.247  11.046  0.0056  0.1422  0.3776
  394TMC3    H1 5892   2.243   1.212  11.121 -2.8273  0.7301  1.5110
  394TMC3    H2 5893   2.132   1.508  10.844 -0.5732  1.0037  0.7804
  394TMC3    C7 5894   2.304   1.338  10.908 -0.6066  0.5357  0.2869
  394TMC3    C8 5895   1.887   1.421  10.837  0.5615 -0.1463  0.4928
  394TMC3    O1 5896   2.408   1.385  10.943  0.1548  0.5324  0.5553
  394TMC3    O2 5897   1.902   1.531  10.781 -0.0273  0.0777  0.1276
  395TMC3    C1 5898   0.991   2.696  14.678 -0.4884  0.5498 -0.2392
  395TMC3    C2 5899   1.018   2.563  14.696  0.3316  0.0554  0.4507
  395TMC3    C3 5900   1.073   2.516  14.807 -0.0501 -0.1957 -0.1296
  395TMC3    C4 5901   1.014   2.783  14.782 -0.5423 -0.0783  0.0899
  395TMC3    C5 5902   1.059   2.734  14.900  0.3062 -0.1634 -0.7365
  395TMC3    C6 5903   1.095   2.601  14.906 -0.3686  0.0842 -0.2101
  395TMC3     C 5904   0.990   2.762  14.553 -0.6054  0.2155 -0.4109
  395TMC3     O 5905   0.893   2.828  14.525  0.3031 -0.2784 -0.1945
  395TMC3     H 5906   0.990   2.498  14.614 -0.2380 -1.3541  1.7542
  395TMC3    H1 5907   1.004   2.888  14.757  2.4027  0.3325  0.7014
  395TMC3    H2 5908   1.136   2.571  15.001  1.3295  0.2953 -0.8747
  395TMC3    C7 5909   1.154   2.831  14.963  0.5015  0.3805 -0.3307
  395TMC3    C8 5910   1.154   2.399  14.796  0.2398  0.2321 -0.4697
  395TMC3    O1 5911   1.267   2.786  14.979 -0.1435 -0.7507 -0.1464
  395TMC3    O2 5912   1.160   2.335  14.691  0.2803  0.1271 -0.1413
  396MPD2     C 5913   1.711   3.626   0.093  0.0662  0.6526 -0.5214
  396MPD2    C1 5914   1.593   3.585   0.026 -0.4160 -0.6049  0.0396
  396MPD2    C2 5915   1.533   3.673  17.635  0.1396 -0.6641 -0.1549
  396MPD2    C3 5916   1.580   3.796  17.612  0.1840  0.6372  0.3320
  396MPD2    C4 5917   1.702   3.829  17.671  0.3757  0.1309 -0.1041
  396MPD2    C5 5918   1.770   3.743   0.058 -0.2842  0.3267 -1.9734
  396MPD2     H 5919   1.443   3.638  17.586  1.5944 -4.5165 -0.0413
  396MPD2    H1 5920   1.748   3.923  17.645 -2.0218  1.8561  1.8223
  396MPD2    H2 5921   1.773   3.561   0.154  0.8941  2.2531  0.3392
  396MPD2    H3 5922   1.867   3.766   0.103 -0.5089 -0.5627 -1.0313
  396MPD2     N 5923   1.528   3.884  17.517  0.0162  0.1924  0.0099
  396MPD2    H5 5924   1.584   3.968  17.503  0.8624 -0.3269  0.2546
  396MPD2    N1 5925   1.531   3.462   0.040 -0.1988 -0.0024  0.1346
  396MPD2    H7 5926   1.451   3.449  17.675  1.5197 -1.9756 -1.7037
  397TMC3    C1 5927   1.539   3.231   0.065 -0.5195 -0.5583 -0.1676
  397TMC3    C2 5928   1.547   3.234  17.620  0.4741 -0.2944  0.5139
  397TMC3    C3 5929   1.429   3.229  17.551  0.7643  0.5066 -0.8179
  397TMC3    C4 5930   1.420   3.198   0.122 -0.2270  0.3072  0.2363
  397TMC3    C5 5931   1.315   3.168   0.050  0.0502  0.7198 -0.3036
  397TMC3    C6 5932   1.318   3.183  17.615 -0.0986  0.3302 -0.3553
  397TMC3     C 5933   1.581   3.357   0.118  0.4094  0.3736  0.3624
  397TMC3     O 5934   1.647   3.359   0.220 -0.5626  0.3501 -0.0056
  397TMC3     H 5935   1.637   3.281  17.582 -0.0928  0.6460  0.3119
  397TMC3    H1 5936   1.418   3.186   0.229 -1.5371  0.9015  0.2772
  397TMC3    H2 5937   1.228   3.180  17.555  0.7144  0.5778 -1.5974
  397TMC3    C7 5938   1.179   3.170   0.100  0.1912  0.3969  0.8915
  397TMC3    C8 5939   1.420   3.293  17.422 -0.1003 -0.2071 -0.1922
  397TMC3    O1 5940   1.092   3.117   0.036 -0.1900  0.1320 -0.3944
  397TMC3    O2 5941   1.312   3.272  17.370 -0.0705 -0.3007  0.0930
  398MPD2     C 5942   3.886   4.625  17.574 -0.3797 -0.4914 -0.6983
  398MPD2    C1 5943   3.984   4.542  17.621  0.4669 -0.2449  1.1248
  398MPD2    C2 5944   4.032   4.565   0.052  0.5098 -0.3600  0.0814
  398MPD2    C3 5945   3.989   4.672   0.131 -0.2901  0.0696  0.1465
  398MPD2    C4 5946   3.902   0.040   0.080  0.1881  0.5112  0.1563
  398MPD2    C5 5947   3.855   0.019  17.645 -0.0134 -0.5047 -0.1660
  398MPD2     H 5948   4.091   4.484   0.092 -0.7517 -0.8181  1.0174
  398MPD2    H1 5949   3.862   0.131   0.124  0.0674  1.3140 -1.6342
  398MPD2    H2 5950   3.846   4.611  17.474 -0.6929 -0.2752 -0.6013
  398MPD2    H3 5951   3.779   0.089  17.612 -0.0415  0.7132  2.4558
  398MPD2     N 5952   4.041   4.695   0.258 -1.0236 -0.5567  0.3612
  398MPD2    H5 5953   4.015   0.061   0.296 -0.1040 -0.0297 -0.2597
  398MPD2    N1 5954   4.030   4.433  17.548 -0.3989 -0.3129  0.7302
  398MPD2    H7 5955   4.103   4.378  17.592  0.1654 -2.2991 -2.7165
  399TMC3    C1 5956   4.049   4.261  17.386  0.5221  0.1922  1.0956
  399TMC3    C2 5957   4.179   4.234  17.416 -0.0364 -1.1321 -0.1274
  399TMC3    C3 5958   4.216   4.109  17.415 -0.2121 -0.0862  0.9953
  399TMC3    C4 5959   3.963   4.156  17.365  0.0082 -0.0248 -0.7394
  399TMC3    C5 5960   4.004   4.025  17.375  0.6724  0.1988 -0.3765
  399TMC3    C6 5961   4.134   3.995  17.402  0.2700 -0.2514 -0.1627
  399TMC3     C 5962   3.988   4.388  17.423 -0.6895  0.3779  0.4340
  399TMC3     O 5963   3.888   4.424  17.360 -0.1163 -0.1267  0.1228
  399TMC3     H 5964   4.249   4.314  17.435  0.4908 -2.2348  2.6695
  399TMC3    H1 5965   3.859   4.183  17.350  0.2696  2.2660  1.4643
  399TMC3    H2 5966   4.167   3.893  17.413 -0.7311 -0.4572  0.9197
  399TMC3    C7 5967   3.914   3.926  17.427 -0.2028  0.6750 -0.2902
  399TMC3    C8 5968   4.356   4.102  17.428 -0.2723  0.0613  0.7087
  399TMC3    O1 5969   3.959   3.860  17.515  0.5045  0.3457 -0.1857
  399TMC3    O2 5970   4.428   4.163  17.348  0.5328  0.0953  0.4004
  400TMC3    C1 5971   2.401   2.914  17.048  0.6295 -0.3368  0.3106
  400TMC3    C2 5972   2.279   2.869  17.021 -0.4482 -0.8180 -0.0726
  400TMC3    C3 5973   2.190   2.968  16.988 -0.2840 -0.3023  0.1150
  400TMC3    C4 5974   2.434   3.046  17.055  0.3742  0.4419  0.0088
  400TMC3    C5 5975   2.346   3.137  17.001 -0.0908  0.1123  0.7265
  400TMC3    C6 5976   2.216   3.099  16.976  0.4853  0.3387  0.0270
  400TMC3     C 5977   2.500   2.808  17.061 -0.8617  0.0370 -0.3927
  400TMC3     O 5978   2.469   2.694  17.032  0.5101 -0.6612  0.3260
  400TMC3     H 5979   2.251   2.764  17.019 -1.1088 -0.6774  1.2777
  400TMC3    H1 5980   2.530   3.090  17.079 -0.2253  1.0979  1.2154
  400TMC3    H2 5981   2.141   3.165  16.933  2.2324  2.2757 -0.0334
  400TMC3    C7 5982   2.379   3.280  17.004  0.2333  0.1857  0.3716
  400TMC3    C8 5983   2.049   2.944  16.979 -0.6661  0.1584 -0.1918
  400TMC3    O1 5984   2.489   3.303  17.059  0.6854 -0.1992 -0.3748
  400TMC3    O2 5985   1.975   3.036  17.009 -0.0304  0.5292  0.3402
  401MPD2     C 5986   0.269   1.332   1.462 -0.0087 -0.2010 -0.2026
  401MPD2    C1 5987   0.388   1.305   1.399  0.3192  0.1707 -0.0972
  401MPD2    C2 5988   0.399   1.181   1.339  0.6248 -0.2562  0.0668
  401MPD2    C3 5989   0.291   1.098   1.325 -0.1837  0.6135  0.5890
  401MPD2    C4 5990   0.167   1.134   1.375 -0.2021  0.3159  0.2218
  401MPD2    C5 5991   0.156   1.253   1.445 -0.7694  0.2863 -0.4667
  401MPD2     H 5992   0.495   1.160   1.293  0.5495 -1.4564  0.4375
  401MPD2    H1 5993   0.082   1.067   1.373  0.3571 -0.4609  2.3684
  401MPD2    H2 5994   0.255   1.418   1.526 -0.6263 -1.1520  0.9424
  401MPD2    H3 5995   0.066   1.279   1.499 -0.8725  0.9927 -0.9842
  401MPD2     N 5996   0.322   0.968   1.272  0.7568  0.5200  0.2405
  401MPD2    H5 5997   0.421   0.952   1.261  0.6176  0.1942 -0.5436
  401MPD2    N1 5998   0.499   1.387   1.400  0.4857  0.1335 -0.3235
  401MPD2    H7 5999   0.583   1.345   1.363  0.8936  1.1893 -0.6039
  402TMC3    C1 6000   0.299   0.778   1.156 -0.2945  0.4277  0.7093
  402TMC3    C2 6001   0.381   0.713   1.241  0.0015  0.1022  0.4569
  402TMC3    C3 6002   0.501   0.669   1.205  0.3818 -0.6901 -0.9939
  402TMC3    C4 6003   0.339   0.805   1.033  0.3411 -0.7056  0.1157
  402TMC3    C5 6004   0.467   0.770   0.999 -0.8964  0.2012  0.1991
  402TMC3    C6 6005   0.550   0.705   1.084 -0.2375 -0.2768 -0.0799
  402TMC3     C 6006   0.228   0.885   1.217  0.5836 -0.4598 -0.4726
  402TMC3     O 6007   0.115   0.904   1.178  0.0226  0.6569  0.1100
  402TMC3     H 6008   0.349   0.707   1.345  0.9031 -3.2927  0.5645
  402TMC3    H1 6009   0.284   0.870   0.965  0.8268  0.7328  1.0939
  402TMC3    H2 6010   0.653   0.692   1.051 -0.2483 -0.3049 -0.1022
  402TMC3    C7 6011   0.518   0.844   0.887  0.2038 -0.6713 -0.1515
  402TMC3    C8 6012   0.603   0.630   1.302  0.1805  1.0250 -0.8777
  402TMC3    O1 6013   0.431   0.863   0.800 -0.7190 -0.2803  0.0508
  402TMC3    O2 6014   0.722   0.648   1.275  0.5556 -0.2481 -0.2972
  403MPD2     C 6015   4.431   0.582  13.397 -0.1809 -0.1890  0.3391
  403MPD2    C1 6016   4.421   0.462  13.460 -0.7758 -0.1020 -0.5434
  403MPD2    C2 6017   4.516   0.438  13.558 -0.1500 -0.1562 -0.1425
  403MPD2    C3 6018   4.600   0.530  13.609 -0.0846  0.3034 -0.3597
  403MPD2    C4 6019   4.593   0.658  13.554  0.0086  0.6136  0.0215
  403MPD2    C5 6020   4.510   0.685  13.448 -0.2257 -0.2193 -0.2121
  403MPD2     H 6021   4.527   0.338  13.599  0.4300  0.2425  0.6597
  403MPD2    H1 6022   4.653   0.741  13.591  1.4699 -0.5122  0.1816
  403MPD2    H2 6023   4.376   0.611  13.308  0.3664 -1.0555 -0.2855
  403MPD2    H3 6024   4.496   0.782  13.400  1.6181 -0.5426 -1.4006
  403MPD2     N 6025   4.697   0.476  13.701  0.1151  0.0041 -0.7084
  403MPD2    H5 6026   4.702   0.376  13.717  2.8217  0.2866  0.0913
  403MPD2    N1 6027   4.321   0.369  13.417 -0.5420 -0.4030  0.0183
  403MPD2    H7 6028   4.260   0.405  13.344 -1.6485 -0.8505  0.7300
  404TMC3    C1 6029   4.231   0.147  13.375 -0.6964 -0.0129  0.4948
  404TMC3    C2 6030   4.179   0.034  13.427 -0.4355 -0.2409 -0.2524
  404TMC3    C3 6031   4.136   4.657  13.352 -0.2979 -0.7130 -0.0334
  404TMC3    C4 6032   4.234   0.161  13.237  0.1518  0.3541  0.4563
  404TMC3    C5 6033   4.193   0.052  13.160 -0.4453  0.2637 -0.1890
  404TMC3    C6 6034   4.144   4.660  13.217  0.4689  0.3900 -0.2893
  404TMC3     C 6035   4.300   0.241  13.465  0.3377  0.9357  0.4056
  404TMC3     O 6036   4.340   0.202  13.571  0.2447 -0.3406  0.2259
  404TMC3     H 6037   4.186   0.030  13.535  1.7998 -0.3630 -0.4064
  404TMC3    H1 6038   4.271   0.253  13.192 -2.6528  1.2208 -0.0818
  404TMC3    H2 6039   4.135   4.571  13.156 -1.1024  1.3373 -1.4409
  404TMC3    C7 6040   4.179   0.065  13.015  0.3609  0.2323  0.0129
  404TMC3    C8 6041   4.161   4.523  13.402 -0.1614  0.4517 -0.4735
  404TMC3    O1 6042   4.228   0.163  12.965 -0.5410  0.1121 -0.4761
  404TMC3    O2 6043   4.212   4.445  13.325 -0.3698  0.1330  0.3136
  405MPD2     C 6044   4.703   0.755  14.786 -0.2344 -0.3623 -0.2022
  405MPD2    C1 6045   4.644   0.688  14.678  0.1335  0.1223  0.4932
  405MPD2    C2 6046   4.535   0.741  14.621  0.3833  0.4143 -0.4552
  405MPD2    C3 6047   4.480   0.864  14.661 -0.4339 -0.0907 -0.4219
  405MPD2    C4 6048   4.552   0.936  14.756  0.0971 -0.3710  0.7607
  405MPD2    C5 6049   4.657   0.880  14.820  0.1114  0.6843 -0.6195
  405MPD2     H 6050   4.480   0.686  14.545  1.3471 -0.3318 -0.6097
  405MPD2    H1 6051   4.516   1.033  14.788  0.5885  0.1104 -0.1509
  405MPD2    H2 6052   0.056   0.711  14.849 -0.6712  1.9968  1.9956
  405MPD2    H3 6053   4.700   0.934  14.903  3.0223  0.6283 -2.0878
  405MPD2     N 6054   4.360   0.904  14.593 -0.4818 -0.0068  0.6647
  405MPD2    H5 6055   4.319   0.836  14.530 -1.2981  1.0489  0.0721
  405MPD2    N1 6056   4.710   0.571  14.631 -0.2240  0.2031  0.0398
  405MPD2    H7 6057   0.058   0.525  14.687 -0.0839  0.8246  0.3710
  406TMC3    C1 6058   4.011   1.128  14.380  0.2366 -0.2559 -0.0558
  406TMC3    C2 6059   4.037   1.058  14.269  0.5148 -0.4630 -0.1393
  406TMC3    C3 6060   4.136   0.965  14.273 -0.2915  0.0166 -0.4551
  406TMC3    C4 6061   4.105   1.120  14.488  0.5897 -0.1301  0.5211
  406TMC3    C5 6062   4.210   1.043  14.479  0.1469 -0.4238  0.8782
  406TMC3    C6 6063   4.227   0.961  14.373  0.0056  0.1147  0.1192
  406TMC3     C 6064   3.879   1.174  14.408 -0.2799  0.1673 -0.5399
  406TMC3     O 6065   3.787   1.144  14.334 -0.0694 -0.8896 -0.4641
  406TMC3     H 6066   3.965   1.054  14.188  0.5036 -0.2681 -0.1369
  406TMC3    H1 6067   4.083   1.171  14.582  0.7037 -1.7122  1.4040
  406TMC3    H2 6068   4.316   0.899  14.365 -0.3147 -0.1729 -1.1622
  406TMC3    C7 6069   4.297   1.029  14.592  0.9009 -0.1568 -0.0336
  406TMC3    C8 6070   4.156   0.889  14.159 -0.2861  0.2212  0.1281
  406TMC3    O1 6071   4.289   1.121  14.675 -0.2712  0.1072 -0.2015
  406TMC3    O2 6072   4.119   0.932  14.051  0.2915 -0.4600  0.0119
  407MPD2     C 6073   2.871   2.560   9.836  0.6182 -0.4826  0.0751
  407MPD2    C1 6074   2.849   2.439   9.897  0.2333  0.4395 -0.1933
  407MPD2    C2 6075   2.782   2.444  10.019 -0.0630 -0.2851 -0.6247
  407MPD2    C3 6076   2.717   2.559  10.064 -0.3320  0.5879 -0.0036
  407MPD2    C4 6077   2.736   2.675   9.993  0.5374  0.6494  0.8420
  407MPD2    C5 6078   2.815   2.674   9.887  0.1428  0.1187 -0.0663
  407MPD2     H 6079   2.766   2.349  10.069 -2.0332 -0.5070 -1.6676
  407MPD2    H1 6080   2.712   2.775  10.028 -1.4802  0.4495  0.0906
  407MPD2    H2 6081   2.941   2.571   9.754 -1.0515  2.0142 -0.9938
  407MPD2    H3 6082   2.831   2.767   9.835 -0.5131 -0.8252 -1.9454
  407MPD2     N 6083   2.630   2.563  10.176 -0.2603 -0.4146 -0.0724
  407MPD2    H5 6084   2.564   2.640  10.176  2.7942  2.1900  1.4457
  407MPD2    N1 6085   2.910   2.319   9.869 -0.2089  0.1450  0.2314
  407MPD2    H7 6086   2.881   2.241   9.927 -0.2480 -0.7867 -1.0501
  408TMC3    C1 6087   3.011   2.166   9.723  0.2270 -0.1746  0.5252
  408TMC3    C2 6088   3.121   2.142   9.647  0.0652 -0.1245  0.4974
  408TMC3    C3 6089   3.132   2.025   9.582 -0.2273  0.4662  0.8857
  408TMC3    C4 6090   2.905   2.075   9.731 -0.4510  0.7320 -0.0831
  408TMC3    C5 6091   2.916   1.964   9.647 -0.0800 -0.8165 -0.5907
  408TMC3    C6 6092   3.027   1.946   9.565 -0.6731  0.2113 -0.3426
  408TMC3     C 6093   2.993   2.302   9.759 -0.3992  0.1219  0.5886
  408TMC3     O 6094   3.039   2.383   9.682  0.2395 -0.2361 -0.4041
  408TMC3     H 6095   3.196   2.221   9.647 -0.7267  0.6286  1.2125
  408TMC3    H1 6096   2.816   2.100   9.787 -0.9475  1.5283 -1.2226
  408TMC3    H2 6097   3.049   1.856   9.508  1.2619 -0.9161  2.2258
  408TMC3    C7 6098   2.794   1.895   9.614 -0.2371  0.0633 -0.4551
  408TMC3    C8 6099   3.241   2.008   9.483 -0.1719 -0.7160 -0.3313
  408TMC3    O1 6100   2.696   1.972   9.611  0.2797 -0.5351  0.5357
  408TMC3    O2 6101   3.217   1.965   9.372  0.2752 -0.4512 -0.3998
  409MPD2     C 6102   1.294   2.858  17.452  0.2792  0.2036  0.3519
  409MPD2    C1 6103   1.406   2.867  17.531 -0.2980 -0.3995 -0.8159
  409MPD2    C2 6104   1.523   2.908  17.475 -0.0052 -0.0001  0.8027
  409MPD2    C3 6105   1.520   2.970  17.346  1.1239 -0.3152 -0.7791
  409MPD2    C4 6106   1.412   2.958  17.268 -0.0139  0.2705  0.0633
  409MPD2    C5 6107   1.294   2.898  17.318 -0.1184  0.4968  0.2680
  409MPD2     H 6108   1.609   2.914  17.540  2.3338  1.6922 -2.4221
  409MPD2    H1 6109   1.415   3.002  17.169 -1.3755 -1.4566 -0.7546
  409MPD2    H2 6110   1.202   2.808  17.480 -1.4049  2.2905 -1.3695
  409MPD2    H3 6111   1.213   2.884  17.247  0.6846  3.3991 -1.1891
  409MPD2     N 6112   1.628   3.051  17.300  0.2580 -0.2645 -0.3032
  409MPD2    H5 6113   1.592   3.109  17.225 -2.1167  0.7940  1.6293
  409MPD2    N1 6114   1.406   2.825  17.666  0.3189 -0.6924 -0.1104
  409MPD2    H7 6115   1.499   2.822   0.012  0.1162  0.4984  0.4171
  410TMC3    C1 6116   1.833   3.171  17.299 -0.6010 -0.3413  0.1458
  410TMC3    C2 6117   1.960   3.190  17.351 -0.2102  0.3411  0.1863
  410TMC3    C3 6118   2.033   3.282  17.278  0.3269 -0.5040 -0.6523
  410TMC3    C4 6119   1.775   3.252  17.205 -0.4778  0.6830  0.4702
  410TMC3    C5 6120   1.856   3.348  17.147 -0.9382  0.0718 -0.6598
  410TMC3    C6 6121   1.986   3.364  17.178 -0.2324 -0.0086 -0.1941
  410TMC3     C 6122   1.760   3.055  17.350 -0.3957 -0.6706  0.0425
  410TMC3     O 6123   1.817   2.969  17.418 -0.0322  0.0675  0.2980
  410TMC3     H 6124   2.010   3.123  17.420  0.2112  0.3690 -0.0930
  410TMC3    H1 6125   1.669   3.254  17.185 -0.6333 -0.6268  1.1363
  410TMC3    H2 6126   2.057   3.430  17.128 -0.7263  0.8109  0.1947
  410TMC3    C7 6127   1.806   3.385  17.012 -0.2837  0.7234 -0.4095
  410TMC3    C8 6128   2.173   3.314  17.314 -0.0245 -0.3239  0.1420
  410TMC3    O1 6129   1.734   3.297  16.973  0.1391 -0.1417  0.6402
  410TMC3    O2 6130   2.212   3.430  17.296  0.1129  0.0744 -0.0814
  411MPD2     C 6131   2.044   3.501  14.834  0.2414  0.4537 -0.2023
  411MPD2    C1 6132   1.916   3.549  14.813  0.2033 -0.2104 -0.0733
  411MPD2    C2 6133   1.813   3.460  14.784 -0.1240  0.1224  0.3696
  411MPD2    C3 6134   1.824   3.320  14.812  0.7527  0.2977 -0.1706
  411MPD2    C4 6135   1.947   3.279  14.855 -0.1717  0.4467  0.1977
  411MPD2    C5 6136   2.057   3.367  14.856 -0.2658  0.2227  0.4120
  411MPD2     H 6137   1.725   3.510  14.745 -0.6457  0.0930  1.5117
  411MPD2    H1 6138   1.975   3.175  14.859 -1.5125  0.1129  0.9011
  411MPD2    H2 6139   2.130   3.566  14.843  0.6424  0.0326 -1.0148
  411MPD2    H3 6140   2.160   3.338  14.873 -0.0403 -1.1496 -3.4054
  411MPD2     N 6141   1.718   3.229  14.795  0.1113 -0.3866  0.3412
  411MPD2    H5 6142   1.745   3.132  14.801 -2.4509 -1.0051  1.8479
  411MPD2    N1 6143   1.891   3.691  14.797 -0.4704 -0.1887 -0.2908
  411MPD2    H7 6144   1.795   3.715  14.774  0.1797  0.1302 -2.6886
  412TMC3    C1 6145   1.499   3.162  14.721 -1.2621 -0.3870 -0.5746
  412TMC3    C2 6146   1.358   3.187  14.728 -0.3507  0.3779 -0.1457
  412TMC3    C3 6147   1.272   3.111  14.659 -1.0774  0.5809  0.7844
  412TMC3    C4 6148   1.550   3.056  14.649  0.0931  0.2812  0.1817
  412TMC3    C5 6149   1.465   2.999  14.557 -0.2317 -0.0180  0.2131
  412TMC3    C6 6150   1.328   3.014  14.577  0.4575  0.3275  0.0008
  412TMC3     C 6151   1.588   3.271  14.768 -0.7773 -0.7541 -0.5149
  412TMC3     O 6152   1.531   3.376  14.778 -0.2556 -0.4400 -0.0041
  412TMC3     H 6153   1.324   3.281  14.770 -2.0974  0.4658 -1.7423
  412TMC3    H1 6154   1.656   3.045  14.632  0.4556 -0.4625  2.9021
  412TMC3    H2 6155   1.267   2.957  14.507 -0.1911 -0.5876  1.3078
  412TMC3    C7 6156   1.498   3.027  14.421  0.3548 -0.9299  0.0013
  412TMC3    C8 6157   1.154   3.176  14.607 -0.0855  0.5692  0.0543
  412TMC3    O1 6158   1.398   3.033  14.348 -0.3337 -0.3926 -0.0127
  412TMC3    O2 6159   1.098   3.255  14.684 -0.0876 -0.5113 -0.2904
  413MPD2     C 6160   3.471   2.116  15.655  0.5223  0.2902 -0.3898
  413MPD2    C1 6161   3.394   2.034  15.567 -0.1189  0.1068 -0.3620
  413MPD2    C2 6162   3.452   1.917  15.521 -0.1118  0.4691 -0.1071
  413MPD2    C3 6163   3.584   1.881  15.552  0.1478  0.3372  0.6058
  413MPD2    C4 6164   3.660   1.965  15.635 -0.5462  0.2416 -0.0868
  413MPD2    C5 6165   3.597   2.076  15.688 -0.2314 -0.0998  0.9536
  413MPD2     H 6166   3.396   1.863  15.445  0.5996 -0.7005  0.1927
  413MPD2    H1 6167   3.766   1.949  15.651 -0.4363  1.8774  0.7812
  413MPD2    H2 6168   3.441   2.214  15.692 -0.1187 -0.4253  0.9785
  413MPD2    H3 6169   3.652   2.149  15.747  0.5368 -1.2443  1.6604
  413MPD2     N 6170   3.632   1.760  15.499 -0.1769 -0.0641  0.0227
  413MPD2    H5 6171   3.573   1.710  15.434  1.3836 -2.5350  0.5341
  413MPD2    N1 6172   3.261   2.077  15.528 -0.3523  0.1814  0.9162
  413MPD2    H7 6173   3.242   2.170  15.566 -0.1393  0.0481  1.3496
  414TMC3    C1 6174   3.771   1.569  15.452  0.0879 -0.7414  1.0370
  414TMC3    C2 6175   3.867   1.479  15.489  0.3458 -0.6782  0.3793
  414TMC3    C3 6176   3.888   1.376  15.401 -1.0424 -0.7360  0.2338
  414TMC3    C4 6177   3.727   1.572  15.322 -0.1419  0.4351  0.1096
  414TMC3    C5 6178   3.752   1.469  15.236  0.4099 -0.0159 -0.1684
  414TMC3    C6 6179   3.823   1.362  15.278  0.7955  0.0998 -0.1554
  414TMC3     C 6180   3.753   1.690  15.531  0.1770 -0.0893 -0.4939
  414TMC3     O 6181   3.832   1.703  15.623  0.6182 -0.1374 -0.0507
  414TMC3     H 6182   3.907   1.477  15.590  1.8579 -1.5129 -0.2362
  414TMC3    H1 6183   3.678   1.662  15.285  0.7948 -0.3129 -2.9117
  414TMC3    H2 6184   3.832   1.270  15.221 -0.6918 -1.5293  2.2354
  414TMC3    C7 6185   3.706   1.482  15.101  0.0151  0.6099  0.7696
  414TMC3    C8 6186   3.988   1.269  15.433 -0.0265 -0.0720 -0.0910
  414TMC3    O1 6187   3.597   1.531  15.092 -0.6690 -0.5476  0.3397
  414TMC3    O2 6188   3.998   1.170  15.361  0.2646 -0.3562  0.6178
  415TMC3    C1 6189   4.368   3.943   9.901 -0.3531  0.2344  0.1773
  415TMC3    C2 6190   4.402   4.040   9.808  0.0612  0.1766  0.8081
  415TMC3    C3 6191   4.338   4.039   9.688  0.4039  0.1650 -0.2139
  415TMC3    C4 6192   4.279   3.846   9.872 -0.1572 -0.0911 -0.7759
  415TMC3    C5 6193   4.225   3.841   9.742  0.3092 -0.2993  0.4736
  415TMC3    C6 6194   4.249   3.939   9.649  0.5499 -0.4298  0.1043
  415TMC3     C 6195   4.408   3.955  10.040  0.5447 -1.0652 -0.5342
  415TMC3     O 6196   4.340   3.891  10.119  0.1304  0.0131 -0.7857
  415TMC3     H 6197   4.455   4.129   9.839  0.4950  0.2601 -0.1765
  415TMC3    H1 6198   4.248   3.774   9.947 -0.3032  1.5973  0.7812
  415TMC3    H2 6199   4.202   3.940   9.551 -0.8558  0.3398  0.7919
  415TMC3    C7 6200   4.164   3.721   9.683 -0.4982  0.3863 -0.3822
  415TMC3    C8 6201   4.370   4.148   9.594  0.1017  0.1024 -0.4148
  415TMC3    O1 6202   4.160   3.704   9.561  0.2862 -0.0828  1.1300
  415TMC3    O2 6203   4.303   4.167   9.496 -0.8782  0.0207  0.5016
  416MPD2     C 6204   1.393   4.062  11.404 -0.1483 -0.4477  0.2857
  416MPD2    C1 6205   1.328   3.964  11.474 -0.3903  0.7318  0.4773
  416MPD2    C2 6206   1.375   3.837  11.464  0.7749  1.2624 -0.1878
  416MPD2    C3 6207   1.493   3.808  11.400 -0.5609  0.4444  0.3749
  416MPD2    C4 6208   1.553   3.906  11.325  0.4864  0.5694  0.3051
  416MPD2    C5 6209   1.505   4.030  11.327 -0.1680 -0.8266 -0.0778
  416MPD2     H 6210   1.319   3.753  11.503  2.4612  0.4407  0.4706
  416MPD2    H1 6211   1.650   3.888  11.280  0.1222 -1.4464  0.3012
  416MPD2    H2 6212   1.370   4.167  11.420 -0.0336 -0.4861  0.7102
  416MPD2    H3 6213   1.560   4.106  11.272 -2.0801  0.6924  0.1370
  416MPD2     N 6214   1.552   3.676  11.412  0.1837 -0.0477 -0.0812
  416MPD2    H5 6215   1.627   3.653  11.348 -0.5105 -1.9536 -0.2167
  416MPD2    N1 6216   1.216   4.001  11.549  0.0798 -0.3758 -0.0565
  416MPD2    H7 6217   1.190   4.098  11.532  0.0635 -0.4755 -0.5994
  417TMC3    C1 6218   1.035   3.973  11.689 -0.1660 -0.9558 -0.1946
  417TMC3    C2 6219   0.971   3.914  11.793  0.5441  0.2054 -0.4590
  417TMC3    C3 6220   0.834   3.918  11.798  0.4763 -0.0838 -0.4044
  417TMC3    C4 6221   0.959   4.056  11.611 -0.3584 -0.3808 -0.0139
  417TMC3    C5 6222   0.823   4.055  11.619 -0.2551 -0.1191 -0.0499
  417TMC3    C6 6223   0.754   3.982  11.713 -0.1101 -0.1668 -0.1482
  417TMC3     C 6224   1.153   3.917  11.639  0.6079  0.2366 -0.3452
  417TMC3     O 6225   1.184   3.815  11.696 -0.1043 -0.1363  0.2278
  417TMC3     H 6226   1.016   3.848  11.865  1.8557  1.7386  0.1361
  417TMC3    H1 6227   1.006   4.108  11.528 -0.3221 -1.0087 -0.3862
  417TMC3    H2 6228   0.649   3.998  11.734  0.5347  4.0278 -0.1120
  417TMC3    C7 6229   0.751   4.112  11.505 -0.3011 -0.8484 -0.5678
  417TMC3    C8 6230   0.761   3.833  11.885 -0.2373  0.9759  0.8003
  417TMC3    O1 6231   0.799   4.209  11.450 -0.8637  0.1478 -0.5885
  417TMC3    O2 6232   0.655   3.783  11.851  0.5625 -0.6062  0.6310
  418TMC3    C1 6233   4.382   4.637   0.575  1.0075 -0.4604 -0.4121
  418TMC3    C2 6234   4.327   4.640   0.449  0.1539  0.6240 -0.6016
  418TMC3    C3 6235   4.192   4.664   0.432 -0.2306 -0.1348  0.0844
  418TMC3    C4 6236   4.304   4.676   0.683 -0.1086 -0.4670 -0.8234
  418TMC3    C5 6237   4.171   4.678   0.661 -0.2930  0.2747 -0.5728
  418TMC3    C6 6238   4.109   4.683   0.540  0.0779 -0.2333  0.8854
  418TMC3     C 6239   4.489   4.551   0.618 -0.3766 -0.2376 -0.1114
  418TMC3     O 6240   4.515   4.534   0.737 -0.1814  0.5060 -0.3931
  418TMC3     H 6241   4.380   4.620   0.356 -0.7290 -0.7980 -0.7993
  418TMC3    H1 6242   4.351   4.667   0.780 -2.1076  0.0037  0.1714
  418TMC3    H2 6243   4.002   4.694   0.541  0.0673 -0.1351 -2.9046
  418TMC3    C7 6244   4.094   4.647   0.777  0.0980 -0.1294  0.1492
  418TMC3    C8 6245   4.129   4.611   0.319  0.1064 -0.1280 -0.0887
  418TMC3    O1 6246   3.990   4.583   0.762  0.5788 -0.0964  0.0575
  418TMC3    O2 6247   4.172   4.501   0.294 -0.3602 -0.0458  0.0077
  419MPD2     C 6248   3.237   3.061  12.569  0.3065  0.4428 -0.1269
  419MPD2    C1 6249   3.168   3.179  12.519  0.2103 -0.4999  0.8106
  419MPD2    C2 6250   3.086   3.240  12.607  0.1197 -0.0929 -0.2732
  419MPD2    C3 6251   3.092   3.214  12.737  0.1747 -0.0526 -0.1030
  419MPD2    C4 6252   3.153   3.100  12.788 -0.0993  0.1440  0.7843
  419MPD2    C5 6253   3.215   3.022  12.697  0.0332 -0.0104 -0.6721
  419MPD2     H 6254   3.029   3.328  12.578  1.8336  0.4749 -1.9330
  419MPD2    H1 6255   3.154   3.067  12.891 -2.7701 -2.3347  0.0147
  419MPD2    H2 6256   3.309   3.008  12.508  0.7184 -0.8006  1.4454
  419MPD2    H3 6257   3.267   2.932  12.728  0.1144  0.2858  0.0670
  419MPD2     N 6258   3.030   3.304  12.828 -0.0769  0.1066 -0.1187
  419MPD2    H5 6259   2.986   3.381  12.778 -0.5935  0.8231  1.4303
  419MPD2    N1 6260   3.178   3.221  12.388 -0.1298 -0.1510 -0.0522
  419MPD2    H7 6261   3.130   3.304  12.356 -0.8450 -0.4167  0.3368
  420TMC3    C1 6262   3.000   3.425  13.035  0.2073 -0.3710 -0.1969
  420TMC3    C2 6263   2.897   3.504  12.992 -0.5798  0.1660  0.2426
  420TMC3    C3 6264   2.891   3.636  13.015 -0.2965 -0.0628  0.0677
  420TMC3    C4 6265   3.085   3.473  13.121  0.3136 -0.2794 -0.2023
  420TMC3    C5 6266   3.090   3.609  13.132  0.8399  0.4076  0.3611
  420TMC3    C6 6267   2.999   3.689  13.074  0.2281 -0.1214 -0.4452
  420TMC3     C 6268   3.042   3.300  12.965 -0.2012  0.3040 -0.5594
  420TMC3     O 6269   3.126   3.245  13.038 -0.3380 -0.0180  0.2018
  420TMC3     H 6270   2.823   3.455  12.929 -2.0735  0.0514  2.0661
  420TMC3    H1 6271   3.155   3.413  13.178  0.1181 -0.1579  0.1662
  420TMC3    H2 6272   3.005   3.796  13.089  0.5536 -0.2974  0.7212
  420TMC3    C7 6273   3.188   3.676  13.210 -0.5680  0.6012  0.2310
  420TMC3    C8 6274   2.798   3.727  12.952  0.8114 -0.0633 -0.3711
  420TMC3    O1 6275   3.226   3.786  13.167 -0.2142 -0.2970  0.4445
  420TMC3    O2 6276   2.832   3.844  12.935 -0.5346  0.7758  0.3748
  421TMC3    C1 6277   0.174   0.502  13.838  0.2788 -0.1548 -0.0441
  421TMC3    C2 6278   0.247   0.572  13.930 -0.0674  0.1128  0.1865
  421TMC3    C3 6279   0.351   0.509  13.989  0.3533 -0.0949  0.1377
  421TMC3    C4 6280   0.203   0.373  13.807  0.0335 -0.7417  0.3485
  421TMC3    C5 6281   0.303   0.308  13.870  0.0389 -0.8954 -0.1127
  421TMC3    C6 6282   0.376   0.375  13.965  0.7234 -0.1258  0.0386
  421TMC3     C 6283   0.064   0.563  13.765  0.4316 -0.3695  0.4829
  421TMC3     O 6284   0.057   0.684  13.759 -0.1051  0.1674  0.2197
  421TMC3     H 6285   0.222   0.675  13.948 -2.2587 -0.4188  0.1621
  421TMC3    H1 6286   0.161   0.337  13.714  1.4633  1.3138 -1.0800
  421TMC3    H2 6287   0.452   0.330  14.028  0.7069 -1.2686 -0.7544
  421TMC3    C7 6288   0.337   0.167  13.853  0.3010 -0.1056  0.1482
  421TMC3    C8 6289   0.409   0.557  14.113  0.2875  0.0963  0.0164
  421TMC3    O1 6290   0.448   0.126  13.896  0.5320 -0.3153 -0.1908
  421TMC3    O2 6291   0.523   0.521  14.145 -0.7019  0.0913  0.0623
  422TMC3    C1 6292   2.202   1.605  12.950 -0.2230  0.8228 -0.0814
  422TMC3    C2 6293   2.142   1.731  12.970  0.2477 -0.0272  0.3560
  422TMC3    C3 6294   2.009   1.738  12.993 -0.3413  0.3423  0.5533
  422TMC3    C4 6295   2.117   1.489  12.951 -0.7368 -0.3195 -0.0375
  422TMC3    C5 6296   1.983   1.505  12.979 -0.3146 -0.0674 -0.2575
  422TMC3    C6 6297   1.929   1.627  13.000  0.5291  0.0622 -0.6184
  422TMC3     C 6298   2.318   1.603  12.866  0.5381  0.1339  0.1615
  422TMC3     O 6299   2.362   1.709  12.829 -0.3809 -0.5711  0.3056
  422TMC3     H 6300   2.200   1.822  12.955  1.7331 -1.0696 -0.1567
  422TMC3    H1 6301   2.140   1.386  12.923  1.8781  0.5208 -1.0133
  422TMC3    H2 6302   1.827   1.645  13.033  0.0904 -1.1366 -1.3101
  422TMC3    C7 6303   1.902   1.382  12.970  0.7391 -0.6586 -0.1697
  422TMC3    C8 6304   1.949   1.871  13.005  0.1798  0.5114  0.0179
  422TMC3    O1 6305   1.938   1.286  12.905 -0.3111  0.2345 -0.8541
  422TMC3    O2 6306   2.022   1.957  13.044 -0.2210  0.1014  0.3796
  423MPD2     C 6307   3.361   2.781   0.842 -0.6433 -0.2988  0.0441
  423MPD2    C1 6308   3.420   2.669   0.906  0.9964  0.0765 -0.1258
  423MPD2    C2 6309   3.456   2.558   0.828 -0.1733  0.1576 -0.4896
  423MPD2    C3 6310   3.427   2.563   0.688  0.1436 -0.1848 -0.1934
  423MPD2    C4 6311   3.373   2.676   0.623  0.2194 -0.2309 -1.0688
  423MPD2    C5 6312   3.338   2.788   0.702  0.6337  0.6442 -0.6945
  423MPD2     H 6313   3.522   2.479   0.862 -0.0259 -0.1134 -1.4014
  423MPD2    H1 6314   3.351   2.669   0.517 -0.6917  3.4773 -1.1297
  423MPD2    H2 6315   3.339   2.874   0.894  2.3203  2.1007 -2.9840
  423MPD2    H3 6316   3.289   2.873   0.654 -2.5467 -0.2183  1.0021
  423MPD2     N 6317   3.462   2.457   0.599  0.4118 -0.0704  0.2684
  423MPD2    H5 6318   3.444   2.474   0.501  0.0998 -1.2924  0.1208
  423MPD2    N1 6319   3.440   2.667   1.041  0.3300 -0.2762  0.1637
  423MPD2    H7 6320   3.487   2.585   1.079 -0.1737  1.0849  3.7806
  424TMC3    C1 6321   3.370   2.699   1.269  0.4691  0.4473 -0.2139
  424TMC3    C2 6322   3.428   2.579   1.293 -0.7611 -0.1033 -0.4211
  424TMC3    C3 6323   3.391   2.519   1.414 -1.0453 -0.0684  0.3121
  424TMC3    C4 6324   3.295   2.765   1.362  0.5983 -0.0107 -0.4344
  424TMC3    C5 6325   3.272   2.704   1.486 -0.4035 -0.7823 -0.2473
  424TMC3    C6 6326   3.311   2.576   1.505  1.2547 -0.3604  0.7051
  424TMC3     C 6327   3.377   2.751   1.134 -0.2467 -0.6613 -0.0062
  424TMC3     O 6328   3.320   2.856   1.117 -0.0721  0.1331 -0.5143
  424TMC3     H 6329   3.476   2.513   1.220  2.1722  1.1081  0.4236
  424TMC3    H1 6330   3.254   2.862   1.338 -1.5562 -1.1094 -1.1934
  424TMC3    H2 6331   3.285   2.522   1.596 -2.0801  2.8546  1.6936
  424TMC3    C7 6332   3.208   2.783   1.591 -0.2014  0.2857 -0.0618
  424TMC3    C8 6333   3.450   2.389   1.453  0.4902  0.2470 -0.9616
  424TMC3    O1 6334   3.136   2.879   1.558 -0.7408  0.3505  0.0154
  424TMC3    O2 6335   3.398   2.324   1.545 -0.4156 -0.4053 -1.0064
  425MPD2     C 6336   2.137   1.747   0.111  0.1653  0.1177 -0.0389
  425MPD2    C1 6337   2.091   1.661   0.014 -0.6879 -0.0253 -0.0221
  425MPD2    C2 6338   1.951   1.633   0.005  0.4968  0.4700  0.3316
  425MPD2    C3 6339   1.858   1.687   0.089  0.1177  0.4041 -0.4515
  425MPD2    C4 6340   1.906   1.767   0.192 -0.4763 -0.5037 -0.1292
  425MPD2    C5 6341   2.036   1.785   0.196 -0.0953  0.4659 -0.1874
  425MPD2     H 6342   1.928   1.558  17.626  1.0401 -0.3435  0.9672
  425MPD2    H1 6343   1.836   1.806   0.265  0.8221 -1.9709  1.8987
  425MPD2    H2 6344   2.238   1.787   0.117 -0.3262  1.5073 -0.9200
  425MPD2    H3 6345   2.067   1.859   0.269 -2.3965  2.1112 -0.8826
  425MPD2     N 6346   1.722   1.656   0.072 -0.3974  0.0868 -0.2471
  425MPD2    H5 6347   1.696   1.604  17.685 -0.5836  1.3101 -0.9497
  425MPD2    N1 6348   2.195   1.612  17.627  0.5334 -0.6329 -0.3554
  425MPD2    H7 6349   2.285   1.646  17.659 -0.4579  1.6694 -0.0131
  426TMC3    C1 6350   2.312   1.472  17.484 -0.3254  0.2203 -0.3093
  426TMC3    C2 6351   2.304   1.413  17.365  0.3750  0.5698  0.0912
  426TMC3    C3 6352   2.422   1.370  17.314 -0.2175 -0.4868 -0.4291
  426TMC3    C4 6353   2.431   1.479  17.557 -0.0516 -0.4223 -0.5324
  426TMC3    C5 6354   2.546   1.425  17.509  0.1832  1.0272  0.1297
  426TMC3    C6 6355   2.540   1.363  17.383 -0.2744  0.2976  0.6021
  426TMC3     C 6356   2.184   1.513  17.533 -0.5192 -0.2698  0.7245
  426TMC3     O 6357   2.085   1.465  17.485  0.0075  0.4882  0.5149
  426TMC3     H 6358   2.216   1.407  17.303  1.3009  0.2322 -1.1876
  426TMC3    H1 6359   2.429   1.530  17.653 -0.1447  0.7406 -1.1613
  426TMC3    H2 6360   2.631   1.325  17.337 -0.3856 -2.3543  2.5949
  426TMC3    C7 6361   2.642   1.373  17.601 -1.2626 -0.1552 -0.0045
  426TMC3    C8 6362   2.415   1.276  17.200  0.7908  0.6524 -0.0176
  426TMC3    O1 6363   2.736   1.307  17.551  0.2226  0.1697 -0.0453
  426TMC3    O2 6364   2.495   1.288  17.109  0.4252 -0.4251  0.3028
  427MPD2     C 6365   0.962   3.695  15.045 -0.6203  0.3325  0.0279
  427MPD2    C1 6366   0.930   3.680  15.178 -0.9027  0.1675 -0.0313
  427MPD2    C2 6367   0.805   3.709  15.229  0.1973 -0.2563 -0.3961
  427MPD2    C3 6368   0.703   3.738  15.145 -0.6715 -1.0983  0.6028
  427MPD2    C4 6369   0.727   3.749  15.010 -0.5856 -0.4525  0.1322
  427MPD2    C5 6370   0.854   3.739  14.965 -0.1690  0.2305 -0.0270
  427MPD2     H 6371   0.786   3.693  15.334  1.1298  2.1814  0.1467
  427MPD2    H1 6372   0.653   3.787  14.941  0.6656  1.6587 -0.0366
  427MPD2    H2 6373   1.051   3.662  14.994  0.4932  2.4393  0.5831
  427MPD2    H3 6374   0.872   3.756  14.859 -3.4553 -1.5525 -0.8710
  427MPD2     N 6375   0.573   3.773  15.189  0.1104  0.6659  0.3005
  427MPD2    H5 6376   0.505   3.781  15.114  0.6632 -0.6530 -0.3594
  427MPD2    N1 6377   1.031   3.627  15.262 -0.0445  0.7298  0.2367
  427MPD2    H7 6378   1.003   3.614  15.359  0.7230  1.7348  0.5980
  428TMC3    C1 6379   1.240   3.542  15.332 -0.5592  0.5430 -0.1711
  428TMC3    C2 6380   1.184   3.438  15.408 -0.8064 -0.4543 -0.3959
  428TMC3    C3 6381   1.277   3.352  15.464  0.1750  0.2030  1.4505
  428TMC3    C4 6382   1.375   3.567  15.322 -0.4106  0.2474 -0.0518
  428TMC3    C5 6383   1.461   3.475  15.386  0.2799 -1.2642  0.4877
  428TMC3    C6 6384   1.414   3.368  15.455  0.4776 -0.1297 -0.1397
  428TMC3     C 6385   1.166   3.619  15.230 -0.4903  0.9073  0.2139
  428TMC3     O 6386   1.227   3.661  15.131  0.8203  0.2587 -0.0691
  428TMC3     H 6387   1.079   3.412  15.415 -0.5276 -0.9470  2.1746
  428TMC3    H1 6388   1.418   3.648  15.264 -0.0804  3.2156  4.3651
  428TMC3    H2 6389   1.483   3.296  15.497 -0.2834  0.2269  1.7274
  428TMC3    C7 6390   1.600   3.492  15.406  1.0777 -0.1722 -0.5686
  428TMC3    C8 6391   1.215   3.226  15.486 -0.5093  1.1316 -0.0385
  428TMC3    O1 6392   1.648   3.466  15.515  0.6277 -0.3740  0.1192
  428TMC3    O2 6393   1.112   3.222  15.555  0.3997 -0.1026  0.3095
  429MPD2     C 6394   2.425   3.639   0.385 -0.0231 -0.2541 -0.1293
  429MPD2    C1 6395   2.410   3.566   0.265 -0.3655  0.4875 -0.1627
  429MPD2    C2 6396   2.427   3.627   0.139  0.1666 -0.8375  0.1973
  429MPD2    C3 6397   2.439   3.763   0.141 -0.2973 -0.1428  0.0757
  429MPD2    C4 6398   2.439   3.836   0.255 -0.1437  0.2796 -0.2551
  429MPD2    C5 6399   2.442   3.774   0.375 -0.2186  0.1549  0.1121
  429MPD2     H 6400   2.426   3.567   0.049 -1.7092 -1.4432  0.6377
  429MPD2    H1 6401   2.455   3.943   0.250  1.3529  0.1067  0.8046
  429MPD2    H2 6402   2.430   3.585   0.479 -0.2393  1.5140  0.8998
  429MPD2    H3 6403   2.459   3.827   0.468  0.1742  0.1442  0.0490
  429MPD2     N 6404   2.453   3.814   0.012 -0.0107  0.2206 -0.2351
  429MPD2    H5 6405   2.451   3.744  17.635 -1.7219 -1.3665  1.3107
  429MPD2    N1 6406   2.406   3.425   0.257  0.1419 -0.6934  0.2241
  429MPD2    H7 6407   2.399   3.387   0.163  1.0146  0.9742 -0.5152
  430TMC3    C1 6408   2.456   3.970  17.532  0.0692  0.0161 -0.1177
  430TMC3    C2 6409   2.490   4.096  17.489 -0.0940  0.8474 -0.1944
  430TMC3    C3 6410   2.501   4.101  17.353 -0.4082  0.3024  1.1337
  430TMC3    C4 6411   2.430   3.869  17.449 -0.3149 -0.0529 -0.1144
  430TMC3    C5 6412   2.456   3.877  17.313  0.1782  0.5844 -0.1712
  430TMC3    C6 6413   2.488   3.998  17.263  0.4230  0.3034 -0.0740
  430TMC3     C 6414   2.451   3.950  17.681  0.2343  0.2245 -0.1915
  430TMC3     O 6415   2.439   4.051   0.050 -0.2960 -0.5208 -0.1726
  430TMC3     H 6416   2.488   4.183  17.553 -0.0293  0.6866  0.0261
  430TMC3    H1 6417   2.371   3.785  17.484 -1.3072  0.8834  0.4751
  430TMC3    H2 6418   2.518   4.020  17.161  0.3679 -1.1128 -0.3865
  430TMC3    C7 6419   2.414   3.764  17.229 -0.5155  0.4054 -0.1493
  430TMC3    C8 6420   2.465   4.234  17.304 -0.1700 -0.1258 -0.4236
  430TMC3    O1 6421   2.409   3.656  17.290 -0.2023 -0.0467  0.7489
  430TMC3    O2 6422   2.514   4.334  17.348 -0.0699 -0.5152  0.1326
  431MPD2     C 6423   3.540   3.813  12.700 -0.1789  0.0884  0.9535
  431MPD2    C1 6424   3.496   3.878  12.592  0.3355 -0.0820  0.4619
  431MPD2    C2 6425   3.477   3.805  12.475  0.5965 -0.0008  0.0593
  431MPD2    C3 6426   3.490   3.667  12.471  0.3280 -0.0286  0.3956
  431MPD2    C4 6427   3.525   3.607  12.583  0.0727  0.1560 -0.0397
  431MPD2    C5 6428   3.549   3.680  12.699  0.3002  0.9150  0.4709
  431MPD2     H 6429   3.447   3.864  12.389 -0.5706 -1.7214 -0.7128
  431MPD2    H1 6430   3.556   3.504  12.574  0.2086  0.0540  1.6005
  431MPD2    H2 6431   3.550   3.868  12.793 -0.8485  2.8983 -0.6400
  431MPD2    H3 6432   3.594   3.618  12.776  0.8551  0.9818  0.1990
  431MPD2     N 6433   3.459   3.584  12.362 -0.0652  0.3124 -0.2398
  431MPD2    H5 6434   3.481   3.485  12.372  2.1296  0.7903 -0.3490
  431MPD2    N1 6435   3.463   4.019  12.607  0.4847 -0.8129 -0.0520
  431MPD2    H7 6436   3.478   4.052  12.702 -1.8199 -0.0942  0.0539
  432TMC3    C1 6437   3.378   3.501  12.170  0.6754  0.4015 -0.5841
  432TMC3    C2 6438   3.441   3.482  12.052 -0.2701 -0.0113 -0.4459
  432TMC3    C3 6439   3.432   3.355  12.009  0.3590  0.2119  0.1903
  432TMC3    C4 6440   3.325   3.406  12.249 -0.2580  0.0907  0.1529
  432TMC3    C5 6441   3.320   3.278  12.200  0.1075  0.2531  0.2680
  432TMC3    C6 6442   3.370   3.255  12.079  0.0008  0.1301 -0.1682
  432TMC3     C 6443   3.409   3.623  12.240  0.2311 -0.2817 -0.6215
  432TMC3     O 6444   3.342   3.723  12.212 -0.4511 -0.4178 -0.2516
  432TMC3     H 6445   3.489   3.559  11.993  3.9828 -1.1569  1.4888
  432TMC3    H1 6446   3.275   3.443  12.338 -0.3095  0.4139 -0.0099
  432TMC3    H2 6447   3.360   3.154  12.041 -2.2109  1.3406 -2.7945
  432TMC3    C7 6448   3.266   3.172  12.290  0.8084  0.0884  0.4059
  432TMC3    C8 6449   3.506   3.307  11.893  0.2507  0.7592  0.0163
  432TMC3    O1 6450   3.316   3.059  12.272  0.6114  0.3622  0.1841
  432TMC3    O2 6451   3.470   3.215  11.825  0.2328 -0.8121 -0.3617
  433MPD2     C 6452   2.092   2.840  11.236  0.0009  0.8959  0.6476
  433MPD2    C1 6453   2.078   2.714  11.299  0.2426  0.3704  0.0525
  433MPD2    C2 6454   2.084   2.702  11.439 -0.1468 -0.2898  1.0750
  433MPD2    C3 6455   2.130   2.804  11.515 -0.0720  0.2318 -0.6888
  433MPD2    C4 6456   2.162   2.928  11.450  1.0870  0.1408 -0.2881
  433MPD2    C5 6457   2.145   2.940  11.314  0.0122 -0.4053  0.2297
  433MPD2     H 6458   2.063   2.608  11.487 -0.7749  0.8804  3.0783
  433MPD2    H1 6459   2.196   3.015  11.505  1.7231 -0.6420  0.5485
  433MPD2    H2 6460   2.097   2.854  11.129 -1.8520  0.3307  0.4880
  433MPD2    H3 6461   2.170   3.034  11.267  0.1900  0.1069  1.3548
  433MPD2     N 6462   2.149   2.784  11.656 -0.1407  0.0269  0.4201
  433MPD2    H5 6463   2.108   2.697  11.689 -1.2808  0.3733 -0.0828
  433MPD2    N1 6464   2.046   2.600  11.213 -0.1222 -0.2327 -0.1736
  433MPD2    H7 6465   2.062   2.607  11.113  0.6814 -2.6132 -0.2044
  434TMC3    C1 6466   2.036   2.368  11.172  0.6648  0.1632 -0.7745
  434TMC3    C2 6467   2.022   2.249  11.233  0.2125  0.6721 -0.4022
  434TMC3    C3 6468   2.068   2.134  11.174 -0.4419  0.1299 -0.1547
  434TMC3    C4 6469   2.106   2.379  11.057 -0.3591  0.1771 -0.7294
  434TMC3    C5 6470   2.150   2.254  11.006 -0.6612  0.5445  0.4175
  434TMC3    C6 6471   2.146   2.133  11.063 -0.0596 -0.0407  0.1052
  434TMC3     C 6472   2.016   2.477  11.262 -0.3928  0.1407  0.1173
  434TMC3     O 6473   1.982   2.439  11.377  0.1700 -0.0844 -0.1655
  434TMC3     H 6474   1.949   2.239  11.313 -0.5636 -2.6192 -1.5252
  434TMC3    H1 6475   2.136   2.473  11.013 -0.4522  1.1767  1.3370
  434TMC3    H2 6476   2.202   2.049  11.023  1.9676  1.0962  0.5661
  434TMC3    C7 6477   2.205   2.249  10.869 -0.0475 -0.5752 -0.4150
  434TMC3    C8 6478   2.105   2.040  11.281  0.1050  0.2260  0.4404
  434TMC3    O1 6479   2.266   2.145  10.847 -0.0500 -0.3012 -0.5328
  434TMC3    O2 6480   2.136   2.079  11.394  0.1307  0.4672 -0.1101
  435MPD2     C 6481   3.959   2.705  15.694  0.1532  0.4495 -0.4378
  435MPD2    C1 6482   3.938   2.713  15.828 -0.2914  0.2745  0.0338
  435MPD2    C2 6483   4.021   2.652  15.918  0.3707  0.0145 -0.4304
  435MPD2    C3 6484   4.126   2.578  15.875  0.2304 -0.6980 -0.4714
  435MPD2    C4 6485   4.142   2.564  15.736  0.1945 -1.2010  0.0611
  435MPD2    C5 6486   4.060   2.622  15.643  0.1413  0.1242  0.0550
  435MPD2     H 6487   3.999   2.637  16.023  4.8803 -2.6905  0.1705
  435MPD2    H1 6488   4.220   2.496  15.704  1.1423  0.0438 -0.2715
  435MPD2    H2 6489   3.895   2.755  15.622 -2.3084  0.9985  2.1563
  435MPD2    H3 6490   4.079   2.619  15.536  1.8658 -1.3909  0.4132
  435MPD2     N 6491   4.203   2.506  15.966 -0.4248  0.2229  0.4421
  435MPD2    H5 6492   4.188   2.523  16.065  1.2471  4.7350 -0.0765
  435MPD2    N1 6493   3.826   2.773  15.888 -0.2949  0.1485 -0.0705
  435MPD2    H7 6494   3.814   2.751  15.987  0.5487  0.8881  0.1970
  436TMC3    C1 6495   3.453   2.789  16.059 -0.2058 -0.0390 -0.2131
  436TMC3    C2 6496   3.569   2.780  15.986  0.4201 -0.2668  0.6144
  436TMC3    C3 6497   3.626   2.889  15.931  0.2563 -0.5017 -0.2320
  436TMC3    C4 6498   3.395   2.916  16.074 -0.5012 -0.1230 -0.1195
  436TMC3    C5 6499   3.459   3.021  16.013  0.4710  0.5831 -0.0566
  436TMC3    C6 6500   3.576   3.011  15.938  0.7479 -0.1945  0.0639
  436TMC3     C 6501   3.386   2.667  16.107  0.0849 -0.0740 -0.1173
  436TMC3     O 6502   3.433   2.564  16.058 -0.4609  0.3614 -0.1042
  436TMC3     H 6503   3.609   2.679  15.977 -2.3154 -1.1710 -1.4603
  436TMC3    H1 6504   3.289   2.927  16.098 -0.7092 -0.3537 -0.9152
  436TMC3    H2 6505   3.621   3.100  15.895 -0.5751  1.0984  1.3482
  436TMC3    C7 6506   3.403   3.157  16.029 -0.0550 -0.8599  0.5699
  436TMC3    C8 6507   3.738   2.863  15.835  0.3023  0.0423 -0.2991
  436TMC3    O1 6508   3.417   3.218  15.924  0.3732  0.0265  0.3507
  436TMC3    O2 6509   3.733   2.918  15.726  0.0149  0.0474  0.5901
  437TMC3    C1 6510   2.773   4.475  12.216 -0.2400 -0.6006  0.4807
  437TMC3    C2 6511   2.681   4.448  12.121 -0.6241  0.0270  0.6319
  437TMC3    C3 6512   2.651   4.546  12.029 -0.4073  0.7359  0.2160
  437TMC3    C4 6513   2.820   4.600  12.232 -0.5560  0.1511  0.3039
  437TMC3    C5 6514   2.786   4.693  12.138 -0.3979 -0.3369 -0.0314
  437TMC3    C6 6515   2.693   4.673  12.042  0.4948 -0.7739 -0.1218
  437TMC3     C 6516   2.813   4.362  12.305  0.5129  0.9176 -0.7133
  437TMC3     O 6517   2.747   4.257  12.289 -0.3306  0.0589  0.0623
  437TMC3     H 6518   2.639   4.348  12.116 -2.8054  0.8577  2.4973
  437TMC3    H1 6519   2.876   4.627  12.321  1.0134 -1.3612 -0.2217
  437TMC3    H2 6520   2.676   0.027  11.969  1.9806  0.0603  0.4227
  437TMC3    C7 6521   2.842   0.101  12.150 -0.4564 -0.0895 -0.7528
  437TMC3    C8 6522   2.536   4.526  11.943 -1.3051 -0.2551 -0.2487
  437TMC3    O1 6523   2.769   0.190  12.114  0.0806  0.3043 -0.0768
  437TMC3    O2 6524   2.482   4.622  11.893 -0.0965  0.4356 -0.8909
  438MPD2     C 6525   0.171   0.411  16.941 -0.4841  0.4459 -0.2693
  438MPD2    C1 6526   0.251   0.323  17.010 -0.3711  0.3150 -0.6449
  438MPD2    C2 6527   0.212   0.266  17.129  0.3406  0.5290 -0.1952
  438MPD2    C3 6528   0.084   0.286  17.180 -0.1976 -0.3965  0.6224
  438MPD2    C4 6529   0.002   0.379  17.111  0.2745  0.6869 -0.6757
  438MPD2    C5 6530   0.048   0.438  16.994 -0.0724 -0.9222  0.3930
  438MPD2     H 6531   0.285   0.201  17.175 -0.0463 -0.4366 -0.9570
  438MPD2    H1 6532   4.628   0.396  17.153  0.3493 -0.9644  0.1910
  438MPD2    H2 6533   0.202   0.455  16.848 -0.2063 -1.2905 -0.9947
  438MPD2    H3 6534   4.699   0.503  16.947 -0.0554 -0.3683  1.1189
  438MPD2     N 6535   0.038   0.210  17.294 -0.5417 -0.8868  0.1875
  438MPD2    H5 6536   4.667   0.220  17.328 -0.8570 -1.4792 -0.5336
  438MPD2    N1 6537   0.375   0.286  16.965 -1.0859  0.8038  0.5486
  438MPD2    H7 6538   0.427   0.226  17.029 -1.5929  0.2213  0.4092
  439TMC3    C1 6539   0.555   0.248  16.820  0.2447  0.3262  0.3699
  439TMC3    C2 6540   0.607   0.265  16.691 -0.0088 -0.2284  0.3055
  439TMC3    C3 6541   0.703   0.175  16.646 -0.7257 -0.1907  0.6267
  439TMC3    C4 6542   0.605   0.159  16.905  0.2526 -0.0084 -0.0805
  439TMC3    C5 6543   0.710   0.077  16.862  0.1742  0.0277 -0.7160
  439TMC3    C6 6544   0.758   0.081  16.731  0.1130  0.1910  0.5244
  439TMC3     C 6545   0.434   0.322  16.850  0.4816  0.1893  0.0250
  439TMC3     O 6546   0.388   0.379  16.755  0.5115  0.1136 -0.4264
  439TMC3     H 6547   0.556   0.335  16.626 -3.0666 -2.4448  0.3072
  439TMC3    H1 6548   0.572   0.154  17.008  1.7396 -2.6123  0.2663
  439TMC3    H2 6549   0.838   0.014  16.704 -0.5891 -0.7192  0.7036
  439TMC3    C7 6550   0.770   4.703  16.949  0.5701 -0.0845 -0.7477
  439TMC3    C8 6551   0.687   0.117  16.508 -0.6129 -0.5687 -0.0321
  439TMC3    O1 6552   0.857   4.630  16.902 -0.2208  0.3643 -0.3270
  439TMC3    O2 6553   0.672   0.192  16.413  0.0530 -0.0688  0.2668
  440MPD2     C 6554   3.997   0.909  14.975  0.6180 -0.2018 -0.2090
  440MPD2    C1 6555   3.937   0.873  15.092  0.8412 -0.5781 -0.2467
  440MPD2    C2 6556   4.001   0.780  15.174  0.6497 -0.8211 -0.3531
  440MPD2    C3 6557   4.122   0.729  15.137 -0.1931  0.4754 -0.2634
  440MPD2    C4 6558   4.180   0.766  15.016  0.5982  0.4274 -0.5714
  440MPD2    C5 6559   4.118   0.851  14.932 -0.6835  0.3445 -0.5203
  440MPD2     H 6560   3.957   0.751  15.269  0.3917 -0.6212 -0.4115
  440MPD2    H1 6561   4.272   0.714  14.990  2.6515  3.6541  0.2377
  440MPD2    H2 6562   3.933   0.968  14.911  2.0548 -0.3247 -1.7465
  440MPD2    H3 6563   4.159   0.867  14.833  1.0682  1.8352  0.4565
  440MPD2     N 6564   4.203   0.655  15.221  0.1725  0.3174  0.6484
  440MPD2    H5 6565   4.300   0.662  15.191 -0.3053  0.8786 -0.7837
  440MPD2    N1 6566   3.811   0.916  15.139  0.0763 -0.7658  0.1137
  440MPD2    H7 6567   3.781   0.904  15.235  1.3471  2.2424  0.9123
  441TMC3    C1 6568   4.282   0.599  15.426  0.1977  0.2030 -0.3838
  441TMC3    C2 6569   4.367   0.706  15.431 -0.5887  0.3053 -0.8990
  441TMC3    C3 6570   4.437   0.727  15.543  0.4938  0.2796 -0.0574
  441TMC3    C4 6571   4.269   0.515  15.532  0.5388 -0.1514  0.0032
  441TMC3    C5 6572   4.344   0.533  15.643 -0.3046 -0.5641 -0.1725
  441TMC3    C6 6573   4.437   0.638  15.648 -0.1265 -0.3872 -0.1233
  441TMC3     C 6574   4.164   0.613  15.347 -0.4641  1.1700  0.0074
  441TMC3     O 6575   4.054   0.577  15.392  0.4799  0.0362 -0.2074
  441TMC3     H 6576   4.356   0.781  15.353 -0.6546  1.4788  0.2363
  441TMC3    H1 6577   4.202   0.429  15.529  0.6136 -0.1998 -0.2305
  441TMC3    H2 6578   4.492   0.667  15.737 -0.9979  0.1690  0.2354
  441TMC3    C7 6579   4.268   0.514  15.770  0.4483 -0.2902  0.2268
  441TMC3    C8 6580   4.472   0.862  15.583  0.5060  0.0040  0.1885
  441TMC3    O1 6581   4.149   0.500  15.755 -0.2060  0.0831  0.3920
  441TMC3    O2 6582   4.582   0.886  15.638 -0.0592  0.5132 -0.7328
  442MPD2     C 6583   1.789   1.337  17.459  0.6641 -0.6025 -0.1125
  442MPD2    C1 6584   1.761   1.383  17.332 -0.0727 -0.4894  0.2725
  442MPD2    C2 6585   1.795   1.300  17.224 -0.5033 -0.3718 -0.0289
  442MPD2    C3 6586   1.840   1.170  17.244  0.2818  0.2344  0.5670
  442MPD2    C4 6587   1.870   1.131  17.374  0.3456  0.1441  0.2922
  442MPD2    C5 6588   1.851   1.217  17.477  0.2760 -0.7355  1.0898
  442MPD2     H 6589   1.778   1.331  17.122 -0.2999  1.7330  0.5902
  442MPD2    H1 6590   1.891   1.029  17.403 -0.4206  0.1658  0.9365
  442MPD2    H2 6591   1.764   1.389  17.551 -0.1989  0.7254 -1.1017
  442MPD2    H3 6592   1.871   1.185  17.579 -1.0932  1.2074  1.9723
  442MPD2     N 6593   1.870   1.084  17.140 -0.2085  0.2194 -0.4601
  442MPD2    H5 6594   1.905   0.993  17.166 -2.5225 -0.5518 -0.0449
  442MPD2    N1 6595   1.693   1.508  17.307 -1.2069 -0.0217  0.1910
  442MPD2    H7 6596   1.668   1.520  17.209 -2.7802 -0.6076  0.5215
  443TMC3    C1 6597   1.562   1.699  17.355 -0.0488  0.5344  0.6832
  443TMC3    C2 6598   1.589   1.728  17.225  0.2564 -0.0930 -0.5603
  443TMC3    C3 6599   1.487   1.748  17.137 -0.3741  0.2759 -0.4260
  443TMC3    C4 6600   1.437   1.693  17.401 -0.6298 -0.4358  0.0333
  443TMC3    C5 6601   1.335   1.700  17.313 -0.4241  0.3017 -0.3222
  443TMC3    C6 6602   1.355   1.732  17.174  0.4426 -0.2552 -0.3792
  443TMC3     C 6603   1.651   1.598  17.404 -0.2255 -0.3287 -0.3751
  443TMC3     O 6604   1.656   1.579  17.520  0.2304  0.5833  0.5793
  443TMC3     H 6605   1.690   1.733  17.188  0.4017  1.8579  0.0887
  443TMC3    H1 6606   1.416   1.652  17.499 -1.7412  1.0409  0.4019
  443TMC3    H2 6607   1.283   1.749  17.094  0.8664  0.3936 -0.6271
  443TMC3    C7 6608   1.234   1.602  17.338 -0.0894  0.5189  0.0427
  443TMC3    C8 6609   1.514   1.714  17.004 -0.2064 -0.1728  0.4145
  443TMC3    O1 6610   1.237   1.526  17.432 -0.4248  0.3158 -0.0184
  443TMC3    O2 6611   1.590   1.621  16.996  0.3084 -0.7053 -0.6240
  444MPD2     C 6612   2.278   0.795  17.582 -0.1142  0.8231 -0.1897
  444MPD2    C1 6613   2.219   0.698  17.502 -0.0977 -0.1544  0.4459
  444MPD2    C2 6614   2.277   0.665  17.382  0.0231 -0.0829  0.0899
  444MPD2    C3 6615   2.386   0.740  17.337 -0.1954 -0.1094  0.2292
  444MPD2    C4 6616   2.435   0.836  17.425 -0.1326  0.5177 -0.3869
  444MPD2    C5 6617   2.387   0.856  17.547 -0.7244  0.2092  0.1498
  444MPD2     H 6618   2.241   0.584  17.320 -0.8644 -1.0001  1.8091
  444MPD2    H1 6619   2.530   0.882  17.403 -0.4667  0.2441 -2.3644
  444MPD2    H2 6620   2.249   0.810  17.686 -1.7565  1.3912 -0.7363
  444MPD2    H3 6621   2.436   0.928  17.612 -0.9055  0.9357 -0.5197
  444MPD2     N 6622   2.446   0.698  17.218 -0.1303 -0.3815  0.0560
  444MPD2    H5 6623   2.411   0.616  17.171  2.6229 -1.5397  0.0231
  444MPD2    N1 6624   2.100   0.634  17.543 -0.0095  0.4716  0.4216
  444MPD2    H7 6625   2.062   0.574  17.471  3.3119  0.1802 -1.0842
  445TMC3    C1 6626   2.584   0.679  17.033  0.1686 -0.2221 -0.1907
  445TMC3    C2 6627   2.483   0.610  16.969  0.7400  0.2436 -0.6073
  445TMC3    C3 6628   2.528   0.527  16.869 -0.1680 -0.1180  0.0793
  445TMC3    C4 6629   2.713   0.659  17.002 -0.3450 -0.2124 -0.2777
  445TMC3    C5 6630   2.751   0.565  16.910  0.5442 -0.1790 -0.2855
  445TMC3    C6 6631   2.661   0.494  16.842  0.2936  0.1275 -0.1565
  445TMC3     C 6632   2.558   0.748  17.158 -0.8534  0.6409  0.2375
  445TMC3     O 6633   2.648   0.821  17.196  0.3723 -0.0789 -0.3373
  445TMC3     H 6634   2.380   0.642  16.967  0.3267 -1.0941 -0.5393
  445TMC3    H1 6635   2.794   0.706  17.056 -1.2370 -0.5504  1.3732
  445TMC3    H2 6636   2.693   0.434  16.757  1.1092  2.0468 -1.2173
  445TMC3    C7 6637   2.886   0.544  16.871 -0.1431  0.2133  0.1654
  445TMC3    C8 6638   2.423   0.430  16.850 -0.1132 -0.4642  0.3026
  445TMC3    O1 6639   2.905   0.582  16.759 -0.2471 -0.5974 -0.1683
  445TMC3    O2 6640   2.308   0.467  16.856  0.2940  0.5373 -0.2394
  446MPD2     C 6641   1.780   1.759  11.714 -0.2134 -0.2734 -0.6381
  446MPD2    C1 6642   1.802   1.800  11.582  0.0996 -0.5037 -0.5547
  446MPD2    C2 6643   1.883   1.912  11.576 -0.1183  0.0490  0.6214
  446MPD2    C3 6644   1.956   1.966  11.682 -0.4949 -0.2897  0.1268
  446MPD2    C4 6645   1.922   1.928  11.806 -0.3354  0.5084 -0.1786
  446MPD2    C5 6646   1.832   1.826  11.822  0.2845  0.3149 -0.0019
  446MPD2     H 6647   1.881   1.952  11.475 -3.3180 -2.3837 -0.2968
  446MPD2    H1 6648   1.972   1.971  11.893 -2.7989 -1.5045  2.2175
  446MPD2    H2 6649   1.723   1.669  11.735 -0.4754 -0.1512 -0.8424
  446MPD2    H3 6650   1.805   1.784  11.918 -0.0770 -0.3115 -0.3802
  446MPD2     N 6651   2.052   2.065  11.650 -0.4659 -0.1254  0.4365
  446MPD2    H5 6652   2.081   2.082  11.555 -2.1005  3.1512  0.5490
  446MPD2    N1 6653   1.752   1.739  11.471 -0.4195 -0.1578 -0.3020
  446MPD2    H7 6654   1.770   1.785  11.382  1.0014  0.3522  0.2534
  447TMC3    C1 6655   2.253   2.185  11.689  0.0251  0.6006 -0.4244
  447TMC3    C2 6656   2.237   2.264  11.582 -0.1601  0.4949 -0.4527
  447TMC3    C3 6657   2.357   2.306  11.524 -0.0875 -0.0500  0.3433
  447TMC3    C4 6658   2.371   2.135  11.736  1.2214 -0.4300  0.3842
  447TMC3    C5 6659   2.485   2.177  11.675 -0.3201 -0.2629  0.2466
  447TMC3    C6 6660   2.475   2.265  11.577 -0.0885  0.5808  0.0575
  447TMC3     C 6661   2.136   2.120  11.745  0.5176  0.6599 -0.3410
  447TMC3     O 6662   2.144   2.113  11.867  0.5039  0.1370  0.1760
  447TMC3     H 6663   2.142   2.290  11.535  0.1610  1.1225 -0.7526
  447TMC3    H1 6664   2.369   2.057  11.812 -0.9683 -1.3189 -0.5910
  447TMC3    H2 6665   2.576   2.285  11.542 -1.4789 -0.1035 -4.3083
  447TMC3    C7 6666   2.588   2.074  11.660  0.0623  0.3542 -0.4027
  447TMC3    C8 6667   2.367   2.311  11.379 -0.0097 -0.4759 -0.4537
  447TMC3    O1 6668   2.705   2.110  11.655  0.2846  0.1316  0.0360
  447TMC3    O2 6669   2.314   2.401  11.316 -0.6515 -0.5598  0.2416
  448TMC3    C1 6670   0.205   1.762  17.233  0.2387 -0.1318 -0.6942
  448TMC3    C2 6671   0.160   1.642  17.184 -0.1764 -0.6205  0.1586
  448TMC3    C3 6672   0.173   1.529  17.260 -0.6027  0.1434 -0.3068
  448TMC3    C4 6673   0.257   1.773  17.353 -0.9472  0.3129  0.3158
  448TMC3    C5 6674   0.278   1.657  17.424  0.9113  0.1070  0.5814
  448TMC3    C6 6675   0.233   1.535  17.379  0.1925  0.2218 -0.0733
  448TMC3     C 6676   0.244   1.862  17.134  0.2982  0.1198 -0.0330
  448TMC3     O 6677   0.174   1.871  17.032 -0.0080 -0.1523 -0.4760
  448TMC3     H 6678   0.139   1.635  17.078  2.7049  2.7666 -0.6454
  448TMC3    H1 6679   0.286   1.863  17.406 -0.5550  0.1155  0.4294
  448TMC3    H2 6680   0.237   1.447  17.442 -1.5780  0.9866  1.1161
  448TMC3    C7 6681   0.385   1.654  17.528 -0.1250 -0.4894 -0.5179
  448TMC3    C8 6682   0.170   1.404  17.192  0.5963  0.4350 -0.4726
  448TMC3    O1 6683   0.421   1.766  17.570 -0.2921 -0.1084 -0.5731
  448TMC3    O2 6684   0.221   1.311  17.255  1.6813 -0.0733 -0.7864
  449MPD2     C 6685   1.386   4.535  12.610 -0.8566  0.2620 -0.2551
  449MPD2    C1 6686   1.473   4.459  12.688 -0.0496 -0.2507  0.7325
  449MPD2    C2 6687   1.487   4.323  12.654  0.2233 -0.4205 -0.5588
  449MPD2    C3 6688   1.429   4.266  12.545  0.5411 -0.0784 -0.1658
  449MPD2    C4 6689   1.348   4.344  12.463 -0.7723  0.8883 -1.0034
  449MPD2    C5 6690   1.337   4.474  12.497  0.6338  0.2039  0.1701
  449MPD2     H 6691   1.559   4.267  12.712 -1.4197 -3.6458 -1.6393
  449MPD2    H1 6692   1.293   4.308  12.377  0.5272 -1.3854 -0.8919
  449MPD2    H2 6693   1.369   4.641  12.629  0.4673  0.2812  0.8123
  449MPD2    H3 6694   1.270   4.531  12.433  0.6098  0.8692  0.7982
  449MPD2     N 6695   1.442   4.127  12.524  0.0913 -0.1427 -0.3722
  449MPD2    H5 6696   1.490   4.078  12.599  1.7416  0.3925 -1.0683
  449MPD2    N1 6697   1.556   4.507  12.787 -0.3155 -0.0631  0.6664
  449MPD2    H7 6698   1.611   4.436  12.834  1.1677  1.0122  0.5306
  450TMC3    C1 6699   1.691   4.640  12.925 -0.1833  0.7297  0.2385
  450TMC3    C2 6700   1.785   0.001  12.886  0.0429  0.2396  0.1799
  450TMC3    C3 6701   1.910   4.682  12.891  0.3823 -0.2031  0.3604
  450TMC3    C4 6702   1.720   4.520  12.977 -0.1985 -0.5262 -0.4843
  450TMC3    C5 6703   1.852   4.477  12.990  0.4123 -0.0378 -0.0823
  450TMC3    C6 6704   1.949   4.555  12.935 -0.0018  0.0898 -0.2096
  450TMC3     C 6705   1.583   4.634  12.820 -0.8659 -0.5534  0.8778
  450TMC3     O 6706   1.532   0.020  12.799 -0.9705 -0.0189 -0.3630
  450TMC3     H 6707   1.738   0.089  12.843 -0.2513 -0.3182 -0.6486
  450TMC3    H1 6708   1.642   4.448  12.999  0.0134 -0.7133 -0.3451
  450TMC3    H2 6709   2.053   4.527  12.943 -0.1096 -0.5325 -0.9659
  450TMC3    C7 6710   1.851   4.342  12.930  0.3827 -0.7329 -0.0430
  450TMC3    C8 6711   2.008   0.062  12.861  0.2284 -0.1377  0.3125
  450TMC3    O1 6712   1.758   4.317  12.851 -0.6317 -0.3785 -0.2811
  450TMC3    O2 6713   1.949   0.160  12.823  0.0964 -0.4185  0.3407
  451MPD2     C 6714   3.303   3.932   1.914 -0.4522 -0.1482  0.2541
  451MPD2    C1 6715   3.290   3.981   1.786 -0.0366 -0.3487  0.5318
  451MPD2    C2 6716   3.329   3.892   1.684 -0.6378  0.5569  0.4792
  451MPD2    C3 6717   3.384   3.767   1.711 -0.3862  0.4300 -0.4524
  451MPD2    C4 6718   3.408   3.732   1.840  0.1977  0.9046 -0.0430
  451MPD2    C5 6719   3.365   3.812   1.938  0.0716  0.2535 -0.9808
  451MPD2     H 6720   3.324   3.925   1.581 -0.7765 -1.0501 -0.0273
  451MPD2    H1 6721   3.476   3.654   1.874  1.2139  0.7110 -2.4859
  451MPD2    H2 6722   3.253   3.980   1.998 -0.7098 -2.5015  1.4196
  451MPD2    H3 6723   3.377   3.764   2.035 -0.7497  2.0978  0.0226
  451MPD2     N 6724   3.448   3.685   1.619 -0.4377  0.1977  0.5487
  451MPD2    H5 6725   3.485   3.595   1.647 -0.0869 -0.0485 -0.6739
  451MPD2    N1 6726   3.231   4.109   1.772 -0.0651  0.2340 -0.7484
  451MPD2    H7 6727   3.221   4.163   1.857  1.6826 -1.0894  0.2784
  452TMC3    C1 6728   3.498   3.584   1.425  0.0792 -0.2697 -1.4139
  452TMC3    C2 6729   3.467   3.460   1.485 -1.1592 -0.8659  0.4505
  452TMC3    C3 6730   3.485   3.352   1.401  0.7220  0.1394  0.5372
  452TMC3    C4 6731   3.560   3.587   1.304  0.2140  0.5032 -0.5191
  452TMC3    C5 6732   3.582   3.473   1.234  0.1064 -0.1689 -0.7112
  452TMC3    C6 6733   3.534   3.356   1.277 -0.3073  0.6096 -0.0472
  452TMC3     C 6734   3.441   3.702   1.482 -1.1329 -0.1106 -0.1392
  452TMC3     O 6735   3.393   3.784   1.409  0.5483 -0.4198  0.2245
  452TMC3     H 6736   3.407   3.449   1.575 -2.1620  1.5979  0.0968
  452TMC3    H1 6737   3.563   3.683   1.254  0.1527  0.4633 -0.5992
  452TMC3    H2 6738   3.543   3.273   1.207  1.1461  0.1728  0.6721
  452TMC3    C7 6739   3.620   3.488   1.097  0.0496 -0.1382  0.2597
  452TMC3    C8 6740   3.507   3.215   1.469  0.1785 -0.5027  0.0528
  452TMC3    O1 6741   3.562   3.415   1.015  0.2424  0.0258 -0.5496
  452TMC3    O2 6742   3.588   3.137   1.419 -0.1185  0.0228 -0.5177
  453TMC3    C1 6743   4.449   1.453  12.225  0.2345 -0.2828  0.2049
  453TMC3    C2 6744   4.393   1.327  12.207  0.5626 -0.0288  0.5335
  453TMC3    C3 6745   4.263   1.313  12.172 -0.4765  0.6517  1.0127
  453TMC3    C4 6746   4.371   1.567  12.211  0.0227  0.0886 -0.9037
  453TMC3    C5 6747   4.236   1.544  12.202 -0.2958  0.0874 -0.0046
  453TMC3    C6 6748   4.179   1.418  12.179 -0.7952  0.3747  0.0105
  453TMC3     C 6749   4.586   1.463  12.279  0.4495 -0.5562  0.8671
  453TMC3     O 6750   4.611   1.567  12.337  0.3327 -0.0195  0.2790
  453TMC3     H 6751   4.448   1.235  12.222 -0.5197 -0.9964 -1.3274
  453TMC3    H1 6752   4.414   1.665  12.229 -3.1573  2.1670 -4.5161
  453TMC3    H2 6753   4.076   1.409  12.146 -0.9227  1.5771  0.0682
  453TMC3    C7 6754   4.158   1.661  12.162 -0.2923  0.2007 -0.2008
  453TMC3    C8 6755   4.193   1.194  12.144  0.4803 -0.0488  0.1714
  453TMC3    O1 6756   4.211   1.748  12.100 -0.0219 -0.0077  0.5794
  453TMC3    O2 6757   4.077   1.199  12.175  0.4103  0.3602 -0.2482
  454MPD2     C 6758   2.945   0.837  15.940 -0.0199  0.7228  0.6305
  454MPD2    C1 6759   2.864   0.935  16.000  0.0709 -0.3923 -0.0749
  454MPD2    C2 6760   2.866   0.939  16.137 -0.3382  0.4959  0.1520
  454MPD2    C3 6761   2.939   0.851  16.214 -0.0596  0.4771  0.4753
  454MPD2    C4 6762   3.015   0.751  16.149  1.5893  0.1972  0.0065
  454MPD2    C5 6763   3.019   0.749  16.016  0.4156  0.1122 -0.4949
  454MPD2     H 6764   2.806   1.013  16.188  1.4114  0.6247  2.0295
  454MPD2    H1 6765   3.082   0.685  16.202  3.3214  2.7862  1.0771
  454MPD2    H2 6766   2.940   0.823  15.833  0.9403  1.1023  0.5314
  454MPD2    H3 6767   3.073   0.668  15.969  1.6753 -0.6065  2.1403
  454MPD2     N 6768   2.921   0.842  16.352  0.4278 -0.1155  0.2319
  454MPD2    H5 6769   2.952   0.754  16.393 -1.1134 -0.8556 -0.1934
  454MPD2    N1 6770   2.776   1.023  15.933  0.1571 -0.2887 -0.1903
  454MPD2    H7 6771   2.719   1.080  15.994  0.2853 -1.6267  1.1817
  455TMC3    C1 6772   2.770   0.878  16.532 -0.2782 -0.3522 -1.1863
  455TMC3    C2 6773   2.679   0.971  16.581  0.7939  0.7499  0.3246
  455TMC3    C3 6774   2.561   0.921  16.632 -0.1388 -0.3237 -0.3399
  455TMC3    C4 6775   2.735   0.749  16.508  0.2433 -0.1960 -0.4926
  455TMC3    C5 6776   2.602   0.717  16.524  0.2772  0.3033  0.4152
  455TMC3    C6 6777   2.515   0.796  16.597  0.1655  0.3499  0.6773
  455TMC3     C 6778   2.856   0.937  16.432 -0.2111 -0.0809 -0.2047
  455TMC3     O 6779   2.840   1.058  16.414  0.3111  0.6905  0.7757
  455TMC3     H 6780   2.722   1.064  16.617  1.3722  0.6645 -0.1484
  455TMC3    H1 6781   2.809   0.672  16.488  0.2567 -0.0585 -0.9774
  455TMC3    H2 6782   2.408   0.779  16.597  0.2714 -0.2665  2.0921
  455TMC3    C7 6783   2.549   0.647  16.414  0.1772  0.7652  0.0360
  455TMC3    C8 6784   2.504   0.983  16.743 -0.1484  0.7473  0.1423
  455TMC3    O1 6785   2.611   0.670  16.315 -0.8932  0.4265 -0.0528
  455TMC3    O2 6786   2.548   1.092  16.774  0.4287  0.7743  0.3029
  456MPD2     C 6787   0.865   0.580  16.363  0.1787 -0.1263  0.2060
  456MPD2    C1 6788   0.906   0.495  16.465  0.6058  0.4541 -0.2918
  456MPD2    C2 6789   0.844   0.501  16.590  0.4005  0.1091  0.1981
  456MPD2    C3 6790   0.750   0.608  16.601  0.4969 -0.4134 -0.8013
  456MPD2    C4 6791   0.708   0.690  16.493  0.3642  0.0058 -0.2767
  456MPD2    C5 6792   0.769   0.675  16.373  0.1763  0.4492 -0.0408
  456MPD2     H 6793   0.870   0.440  16.676  1.2547  0.9757  0.5487
  456MPD2    H1 6794   0.629   0.764  16.488  0.8138  0.4840 -0.2898
  456MPD2    H2 6795   0.908   0.566  16.264  0.0386  0.4434  0.0671
  456MPD2    H3 6796   0.734   0.727  16.284  0.2111  0.2658 -0.1611
  456MPD2     N 6797   0.687   0.616  16.730 -0.2187  0.5723  0.1514
  456MPD2    H5 6798   0.727   0.564  16.807  0.1674  3.0278  1.6244
  456MPD2    N1 6799   1.002   0.393  16.433 -0.2315 -0.1236  0.7785
  456MPD2    H7 6800   1.045   0.400  16.341 -0.2352 -1.5521  0.6729
  457TMC3    C1 6801   0.519   0.682  16.889  0.7550  0.1061 -0.4543
  457TMC3    C2 6802   0.392   0.738  16.895 -0.7250  0.3996  0.6008
  457TMC3    C3 6803   0.335   0.753  17.014 -0.0561  0.4218 -0.0819
  457TMC3    C4 6804   0.586   0.636  17.001 -0.5032 -0.0241 -0.5349
  457TMC3    C5 6805   0.515   0.646  17.123 -0.2785  0.1034  0.1653
  457TMC3    C6 6806   0.386   0.691  17.126 -0.2841  0.3153 -0.6751
  457TMC3     C 6807   0.569   0.679  16.750 -0.1028  1.0924 -0.4580
  457TMC3     O 6808   0.499   0.740  16.668  0.0053  0.0312 -0.6481
  457TMC3     H 6809   0.342   0.783  16.810 -0.4842 -0.9203 -0.2481
  457TMC3    H1 6810   0.694   0.628  17.002 -0.5774 -0.2736  2.9842
  457TMC3    H2 6811   0.338   0.701  17.223 -0.2297 -2.9256 -0.2900
  457TMC3    C7 6812   0.587   0.658  17.249  0.3182 -0.1684  0.9619
  457TMC3    C8 6813   0.268   0.880  17.042  0.1440 -0.0377  0.0791
  457TMC3    O1 6814   0.688   0.585  17.264 -0.4476 -0.5200 -0.6108
  457TMC3    O2 6815   0.328   0.945  17.124  0.0482 -0.2277  0.1228
  458MPD2     C 6816   3.237   0.407  12.212  0.5709 -0.5609 -0.1004
  458MPD2    C1 6817   3.265   0.284  12.263  0.1621 -0.5063 -0.1332
  458MPD2    C2 6818   3.178   0.177  12.247  0.2064 -0.0656  0.0361
  458MPD2    C3 6819   3.054   0.202  12.200 -0.3646 -0.0033 -0.5087
  458MPD2    C4 6820   3.014   0.335  12.168 -0.3136 -0.1601 -0.2386
  458MPD2    C5 6821   3.111   0.434  12.172 -0.4468  0.3950  0.0765
  458MPD2     H 6822   3.208   0.079  12.284  1.3792  0.2173 -0.1800
  458MPD2    H1 6823   2.913   0.363  12.143  0.0852  1.7133  0.2123
  458MPD2    H2 6824   3.297   0.498  12.217  0.2178 -0.2430 -1.8027
  458MPD2    H3 6825   3.079   0.537  12.157 -1.6343  0.0699  0.3431
  458MPD2     N 6826   2.971   0.089  12.202 -0.4325  0.1792 -0.1815
  458MPD2    H5 6827   3.008   4.722  12.230  0.0481  0.2894 -0.4517
  458MPD2    N1 6828   3.396   0.282  12.328 -0.2319 -0.4961  0.6512
  458MPD2    H7 6829   3.450   0.366  12.310 -0.6527 -0.2714  0.4468
  459TMC3    C1 6830   3.552   0.203  12.488  0.1449 -0.9459 -0.3081
  459TMC3    C2 6831   3.649   0.287  12.434  0.3992  0.8530  0.3897
  459TMC3    C3 6832   3.769   0.292  12.497  0.5327  0.1858 -0.0140
  459TMC3    C4 6833   3.564   0.145  12.605  0.2261  0.8408  0.6987
  459TMC3    C5 6834   3.688   0.152  12.668 -0.8508 -0.5656  0.2297
  459TMC3    C6 6835   3.789   0.229  12.617  0.9570  0.2207  0.8718
  459TMC3     C 6836   3.431   0.191  12.422  0.5193  0.2276 -0.1993
  459TMC3     O 6837   3.363   0.094  12.457  0.1441  0.2520  0.1163
  459TMC3     H 6838   3.638   0.311  12.329 -0.0818  1.9252  0.6887
  459TMC3    H1 6839   3.480   0.088  12.643 -0.9539  2.7113  0.8775
  459TMC3    H2 6840   3.891   0.214  12.651  1.5358 -0.1565 -1.0323
  459TMC3    C7 6841   3.699   0.094  12.803  0.3264  0.3193  0.9220
  459TMC3    C8 6842   3.869   0.390  12.463 -0.1562 -0.0865  0.7277
  459TMC3    O1 6843   3.608   0.023  12.844  0.5109  0.3518  0.1950
  459TMC3    O2 6844   3.982   0.373  12.505 -0.2146  0.0409  0.2140
  460MPD2     C 6845   2.638   2.144  11.194 -0.0987 -0.2441 -0.2329
  460MPD2    C1 6846   2.534   2.232  11.213  0.1832  0.2975  0.0301
  460MPD2    C2 6847   2.499   2.315  11.106  0.5312  0.1119  0.2947
  460MPD2    C3 6848   2.567   2.310  10.983 -0.5081  0.0965  0.6738
  460MPD2    C4 6849   2.669   2.220  10.977 -0.1481 -0.0619 -0.6421
  460MPD2    C5 6850   2.702   2.134  11.075 -0.2004  0.1865  0.1037
  460MPD2     H 6851   2.433   2.399  11.126 -0.5862 -1.1132  1.7819
  460MPD2    H1 6852   2.719   2.197  10.883  0.6386 -3.2517  0.5576
  460MPD2    H2 6853   2.666   2.066  11.264  1.3128  1.0041  0.5930
  460MPD2    H3 6854   2.786   2.066  11.060  0.4461  0.8417  0.7596
  460MPD2     N 6855   2.541   2.395  10.871  0.4679 -0.5052  0.0539
  460MPD2    H5 6856   2.477   2.470  10.891  2.1812  0.5358  1.5769
  460MPD2    N1 6857   2.466   2.222  11.338 -0.8324 -0.5025 -0.0954
  460MPD2    H7 6858   2.482   2.148  11.406 -1.4144 -1.7833 -1.3355
  461TMC3    C1 6859   2.520   2.460  10.627 -0.1093 -0.4066 -0.2717
  461TMC3    C2 6860   2.535   2.421  10.497  0.1223 -0.7795  0.6831
  461TMC3    C3 6861   2.540   2.511  10.397  0.7396 -0.1978  0.9132
  461TMC3    C4 6862   2.527   2.589  10.662  0.8863  0.1441 -0.4964
  461TMC3    C5 6863   2.539   2.682  10.562 -0.1728  0.1487 -0.0489
  461TMC3    C6 6864   2.540   2.646  10.432  0.1716 -0.0484  0.1351
  461TMC3     C 6865   2.572   2.368  10.733  0.6298  0.6031  0.5858
  461TMC3     O 6866   2.606   2.257  10.689 -0.2516 -0.3621 -0.1420
  461TMC3     H 6867   2.531   2.315  10.473  1.2760 -1.1915  2.2908
  461TMC3    H1 6868   2.529   2.630  10.762 -1.6227 -0.8676 -0.0378
  461TMC3    H2 6869   2.560   2.724  10.360 -2.8982 -0.2927 -0.9863
  461TMC3    C7 6870   2.546   2.827  10.591 -0.2149  0.7567 -0.5000
  461TMC3    C8 6871   2.619   2.473  10.282  0.8904 -0.5976 -0.3938
  461TMC3    O1 6872   2.535   2.896  10.493  0.2107  0.3415  0.2323
  461TMC3    O2 6873   2.668   2.364  10.288 -0.5828  0.3253  0.4471
  462TMC3    C1 6874   2.052   2.685  17.663  0.2337  0.1841  0.1581
  462TMC3    C2 6875   2.074   2.586  17.573 -0.1743  0.6053 -0.3822
  462TMC3    C3 6876   1.994   2.469  17.580 -0.6291 -0.4070 -0.0645
  462TMC3    C4 6877   1.975   2.654   0.071  0.0927  0.6687  0.4818
  462TMC3    C5 6878   1.911   2.533   0.083 -0.1946  0.2681  0.0269
  462TMC3    C6 6879   1.896   2.452  17.670  0.3368  0.0848  0.6709
  462TMC3     C 6880   2.084   2.826  17.636 -0.7181 -0.0964  0.4908
  462TMC3     O 6881   2.177   2.852  17.562  0.6678  0.0385  0.5175
  462TMC3     H 6882   2.106   2.612  17.473 -0.8554  0.5234 -0.6204
  462TMC3    H1 6883   1.954   2.729   0.146 -1.8927  1.7881 -1.1666
  462TMC3    H2 6884   1.839   2.360  17.671 -0.0876  0.3468  0.3131
  462TMC3    C7 6885   1.857   2.500   0.213 -0.3688  0.4471 -0.6928
  462TMC3    C8 6886   1.999   2.395  17.464 -0.3877  0.5426 -0.1250
  462TMC3    O1 6887   1.758   2.428   0.203  0.1196 -0.6020 -0.2976
  462TMC3    O2 6888   1.895   2.341  17.431  0.0302 -0.0673 -0.2310
  463MPD2     C 6889   3.550   1.678   2.432 -0.6735 -0.3938 -0.0591
  463MPD2    C1 6890   3.471   1.761   2.351  0.2932 -0.1887 -0.4399
  463MPD2    C2 6891   3.540   1.842   2.264 -0.8236  0.4653  0.4276
  463MPD2    C3 6892   3.675   1.838   2.250  0.3907  0.0989 -0.6946
  463MPD2    C4 6893   3.750   1.762   2.336  0.1517  0.1373 -0.2002
  463MPD2    C5 6894   3.690   1.682   2.428  0.1537 -0.7224  0.2688
  463MPD2     H 6895   3.476   1.905   2.203 -0.0409  1.6458  0.8255
  463MPD2    H1 6896   3.858   1.763   2.332  0.3541 -1.0787  4.2357
  463MPD2    H2 6897   3.507   1.611   2.505 -0.3757 -0.8035 -0.2595
  463MPD2    H3 6898   3.753   1.620   2.491 -0.5452 -0.7291  0.9590
  463MPD2     N 6899   3.747   1.913   2.153 -0.0955 -0.1668  0.5149
  463MPD2    H5 6900   3.848   1.915   2.162 -0.1519 -1.5293  1.5864
  463MPD2    N1 6901   3.329   1.778   2.358 -0.4360 -0.6486  0.4855
  463MPD2    H7 6902   3.286   1.830   2.282  4.1310  0.6068 -1.2550
  464TMC3    C1 6903   3.115   1.763   2.445  0.3923  1.0808  0.3431
  464TMC3    C2 6904   3.083   1.893   2.390 -1.2023  0.4805 -0.1191
  464TMC3    C3 6905   2.944   1.927   2.390 -0.3707 -0.4594 -0.2767
  464TMC3    C4 6906   3.028   1.694   2.522  0.1111  0.0487  1.2836
  464TMC3    C5 6907   2.891   1.728   2.507 -0.4418  0.2551 -0.0472
  464TMC3    C6 6908   2.849   1.843   2.445  0.3380 -0.0447 -0.0216
  464TMC3     C 6909   3.251   1.717   2.452  0.3382 -0.5775  0.3980
  464TMC3     O 6910   3.287   1.646   2.545 -0.1457  0.5564  0.2002
  464TMC3     H 6911   3.155   1.961   2.347  0.2591  0.4967  2.3238
  464TMC3    H1 6912   3.059   1.599   2.563 -2.4259 -1.6166 -0.6490
  464TMC3    H2 6913   2.742   1.862   2.434  0.2865  1.3972  3.0925
  464TMC3    C7 6914   2.781   1.647   2.566  0.5767 -1.0556  0.1095
  464TMC3    C8 6915   2.910   2.045   2.310  0.4763  0.2980  0.8792
  464TMC3    O1 6916   2.789   1.602   2.676  0.0961 -0.4129  0.3122
  464TMC3    O2 6917   2.997   2.093   2.240 -0.4788 -1.2588 -0.6307
  465MPD2     C 6918   4.468   0.693  17.060  0.0976  0.9735  0.5744
  465MPD2    C1 6919   4.331   0.694  17.100 -0.2992  0.9787 -0.1790
  465MPD2    C2 6920   4.248   0.795  17.044  0.2982 -0.0770  0.6942
  465MPD2    C3 6921   4.288   0.879  16.940  0.7046  0.4211  0.4785
  465MPD2    C4 6922   4.414   0.860  16.901 -0.6197 -1.0590  0.5861
  465MPD2    C5 6923   4.501   0.764  16.950  0.1911 -1.3684  0.5814
  465MPD2     H 6924   4.144   0.799  17.074  0.4340  2.2639  0.8733
  465MPD2    H1 6925   4.452   0.918  16.818 -1.0046  0.8984  1.7657
  465MPD2    H2 6926   4.546   0.623  17.090 -0.0548 -0.3151 -2.0649
  465MPD2    H3 6927   4.596   0.748  16.901 -0.1042 -1.3107 -0.0222
  465MPD2     N 6928   4.199   0.968  16.882  0.0906 -0.5585 -0.0796
  465MPD2    H5 6929   4.109   0.960  16.929  0.2930 -1.6478  0.1316
  465MPD2    N1 6930   4.288   0.613  17.210 -0.1416  0.9879  0.5130
  465MPD2    H7 6931   4.190   0.608  17.236  0.1651  0.5023  1.5532
  466TMC3    C1 6932   3.858   1.170  16.760 -0.3461 -0.1292  0.4436
  466TMC3    C2 6933   3.869   1.281  16.680 -0.6927 -0.8486 -0.0072
  466TMC3    C3 6934   3.989   1.313  16.635  0.0031 -0.3314  0.2432
  466TMC3    C4 6935   3.965   1.090  16.793  0.0183  0.2458 -0.1454
  466TMC3    C5 6936   4.088   1.132  16.741 -0.2597  0.3373  0.0280
  466TMC3    C6 6937   4.101   1.244  16.670 -0.3802  0.4764 -0.4365
  466TMC3     C 6938   3.728   1.122  16.793  0.1321  0.4423  0.3731
  466TMC3     O 6939   3.726   1.043  16.886 -0.3879  0.0334  0.1977
  466TMC3     H 6940   3.783   1.347  16.671 -0.0051 -0.0123 -0.3490
  466TMC3    H1 6941   3.948   0.994  16.840  1.4131  0.3424  0.5355
  466TMC3    H2 6942   4.202   1.282  16.656 -0.0968  0.1767  0.7707
  466TMC3    C7 6943   4.214   1.058  16.778 -0.1170  1.0470 -0.2195
  466TMC3    C8 6944   4.013   1.451  16.597  0.0818  0.3688 -0.7771
  466TMC3    O1 6945   4.313   1.087  16.712  0.3536 -0.4465 -0.2598
  466TMC3    O2 6946   4.073   1.475  16.491  1.0454 -0.3490 -0.0595
  467TMC3    C1 6947   0.659   4.012  13.719  0.1761  0.5558  0.3273
  467TMC3    C2 6948   0.636   3.912  13.624  0.2433 -0.6615  0.6595
  467TMC3    C3 6949   0.509   3.852  13.632  0.0986 -0.3306  0.0561
  467TMC3    C4 6950   0.560   4.067  13.794 -0.3190 -0.3525  0.2734
  467TMC3    C5 6951   0.442   3.998  13.799 -0.1800 -0.5971 -0.3085
  467TMC3    C6 6952   0.414   3.894  13.725 -0.0851 -0.1591 -0.5519
  467TMC3     C 6953   0.795   4.068  13.744 -0.4814 -0.2442 -0.1102
  467TMC3     O 6954   0.810   4.142  13.844 -0.2788 -0.2523 -0.2132
  467TMC3     H 6955   0.706   3.880  13.548  0.8259  0.2220  0.8258
  467TMC3    H1 6956   0.574   4.156  13.855 -0.9822 -0.5580  0.7321
  467TMC3    H2 6957   0.321   3.838  13.728  0.5230 -1.1785 -0.6385
  467TMC3    C7 6958   0.326   4.082  13.813  0.2584 -0.0360 -0.2717
  467TMC3    C8 6959   0.444   3.855  13.500  0.5981 -0.6175 -0.5381
  467TMC3    O1 6960   0.331   4.194  13.765  0.3797 -0.0631  0.2291
  467TMC3    O2 6961   0.326   3.892  13.503  0.2977  0.3444 -0.7469
  468MPD2     C 6962   4.175   2.326  10.548  0.2895 -0.5850  0.2149
  468MPD2    C1 6963   4.264   2.371  10.643 -0.5899 -0.9255  0.2092
  468MPD2    C2 6964   4.281   2.280  10.751 -0.9585 -0.5424 -0.1285
  468MPD2    C3 6965   4.218   2.154  10.753  0.2446  0.2635  1.1094
  468MPD2    C4 6966   4.128   2.127  10.657  0.4936 -0.1783  0.5938
  468MPD2    C5 6967   4.095   2.216  10.558  0.5282  1.0907  0.1686
  468MPD2     H 6968   4.352   2.306  10.828 -0.7150 -0.2101 -0.4663
  468MPD2    H1 6969   4.078   2.032  10.667  1.5203 -0.6187  1.4790
  468MPD2    H2 6970   4.155   2.381  10.457  0.0242 -0.4820  0.3355
  468MPD2    H3 6971   4.031   2.198  10.472  0.1790 -1.7431  1.0322
  468MPD2     N 6972   4.231   2.062  10.860 -0.0051  0.1172  0.5305
  468MPD2    H5 6973   4.169   1.982  10.860  2.1841 -1.5571 -1.2672
  468MPD2    N1 6974   4.325   2.501  10.643  0.2452  0.3723  0.0357
  468MPD2    H7 6975   4.394   2.517  10.716  0.7471  1.6235 -0.7079
  469TMC3    C1 6976   4.361   2.726  10.592  0.1287 -0.6606  0.7255
  469TMC3    C2 6977   4.489   2.715  10.639 -0.2856  0.1933  0.3811
  469TMC3    C3 6978   4.523   2.800  10.737 -0.1409 -0.2008 -0.8282
  469TMC3    C4 6979   4.269   2.824  10.623  0.1680  0.6781 -0.3611
  469TMC3    C5 6980   4.304   2.899  10.728 -0.3994 -0.0592  0.5195
  469TMC3    C6 6981   4.432   2.894  10.784 -0.4359 -0.3486 -0.2204
  469TMC3     C 6982   4.291   2.601  10.556  0.5347 -0.0667  0.1442
  469TMC3     O 6983   4.184   2.618  10.491  0.2083  0.6261  0.1964
  469TMC3     H 6984   4.558   2.640  10.604  0.8047  0.4532  1.9916
  469TMC3    H1 6985   4.191   2.844  10.551 -0.0132 -0.9514 -0.6236
  469TMC3    H2 6986   4.454   2.964  10.863 -0.6290  0.2185 -0.6724
  469TMC3    C7 6987   4.217   3.006  10.779  0.4712  0.3011  0.1524
  469TMC3    C8 6988   4.634   2.776  10.826  0.4268  1.0512  0.0696
  469TMC3    O1 6989   4.265   3.101  10.836 -0.3209 -0.1277 -0.6120
  469TMC3    O2 6990   0.009   2.713  10.783  0.4693 -0.2031 -0.4872
  470TMC3    C1 6991   1.860   3.668   1.051 -0.3187 -0.4358 -0.6646
  470TMC3    C2 6992   1.905   3.794   1.069 -0.1212  0.1157 -0.0764
  470TMC3    C3 6993   1.818   3.878   1.138  0.4076 -0.2822 -0.0686
  470TMC3    C4 6994   1.738   3.620   1.089  0.0343  0.1321  0.6315
  470TMC3    C5 6995   1.652   3.707   1.139  0.7279  0.0569  0.0987
  470TMC3    C6 6996   1.691   3.833   1.178  0.5097  0.2174  0.2393
  470TMC3     C 6997   1.955   3.579   0.993  0.2381 -0.2501 -0.2970
  470TMC3     O 6998   2.045   3.631   0.929  0.1629 -0.1502 -0.2718
  470TMC3     H 6999   2.004   3.828   1.038 -0.2681 -0.3679 -1.0667
  470TMC3    H1 7000   1.702   3.520   1.070 -0.6160  0.6366 -0.8252
  470TMC3    H2 7001   1.624   3.902   1.229 -0.3503 -2.1206  2.2485
  470TMC3    C7 7002   1.532   3.656   1.209 -0.3210 -0.7069  1.1525
  470TMC3    C8 7003   1.869   4.001   1.195 -0.4680 -0.0222 -0.1225
  470TMC3    O1 7004   1.477   3.727   1.297 -0.1842 -0.2527  0.4295
  470TMC3    O2 7005   1.810   4.055   1.290  0.2275  0.2454 -0.3163
  471MPD2     C 7006   2.226   4.520  16.948  0.7741  0.0890 -0.2240
  471MPD2    C1 7007   2.159   4.399  16.967  0.5963  0.2797  0.5931
  471MPD2    C2 7008   2.202   4.306  17.054 -0.6927 -0.3706  0.5821
  471MPD2    C3 7009   2.316   4.332  17.132 -0.1633  0.8008 -0.5496
  471MPD2    C4 7010   2.381   4.455  17.124 -0.2435 -0.1298 -0.3312
  471MPD2    C5 7011   2.333   4.549  17.034  0.5929 -0.7106  0.5504
  471MPD2     H 7012   2.151   4.210  17.064 -0.1920 -0.1656  4.7796
  471MPD2    H1 7013   2.466   4.470  17.189 -0.9870  0.3733  0.5198
  471MPD2    H2 7014   2.190   4.596  16.880 -2.2714  0.1116  1.4340
  471MPD2    H3 7015   2.382   4.646  17.037 -1.0825  0.0353  3.3738
  471MPD2     N 7016   2.369   4.222  17.207 -0.9883 -0.0430  0.0573
  471MPD2    H5 7017   2.327   4.131  17.218 -1.0164 -0.2160 -1.4372
  471MPD2    N1 7018   2.065   4.350  16.878  0.1662  0.1637  0.1602
  471MPD2    H7 7019   2.031   4.254  16.880  0.9648 -0.1254  0.1560
  472TMC3    C1 7020   1.920   4.319  16.699 -0.5813  0.8832  0.2955
  472TMC3    C2 7021   1.791   4.352  16.679  0.1101 -0.1937  0.2610
  472TMC3    C3 7022   1.710   4.243  16.654  0.8576  0.5462  0.0448
  472TMC3    C4 7023   1.972   4.192  16.693 -0.0413 -0.0465  0.2330
  472TMC3    C5 7024   1.887   4.094  16.645 -0.1737  0.4942  0.0593
  472TMC3    C6 7025   1.755   4.123  16.623  0.1506 -0.0807  0.5300
  472TMC3     C 7026   1.998   4.413  16.778  0.1798  1.2160  1.0417
  472TMC3     O 7027   1.975   4.532  16.773 -0.3371 -0.4270  0.3720
  472TMC3     H 7028   1.749   4.450  16.699 -1.0773 -0.5117 -0.6770
  472TMC3    H1 7029   2.066   4.156  16.734  1.3245 -0.2968 -3.1607
  472TMC3    H2 7030   1.686   4.049  16.583 -1.6718  1.1934  1.3686
  472TMC3    C7 7031   1.923   3.962  16.698 -0.0102  0.6196  0.7180
  472TMC3    C8 7032   1.569   4.274  16.645 -0.5277  0.0175  0.2322
  472TMC3    O1 7033   1.991   3.955  16.800  0.0049 -0.0682  0.0637
  472TMC3    O2 7034   1.530   4.385  16.626 -0.3629 -0.8597 -0.0286
  473MPD2     C 7035   2.219   2.391  13.911  0.4524  0.1577  0.0831
  473MPD2    C1 7036   2.240   2.259  13.948 -0.2168  0.5208  0.0216
  473MPD2    C2 7037   2.310   2.227  14.062 -0.1970 -0.3976 -0.6566
  473MPD2    C3 7038   2.368   2.335  14.138 -0.0120  0.2589  0.0337
  473MPD2    C4 7039   2.340   2.457  14.103  0.2750  0.0906 -0.2561
  473MPD2    C5 7040   2.276   2.490  13.988 -0.6433  0.0058  0.4975
  473MPD2     H 7041   2.307   2.123  14.092  1.7679 -0.7033 -1.5541
  473MPD2    H1 7042   2.382   2.534  14.167  1.5278 -0.0093 -0.9609
  473MPD2    H2 7043   2.163   2.421  13.823  0.7256 -1.8641 -0.7716
  473MPD2    H3 7044   2.265   2.597  13.969 -0.2953 -0.4791 -2.3408
  473MPD2     N 7045   2.442   2.319  14.257 -0.0070 -0.3470 -0.0393
  473MPD2    H5 7046   2.484   2.401  14.301 -0.1183  0.8618 -2.1820
  473MPD2    N1 7047   2.175   2.154  13.880 -0.2579 -0.1434 -0.1093
  473MPD2    H7 7048   2.191   2.059  13.912  0.9052  0.3743  0.8705
  474TMC3    C1 7049   2.454   2.249  14.467 -0.1739 -1.3668 -0.0531
  474TMC3    C2 7050   2.342   2.316  14.510 -0.1713  0.5399  0.0841
  474TMC3    C3 7051   2.322   2.329  14.641  0.5924  0.0896 -0.1550
  474TMC3    C4 7052   2.529   2.182  14.553  0.2445  1.0912  0.2522
  474TMC3    C5 7053   2.496   2.187  14.684 -0.3930  0.5883  0.3650
  474TMC3    C6 7054   2.401   2.270  14.738  0.3766 -0.3863  0.4744
  474TMC3     C 7055   2.440   2.210  14.326 -0.2936  0.4751  0.6935
  474TMC3     O 7056   2.380   2.105  14.304 -0.2165 -0.4747  0.6208
  474TMC3     H 7057   2.278   2.360  14.434 -0.7897 -1.1363 -0.3613
  474TMC3    H1 7058   2.611   2.120  14.520  0.3373  2.1003 -1.4385
  474TMC3    H2 7059   2.377   2.284  14.843  1.3134 -1.6624  0.8564
  474TMC3    C7 7060   2.614   2.174  14.769  0.4735 -0.8107  0.0091
  474TMC3    C8 7061   2.205   2.404  14.689 -0.2369 -0.4675  0.0645
  474TMC3    O1 7062   2.701   2.091  14.745 -0.2764 -0.2269  0.2089
  474TMC3    O2 7063   2.160   2.392  14.804  0.7991 -0.5555  0.6085
  475MPD2     C 7064   0.646   4.296  10.243 -0.5533 -0.0354  0.1884
  475MPD2    C1 7065   0.714   4.408  10.276  0.2415  0.8126 -0.3447
  475MPD2    C2 7066   0.641   4.507  10.341  0.2947 -0.4611  0.5298
  475MPD2    C3 7067   0.502   4.504  10.336 -0.4043 -0.3798 -0.1294
  475MPD2    C4 7068   0.433   4.388  10.300  0.1352 -0.0937 -0.4037
  475MPD2    C5 7069   0.506   4.283  10.262 -0.3479 -0.0080 -0.1823
  475MPD2     H 7070   0.683   4.599  10.381 -1.7138  0.2048  1.1429
  475MPD2    H1 7071   0.325   4.379  10.306  0.1400  0.7340  0.8431
  475MPD2    H2 7072   0.699   4.216  10.192  1.3605  0.1937  1.8054
  475MPD2    H3 7073   0.453   4.190  10.245  0.5804 -0.5961  0.1368
  475MPD2     N 7074   0.450   4.622  10.381  0.5248  0.3637 -0.4546
  475MPD2    H5 7075   0.517   4.695  10.404 -2.1923  2.6218  0.3627
  475MPD2    N1 7076   0.859   4.407  10.268 -0.0637  0.1912  0.5437
  475MPD2    H7 7077   0.903   4.316  10.272 -2.0351 -0.6646  2.2908
  476TMC3    C1 7078   0.894   4.633  10.201  1.3876 -0.3130 -0.3154
  476TMC3    C2 7079   0.812   4.619  10.089  0.2067  0.4457 -0.1880
  476TMC3    C3 7080   0.722   4.718  10.072  0.6854  0.5737  0.9492
  476TMC3    C4 7081   0.896   0.024  10.272 -0.3208 -0.2643 -0.5188
  476TMC3    C5 7082   0.804   0.131  10.251 -0.1088 -0.2502 -0.0137
  476TMC3    C6 7083   0.720   0.114  10.142  0.0396 -0.1464 -0.7069
  476TMC3     C 7084   0.940   4.519  10.278 -0.1070 -0.3180 -0.0951
  476TMC3     O 7085   1.055   4.527  10.312 -0.1642  0.0166  0.2710
  476TMC3     H 7086   0.819   4.517  10.051 -0.3825  0.3172  0.0572
  476TMC3    H1 7087   0.970   0.040  10.349 -0.8158 -1.7097  0.2681
  476TMC3    H2 7088   0.639   0.186  10.132 -0.0530 -0.1604 -0.0457
  476TMC3    C7 7089   0.734   0.175  10.371 -0.8517  0.0887  0.4122
  476TMC3    C8 7090   0.590   4.674  10.021 -0.1759  0.0384  0.1134
  476TMC3    O1 7091   0.651   0.097  10.422  0.5281  0.2341 -0.2554
  476TMC3    O2 7092   0.504   0.036  10.022 -0.1977  0.3095  0.7666
  477MPD2     C 7093   2.531   1.172  11.902 -1.1616 -0.4845 -0.1709
  477MPD2    C1 7094   2.525   1.270  11.994  0.5026 -0.3671 -0.2544
  477MPD2    C2 7095   2.623   1.293  12.082  0.3529  0.2472  0.2431
  477MPD2    C3 7096   2.732   1.209  12.093  0.4302  1.0492 -0.2403
  477MPD2    C4 7097   2.737   1.096  12.013 -0.0080 -0.4827 -0.4744
  477MPD2    C5 7098   2.636   1.080  11.911 -0.3848 -0.3742 -0.3994
  477MPD2     H 7099   2.620   1.379  12.148  0.5827  1.0567 -0.7929
  477MPD2    H1 7100   2.805   1.012  12.016 -0.7466 -1.1200 -1.4808
  477MPD2    H2 7101   2.452   1.155  11.830 -1.2959  0.3274 -0.2151
  477MPD2    H3 7102   2.638   0.998  11.841  0.7352 -2.1280  1.7181
  477MPD2     N 7103   2.840   1.246  12.182  0.1075  0.2386 -0.0864
  477MPD2    H5 7104   2.827   1.322  12.249 -0.1275  0.4749 -0.3944
  477MPD2    N1 7105   2.410   1.350  11.981 -0.5241 -0.1922 -0.5207
  477MPD2    H7 7106   2.347   1.324  11.906 -0.6991  0.3316 -0.5611
  478TMC3    C1 7107   2.260   1.533  12.002 -0.0766  0.1181 -1.0492
  478TMC3    C2 7108   2.228   1.622  12.107  0.0482  0.1939 -0.1608
  478TMC3    C3 7109   2.230   1.757  12.069  0.0112 -0.5710 -0.0264
  478TMC3    C4 7110   2.261   1.560  11.871  0.0399 -0.7213  0.5455
  478TMC3    C5 7111   2.248   1.691  11.840  0.1471 -0.0634 -0.1846
  478TMC3    C6 7112   2.244   1.788  11.934 -0.3424 -0.3517 -0.2832
  478TMC3     C 7113   2.378   1.461  12.052  0.6161  0.6579  0.1905
  478TMC3     O 7114   2.439   1.534  12.130  0.4007  0.6496 -0.0036
  478TMC3     H 7115   2.226   1.592  12.211 -1.6095 -0.5182 -0.3972
  478TMC3    H1 7116   2.297   1.495  11.792  2.2006  0.9998  0.0920
  478TMC3    H2 7117   2.243   1.891  11.898  0.7438 -0.4644 -0.6248
  478TMC3    C7 7118   2.232   1.736  11.703 -0.0278  0.7264 -0.4183
  478TMC3    C8 7119   2.208   1.856  12.177  1.0349 -0.7516 -0.6729
  478TMC3    O1 7120   2.261   1.851  11.677  0.3881 -0.0341  0.0059
  478TMC3    O2 7121   2.199   1.809  12.287 -0.5466 -0.4640 -0.5585
  479MPD2     C 7122   1.791   3.764  15.235 -0.6577  0.0123 -0.4674
  479MPD2    C1 7123   1.756   3.686  15.343  0.5125  0.0186 -0.0575
  479MPD2    C2 7124   1.817   3.708  15.468 -0.3099 -0.1732 -0.3190
  479MPD2    C3 7125   1.896   3.821  15.487 -0.0132 -0.2425  0.3622
  479MPD2    C4 7126   1.940   3.890  15.379 -0.8089  0.2299 -0.2653
  479MPD2    C5 7127   1.890   3.861  15.251  0.6545 -0.3902  0.4602
  479MPD2     H 7128   1.794   3.644  15.553  1.2683 -0.0537  0.1974
  479MPD2    H1 7129   2.018   3.964  15.390  0.1542 -0.9819  1.1260
  479MPD2    H2 7130   1.756   3.737  15.136  2.4140 -0.8905 -1.3019
  479MPD2    H3 7131   1.918   3.919  15.164 -1.1438 -0.1109  0.0606
  479MPD2     N 7132   1.919   3.880  15.615  0.0310 -0.0283 -0.4237
  479MPD2    H5 7133   1.987   3.955  15.617  0.5206 -0.4635 -0.5949
  479MPD2    N1 7134   1.656   3.589  15.318  0.7174  0.4165  0.3070
  479MPD2    H7 7135   1.617   3.589  15.225  0.2386  0.5459  0.5095
  480TMC3    C1 7136   1.526   3.684  15.748 -0.4551  0.0221 -0.5325
  480TMC3    C2 7137   1.458   3.743  15.640 -0.0405  0.9260  0.1338
  480TMC3    C3 7138   1.506   3.857  15.583 -0.5609 -0.6966  0.2280
  480TMC3    C4 7139   1.654   3.723  15.773  0.4583  0.3230 -0.0711
  480TMC3    C5 7140   1.708   3.822  15.706  0.1839 -0.5773  0.0783
  480TMC3    C6 7141   1.631   3.899  15.617  0.4313  0.1701 -0.0471
  480TMC3     C 7142   1.481   3.567  15.823  0.5068  0.2916 -0.5543
  480TMC3     O 7143   1.556   3.531  15.911  0.2099  0.0703  0.0145
  480TMC3     H 7144   1.360   3.712  15.606  0.6499 -1.2487  0.1697
  480TMC3    H1 7145   1.724   3.684  15.846  1.5111  0.6343 -0.9152
  480TMC3    H2 7146   1.677   3.985  15.571  0.0250 -0.2432 -1.2167
  480TMC3    C7 7147   1.849   3.851  15.729 -0.1606 -0.0912  0.3803
  480TMC3    C8 7148   1.442   3.902  15.463  0.1127  0.0630  0.1348
  480TMC3    O1 7149   1.880   3.848  15.849  0.7028  0.2148  0.0451
  480TMC3    O2 7150   1.326   3.871  15.452 -0.0828 -0.4129  0.3955
  481MPD2     C 7151   3.773   3.590  14.463  0.1876 -0.2792  0.0358
  481MPD2    C1 7152   3.651   3.534  14.456 -0.0197 -0.7293 -0.0040
  481MPD2    C2 7153   3.593   3.491  14.573 -0.3651  0.1509 -0.3082
  481MPD2    C3 7154   3.655   3.502  14.698  0.9612  0.6933  0.6104
  481MPD2    C4 7155   3.779   3.560  14.694  0.2591 -0.0323 -0.8052
  481MPD2    C5 7156   3.831   3.611  14.581  0.1632  0.7229 -0.2159
  481MPD2     H 7157   3.492   3.451  14.568  0.3021 -1.5122 -0.4582
  481MPD2    H1 7158   3.842   3.561  14.782 -1.2682  1.2386  0.2722
  481MPD2    H2 7159   3.834   3.615  14.376  0.3078  2.1936  0.8508
  481MPD2    H3 7160   3.932   3.650  14.591  0.2197  0.4018  0.4586
  481MPD2     N 7161   3.594   3.459  14.818 -0.3022  0.3731  0.5315
  481MPD2    H5 7162   3.635   3.485  14.907 -2.1067  0.4545  1.3549
  481MPD2    N1 7163   3.597   3.506  14.323 -0.4642  0.0762 -0.3257
  481MPD2    H7 7164   3.655   3.537  14.246 -1.1788  0.9961 -0.5052
  482TMC3    C1 7165   3.465   3.382  14.169  0.4776 -0.2312  0.6751
  482TMC3    C2 7166   3.372   3.283  14.147  0.3395 -0.2413 -0.4436
  482TMC3    C3 7167   3.334   3.260  14.020  0.6506  0.0255  0.8133
  482TMC3    C4 7168   3.530   3.448  14.070  0.1676  0.9371 -0.5097
  482TMC3    C5 7169   3.473   3.438  13.948  0.2451 -0.2269 -0.1961
  482TMC3    C6 7170   3.373   3.347  13.923  0.0703  0.0921 -0.3563
  482TMC3     C 7171   3.477   3.437  14.303 -0.8486 -0.4628  0.1355
  482TMC3     O 7172   3.391   3.402  14.381 -0.8407 -0.4121 -0.1604
  482TMC3     H 7173   3.326   3.234  14.232 -1.5068 -1.5595 -2.1957
  482TMC3    H1 7174   3.596   3.530  14.096  0.5595 -0.4424  2.8554
  482TMC3    H2 7175   3.327   3.335  13.825 -0.6301  2.1041 -0.2751
  482TMC3    C7 7176   3.509   3.526  13.850  0.6740  0.5029  0.3602
  482TMC3    C8 7177   3.222   3.171  14.000 -0.1883  0.7368  0.4277
  482TMC3    O1 7178   3.620   3.580  13.851 -0.2714  0.6840  0.0981
  482TMC3    O2 7179   3.207   3.086  14.087  0.3196  0.4999  0.2286
  483TMC3    C1 7180   0.626   1.574   1.433 -0.2076  0.4544  0.1049
  483TMC3    C2 7181   0.637   1.685   1.358 -0.2086 -0.0923  0.3254
  483TMC3    C3 7182   0.767   1.730   1.363  0.1467 -0.1977  0.3319
  483TMC3    C4 7183   0.721   1.507   1.505 -0.3424  0.4323 -0.0705
  483TMC3    C5 7184   0.838   1.577   1.529 -0.3145  0.1248 -0.0928
  483TMC3    C6 7185   0.863   1.690   1.460  0.2637 -0.6707 -0.0741
  483TMC3     C 7186   0.492   1.518   1.428  0.1576  0.4074  0.8978
  483TMC3     O 7187   0.397   1.591   1.436  0.1797 -0.0397 -0.0332
  483TMC3     H 7188   0.568   1.735   1.291  0.3692 -0.4157 -0.5077
  483TMC3    H1 7189   0.699   1.423   1.570  2.0296  0.2334  0.4877
  483TMC3    H2 7190   0.963   1.732   1.453  0.0697 -0.3197 -0.7733
  483TMC3    C7 7191   0.943   1.515   1.599  0.1786 -0.0342  0.3727
  483TMC3    C8 7192   0.797   1.859   1.296  0.3024  0.3859  0.0026
  483TMC3    O1 7193   1.019   1.597   1.648 -0.2039  0.7108  0.8963
  483TMC3    O2 7194   0.748   1.882   1.184  0.4567 -0.4573  0.0802
  484MPD2     C 7195   3.803   0.755  12.400  0.1706  0.5614  0.6600
  484MPD2    C1 7196   3.880   0.639  12.413 -0.2480 -0.5324  0.2204
  484MPD2    C2 7197   4.016   0.639  12.400 -0.2320  0.2178 -0.1034
  484MPD2    C3 7198   4.075   0.761  12.375 -0.4425  0.6669  0.4631
  484MPD2    C4 7199   4.005   0.874  12.376 -0.0409 -0.5101  0.3657
  484MPD2    C5 7200   3.873   0.875  12.387 -0.0807 -0.3139  0.4513
  484MPD2     H 7201   4.067   0.543  12.400  1.4608  1.1254 -0.8350
  484MPD2    H1 7202   4.046   0.973  12.362  0.1235 -0.5866  0.3159
  484MPD2    H2 7203   3.696   0.745  12.398 -0.0416  3.0077 -0.6881
  484MPD2    H3 7204   3.816   0.968  12.382 -1.1849 -1.0705 -1.1389
  484MPD2     N 7205   4.218   0.774  12.363 -0.0648  0.1040  0.3824
  484MPD2    H5 7206   4.266   0.863  12.366  0.1849  0.0022 -0.7922
  484MPD2    N1 7207   3.808   0.515  12.422 -0.1288 -0.1889 -0.1419
  484MPD2    H7 7208   3.707   0.515  12.427 -0.0328 -0.7565  1.7082
  485TMC3    C1 7209   4.435   0.688  12.297  0.3823 -0.1746  0.1276
  485TMC3    C2 7210   4.514   0.580  12.273  0.2307  0.6319  0.1424
  485TMC3    C3 7211   4.647   0.597  12.264  0.1221 -0.8934  0.4022
  485TMC3    C4 7212   4.493   0.810  12.314  0.6271  0.4292  0.3167
  485TMC3    C5 7213   4.630   0.831  12.290 -0.5136 -0.4265 -0.7663
  485TMC3    C6 7214   4.706   0.719  12.272  0.9349  0.2374 -0.3296
  485TMC3     C 7215   4.292   0.665  12.314 -0.2856  0.0936 -0.4185
  485TMC3     O 7216   4.247   0.562  12.267  0.9344  0.5267  0.2551
  485TMC3     H 7217   4.462   0.485  12.267  1.8513 -0.1638 -1.1680
  485TMC3    H1 7218   4.427   0.896  12.314 -0.7473 -0.6352 -1.6794
  485TMC3    H2 7219   0.091   0.728  12.268  0.9909 -0.6998 -0.8965
  485TMC3    C7 7220   4.661   0.934  12.195 -0.2554 -0.0117  0.4306
  485TMC3    C8 7221   4.719   0.517  12.164  0.9658  0.6980  0.0050
  485TMC3    O1 7222   4.591   1.033  12.197  0.0230 -0.2047  0.3283
  485TMC3    O2 7223   0.074   0.587  12.095  0.1058 -0.1510  0.4646
  486MPD2     C 7224   1.253   3.944  12.928 -0.2819  0.3124  0.5505
  486MPD2    C1 7225   1.204   3.913  12.798 -0.0290  0.3938  1.0973
  486MPD2    C2 7226   1.159   4.018  12.722 -0.0093  0.0680  0.1108
  486MPD2    C3 7227   1.152   4.148  12.766  0.5480 -0.4020  0.3102
  486MPD2    C4 7228   1.201   4.179  12.890  0.2331  0.2030 -0.3406
  486MPD2    C5 7229   1.242   4.076  12.971  0.1584 -0.1479  0.5535
  486MPD2     H 7230   1.135   3.999  12.618 -0.4593 -2.8506  0.7575
  486MPD2    H1 7231   1.209   4.280  12.930  1.2982  0.2236 -0.6182
  486MPD2    H2 7232   1.299   3.866  12.986  0.8643 -0.0557 -0.8613
  486MPD2    H3 7233   1.283   4.085  13.071 -0.6072  0.6712  0.7993
  486MPD2     N 7234   1.098   4.245  12.683 -0.9091  0.4248 -0.3269
  486MPD2    H5 7235   1.065   4.217  12.591  0.8733  0.4811 -0.9817
  486MPD2    N1 7236   1.205   3.776  12.769  0.4987 -0.2205  0.2557
  486MPD2    H7 7237   1.244   3.717  12.842 -0.8743 -0.9754  0.3872
  487TMC3    C1 7238   1.122   3.574  12.664  0.4207  0.8504  0.4854
  487TMC3    C2 7239   1.016   3.518  12.603  0.2380  0.6461  0.9712
  487TMC3    C3 7240   1.002   3.380  12.614  0.3944 -0.3635 -0.0317
  487TMC3    C4 7241   1.212   3.501  12.746 -0.5289  0.7417 -0.0531
  487TMC3    C5 7242   1.183   3.368  12.768  0.1699  0.0022  0.1204
  487TMC3    C6 7243   1.092   3.306  12.687 -0.6532 -0.2237  0.4122
  487TMC3     C 7244   1.136   3.721  12.659  0.1143  0.4546  0.0437
  487TMC3     O 7245   1.077   3.786  12.577  0.3186  0.6236  0.3363
  487TMC3     H 7246   0.943   3.582  12.556 -0.1900 -0.6838 -0.1746
  487TMC3    H1 7247   1.292   3.548  12.802  0.2281  0.0809 -0.6011
  487TMC3    H2 7248   1.053   3.208  12.710 -0.0315 -0.1983  1.5539
  487TMC3    C7 7249   1.217   3.327  12.903  0.3209 -0.1988 -0.3663
  487TMC3    C8 7250   0.865   3.346  12.641 -0.2026  0.2962 -0.1530
  487TMC3    O1 7251   1.265   3.406  12.978 -0.2380 -0.3918  0.2753
  487TMC3    O2 7252   0.796   3.437  12.691 -0.0809 -0.0023  0.0473
  488MPD2     C 7253   1.567   0.747  16.685  0.3131 -0.3510  0.1252
  488MPD2    C1 7254   1.554   0.870  16.732 -0.2489 -0.6758 -0.2163
  488MPD2    C2 7255   1.493   0.884  16.855  0.1853  0.6701  0.3732
  488MPD2    C3 7256   1.450   0.778  16.938  0.1090  0.3071 -0.0754
  488MPD2    C4 7257   1.475   0.655  16.883  0.3119 -0.8643  0.5992
  488MPD2    C5 7258   1.519   0.645  16.752  0.5062 -0.6725 -0.2195
  488MPD2     H 7259   1.470   0.983  16.892 -4.2554  1.3185 -4.1425
  488MPD2    H1 7260   1.453   0.570  16.947 -0.4335 -0.8841  0.3199
  488MPD2    H2 7261   1.617   0.727  16.591  0.7575  1.3752 -0.0040
  488MPD2    H3 7262   1.533   0.544  16.713 -0.6349 -1.0351  0.3102
  488MPD2     N 7263   1.390   0.802  17.060  0.6810  0.3764 -0.0231
  488MPD2    H5 7264   1.367   0.897  17.087 -2.5185  0.2168 -2.1208
  488MPD2    N1 7265   1.598   0.986  16.660 -0.0110  0.3351  0.1401
  488MPD2    H7 7266   1.573   1.078  16.695 -1.9744  0.3439 -1.2997
  489TMC3    C1 7267   1.257   0.762  17.250 -0.1590  0.5685 -0.2672
  489TMC3    C2 7268   1.202   0.888  17.238  0.7101  0.0166 -0.4865
  489TMC3    C3 7269   1.163   0.950  17.357  0.1592 -0.4503  0.4718
  489TMC3    C4 7270   1.279   0.701  17.368 -0.0869  0.2108  0.3154
  489TMC3    C5 7271   1.241   0.770  17.484 -0.5478 -0.1137  0.3155
  489TMC3    C6 7272   1.188   0.895  17.479  0.1413 -0.1172 -0.2644
  489TMC3     C 7273   1.337   0.705  17.146 -0.5375  0.2962 -0.7452
  489TMC3     O 7274   1.313   0.585  17.136  0.0872  0.0834 -0.1398
  489TMC3     H 7275   1.190   0.935  17.141  0.7167 -1.0053 -0.9825
  489TMC3    H1 7276   1.352   0.622  17.381  0.9526  1.1560  0.1950
  489TMC3    H2 7277   1.161   0.939  17.574 -0.3504 -2.5440  0.7217
  489TMC3    C7 7278   1.261   0.707  17.608  0.0442  0.4573  0.8467
  489TMC3    C8 7279   1.105   1.088  17.355  0.0332  0.4678  0.0445
  489TMC3    O1 7280   1.289   0.774   0.007 -0.6173  0.2729  0.0109
  489TMC3    O2 7281   1.121   1.151  17.458 -0.1853  0.1435  0.7109
  490MPD2     C 7282   2.400   0.279  17.440 -0.4926  0.4666 -0.7378
  490MPD2    C1 7283   2.312   0.234  17.538  0.0526 -0.4453  0.5956
  490MPD2    C2 7284   2.285   0.314  17.652  0.4086 -0.0200 -0.4696
  490MPD2    C3 7285   2.358   0.435  17.667  0.4186  0.1894  0.1912
  490MPD2    C4 7286   2.439   0.479  17.557 -0.6446  0.0577 -0.1510
  490MPD2    C5 7287   2.456   0.402  17.446  0.2349 -0.3800  0.7636
  490MPD2     H 7288   2.210   0.273   0.023  0.4798 -1.2374 -1.1198
  490MPD2    H1 7289   2.484   0.578  17.556 -0.3743 -0.0732 -0.6829
  490MPD2    H2 7290   2.440   0.223  17.355 -0.1162  0.8292 -0.8042
  490MPD2    H3 7291   2.509   0.447  17.363  0.5215 -1.4653  0.3524
  490MPD2     N 7292   2.343   0.527   0.081 -0.5052  0.3678  0.2339
  490MPD2    H5 7293   2.392   0.615   0.075  1.8447 -0.9376  0.5463
  490MPD2    N1 7294   2.260   0.100  17.529  0.9658  0.2507  0.3141
  490MPD2    H7 7295   2.224   0.059  17.614  2.0345 -2.5961 -0.6228
  491TMC3    C1 7296   2.216   4.617  17.443 -0.4152 -0.7180  0.3881
  491TMC3    C2 7297   2.228   4.574  17.575 -0.0391 -0.5910  0.7022
  491TMC3    C3 7298   2.169   4.457  17.596 -0.4300  0.1561 -0.3024
  491TMC3    C4 7299   2.150   4.556  17.339 -0.2313 -0.7360  0.5002
  491TMC3    C5 7300   2.094   4.434  17.372  0.0526  0.1627 -0.6504
  491TMC3    C6 7301   2.107   4.386  17.498 -0.3705  0.2305 -0.2782
  491TMC3     C 7302   2.279   0.021  17.413 -0.6847  0.1273  0.8248
  491TMC3     O 7303   2.289   0.055  17.295 -1.0406 -0.1464  0.6582
  491TMC3     H 7304   2.293   4.614  17.652  0.7507 -0.4126 -0.0452
  491TMC3    H1 7305   2.126   4.615  17.251 -0.1762  0.4116  1.2528
  491TMC3    H2 7306   2.045   4.301  17.525 -1.4616  0.4128 -2.2097
  491TMC3    C7 7307   1.980   4.387  17.295  0.5012  0.5109  0.3009
  491TMC3    C8 7308   2.125   4.441   0.034  0.4307 -0.1904  0.0541
  491TMC3    O1 7309   1.969   4.262  17.298  0.5773 -0.0219 -0.2389
  491TMC3    O2 7310   2.137   4.538   0.107  0.0004  0.4607 -0.0437
  492MPD2     C 7311   2.730   0.384  11.610 -0.1355 -0.6808 -0.3790
  492MPD2    C1 7312   2.607   0.403  11.536  0.1404  0.4836 -0.2004
  492MPD2    C2 7313   2.492   0.371  11.609 -0.6311 -0.4916 -0.2103
  492MPD2    C3 7314   2.495   0.309  11.736  0.7919  0.6368 -1.7598
  492MPD2    C4 7315   2.616   0.300  11.797 -0.1611 -0.8498  0.3811
  492MPD2    C5 7316   2.727   0.334  11.738  0.2423  0.2352 -0.3040
  492MPD2     H 7317   2.397   0.386  11.558 -1.0896 -0.4007  0.6646
  492MPD2    H1 7318   2.612   0.270  11.901 -0.7571 -0.7624  0.3870
  492MPD2    H2 7319   2.818   0.425  11.563 -0.4809 -0.6260 -0.9882
  492MPD2    H3 7320   2.822   0.324  11.791 -0.0834 -1.0795  0.0409
  492MPD2     N 7321   2.382   0.276  11.808  0.5753  0.0834  0.0614
  492MPD2    H5 7322   2.391   0.242  11.903  0.4742  0.0882  0.0723
  492MPD2    N1 7323   2.602   0.467  11.415 -0.4928  0.4212  0.0240
  492MPD2    H7 7324   2.692   0.503  11.384 -0.3254  0.3265  0.3953
  493TMC3    C1 7325   2.520   0.516  11.191 -0.3214 -0.3070  0.3572
  493TMC3    C2 7326   2.609   0.618  11.183  1.0108  0.5137 -0.5644
  493TMC3    C3 7327   2.614   0.684  11.061 -0.5397  0.7830 -0.2385
  493TMC3    C4 7328   2.433   0.486  11.094  0.3822  0.2122  0.2001
  493TMC3    C5 7329   2.433   0.560  10.977  0.4333  0.0736  0.0827
  493TMC3    C6 7330   2.528   0.659  10.961 -0.0716 -1.3309 -0.2084
  493TMC3     C 7331   2.496   0.453  11.323 -0.4866  0.2436 -0.2192
  493TMC3     O 7332   2.408   0.370  11.330  0.0746 -1.5469 -1.0726
  493TMC3     H 7333   2.675   0.639  11.266  0.0073 -0.6419  0.5294
  493TMC3    H1 7334   2.352   0.421  11.125  0.7275 -1.0164 -1.4636
  493TMC3    H2 7335   2.524   0.724  10.874 -1.7352 -2.0646 -0.7043
  493TMC3    C7 7336   2.329   0.529  10.881  0.0608 -0.5899  0.0546
  493TMC3    C8 7337   2.714   0.784  11.037  0.1518 -0.7975  0.1360
  493TMC3    O1 7338   2.310   0.614  10.796 -0.2043 -0.0331  0.2471
  493TMC3    O2 7339   2.770   0.833  11.135  0.0265  0.1138 -0.4684
  494TMC3    C1 7340   3.357   2.176   1.024  0.0879 -0.5628 -0.2622
  494TMC3    C2 7341   3.416   2.050   1.030  0.2853  0.0359 -0.7151
  494TMC3    C3 7342   3.380   1.956   0.935 -0.0223  1.0127  0.0072
  494TMC3    C4 7343   3.285   2.223   0.919  0.1351 -0.1390 -0.1305
  494TMC3    C5 7344   3.254   2.132   0.821  0.1625 -0.0452  0.3961
  494TMC3    C6 7345   3.300   1.998   0.834 -0.9384 -0.0466  0.2516
  494TMC3     C 7346   3.315   2.220   1.153  0.1054  0.0462 -0.0300
  494TMC3     O 7347   3.256   2.323   1.161  0.7305  0.1142  0.2432
  494TMC3     H 7348   3.472   2.023   1.118  0.8563 -2.9731 -1.9984
  494TMC3    H1 7349   3.247   2.325   0.926  2.0660  0.6531 -1.0607
  494TMC3    H2 7350   3.267   1.930   0.757 -0.1618 -0.3144  0.1553
  494TMC3    C7 7351   3.192   2.169   0.693 -0.8814  0.0230 -0.2253
  494TMC3    C8 7352   3.408   1.819   0.960 -0.4955 -0.1769  0.1140
  494TMC3    O1 7353   3.208   2.086   0.607  0.2322 -0.0970 -0.2665
  494TMC3    O2 7354   3.364   1.784   1.068 -0.6057  0.3097  0.3559
  495TMC3    C1 7355   1.943   3.914  14.775 -0.2271 -0.1799 -0.3707
  495TMC3    C2 7356   1.872   3.919  14.659  0.5630 -0.1027 -1.3046
  495TMC3    C3 7357   1.795   4.033  14.635  0.5437  0.9847  0.3154
  495TMC3    C4 7358   1.935   4.002  14.869 -0.5662 -0.0054  0.0608
  495TMC3    C5 7359   1.849   4.103  14.851  0.3398  0.0291 -0.0081
  495TMC3    C6 7360   1.775   4.124  14.732  0.0249 -0.1388 -1.1502
  495TMC3     C 7361   1.981   3.787  14.823 -0.6329  0.2526  0.5828
  495TMC3     O 7362   2.085   3.776  14.888  0.0452 -0.4143  0.4899
  495TMC3     H 7363   1.870   3.845  14.580 -1.5206  0.1834 -1.5415
  495TMC3    H1 7364   1.979   3.984  14.967  0.6066 -0.7393 -0.5964
  495TMC3    H2 7365   1.710   4.210  14.724  3.4623  2.5923  0.3427
  495TMC3    C7 7366   1.787   4.137  14.977  0.0433  0.9086 -0.6318
  495TMC3    C8 7367   1.695   4.035  14.530  0.1276  0.4012  0.1109
  495TMC3    O1 7368   1.854   4.131  15.078 -0.1966  0.3607  0.0613
  495TMC3    O2 7369   1.600   4.107  14.537  0.0871 -0.6550 -0.2905
  496MPD2     C 7370   3.683   4.365  15.190  0.8510 -0.3407 -0.0298
  496MPD2    C1 7371   3.644   4.271  15.280  1.0943 -0.1383 -0.1564
  496MPD2    C2 7372   3.515   4.269  15.328  0.2074  0.1605  0.4223
  496MPD2    C3 7373   3.424   4.355  15.279 -0.1399 -0.3486 -0.3115
  496MPD2    C4 7374   3.457   4.437  15.175 -0.7574 -0.2843  0.3166
  496MPD2    C5 7375   3.587   4.444  15.131 -0.7686  0.1753  0.1783
  496MPD2     H 7376   3.483   4.202  15.407  0.2352 -0.7545 -0.3559
  496MPD2    H1 7377   3.377   4.499  15.135 -0.1290  0.9269  0.9447
  496MPD2    H2 7378   3.773   4.354  15.130  0.1930 -0.9649 -0.9026
  496MPD2    H3 7379   3.615   4.502  15.044 -2.1735 -0.2353 -0.5422
  496MPD2     N 7380   3.287   4.341  15.317  0.2120 -0.0622 -0.2478
  496MPD2    H5 7381   3.227   4.397  15.257  0.7574  1.1740  0.3612
  496MPD2    N1 7382   3.743   4.174  15.308 -0.5801  0.3124  0.3445
  496MPD2    H7 7383   3.827   4.184  15.252 -1.2675 -1.4146 -1.0220
  497TMC3    C1 7384   3.102   4.265  15.425  0.0299 -0.4954  1.0677
  497TMC3    C2 7385   3.055   4.171  15.340 -0.2144  0.1070  0.5828
  497TMC3    C3 7386   2.947   4.099  15.388 -0.4890  0.2318  0.8525
  497TMC3    C4 7387   3.062   4.275  15.554  1.0089  0.5151 -0.2434
  497TMC3    C5 7388   2.949   4.209  15.593 -0.1239  0.3054  0.1872
  497TMC3    C6 7389   2.894   4.114  15.512 -0.2151 -0.0449  0.5854
  497TMC3     C 7390   3.244   4.279  15.430  0.2513 -0.5456 -0.2779
  497TMC3     O 7391   3.300   4.238  15.530 -0.5628  0.1876  0.3046
  497TMC3     H 7392   3.096   4.150  15.242  0.0955  1.2762  0.4570
  497TMC3    H1 7393   3.106   4.349  15.620  0.2638  0.3355  0.4550
  497TMC3    H2 7394   2.804   4.065  15.548 -2.2107  1.3840 -2.4338
  497TMC3    C7 7395   2.889   4.229  15.721 -0.0600  0.6688  0.3912
  497TMC3    C8 7396   2.921   3.971  15.319  0.0619  0.5426 -0.2219
  497TMC3    O1 7397   2.770   4.197  15.736 -0.1982  0.1824 -0.2263
  497TMC3    O2 7398   2.931   3.966  15.197  0.1773 -0.5385  0.1804
  498MPD2     C 7399   4.708   4.468   9.420 -0.8156  0.7303  1.0453
  498MPD2    C1 7400   0.046   4.386   9.514 -0.7230  0.3245  0.2348
  498MPD2    C2 7401   4.696   4.280   9.557 -0.0291  0.0070  0.0170
  498MPD2    C3 7402   4.566   4.271   9.530  0.0715  0.6093  0.0908
  498MPD2    C4 7403   4.509   4.336   9.426 -0.5073  0.3818 -0.5128
  498MPD2    C5 7404   4.579   4.444   9.375  0.4466  0.2636  0.1850
  498MPD2     H 7405   0.013   4.217   9.636 -0.6912  0.9950  1.1519
  498MPD2    H1 7406   4.406   4.324   9.394  0.4962 -0.5205 -3.3280
  498MPD2    H2 7407   0.033   4.550   9.368  1.1939 -1.9033 -1.1825
  498MPD2    H3 7408   4.528   4.498   9.297 -0.6192 -1.5664 -0.3747
  498MPD2     N 7409   4.500   4.180   9.611  0.1876  0.8294  0.4171
  498MPD2    H5 7410   4.542   4.127   9.687 -1.9967  0.9777  1.7173
  498MPD2    N1 7411   0.167   4.410   9.580  0.2762 -0.1031  0.8081
  498MPD2    H7 7412   0.203   4.332   9.636  0.7665 -0.3342  0.1642
  499TMC3    C1 7413   0.398   4.470   9.567  0.3000 -0.0152  0.0487
  499TMC3    C2 7414   0.425   4.339   9.531  0.2378  0.0062  0.7559
  499TMC3    C3 7415   0.556   4.304   9.529  0.0026  0.4200 -0.0036
  499TMC3    C4 7416   0.498   4.560   9.588  0.1205  0.0371 -0.5470
  499TMC3    C5 7417   0.627   4.518   9.582 -0.5849  0.5239  0.9337
  499TMC3    C6 7418   0.656   4.388   9.554 -0.2542  0.4611  0.2784
  499TMC3     C 7419   0.259   4.510   9.553 -0.5680 -0.8222  0.2136
  499TMC3     O 7420   0.227   4.630   9.559  0.0670 -0.5067 -0.5713
  499TMC3     H 7421   0.347   4.266   9.512  0.2253  0.4625 -0.9265
  499TMC3    H1 7422   0.474   4.665   9.602  0.6252 -0.3142  2.9063
  499TMC3    H2 7423   0.760   4.360   9.548  0.0279  1.5907 -0.0793
  499TMC3    C7 7424   0.729   4.584   9.666  0.1801  0.2861 -0.1569
  499TMC3    C8 7425   0.580   4.192   9.440  0.6292 -0.1425  0.9556
  499TMC3    O1 7426   0.801   4.507   9.726 -0.2254 -0.1659  0.4208
  499TMC3    O2 7427   0.496   4.182   9.352 -0.4360 -0.0510 -0.0529
  500MPD2     C 7428   2.514   1.403   9.941  0.6259 -1.0388  0.3553
  500MPD2    C1 7429   2.396   1.468   9.978 -0.1253 -0.1829 -0.1882
  500MPD2    C2 7430   2.272   1.406   9.949 -0.0724  0.6255  0.2474
  500MPD2    C3 7431   2.272   1.290   9.876  0.2497  0.1468  1.1296
  500MPD2    C4 7432   2.393   1.225   9.854  0.0505  0.9207 -0.7692
  500MPD2    C5 7433   2.517   1.277   9.887 -0.1982 -0.1394 -1.4140
  500MPD2     H 7434   2.180   1.462   9.965 -1.2209 -0.7968 -1.3503
  500MPD2    H1 7435   2.398   1.139   9.789 -0.9000  1.0143 -0.9514
  500MPD2    H2 7436   2.596   1.475   9.944 -1.5857  1.4966 -0.1545
  500MPD2    H3 7437   2.606   1.222   9.860 -0.5628 -1.7306  0.6774
  500MPD2     N 7438   2.155   1.224   9.830  0.6968 -0.4889  0.3321
  500MPD2    H5 7439   2.179   1.145   9.770  0.8783 -0.0342 -0.1952
  500MPD2    N1 7440   2.404   1.589  10.047 -0.6725 -1.0039  0.5876
  500MPD2    H7 7441   2.495   1.606  10.090 -0.7510 -0.3441  0.4879
  501TMC3    C1 7442   2.343   1.767  10.188 -0.3609 -0.1819 -0.4679
  501TMC3    C2 7443   2.315   1.898  10.176 -0.5826 -0.1824  0.1568
  501TMC3    C3 7444   2.373   1.987  10.261 -0.6350 -0.0303 -0.2966
  501TMC3    C4 7445   2.436   1.720  10.281  0.5660  0.3605 -0.3547
  501TMC3    C5 7446   2.499   1.814  10.355 -0.2195  0.0269 -0.5707
  501TMC3    C6 7447   2.466   1.942  10.351  0.5552  0.3238  0.1832
  501TMC3     C 7448   2.301   1.673  10.089  0.1048  0.3890  0.9791
  501TMC3     O 7449   2.181   1.676  10.059 -0.1256 -0.0670  0.2884
  501TMC3     H 7450   2.248   1.935  10.100 -0.4641  2.8864  1.5297
  501TMC3    H1 7451   2.457   1.614  10.284 -0.2221  0.2270  0.1538
  501TMC3    H2 7452   2.514   2.003  10.427 -0.4081 -0.0725  1.1089
  501TMC3    C7 7453   2.598   1.766  10.451  0.0585 -1.3010 -0.4047
  501TMC3    C8 7454   2.333   2.123  10.256  0.1061 -0.6035 -0.0226
  501TMC3    O1 7455   2.595   1.645  10.473  0.5446 -0.0254  0.4992
  501TMC3    O2 7456   2.299   2.182  10.155 -0.5997 -0.4661 -0.3008
  502TMC3    C1 7457   0.929   4.329  15.743  0.2210  0.4030 -0.0345
  502TMC3    C2 7458   0.976   4.441  15.677  0.3665 -0.3113  0.5789
  502TMC3    C3 7459   0.876   4.520  15.624 -0.9363 -0.7259 -0.8879
  502TMC3    C4 7460   0.799   4.287  15.747 -0.0313  0.1856  0.5880
  502TMC3    C5 7461   0.707   4.375  15.695 -0.4506 -0.8639  0.0076
  502TMC3    C6 7462   0.743   4.493  15.634  0.1545 -0.6263  0.4777
  502TMC3     C 7463   1.009   4.288  15.862  0.1519  0.2698  0.2724
  502TMC3     O 7464   1.130   4.306  15.857  0.1494  0.0876  0.1315
  502TMC3     H 7465   1.077   4.481  15.681  1.1806 -2.2814 -0.1437
  502TMC3    H1 7466   0.774   4.187  15.779  0.9222 -0.0639  0.5561
  502TMC3    H2 7467   0.672   4.560  15.588 -1.0354 -2.5276 -0.4644
  502TMC3    C7 7468   0.583   4.386  15.768 -0.2656  0.0245  0.3237
  502TMC3    C8 7469   0.923   4.651  15.594  0.3326  0.4341 -0.4654
  502TMC3    O1 7470   0.577   4.339  15.880 -0.0800  0.3903 -0.7380
  502TMC3    O2 7471   1.021   4.660  15.525 -0.3796 -0.3144 -0.1339
  503MPD2     C 7472   2.902   1.252  17.038 -0.1343 -0.5320 -0.4243
  503MPD2    C1 7473   2.930   1.246  17.170  0.3037  0.6550 -0.4570
  503MPD2    C2 7474   2.972   1.124  17.219 -0.4557 -0.7688  0.2698
  503MPD2    C3 7475   3.000   1.011  17.139 -0.5556  0.3469  0.1816
  503MPD2    C4 7476   2.982   1.024  17.002 -0.1285  0.1186  0.2468
  503MPD2    C5 7477   2.928   1.145  16.959 -0.5833 -0.0604 -0.2919
  503MPD2     H 7478   2.992   1.117  17.325  0.0909 -0.8102  0.1656
  503MPD2    H1 7479   2.987   0.942  16.931  1.7175 -0.6336  1.2416
  503MPD2    H2 7480   2.869   1.341  16.986 -0.3034  0.1742  0.8885
  503MPD2    H3 7481   2.897   1.159  16.856  1.2341  0.4123 -0.7756
  503MPD2     N 7482   3.044   0.885  17.195 -0.4018 -0.8316  0.2114
  503MPD2    H5 7483   3.040   0.875  17.296 -2.1704  0.7824  0.3098
  503MPD2    N1 7484   2.911   1.349  17.264  0.5518  0.1406  0.3367
  503MPD2    H7 7485   2.945   1.329  17.357 -4.5539 -1.0953  1.9423
  504TMC3    C1 7486   3.153   0.676  17.207 -0.2489 -0.2957 -0.6446
  504TMC3    C2 7487   3.105   0.646  17.332  0.6561  0.4389 -0.1682
  504TMC3    C3 7488   3.182   0.554  17.401  1.0232 -0.6798 -0.5444
  504TMC3    C4 7489   3.269   0.635  17.163 -0.8686 -0.2994 -0.7752
  504TMC3    C5 7490   3.352   0.574  17.248 -0.7274  1.4335 -0.4717
  504TMC3    C6 7491   3.310   0.528  17.366 -0.1821  0.4786  0.3178
  504TMC3     C 7492   3.100   0.786  17.127  0.1535 -0.0251 -0.0162
  504TMC3     O 7493   3.120   0.772  17.009  0.1794  0.2070 -0.0561
  504TMC3     H 7494   3.011   0.680  17.372  0.1492 -0.2454 -0.7706
  504TMC3    H1 7495   3.305   0.633  17.061 -1.6740 -1.0534 -1.0365
  504TMC3    H2 7496   3.378   0.476  17.433  0.0667  2.0027  1.2613
  504TMC3    C7 7497   3.469   0.512  17.187 -0.7169  0.4706 -0.3612
  504TMC3    C8 7498   3.147   0.525  17.540 -0.3648  0.8559 -0.5731
  504TMC3    O1 7499   3.535   0.576  17.102 -0.1419 -0.3487  0.5867
  504TMC3    O2 7500   3.075   0.602  17.600 -0.4610 -0.2494 -0.2371
  505MPD2     C 7501   3.742   3.719  10.299 -0.1489 -0.0019 -0.4013
  505MPD2    C1 7502   3.770   3.635  10.399  0.1920 -0.5764 -0.4261
  505MPD2    C2 7503   3.825   3.687  10.519 -0.1586 -1.5621  0.0068
  505MPD2    C3 7504   3.861   3.820  10.528  0.6355  0.5241 -0.3854
  505MPD2    C4 7505   3.830   3.905  10.422  0.0717 -0.0153  0.2299
  505MPD2    C5 7506   3.773   3.851  10.314  0.1610 -0.8034 -1.3340
  505MPD2     H 7507   3.849   3.622  10.602  1.1713  0.6879  1.3843
  505MPD2    H1 7508   3.848   4.011  10.430 -2.8856  0.2753  2.8005
  505MPD2    H2 7509   3.682   3.685  10.216  0.7665 -2.7820  0.0827
  505MPD2    H3 7510   3.736   3.915  10.235 -0.8649 -0.3777 -0.5072
  505MPD2     N 7511   3.946   3.874  10.629  0.3878  0.4775 -0.2158
  505MPD2    H5 7512   3.980   3.969  10.628 -2.7356  1.6078  0.6788
  505MPD2    N1 7513   3.731   3.497  10.385 -0.1807  0.3604  0.1280
  505MPD2    H7 7514   3.668   3.474  10.308 -2.1165  0.1638  1.7612
  506TMC3    C1 7515   3.787   3.262  10.393 -0.0827  0.2920 -0.2922
  506TMC3    C2 7516   3.773   3.253  10.254 -0.6921  0.2059 -0.2171
  506TMC3    C3 7517   3.843   3.149  10.189  0.6626 -0.4463 -0.2358
  506TMC3    C4 7518   3.856   3.166  10.461  0.7261  0.5179  0.4416
  506TMC3    C5 7519   3.934   3.072  10.396 -0.3476 -0.1121  0.1006
  506TMC3    C6 7520   3.922   3.059  10.258  0.1099  0.9301  0.1244
  506TMC3     C 7521   3.792   3.396  10.453  0.3425  0.4598 -0.5245
  506TMC3     O 7522   3.867   3.396  10.550 -0.2076 -0.2836 -0.5803
  506TMC3     H 7523   3.733   3.336  10.197 -1.4926 -0.2038 -0.2484
  506TMC3    H1 7524   3.857   3.176  10.569  0.8753  1.3856  0.3568
  506TMC3    H2 7525   3.992   3.000  10.200 -0.7171  0.3135 -0.2564
  506TMC3    C7 7526   4.073   3.081  10.433  0.4434  0.2098  0.1818
  506TMC3    C8 7527   3.863   3.162  10.052  0.5338  0.4024  0.5076
  506TMC3    O1 7528   4.157   3.023  10.374 -0.1187  0.0760  0.4303
  506TMC3    O2 7529   3.873   3.059   9.989 -0.2091 -0.2002 -0.4328
  507TMC3    C1 7530   4.580   0.220  14.588  0.0320  0.4896  0.1810
  507TMC3    C2 7531   4.515   0.194  14.467 -0.3108  0.0783 -0.5395
  507TMC3    C3 7532   4.558   0.263  14.355 -0.7724 -0.4908 -0.6747
  507TMC3    C4 7533   4.679   0.314  14.599  0.3697  0.0392  0.4905
  507TMC3    C5 7534   4.712   0.386  14.491  0.5493 -0.2276 -0.3850
  507TMC3    C6 7535   4.666   0.344  14.370 -1.1458 -0.2578 -0.3140
  507TMC3     C 7536   4.492   0.214  14.704  0.8248  0.5554  0.0869
  507TMC3     O 7537   4.545   0.224  14.811 -0.2464  0.0471 -0.6019
  507TMC3     H 7538   4.427   0.131  14.463  0.6068 -1.2369  0.0422
  507TMC3    H1 7539   4.705   0.346  14.699 -1.6684  0.6744  0.8277
  507TMC3    H2 7540   4.688   0.410  14.287 -1.6202  1.2817  0.7678
  507TMC3    C7 7541   4.683   0.523  14.512 -0.3785 -0.0911  0.2175
  507TMC3    C8 7542   4.451   0.333  14.293  0.4536  0.3879  0.4852
  507TMC3    O1 7543   4.646   0.580  14.412 -0.3586  0.0146  0.4079
  507TMC3    O2 7544   4.359   0.362  14.368 -0.3052  0.3708  0.2329
  508MPD2     C 7545   0.434   2.413  16.233 -0.0078  0.2148  0.1017
  508MPD2    C1 7546   0.359   2.486  16.323 -0.8761  0.0685  0.6349
  508MPD2    C2 7547   0.272   2.575  16.272  0.3032 -0.4705 -0.3363
  508MPD2    C3 7548   0.256   2.591  16.134 -0.1370 -0.0579  0.2147
  508MPD2    C4 7549   0.330   2.519  16.046  0.2519  0.8515 -0.3472
  508MPD2    C5 7550   0.419   2.429  16.102  0.2040  1.0133  0.1143
  508MPD2     H 7551   0.217   2.634  16.344  0.2317 -0.6037 -0.2812
  508MPD2    H1 7552   0.306   2.511  15.941 -2.7063 -0.6081  0.4327
  508MPD2    H2 7553   0.512   2.349  16.271 -0.8566 -0.7002  0.3232
  508MPD2    H3 7554   0.483   2.377  16.032  0.0298 -0.3282  0.9518
  508MPD2     N 7555   0.157   2.689  16.100 -0.2408 -0.2155 -0.6394
  508MPD2    H5 7556   0.105   2.730  16.177  0.3364 -1.6188  0.4909
  508MPD2    N1 7557   0.396   2.477  16.460  0.2857  0.7453 -0.7712
  508MPD2    H7 7558   0.467   2.409  16.483 -0.8892 -0.0871  0.3810
  509TMC3    C1 7559   0.041   3.050  15.853  0.2081  0.2593  0.3581
  509TMC3    C2 7560   0.078   3.126  15.963 -0.3132 -0.3578  0.6478
  509TMC3    C3 7561   0.091   3.056  16.078 -0.1684 -0.2160  0.7298
  509TMC3    C4 7562   0.035   2.915  15.858 -0.3267  0.4179  0.3739
  509TMC3    C5 7563   0.048   2.850  15.978 -0.2786  0.5385  0.1784
  509TMC3    C6 7564   0.072   2.920  16.094 -0.3454  0.1139 -0.7067
  509TMC3     C 7565   4.695   3.115  15.743  0.3746  0.6237  0.5376
  509TMC3     O 7566   4.640   3.039  15.669  0.1218 -0.0032 -0.5675
  509TMC3     H 7567   0.084   3.234  15.968  1.3335 -0.4171  0.1098
  509TMC3    H1 7568   0.014   2.865  15.764  1.3002 -1.2180  0.8945
  509TMC3    H2 7569   0.059   2.879  16.194 -1.6312  1.3431 -0.3610
  509TMC3    C7 7570   0.133   2.729  15.973 -0.1292 -0.3362 -0.7320
  509TMC3    C8 7571   0.190   3.111  16.177  0.3643 -0.2992 -0.1360
  509TMC3    O1 7572   0.193   2.700  15.873 -0.3193 -0.1234  0.2753
  509TMC3    O2 7573   0.200   3.049  16.284 -0.1160  0.6322  0.2863
  510MPD2     C 7574   3.401   4.602  14.548  0.0870 -0.3927  0.3604
  510MPD2    C1 7575   3.451   4.504  14.635  0.9868 -0.5258  0.0702
  510MPD2    C2 7576   3.575   4.452  14.611  0.7697  0.0374  0.3443
  510MPD2    C3 7577   3.652   4.494  14.504  0.7307 -0.1261 -0.0243
  510MPD2    C4 7578   3.601   4.592  14.423 -0.4638 -0.6066  0.2158
  510MPD2    C5 7579   3.479   4.650  14.447  0.4757  0.0970 -0.3159
  510MPD2     H 7580   3.623   4.379  14.676 -1.1147 -0.4293  1.2099
  510MPD2    H1 7581   3.645   4.630  14.332 -1.6962  6.6798  2.6138
  510MPD2    H2 7582   3.306   4.653  14.561 -0.4088 -1.3361  0.3747
  510MPD2    H3 7583   3.438   0.003  14.382  0.3942  1.4806  1.3442
  510MPD2     N 7584   3.765   4.420  14.468 -0.2341  0.3830 -0.0120
  510MPD2    H5 7585   3.804   4.367  14.545  1.7012  4.6414  1.9327
  510MPD2    N1 7586   3.357   4.441  14.726 -0.3191 -0.2776 -0.1214
  510MPD2    H7 7587   3.275   4.498  14.740 -0.0182 -0.3391  1.9030
  511TMC3    C1 7588   3.253   4.263  14.842  0.6861 -0.3808  0.0133
  511TMC3    C2 7589   3.186   4.358  14.917  0.1620  0.0121 -0.6767
  511TMC3    C3 7590   3.079   4.310  14.989  0.3904 -0.7120  0.6392
  511TMC3    C4 7591   3.217   4.134  14.818 -0.0327  0.5931 -0.1347
  511TMC3    C5 7592   3.109   4.098  14.887  0.2511 -0.6310  0.0273
  511TMC3    C6 7593   3.041   4.177  14.976 -0.4535 -0.7719  0.4570
  511TMC3     C 7594   3.365   4.308  14.773 -0.2413  0.0951 -0.1797
  511TMC3     O 7595   3.451   4.222  14.751  0.0243  0.2654  0.2331
  511TMC3     H 7596   3.228   4.453  14.946  0.4132  0.3146 -2.0365
  511TMC3    H1 7597   3.275   4.072  14.751 -3.4060 -2.9704  0.2366
  511TMC3    H2 7598   2.957   4.139  15.033 -1.0877 -0.5149 -0.3004
  511TMC3    C7 7599   3.033   3.986  14.827 -0.1008 -0.8979 -0.2087
  511TMC3    C8 7600   3.010   4.405  15.081  0.3221  0.1831 -0.0409
  511TMC3    O1 7601   3.065   3.957  14.716  0.3312  0.3532 -0.4456
  511TMC3    O2 7602   3.083   4.484  15.142 -0.2037  0.1684  0.1771
  512TMC3    C1 7603   1.893   3.903  13.302 -0.1866  0.1624  0.3347
  512TMC3    C2 7604   1.965   3.887  13.417 -0.7681  0.0223  0.1005
  512TMC3    C3 7605   2.028   3.768  13.437  0.6727  0.5293  0.3436
  512TMC3    C4 7606   1.886   3.803  13.211 -0.3395  0.3175  0.2283
  512TMC3    C5 7607   1.949   3.689  13.225 -0.3425  0.2700 -0.1563
  512TMC3    C6 7608   2.024   3.666  13.339 -0.1092  0.2976  0.0120
  512TMC3     C 7609   1.835   4.028  13.271 -0.5080 -0.5928  0.0066
  512TMC3     O 7610   1.738   4.023  13.197 -0.3512 -0.2787  0.1846
  512TMC3     H 7611   1.963   3.953  13.503  1.8918 -0.3908  0.4969
  512TMC3    H1 7612   1.845   3.827  13.114 -0.5980 -1.3385 -0.0659
  512TMC3    H2 7613   2.099   3.587  13.338  0.6276  1.0279 -2.5973
  512TMC3    C7 7614   1.926   3.586  13.126  0.4724  0.1055 -0.6016
  512TMC3    C8 7615   2.137   3.749  13.536  0.9932 -0.3216  0.4090
  512TMC3    O1 7616   1.888   3.620  13.016 -0.1079 -0.1362 -0.3850
  512TMC3    O2 7617   2.173   3.634  13.552 -0.4177  0.0325  0.4172
  513MPD2     C 7618   4.000   3.652  13.356 -0.0397  0.0693  0.4324
  513MPD2    C1 7619   4.127   3.624  13.307  0.1085 -0.1298  0.4274
  513MPD2    C2 7620   4.233   3.650  13.386 -0.1104  0.1364 -0.3589
  513MPD2    C3 7621   4.209   3.691  13.514  0.2785  0.5447 -0.2409
  513MPD2    C4 7622   4.086   3.710  13.572  0.3742 -0.1462 -0.5583
  513MPD2    C5 7623   3.984   3.701  13.481  0.1961 -0.9489  0.0760
  513MPD2     H 7624   4.337   3.637  13.358  0.7065  2.4284  1.5670
  513MPD2    H1 7625   4.067   3.743  13.674  1.1926 -1.2394 -0.0497
  513MPD2    H2 7626   3.912   3.657  13.293 -0.4538  2.8953  1.2205
  513MPD2    H3 7627   3.887   3.731  13.520  0.0433 -1.0612 -0.2242
  513MPD2     N 7628   4.329   3.734  13.573 -0.1276  0.2249 -0.5002
  513MPD2    H5 7629   4.413   3.755  13.521 -0.3537  4.0794  0.6167
  513MPD2    N1 7630   4.141   3.562  13.181 -0.0800  0.2799 -0.2548
  513MPD2    H7 7631   4.060   3.574  13.121 -0.2427  0.3852 -0.0104
  514TMC3    C1 7632   4.277   3.505  12.998 -0.5343  0.1048 -0.1360
  514TMC3    C2 7633   4.177   3.554  12.917  0.3714 -0.0528 -0.3418
  514TMC3    C3 7634   4.202   3.652  12.825  0.5538 -0.1951 -0.0824
  514TMC3    C4 7635   4.407   3.534  12.971  0.3448 -0.4533 -0.4943
  514TMC3    C5 7636   4.430   3.637  12.882 -0.4651  0.0485  0.0680
  514TMC3    C6 7637   4.328   3.695  12.815 -0.4019  0.1930 -0.0143
  514TMC3     C 7638   4.260   3.507  13.142 -0.0956  0.5349  0.3438
  514TMC3     O 7639   4.352   3.459  13.208 -0.5503 -0.4196  0.5315
  514TMC3     H 7640   4.073   3.528  12.932  0.8084 -1.3508  0.4234
  514TMC3    H1 7641   4.481   3.487  13.035 -0.4880  1.1356  1.6183
  514TMC3    H2 7642   4.355   3.781  12.755  0.1559  1.2171  1.6997
  514TMC3    C7 7643   4.514   3.730  12.944  0.3333 -0.5498 -0.9359
  514TMC3    C8 7644   4.107   3.700  12.726 -0.3154  0.2403  0.6061
  514TMC3    O1 7645   4.468   3.833  12.993 -0.6392  0.1419  0.2055
  514TMC3    O2 7646   3.992   3.698  12.766 -0.3165  0.2115 -0.2569
  515MPD2     C 7647   1.606   0.981  14.714 -0.7842  0.2840  0.2662
  515MPD2    C1 7648   1.692   0.886  14.749  0.2063  0.9114 -0.1838
  515MPD2    C2 7649   1.813   0.923  14.800  0.1673  0.5509  0.3589
  515MPD2    C3 7650   1.856   1.055  14.812 -0.0696 -0.1395 -0.1706
  515MPD2    C4 7651   1.765   1.152  14.766 -0.4761  0.6681 -0.0277
  515MPD2    C5 7652   1.642   1.115  14.717  0.4809  0.9471  0.3304
  515MPD2     H 7653   1.876   0.840  14.829  0.2091 -0.2946 -2.1797
  515MPD2    H1 7654   1.781   1.259  14.776 -1.0899  0.7178  0.4463
  515MPD2    H2 7655   1.503   0.969  14.680  0.0342  4.2990 -3.5391
  515MPD2    H3 7656   1.570   1.194  14.700 -0.3311 -0.2649 -2.0142
  515MPD2     N 7657   1.982   1.101  14.863  0.0512  0.3887 -0.0360
  515MPD2    H5 7658   1.999   1.201  14.863 -0.7191  0.5203 -0.7160
  515MPD2    N1 7659   1.661   0.752  14.730 -0.3122 -0.0077 -0.0504
  515MPD2    H7 7660   1.722   0.686  14.775  0.7032  0.8009 -0.2451
  516TMC3    C1 7661   1.545   0.561  14.683 -0.4429  0.5099 -0.2522
  516TMC3    C2 7662   1.543   0.477  14.578  0.6065 -0.3785 -0.0975
  516TMC3    C3 7663   1.558   0.340  14.602 -0.6070  0.3081 -0.2611
  516TMC3    C4 7664   1.574   0.511  14.807 -0.2066  0.5408  0.2207
  516TMC3    C5 7665   1.603   0.379  14.823  0.3043  0.2103  0.5215
  516TMC3    C6 7666   1.581   0.288  14.721  0.7637 -0.7306  0.5160
  516TMC3     C 7667   1.561   0.701  14.657 -1.1094 -0.1132 -0.4629
  516TMC3     O 7668   1.502   0.754  14.564 -0.1455 -0.1585 -0.4666
  516TMC3     H 7669   1.554   0.522  14.480  1.5242  0.0258  0.1892
  516TMC3    H1 7670   1.572   0.578  14.892 -0.3816  2.1389 -1.0523
  516TMC3    H2 7671   1.598   0.181  14.724  0.7988 -0.7759 -1.2774
  516TMC3    C7 7672   1.568   0.333  14.953 -0.1118  0.0422 -0.1807
  516TMC3    C8 7673   1.608   0.258  14.485 -0.6012 -0.3935 -0.5356
  516TMC3    O1 7674   1.509   0.229  14.969 -0.6124  0.4908 -0.2437
  516TMC3    O2 7675   1.543   0.249  14.378  0.8982  0.9385 -0.0182
  517MPD2     C 7676   0.932   1.808   0.398  0.6091  0.3711 -0.8003
  517MPD2    C1 7677   1.070   1.816   0.420  0.0170 -0.4722  1.1661
  517MPD2    C2 7678   1.109   1.919   0.500  0.5670 -0.3079 -0.3476
  517MPD2    C3 7679   1.029   2.009   0.568  0.1522  0.2149 -0.4868
  517MPD2    C4 7680   0.894   1.991   0.539  0.1948 -0.2446  0.4909
  517MPD2    C5 7681   0.850   1.900   0.451  0.0707  0.5737 -0.7329
  517MPD2     H 7682   1.218   1.916   0.503  0.5394 -1.7769 -0.7404
  517MPD2    H1 7683   0.820   2.060   0.579 -1.3932 -1.8480  0.2722
  517MPD2    H2 7684   0.883   1.730   0.340  1.9320  1.1369 -2.9355
  517MPD2    H3 7685   0.743   1.893   0.432  0.3080 -1.7881 -1.2263
  517MPD2     N 7686   1.080   2.118   0.636 -0.4018 -0.6590  0.0001
  517MPD2    H5 7687   1.016   2.184   0.679 -1.3711 -0.1221 -2.2374
  517MPD2    N1 7688   1.170   1.733   0.363  0.6327  0.3529  0.7042
  517MPD2    H7 7689   1.261   1.756   0.402  0.4978 -0.2814  1.3989
  518TMC3    C1 7690   1.272   1.591   0.205  0.8555  0.1477 -0.2841
  518TMC3    C2 7691   1.263   1.485   0.124  0.2032  0.6474  0.9014
  518TMC3    C3 7692   1.372   1.445   0.051  0.4613  0.1855 -0.0965
  518TMC3    C4 7693   1.385   1.670   0.211  0.8311  0.5076 -0.4474
  518TMC3    C5 7694   1.490   1.628   0.129 -0.5386 -0.1781 -0.0236
  518TMC3    C6 7695   1.487   1.519   0.047 -0.4386  0.4391  0.1850
  518TMC3     C 7696   1.149   1.635   0.268  0.0190 -0.2900  0.2408
  518TMC3     O 7697   1.044   1.610   0.214 -0.3165 -0.0337 -0.2395
  518TMC3     H 7698   1.171   1.428   0.117  2.4457 -2.6832 -1.4785
  518TMC3    H1 7699   1.390   1.763   0.266  0.0996  0.2265  0.0992
  518TMC3    H2 7700   1.578   1.482   0.003  0.2003  1.4910  0.6015
  518TMC3    C7 7701   1.623   1.682   0.157 -0.4774  0.0576  0.4876
  518TMC3    C8 7702   1.370   1.312  17.678 -0.2746 -0.1425 -0.2447
  518TMC3    O1 7703   1.625   1.738   0.269  1.0148  0.0266 -0.3976
  518TMC3    O2 7704   1.315   1.213   0.029  0.1329  0.0360  0.2319
  519MPD2     C 7705   3.676   0.684  14.476  0.1130  0.0227 -0.7851
  519MPD2    C1 7706   3.693   0.761  14.363 -0.2319 -0.1289 -0.1341
  519MPD2    C2 7707   3.777   0.730  14.260 -0.1585 -0.2014 -0.8286
  519MPD2    C3 7708   3.833   0.604  14.258 -0.5262 -0.1606  0.0150
  519MPD2    C4 7709   3.816   0.520  14.368 -0.4697 -0.0320 -0.7273
  519MPD2    C5 7710   3.740   0.568  14.476 -0.1389 -0.6748  0.2888
  519MPD2     H 7711   3.787   0.797  14.175  1.0261  1.7898  0.8836
  519MPD2    H1 7712   3.865   0.423  14.366  0.4316  0.4068 -0.1173
  519MPD2    H2 7713   3.615   0.715  14.560 -0.1954  2.1774 -1.8014
  519MPD2    H3 7714   3.732   0.501  14.561 -0.8520  0.1941  0.9076
  519MPD2     N 7715   3.903   0.544  14.144  0.3864 -0.2479  0.6131
  519MPD2    H5 7716   3.942   0.450  14.152 -1.6200 -0.9210  2.5780
  519MPD2    N1 7717   3.604   0.872  14.360 -0.1782  0.2336 -0.0685
  519MPD2    H7 7718   3.562   0.894  14.450 -0.8165 -0.0001 -0.3018
  520TMC3    C1 7719   3.979   0.513  13.923  0.4915 -0.3005 -0.7582
  520TMC3    C2 7720   3.928   0.526  13.795  0.2487 -0.5150 -0.0003
  520TMC3    C3 7721   3.961   0.419  13.710  0.1771 -0.6609  0.6079
  520TMC3    C4 7722   4.055   0.412  13.965  0.8532 -0.1801 -0.1115
  520TMC3    C5 7723   4.109   0.327  13.872  0.1767 -0.3748  0.0717
  520TMC3    C6 7724   4.075   0.339  13.737 -0.3663  0.5413  0.0195
  520TMC3     C 7725   3.921   0.602  14.023 -0.1778  0.2277  0.3912
  520TMC3     O 7726   3.887   0.718  13.975 -0.0328  0.1204  0.3723
  520TMC3     H 7727   3.858   0.605  13.771  0.0453 -0.4518  0.7992
  520TMC3    H1 7728   4.089   0.417  14.068 -0.7852  0.5394  0.3886
  520TMC3    H2 7729   4.098   0.255  13.672 -2.5941 -0.3236  0.3608
  520TMC3    C7 7730   4.178   0.211  13.927 -0.2215 -0.7420  0.0745
  520TMC3    C8 7731   3.917   0.427  13.571  0.4953  0.4063  0.0809
  520TMC3    O1 7732   4.184   0.208  14.051 -0.0415 -0.0844  0.7225
  520TMC3    O2 7733   4.003   0.412  13.485 -0.0923 -0.0896 -0.1043
  521MPD2     C 7734   4.155   3.669  17.694 -0.3061  0.2508 -0.5547
  521MPD2    C1 7735   4.099   3.601  17.589 -0.6722  0.4991  0.0494
  521MPD2    C2 7736   4.168   3.580  17.473  0.4892  0.2135 -0.0876
  521MPD2    C3 7737   4.289   3.642  17.457 -0.0265 -0.1015 -0.5370
  521MPD2    C4 7738   4.347   3.712  17.557  0.6500 -0.5623 -0.3836
  521MPD2    C5 7739   4.281   3.721  17.675 -1.1014  0.1774  0.0497
  521MPD2     H 7740   4.137   3.510  17.396 -1.0754  2.4600 -1.4840
  521MPD2    H1 7741   4.445   3.756  17.552  0.7558 -0.6997  0.4859
  521MPD2    H2 7742   4.097   3.682   0.088 -1.5627  1.8690 -1.5990
  521MPD2    H3 7743   4.329   3.760   0.067 -0.0641  0.6402 -0.7116
  521MPD2     N 7744   4.355   3.603  17.338 -0.2347 -0.0613  0.0963
  521MPD2    H5 7745   4.296   3.554  17.271 -0.7941  0.1161  0.4556
  521MPD2    N1 7746   3.966   3.551  17.608 -0.5780 -0.3793  0.2802
  521MPD2    H7 7747   3.928   3.561   0.005  2.8412 -1.5703  1.7731
  522TMC3    C1 7748   4.541   3.541  17.205  0.3962 -0.5734 -0.3227
  522TMC3    C2 7749   4.672   3.502  17.215 -0.3833 -0.4004  0.4454
  522TMC3    C3 7750   0.006   3.438  17.109 -0.7220 -0.5013 -0.1271
  522TMC3    C4 7751   4.476   3.536  17.084  0.2206 -0.2403  0.3442
  522TMC3    C5 7752   4.533   3.464  16.983 -0.1800  0.0515  0.2866
  522TMC3    C6 7753   4.658   3.403  16.998 -0.7890  0.1273 -0.3911
  522TMC3     C 7754   4.489   3.624  17.308 -0.1141 -0.2920 -0.2025
  522TMC3     O 7755   4.562   3.716  17.353  0.4429 -0.1707 -0.3448
  522TMC3     H 7756   0.007   3.553  17.291 -0.8469 -0.1230  0.6190
  522TMC3    H1 7757   4.378   3.578  17.065  0.1378  0.6303  2.6908
  522TMC3    H2 7758   4.701   3.335  16.925 -0.1822  1.2629 -1.0868
  522TMC3    C7 7759   4.485   3.473  16.848 -0.7035 -0.6498  0.1920
  522TMC3    C8 7760   0.147   3.410  17.114  0.1903 -0.3681  0.1246
  522TMC3    O1 7761   4.576   3.458  16.769  0.5507  0.0580 -0.0619
  522TMC3    O2 7762   0.209   3.485  17.190  0.0634  0.0610 -0.1686
  523MPD2     C 7763   2.732   3.004  10.839  0.3053 -0.4017  0.3240
  523MPD2    C1 7764   2.626   2.984  10.753  0.1086 -1.3920 -0.5518
  523MPD2    C2 7765   2.541   3.080  10.722  0.0399 -0.3609  0.5185
  523MPD2    C3 7766   2.573   3.209  10.753 -0.4286 -0.1030  0.5973
  523MPD2    C4 7767   2.680   3.234  10.840  0.0915  0.4604  0.2875
  523MPD2    C5 7768   2.766   3.131  10.877 -0.7683 -0.8112  0.2546
  523MPD2     H 7769   2.456   3.050  10.661  1.0778 -0.2403 -1.0054
  523MPD2    H1 7770   2.697   3.338  10.867 -0.8465  0.3160  1.4330
  523MPD2    H2 7771   2.800   2.923  10.863  1.9082  0.0748 -2.6201
  523MPD2    H3 7772   2.852   3.147  10.940  0.3055 -0.1697 -1.3800
  523MPD2     N 7773   2.496   3.314  10.708 -0.0711 -0.5059  0.0981
  523MPD2    H5 7774   2.525   3.400  10.752 -1.6842 -0.2189  0.6072
  523MPD2    N1 7775   2.608   2.851  10.703  0.0234 -0.1582  0.5744
  523MPD2    H7 7776   2.657   2.774  10.748  0.2399 -1.4542 -1.8781
  524TMC3    C1 7777   2.307   3.426  10.631  0.7829 -0.1810  0.1136
  524TMC3    C2 7778   2.387   3.533  10.597 -0.3726 -0.0008  0.0387
  524TMC3    C3 7779   2.317   3.645  10.556  0.9806 -0.2672  0.1910
  524TMC3    C4 7780   2.170   3.419  10.634  0.4661 -0.8937 -0.7190
  524TMC3    C5 7781   2.114   3.534  10.602  0.0861 -0.2877  0.2328
  524TMC3    C6 7782   2.183   3.648  10.569  0.5357 -0.6420 -0.4984
  524TMC3     C 7783   2.378   3.303  10.639  0.0338 -0.8910 -0.0607
  524TMC3     O 7784   2.322   3.202  10.593  0.5381 -0.4126 -0.0131
  524TMC3     H 7785   2.495   3.526  10.593 -0.4821 -2.4713  1.3200
  524TMC3    H1 7786   2.117   3.326  10.649  1.4555 -1.1479  1.1574
  524TMC3    H2 7787   2.124   3.729  10.527  0.4356  0.5073  1.8527
  524TMC3    C7 7788   1.972   3.535  10.599  0.1588  0.4832 -0.1761
  524TMC3    C8 7789   2.393   3.766  10.552 -0.4397 -0.3053  0.2420
  524TMC3    O1 7790   1.917   3.461  10.683  0.4051 -0.3679 -0.2236
  524TMC3    O2 7791   2.350   3.855  10.477 -0.0765  0.1495 -0.2277
  525MPD2     C 7792   0.082   4.582  14.577  0.1923 -0.4395  0.8055
  525MPD2    C1 7793   0.148   4.615  14.694 -0.0304  0.2277  0.1140
  525MPD2    C2 7794   0.225   0.008  14.699 -0.1337 -0.5106 -0.4415
  525MPD2    C3 7795   0.243   0.095  14.598  0.1096 -0.6745 -0.2977
  525MPD2    C4 7796   0.166   0.070  14.484  0.0609 -0.6845  0.1614
  525MPD2    C5 7797   0.095   4.678  14.473  0.0314 -0.5952 -0.0179
  525MPD2     H 7798   0.282   0.017  14.791 -2.1883  0.9171  0.7155
  525MPD2    H1 7799   0.161   0.141  14.402 -0.7906 -0.4797  0.3990
  525MPD2    H2 7800   0.019   4.496  14.559 -1.2875  0.3772  2.0789
  525MPD2    H3 7801   0.042   4.655  14.381  1.0656  1.7371 -1.2092
  525MPD2     N 7802   0.334   0.200  14.613  0.3219 -0.4699  0.4127
  525MPD2    H5 7803   0.391   0.215  14.695 -0.0759 -1.1819  0.8088
  525MPD2    N1 7804   0.148   4.528  14.810 -0.5236 -0.5630 -0.3298
  525MPD2    H7 7805   0.216   4.554  14.881 -0.7472  2.8586 -1.3280
  526TMC3    C1 7806   0.095   4.372  14.969 -0.7110 -0.5880 -0.1087
  526TMC3    C2 7807   0.009   4.350  15.073 -0.2650  0.1634  0.7032
  526TMC3    C3 7808   0.045   4.298  15.187 -0.1646  0.3668  0.4838
  526TMC3    C4 7809   0.221   4.337  14.988 -0.2434  0.5824  0.1726
  526TMC3    C5 7810   0.255   4.261  15.103 -0.1314  0.2892 -0.9110
  526TMC3    C6 7811   0.168   4.244  15.206 -0.5643 -0.3272  0.5405
  526TMC3     C 7812   0.055   4.435  14.845  0.6482 -0.3842 -0.2222
  526TMC3     O 7813   4.669   4.421  14.798 -0.2030  0.9473 -0.2943
  526TMC3     H 7814   4.637   4.397  15.050 -0.5987  0.2737  2.3368
  526TMC3    H1 7815   0.292   4.352  14.907 -0.4598 -0.0974 -0.1418
  526TMC3    H2 7816   0.194   4.204  15.303  0.8895 -1.0212 -0.1409
  526TMC3    C7 7817   0.383   4.208  15.119 -0.4496  0.0875 -0.6064
  526TMC3    C8 7818   4.670   4.291  15.296  0.5952  0.3863  0.4355
  526TMC3    O1 7819   0.425   4.175  15.228  0.3086 -0.2312  0.3125
  526TMC3    O2 7820   4.687   4.211  15.390  0.3041 -0.5367 -0.4503
  527MPD2     C 7821   3.019   2.788   2.079  0.4248  0.0237 -0.2441
  527MPD2    C1 7822   3.088   2.669   2.056  0.3864  0.3083  0.3362
  527MPD2    C2 7823   3.160   2.656   1.938  0.4220 -0.1404 -0.1981
  527MPD2    C3 7824   3.152   2.750   1.835 -0.0549  1.0564  0.6412
  527MPD2    C4 7825   3.081   2.867   1.851 -0.7583  0.4420  0.8360
  527MPD2    C5 7826   3.026   2.882   1.980 -0.2266  0.0455 -0.7957
  527MPD2     H 7827   3.219   2.566   1.923  0.0453 -0.5866  0.9875
  527MPD2    H1 7828   3.083   2.950   1.781 -0.4901  0.4724  0.8788
  527MPD2    H2 7829   2.962   2.805   2.169  0.1802  0.7972 -0.5470
  527MPD2    H3 7830   2.979   2.975   2.007 -1.7466 -0.2323 -2.4722
  527MPD2     N 7831   3.226   2.724   1.711  0.3614  0.0613  0.2361
  527MPD2    H5 7832   3.298   2.653   1.710  0.1704 -0.1281  0.0726
  527MPD2    N1 7833   3.087   2.557   2.149 -0.5088 -0.2008 -0.1131
  527MPD2    H7 7834   3.145   2.479   2.122 -0.6288 -0.2717 -0.1661
  528TMC3    C1 7835   3.102   2.444   2.351 -0.3353 -0.5259 -0.7563
  528TMC3    C2 7836   3.225   2.400   2.313 -0.4537 -0.0059  0.2200
  528TMC3    C3 7837   3.284   2.307   2.395 -0.3980  0.3454  0.0256
  528TMC3    C4 7838   3.032   2.395   2.459  0.0879  0.0699  0.0197
  528TMC3    C5 7839   3.090   2.283   2.526  0.7829  0.6212 -0.1032
  528TMC3    C6 7840   3.219   2.248   2.506  0.4305  0.0056  0.5624
  528TMC3     C 7841   3.040   2.547   2.274 -0.5846  0.2103 -0.8553
  528TMC3     O 7842   2.952   2.618   2.320 -0.4217  0.1454 -0.0918
  528TMC3     H 7843   3.282   2.455   2.239 -0.3177 -0.6435 -0.1490
  528TMC3    H1 7844   2.932   2.438   2.461  0.1837  0.2406  1.2805
  528TMC3    H2 7845   3.272   2.184   2.575 -2.6653 -0.7135  2.2923
  528TMC3    C7 7846   2.994   2.226   2.620 -0.4385  0.1122 -0.0720
  528TMC3    C8 7847   3.421   2.267   2.380 -0.4709 -0.3043  0.1821
  528TMC3    O1 7848   2.887   2.287   2.627  0.9312  0.7780 -0.4252
  528TMC3    O2 7849   3.451   2.168   2.442 -0.2486 -0.0792 -0.0877
  529MPD2     C 7850   0.926   0.623   0.923 -0.8801 -0.0378  0.4801
  529MPD2    C1 7851   0.819   0.556   0.870 -0.6994  0.5122 -0.4094
  529MPD2    C2 7852   0.778   0.575   0.743  0.2423 -0.4282  0.3171
  529MPD2    C3 7853   0.837   0.679   0.676  0.3459  0.2601  0.2890
  529MPD2    C4 7854   0.947   0.746   0.727 -0.2398 -0.0887  0.5174
  529MPD2    C5 7855   0.995   0.712   0.852  0.9437 -0.2093 -0.2959
  529MPD2     H 7856   0.690   0.522   0.708  0.2757  0.8106 -1.6882
  529MPD2    H1 7857   0.990   0.830   0.672 -2.7640  0.4042 -0.7192
  529MPD2    H2 7858   0.959   0.599   1.023 -1.1398 -2.4399 -0.0251
  529MPD2    H3 7859   1.088   0.757   0.886  0.7526 -0.6292  0.7963
  529MPD2     N 7860   0.791   0.734   0.558 -0.1096 -0.1305  0.6995
  529MPD2    H5 7861   0.847   0.812   0.526 -1.9959  0.3719 -1.3779
  529MPD2    N1 7862   0.747   0.459   0.943  0.0262 -0.3664 -0.2074
  529MPD2    H7 7863   0.667   0.421   0.893  0.5506  1.3988 -2.3613
  530TMC3    C1 7864   0.688   0.317   1.128  0.6264  0.0384  0.4024
  530TMC3    C2 7865   0.727   0.254   1.241 -0.2620 -0.2442 -0.3384
  530TMC3    C3 7866   0.640   0.195   1.322  0.2156  0.4939 -0.0883
  530TMC3    C4 7867   0.555   0.347   1.105 -1.4107  0.1019 -0.5455
  530TMC3    C5 7868   0.466   0.295   1.194  0.0130  0.2665  0.3389
  530TMC3    C6 7869   0.507   0.227   1.310  0.0516 -0.0183 -0.2357
  530TMC3     C 7870   0.785   0.409   1.069  0.5232 -0.1963 -0.1508
  530TMC3     O 7871   0.886   0.431   1.131 -0.3139 -0.3226  0.4745
  530TMC3     H 7872   0.831   0.235   1.264 -0.6873 -0.7956  1.1053
  530TMC3    H1 7873   0.511   0.413   1.032 -2.6741 -0.4090 -0.2483
  530TMC3    H2 7874   0.441   0.183   1.383  0.8736  0.9578  1.1032
  530TMC3    C7 7875   0.329   0.338   1.181  0.6948  0.2031 -0.7231
  530TMC3    C8 7876   0.682   0.115   1.444  0.4340  0.1461 -0.5700
  530TMC3    O1 7877   0.299   0.402   1.080 -0.0763  0.3333  0.6419
  530TMC3    O2 7878   0.605   0.042   1.500  0.4771  0.4321  0.4150
  531MPD2     C 7879   0.214   3.744  13.231  0.2796 -0.0483  0.0517
  531MPD2    C1 7880   0.088   3.793  13.259 -0.2757 -0.0007 -0.1777
  531MPD2    C2 7881   4.719   3.778  13.157 -0.8922 -0.3208  0.3254
  531MPD2    C3 7882   0.023   3.715  13.034  0.6962  0.0861 -0.4470
  531MPD2    C4 7883   0.146   3.661  13.016 -0.6362  0.4910  0.1896
  531MPD2    C5 7884   0.240   3.673  13.117  0.6860 -0.2005  0.5100
  531MPD2     H 7885   4.620   3.814  13.184 -0.3859 -0.1081  1.9099
  531MPD2    H1 7886   0.176   3.613  12.924  0.7934 -1.0646  1.4569
  531MPD2    H2 7887   0.296   3.743  13.302 -0.3065  1.8917  0.7514
  531MPD2    H3 7888   0.342   3.646  13.091  0.2941 -0.2386 -1.0279
  531MPD2     N 7889   4.637   3.670  12.954  0.1403  0.1886  0.4336
  531MPD2    H5 7890   4.655   3.588  12.897 -0.8136 -0.2301  0.7426
  531MPD2    N1 7891   0.066   3.851  13.385 -0.2457 -0.3117 -0.0188
  531MPD2    H7 7892   0.142   3.853  13.452 -0.6318 -0.0925  0.4107
  532TMC3    C1 7893   4.650   3.887  13.575  0.0261  0.1037 -0.7590
  532TMC3    C2 7894   4.526   3.898  13.619 -0.4119  0.7779 -0.1446
  532TMC3    C3 7895   4.482   3.816  13.726 -0.4418  0.0573 -1.0625
  532TMC3    C4 7896   0.016   3.816  13.644 -0.0918  0.2667  0.0552
  532TMC3    C5 7897   4.696   3.722  13.738  0.1835  0.4399  0.4423
  532TMC3    C6 7898   4.565   3.722  13.782  0.3647  0.0991 -0.3732
  532TMC3     C 7899   4.668   3.899  13.436  0.4771  0.6454  0.2011
  532TMC3     O 7900   4.564   3.927  13.381  0.6099 -0.5128 -0.8113
  532TMC3     H 7901   4.455   3.970  13.579 -1.6498  1.6709  3.6588
  532TMC3    H1 7902   0.119   3.794  13.616 -0.4883 -2.1348  0.4681
  532TMC3    H2 7903   4.529   3.655  13.859  2.8227  1.3651  1.9003
  532TMC3    C7 7904   0.064   3.614  13.776 -0.8813 -0.3634  0.2438
  532TMC3    C8 7905   4.350   3.756  13.709 -0.6666 -0.2974 -0.2091
  532TMC3    O1 7906   0.185   3.635  13.786 -0.0698 -0.1029 -0.0201
  532TMC3    O2 7907   4.300   3.707  13.808 -0.1157  0.4263 -0.3490
  533TMC3    C1 7908   0.436   0.396  14.554 -0.0791 -0.0525 -0.3425
  533TMC3    C2 7909   0.565   0.375  14.599  0.2935 -0.3061 -0.8340
  533TMC3    C3 7910   0.601   0.428  14.721  0.0898  0.0446 -0.0133
  533TMC3    C4 7911   0.345   0.460  14.631  0.5905 -1.1611 -0.4584
  533TMC3    C5 7912   0.391   0.527  14.743 -0.1777 -0.7099  0.3653
  533TMC3    C6 7913   0.516   0.507  14.792  0.7077  0.2548 -0.1639
  533TMC3     C 7914   0.375   0.279  14.506  0.2417  0.4495  0.3480
  533TMC3     O 7915   0.379   0.251  14.388  0.1728  0.1966 -0.7771
  533TMC3     H 7916   0.635   0.316  14.541  2.1103  1.3101 -0.2818
  533TMC3    H1 7917   0.238   0.457  14.613  0.4828 -1.0265  0.1662
  533TMC3    H2 7918   0.546   0.529  14.894 -1.5732 -0.1967  0.6071
  533TMC3    C7 7919   0.286   0.551  14.836 -0.2238 -0.3229  0.2153
  533TMC3    C8 7920   0.740   0.424  14.761 -1.0830  0.0559  0.3817
  533TMC3    O1 7921   0.174   0.502  14.815  0.2992 -0.4360  0.6018
  533TMC3    O2 7922   0.755   0.411  14.883 -0.0598 -0.5242  0.9423
  534MPD2     C 7923   2.536   1.497   2.584  0.0178  0.0371  0.2113
  534MPD2    C1 7924   2.584   1.545   2.466 -0.4512  0.2820  0.2301
  534MPD2    C2 7925   2.509   1.525   2.352 -0.0436 -0.0392 -0.3343
  534MPD2    C3 7926   2.395   1.448   2.347 -0.2922  0.7593  0.3317
  534MPD2    C4 7927   2.345   1.408   2.475 -0.0519  0.2549 -0.2960
  534MPD2    C5 7928   2.417   1.423   2.587  0.3387  0.3164  0.2255
  534MPD2     H 7929   2.553   1.565   2.261  0.1687 -0.4754 -0.4291
  534MPD2    H1 7930   2.258   1.345   2.486  0.0781 -0.1781 -1.7240
  534MPD2    H2 7931   2.593   1.507   2.675  0.6686 -0.5739 -0.1264
  534MPD2    H3 7932   2.371   1.383   2.677 -2.0526  1.4304 -0.4985
  534MPD2     N 7933   2.326   1.412   2.233  0.3049  0.4726 -0.0449
  534MPD2    H5 7934   2.233   1.372   2.241  0.4765  0.0073 -0.4087
  534MPD2    N1 7935   2.701   1.622   2.460 -0.4296  0.0358 -0.5066
  534MPD2    H7 7936   2.729   1.665   2.373 -1.0177 -0.4421 -0.9345
  535TMC3    C1 7937   2.287   1.384   1.992  0.0399 -0.0393  0.5666
  535TMC3    C2 7938   2.182   1.297   2.014 -0.5210 -0.1886  0.1771
  535TMC3    C3 7939   2.133   1.223   1.908  0.0018 -0.2025 -0.2716
  535TMC3    C4 7940   2.350   1.393   1.869 -0.4774  0.1922 -0.4052
  535TMC3    C5 7941   2.297   1.321   1.769  0.7035  0.4299 -0.6721
  535TMC3    C6 7942   2.187   1.238   1.779 -0.4694  0.2320 -0.1542
  535TMC3     C 7943   2.373   1.431   2.106  0.1368  0.1291  0.3631
  535TMC3     O 7944   2.486   1.465   2.070  0.0423  0.9626  0.0139
  535TMC3     H 7945   2.143   1.281   2.114 -1.8849  0.8965 -0.1847
  535TMC3    H1 7946   2.435   1.459   1.853 -0.0778 -0.5010 -1.1682
  535TMC3    H2 7947   2.156   1.182   1.692 -0.6989  1.0432 -0.5901
  535TMC3    C7 7948   2.351   1.334   1.629 -0.0582 -0.0495 -0.1867
  535TMC3    C8 7949   2.014   1.142   1.923  0.1696  0.0335  0.6278
  535TMC3    O1 7950   2.341   1.238   1.556 -0.0231 -0.4777 -0.2491
  535TMC3    O2 7951   1.982   1.088   1.816 -0.8445  0.2243 -0.2563
  536MPD2     C 7952   0.959   3.621  17.080 -0.4025 -0.2323 -0.4147
  536MPD2    C1 7953   0.980   3.751  17.043 -0.6868  0.0352  0.1565
  536MPD2    C2 7954   0.902   3.805  16.944  0.0922  0.2922  0.2750
  536MPD2    C3 7955   0.810   3.727  16.880  0.6300  0.7020  0.1667
  536MPD2    C4 7956   0.798   3.590  16.909  0.5810 -0.4866  0.0142
  536MPD2    C5 7957   0.864   3.539  17.015 -0.0250 -0.2558 -0.0158
  536MPD2     H 7958   0.912   3.911  16.920  2.4211 -0.3450 -1.5280
  536MPD2    H1 7959   0.731   3.520  16.859  0.9221  0.7012 -2.0856
  536MPD2    H2 7960   1.004   3.581  17.170 -2.2606 -0.4349  0.4230
  536MPD2    H3 7961   0.836   3.438  17.045  2.0350 -0.1141  2.3405
  536MPD2     N 7962   0.716   3.782  16.787 -0.2749 -0.4914  0.1805
  536MPD2    H5 7963   0.667   3.717  16.726 -0.4255 -1.3047  1.1745
  536MPD2    N1 7964   1.098   3.810  17.088 -0.3221  0.5166 -0.0175
  536MPD2    H7 7965   1.150   3.754  17.154 -3.6549 -1.8379  0.6254
  537TMC3    C1 7966   1.278   3.957  17.127 -0.0226 -0.0916 -0.0245
  537TMC3    C2 7967   1.380   4.008  17.052  0.1069 -0.2911  0.0254
  537TMC3    C3 7968   1.504   3.996  17.116  0.5066  0.0699  0.1025
  537TMC3    C4 7969   1.280   3.918  17.260 -0.0915 -0.0747 -0.0308
  537TMC3    C5 7970   1.401   3.925  17.318  0.1692 -0.1070 -0.3713
  537TMC3    C6 7971   1.516   3.958  17.251  0.0104  0.6463  0.6814
  537TMC3     C 7972   1.163   3.926  17.044  0.2485  0.4851  0.3969
  537TMC3     O 7973   1.131   4.007  16.959  0.3535  0.2085  0.5130
  537TMC3     H 7974   1.363   4.053  16.955 -2.5564  2.4081  1.7560
  537TMC3    H1 7975   1.187   3.906  17.313  1.9969 -2.1667  3.1385
  537TMC3    H2 7976   1.617   3.943  17.288  0.0095 -2.2419 -0.4260
  537TMC3    C7 7977   1.407   3.867  17.451 -0.1491 -0.0079  0.0354
  537TMC3    C8 7978   1.618   4.074  17.078  0.0491  0.0148 -0.1447
  537TMC3    O1 7979   1.308   3.806  17.482 -0.1250  0.4110 -0.6789
  537TMC3    O2 7980   1.724   4.045  17.120  0.2562 -0.0454 -0.0909
  538TMC3    C1 7981   2.777   2.443  11.286  0.2445 -1.0158  0.3782
  538TMC3    C2 7982   2.873   2.382  11.210 -0.1555  0.1081  0.2068
  538TMC3    C3 7983   2.891   2.429  11.081  0.2486  0.1306  0.1828
  538TMC3    C4 7984   2.715   2.556  11.237  0.5218  0.5363  0.5938
  538TMC3    C5 7985   2.734   2.598  11.106  0.1925  0.0511  0.2111
  538TMC3    C6 7986   2.825   2.536  11.034  0.1601 -0.1510 -0.7450
  538TMC3     C 7987   2.801   2.451  11.432  0.0120 -0.2774  0.2304
  538TMC3     O 7988   2.695   2.474  11.492  0.4302  0.3728 -0.1540
  538TMC3     H 7989   2.931   2.298  11.246 -1.0024 -0.1387  0.9966
  538TMC3    H1 7990   2.641   2.608  11.298  0.2421  0.4635  0.3160
  538TMC3    H2 7991   2.838   2.578  10.935  0.6657  2.3370  0.3686
  538TMC3    C7 7992   2.677   2.727  11.063  0.7344 -0.0198 -0.0243
  538TMC3    C8 7993   3.016   2.401  11.017  0.3701 -0.2501  0.9085
  538TMC3    O1 7994   2.587   2.717  10.981  0.0996 -0.2435  0.3527
  538TMC3    O2 7995   3.085   2.308  11.063 -0.2662  0.1004  0.1997
  539MPD2     C 7996   2.203   2.094  12.359 -1.4293  0.1147  0.1891
  539MPD2    C1 7997   2.212   2.099  12.220 -0.2081 -0.1048  0.6641
  539MPD2    C2 7998   2.211   2.225  12.153  0.2969 -0.0759  0.0208
  539MPD2    C3 7999   2.205   2.346  12.226 -0.4033 -0.0848 -0.3115
  539MPD2    C4 8000   2.202   2.332  12.363  0.1302 -1.1883  0.2078
  539MPD2    C5 8001   2.198   2.215  12.426 -0.0935 -0.0471 -0.0209
  539MPD2     H 8002   2.214   2.230  12.045 -0.0373  1.8071  0.1062
  539MPD2    H1 8003   2.172   2.416  12.424 -0.6906  0.3399 -2.3136
  539MPD2    H2 8004   2.188   2.003  12.416 -0.0096 -1.2005 -1.5343
  539MPD2    H3 8005   2.191   2.211  12.534  0.9171 -1.6819 -0.0123
  539MPD2     N 8006   2.204   2.484  12.176  0.2543  0.2847  0.0193
  539MPD2    H5 8007   2.214   2.562  12.240 -2.9199 -0.1470  1.0577
  539MPD2    N1 8008   2.217   1.984  12.137 -0.5021 -0.0135 -0.1897
  539MPD2    H7 8009   2.219   2.006  12.038  0.2383  0.8008 -0.0009
  540TMC3    C1 8010   2.174   2.660  12.029  0.2419  0.1401  0.3002
  540TMC3    C2 8011   2.201   2.709  11.902  0.8961  0.7721  0.5630
  540TMC3    C3 8012   2.176   2.838  11.885  0.6261  0.1170 -0.4469
  540TMC3    C4 8013   2.134   2.743  12.126  0.6148 -0.1275 -0.1744
  540TMC3    C5 8014   2.109   2.874  12.101  0.6813 -0.1404  0.4621
  540TMC3    C6 8015   2.124   2.921  11.979 -0.1304 -0.2275 -0.1307
  540TMC3     C 8016   2.192   2.513  12.047 -0.4127 -0.9848 -0.3606
  540TMC3     O 8017   2.192   2.438  11.952  0.5229  0.0435  0.1197
  540TMC3     H 8018   2.228   2.643  11.821 -0.1324 -0.2765  1.0665
  540TMC3    H1 8019   2.090   2.707  12.219  2.9116 -0.4367  0.7968
  540TMC3    H2 8020   2.090   3.022  11.959  0.6568 -0.0089 -0.3766
  540TMC3    C7 8021   2.036   2.952  12.192 -0.0759 -0.2792 -0.2121
  540TMC3    C8 8022   2.177   2.883  11.749  0.7099 -0.7218 -0.0090
  540TMC3    O1 8023   1.978   3.051  12.155  0.0908 -0.2196 -0.1230
  540TMC3    O2 8024   2.201   3.002  11.735  0.5723 -0.6450  0.8139
  541MPD2     C 8025   1.143   3.601  13.354  0.3632  0.1934  0.1600
  541MPD2    C1 8026   1.035   3.562  13.281  0.1047 -0.8091  0.0741
  541MPD2    C2 8027   0.986   3.634  13.173 -0.9310 -0.1310  0.3566
  541MPD2    C3 8028   1.031   3.764  13.152 -0.3147  0.7234 -0.2983
  541MPD2    C4 8029   1.138   3.804  13.231 -0.0830  0.2638 -0.7655
  541MPD2    C5 8030   1.193   3.723  13.331 -0.0253 -0.1984  0.1534
  541MPD2     H 8031   0.895   3.608  13.120 -0.5646  0.0281 -0.3496
  541MPD2    H1 8032   1.170   3.907  13.221 -0.7804  0.8915  3.6204
  541MPD2    H2 8033   1.192   3.545  13.433 -1.1631 -1.4443 -0.0536
  541MPD2    H3 8034   1.272   3.767  13.390  0.6833 -0.3009 -0.7069
  541MPD2     N 8035   0.969   3.855  13.060 -0.2363 -0.0538 -0.2549
  541MPD2    H5 8036   0.996   3.952  13.073 -2.4154  0.7343 -1.7939
  541MPD2    N1 8037   0.958   3.449  13.316  0.3356 -0.1133  0.0665
  541MPD2    H7 8038   0.888   3.424  13.247  0.3751 -0.1334  0.0343
  542TMC3    C1 8039   0.848   3.929  12.877 -0.6047  0.5763 -0.4657
  542TMC3    C2 8040   0.808   3.889  12.753  0.4909  0.6759  0.4534
  542TMC3    C3 8041   0.771   3.995  12.667 -0.0862 -0.1653  0.0073
  542TMC3    C4 8042   0.831   4.055  12.928  0.2602 -0.2254  0.5450
  542TMC3    C5 8043   0.777   4.145  12.846 -0.0552  0.6477 -0.5339
  542TMC3    C6 8044   0.744   4.119  12.713  0.3822  0.2851  0.4299
  542TMC3     C 8045   0.876   3.818  12.968 -0.1851  0.1479  0.0263
  542TMC3     O 8046   0.830   3.711  12.929 -0.1402  0.0352 -0.4990
  542TMC3     H 8047   0.847   3.796  12.713 -0.8612 -0.1557  1.0650
  542TMC3    H1 8048   0.859   4.079  13.030  0.3460  1.4377  0.1240
  542TMC3    H2 8049   0.734   4.198  12.640 -1.6396 -0.8602 -0.5418
  542TMC3    C7 8050   0.780   4.284  12.901 -0.1907  0.2800  0.4564
  542TMC3    C8 8051   0.771   3.963  12.530  0.5415  0.0570 -0.2996
  542TMC3    O1 8052   0.835   4.311  13.007 -0.5865 -0.5647  0.1947
  542TMC3    O2 8053   0.811   4.054  12.462 -0.1829 -0.1316  0.1649
  543TMC3    C1 8054   0.035   0.030  17.445 -0.0642 -0.5492  0.1608
  543TMC3    C2 8055   0.062   4.626  17.452 -0.1915 -0.2440 -1.0118
  543TMC3    C3 8056   0.047   4.561  17.573  0.5664 -0.5326  0.0530
  543TMC3    C4 8057   4.690   0.100  17.538 -0.1199 -0.0967 -0.2901
  543TMC3    C5 8058   4.686   0.035  17.658  0.3151  0.1563  0.5792
  543TMC3    C6 8059   4.718   4.635  17.678  0.1998 -0.4472 -0.3936
  543TMC3     C 8060   0.098   0.098  17.337  0.8056 -0.3928 -0.5989
  543TMC3     O 8061   0.204   0.039  17.305 -0.4898  0.1237  0.2980
  543TMC3     H 8062   0.088   4.569  17.364  2.1710  0.9349 -1.0684
  543TMC3    H1 8063   4.669   0.206  17.534  0.1924 -0.0005  0.7719
  543TMC3    H2 8064   4.699   4.588   0.077 -1.4141 -0.2085 -0.6001
  543TMC3    C7 8065   4.633   0.119   0.073 -0.1800 -0.3538 -0.2786
  543TMC3    C8 8066   0.119   4.438  17.576 -0.0312 -0.7116  0.0338
  543TMC3    O1 8067   4.568   0.217   0.041  0.2926 -0.3629 -0.4610
  543TMC3    O2 8068   0.119   4.375  17.472 -0.4458  0.2580  0.3167
  544MPD2     C 8069   0.534   4.200   0.063  0.0298 -0.1775 -0.4833
  544MPD2    C1 8070   0.478   4.216  17.629  0.2666  0.4755  0.0775
  544MPD2    C2 8071   0.366   4.291  17.603 -0.4687  0.4247  0.2644
  544MPD2    C3 8072   0.296   4.346   0.012  0.0261  1.0069 -0.4486
  544MPD2    C4 8073   0.351   4.336   0.147  0.7869  0.4958  0.4537
  544MPD2    C5 8074   0.460   4.258   0.167  0.7881  0.9054 -0.3009
  544MPD2     H 8075   0.317   4.292  17.506  2.1380  0.9967 -1.0592
  544MPD2    H1 8076   0.314   4.385   0.237 -1.2141 -0.4982  0.1677
  544MPD2    H2 8077   0.619   4.136   0.083 -1.1582 -0.8117  2.5392
  544MPD2    H3 8078   0.498   4.247   0.268  0.0945  1.5008  0.0273
  544MPD2     N 8079   0.181   4.424  17.691  0.0858  0.6652 -0.0244
  544MPD2    H5 8080   0.145   4.479   0.071 -0.4724 -2.5863  2.0759
  544MPD2    N1 8081   0.538   4.137  17.521 -0.0962 -0.2289  0.0137
  544MPD2    H7 8082   0.618   4.079  17.544 -1.3619 -1.6244  0.9301
  545TMC3    C1 8083   0.582   4.046  17.300  0.5619  0.5297 -0.7436
  545TMC3    C2 8084   0.540   4.034  17.174 -0.3250 -0.1253 -0.2893
  545TMC3    C3 8085   0.541   3.909  17.110 -0.0076  0.5785 -0.2038
  545TMC3    C4 8086   0.637   3.938  17.359 -0.0884 -0.3279  0.0615
  545TMC3    C5 8087   0.649   3.816  17.294 -0.3198 -0.2476  0.5291
  545TMC3    C6 8088   0.600   3.798  17.167  0.0311 -1.1007  0.3647
  545TMC3     C 8089   0.514   4.149  17.388 -0.8748 -0.0612  0.4680
  545TMC3     O 8090   0.449   4.236  17.334  0.0098  0.6446 -0.5862
  545TMC3     H 8091   0.481   4.118  17.138  1.0885  0.3515 -1.5317
  545TMC3    H1 8092   0.669   3.947  17.462 -2.6097 -1.2373  0.9294
  545TMC3    H2 8093   0.608   3.699  17.123  0.8129 -0.8828  0.0139
  545TMC3    C7 8094   0.732   3.706  17.346 -0.9595  0.9497 -0.6565
  545TMC3    C8 8095   0.433   3.889  17.015 -0.1035 -0.5780 -0.2448
  545TMC3    O1 8096   0.718   3.598  17.291 -0.2652 -0.4621 -0.6308
  545TMC3    O2 8097   0.358   3.987  16.993 -0.5625 -0.2374  0.2926
  546MPD2     C 8098   1.454   0.155  17.055 -0.2208 -0.0124 -0.6527
  546MPD2    C1 8099   1.509   0.097  17.167 -0.3379 -0.5780 -0.0225
  546MPD2    C2 8100   1.583   0.166  17.259 -0.9911  0.5571 -0.0041
  546MPD2    C3 8101   1.606   0.303  17.231 -0.2405  0.1923  0.1082
  546MPD2    C4 8102   1.545   0.366  17.126  0.4761 -0.2118 -0.7335
  546MPD2    C5 8103   1.464   0.296  17.031  0.1749  0.1746  1.0959
  546MPD2     H 8104   1.622   0.124  17.351  1.8582  1.4276 -0.7956
  546MPD2    H1 8105   1.556   0.473  17.120  1.6440 -0.2673  0.6535
  546MPD2    H2 8106   1.391   0.104  16.984  0.8611 -0.4582 -1.3033
  546MPD2    H3 8107   1.427   0.336  16.937 -0.6818 -0.8340  1.0032
  546MPD2     N 8108   1.666   0.386  17.323  0.5117 -0.4057 -0.1119
  546MPD2    H5 8109   1.644   0.485  17.320  0.1668 -0.3858  2.6945
  546MPD2    N1 8110   1.487   4.683  17.190  0.7446 -0.2133 -0.5876
  546MPD2    H7 8111   1.420   4.647  17.123  1.1112  2.3785 -2.3452
  547TMC3    C1 8112   1.447   4.484  17.312  0.0596  0.6192  0.6801
  547TMC3    C2 8113   1.349   4.450  17.219  0.6939  0.1873 -0.6016
  547TMC3    C3 8114   1.248   4.362  17.259 -0.2077  0.1809  0.3675
  547TMC3    C4 8115   1.451   4.424  17.439 -0.5782 -0.5260  0.8013
  547TMC3    C5 8116   1.350   4.335  17.473  0.3063  0.6352 -0.2993
  547TMC3    C6 8117   1.242   4.315  17.390 -0.2036  0.5535  0.2142
  547TMC3     C 8118   1.525   4.604  17.298 -0.3536 -0.0746  0.2100
  547TMC3     O 8119   1.603   4.628  17.385 -0.1236  0.0557  0.8319
  547TMC3     H 8120   1.357   4.489  17.118 -0.2641 -0.6937 -1.0154
  547TMC3    H1 8121   1.517   4.465  17.514  0.9962  2.4888 -2.1979
  547TMC3    H2 8122   1.164   4.242  17.407  1.8630 -1.3339  1.6279
  547TMC3    C7 8123   1.356   4.271  17.606 -0.3091  0.2042 -0.1361
  547TMC3    C8 8124   1.128   4.400  17.200  0.1301  0.3401  0.5263
  547TMC3    O1 8125   1.256   4.208  17.633 -0.2901  0.3084  0.0077
  547TMC3    O2 8126   1.138   4.433  17.084  0.1556  0.1235 -0.0679
  548MPD2     C 8127   1.650   1.184  12.650 -0.0481 -0.2868 -0.3381
  548MPD2    C1 8128   1.601   1.055  12.633 -0.3343 -0.1489  0.3719
  548MPD2    C2 8129   1.688   0.970  12.563  0.3367 -0.0758  0.2103
  548MPD2    C3 8130   1.810   1.009  12.514  0.1532  0.6961 -0.2519
  548MPD2    C4 8131   1.853   1.140  12.530  0.2957  0.4922  0.2053
  548MPD2    C5 8132   1.770   1.230  12.594  0.2840 -0.3541 -0.0584
  548MPD2     H 8133   1.655   0.867  12.552 -0.0278 -0.3881  3.9430
  548MPD2    H1 8134   1.948   1.179  12.496  0.6070  1.5096  2.3166
  548MPD2    H2 8135   1.579   1.258  12.684 -0.3635 -0.5730 -0.3722
  548MPD2    H3 8136   1.804   1.330  12.616 -2.1030  1.0243 -2.6417
  548MPD2     N 8137   1.874   0.913  12.433  0.1540  0.4618  0.5471
  548MPD2    H5 8138   1.843   0.816  12.436  0.7649  0.2792  1.0556
  548MPD2    N1 8139   1.487   1.010  12.700  0.2133  0.3860 -0.2885
  548MPD2    H7 8140   1.443   1.084  12.754  0.0905  0.1521 -0.0679
  549TMC3    C1 8141   1.309   0.869  12.767  0.3833 -0.0026 -0.4793
  549TMC3    C2 8142   1.266   0.967  12.853 -1.3514  0.1428  0.4492
  549TMC3    C3 8143   1.142   0.944  12.910 -0.0144  0.0478 -0.8162
  549TMC3    C4 8144   1.248   0.745  12.741  0.4022 -0.2202 -0.1330
  549TMC3    C5 8145   1.127   0.731  12.811  0.7025  0.3922 -0.5265
  549TMC3    C6 8146   1.070   0.829  12.890  0.1919 -0.1842  0.0392
  549TMC3     C 8147   1.438   0.880  12.706 -0.8648  0.3480 -0.1775
  549TMC3     O 8148   1.474   0.779  12.646 -0.0378  0.4723  0.2767
  549TMC3     H 8149   1.328   1.051  12.882 -0.6893  0.0565 -0.6888
  549TMC3    H1 8150   1.276   0.663  12.675 -0.1733 -0.9917  0.5748
  549TMC3    H2 8151   0.972   0.811  12.932  0.2324 -0.4725  0.0082
  549TMC3    C7 8152   1.061   0.605  12.790 -0.7323 -0.7422 -0.1943
  549TMC3    C8 8153   1.069   1.059  12.966  0.0087  0.3167 -0.2905
  549TMC3    O1 8154   1.127   0.511  12.758  0.2775  0.2614  0.1962
  549TMC3    O2 8155   0.951   1.042  12.983  0.0382  0.1915 -0.3039
  550TMC3    C1 8156   4.438   3.346  12.309 -0.4992 -0.3228  0.6520
  550TMC3    C2 8157   4.420   3.446  12.398  1.1230 -0.0532  0.3109
  550TMC3    C3 8158   4.529   3.480  12.475 -0.2072  0.3259  0.5134
  550TMC3    C4 8159   4.554   3.270  12.302  0.8419  0.3437 -0.1957
  550TMC3    C5 8160   4.661   3.306  12.378 -0.3913  0.3563  0.2411
  550TMC3    C6 8161   4.646   3.407  12.470  0.7012  0.6273 -0.4373
  550TMC3     C 8162   4.336   3.314  12.218 -0.3232 -0.2840  0.1435
  550TMC3     O 8163   4.218   3.346  12.238 -0.2027  0.2427  0.1577
  550TMC3     H 8164   4.334   3.512  12.394  0.5359 -0.8787 -0.6638
  550TMC3    H1 8165   4.560   3.181  12.240 -0.8860  0.0023  0.1364
  550TMC3    H2 8166   0.013   3.426  12.527 -0.1494 -2.2799  1.8199
  550TMC3    C7 8167   0.052   3.219  12.384  0.7256 -0.1974  1.2972
  550TMC3    C8 8168   4.530   3.619  12.527 -0.8967  0.1895 -0.6548
  550TMC3    O1 8169   0.103   3.210  12.495 -0.5017  0.8647  0.4068
  550TMC3    O2 8170   4.425   3.682  12.532  0.2659  0.2573  0.2043
  551TMC3    C1 8171   2.651   1.302  13.588 -0.5233  0.2552 -0.4339
  551TMC3    C2 8172   2.740   1.352  13.497  0.3096 -0.3350 -0.2837
  551TMC3    C3 8173   2.806   1.467  13.526 -0.6557  0.4010  0.4365
  551TMC3    C4 8174   2.626   1.362  13.708  0.4189 -0.3372  0.1850
  551TMC3    C5 8175   2.698   1.477  13.734 -0.0660  0.6457  0.1278
  551TMC3    C6 8176   2.790   1.536  13.643 -0.1401 -0.0220  0.0844
  551TMC3     C 8177   2.538   1.232  13.529  0.3598  0.1708  0.0325
  551TMC3     O 8178   2.552   1.135  13.457 -0.1331  0.0639  0.3948
  551TMC3     H 8179   2.746   1.313  13.396 -1.5509 -2.3572  0.3776
  551TMC3    H1 8180   2.553   1.325  13.779  1.4058  0.7072  1.7511
  551TMC3    H2 8181   2.859   1.616  13.666 -0.3116  0.2575 -0.3733
  551TMC3    C7 8182   2.664   1.536  13.860  0.3466  0.0431 -0.2094
  551TMC3    C8 8183   2.873   1.548  13.426  0.6063  0.4843  0.2653
  551TMC3    O1 8184   2.631   1.461  13.950  0.0058 -0.4713  0.4710
  551TMC3    O2 8185   2.946   1.484  13.351 -0.1962 -0.1146  0.6393
  552MPD2     C 8186   4.141   3.360  14.470  0.0888 -0.0123  0.2220
  552MPD2    C1 8187   4.185   3.267  14.370  0.2742  0.6281  0.1060
  552MPD2    C2 8188   4.316   3.233  14.363 -0.1284 -0.4557  0.4575
  552MPD2    C3 8189   4.410   3.291  14.440  0.7046  0.1645  0.2733
  552MPD2    C4 8190   4.373   3.379  14.541  0.0522  1.0931 -0.2648
  552MPD2    C5 8191   4.238   3.413  14.557  0.6233  0.6870  0.2851
  552MPD2     H 8192   4.335   3.150  14.294 -2.7565 -0.8099  0.1698
  552MPD2    H1 8193   4.446   3.414  14.613  0.1168  0.1862  0.1072
  552MPD2    H2 8194   4.037   3.380  14.488 -0.5218 -2.7035 -0.2384
  552MPD2    H3 8195   4.198   3.476  14.636  0.5234 -0.2290  0.9706
  552MPD2     N 8196   4.541   3.241  14.454 -0.1999 -0.5098 -0.0866
  552MPD2    H5 8197   4.594   3.288  14.526 -0.3665  0.8653 -0.8561
  552MPD2    N1 8198   4.088   3.186  14.298  0.1095 -0.1177  0.7508
  552MPD2    H7 8199   4.119   3.101  14.254 -1.2612 -0.4434  0.4135
  553TMC3    C1 8200   3.895   3.119  14.196  0.4552  0.1906  0.4202
  553TMC3    C2 8201   3.810   3.164  14.099 -0.1480 -0.5702 -0.0716
  553TMC3    C3 8202   3.769   3.081  13.997 -0.3581 -0.6091  0.1032
  553TMC3    C4 8203   3.952   2.995  14.194 -1.1063 -0.6578  0.3805
  553TMC3    C5 8204   3.924   2.920  14.087 -0.4791 -1.0698 -0.4706
  553TMC3    C6 8205   3.821   2.957  14.002  0.1311 -0.4343 -0.7273
  553TMC3     C 8206   3.957   3.218  14.283 -0.0718 -0.1525 -0.0489
  553TMC3     O 8207   3.902   3.323  14.311 -0.0005 -0.3438 -0.0115
  553TMC3     H 8208   3.786   3.268  14.085 -1.7210 -0.9761 -0.3712
  553TMC3    H1 8209   4.007   2.947  14.275  0.0202  1.3476  0.7954
  553TMC3    H2 8210   3.768   2.881  13.946 -0.9558  0.1646 -0.4926
  553TMC3    C7 8211   4.028   2.855  14.008 -0.0440 -0.0093  0.0263
  553TMC3    C8 8212   3.780   3.148  13.871 -0.0584 -0.4116 -0.0895
  553TMC3    O1 8213   3.991   2.843  13.893  0.3956  0.1624  0.5003
  553TMC3    O2 8214   3.718   3.250  13.846  0.0174 -0.2602  0.1584
  554TMC3    C1 8215   1.693   2.655  12.043  0.5486  0.2263  0.3164
  554TMC3    C2 8216   1.605   2.557  11.984 -0.7959  0.1415  0.7297
  554TMC3    C3 8217   1.583   2.553  11.851  0.0422 -0.2364  0.0106
  554TMC3    C4 8218   1.759   2.742  11.956 -0.5251 -0.0086 -0.4636
  554TMC3    C5 8219   1.724   2.742  11.825  0.5993  0.5660  0.4548
  554TMC3    C6 8220   1.639   2.652  11.768 -0.0119  0.1993  0.3397
  554TMC3     C 8221   1.730   2.651  12.185 -0.1194 -0.4683 -0.3540
  554TMC3     O 8222   1.826   2.719  12.212 -0.1451 -0.9131 -0.6780
  554TMC3     H 8223   1.574   2.473  12.046  0.7164 -0.5998  0.4696
  554TMC3    H1 8224   1.826   2.815  11.999 -1.7229  1.0765 -0.4639
  554TMC3    H2 8225   1.613   2.674  11.665 -1.0001  1.2195  0.8073
  554TMC3    C7 8226   1.792   2.817  11.732  0.8396  0.2885  0.3437
  554TMC3    C8 8227   1.483   2.459  11.795 -0.2687 -0.4650 -0.0662
  554TMC3    O1 8228   1.804   2.767  11.622  0.4430 -0.1069  0.2292
  554TMC3    O2 8229   1.406   2.402  11.873 -0.5370  0.4428  0.5113
  555TMC3    C1 8230   0.643   1.542  15.454 -0.5234  0.0102 -0.3824
  555TMC3    C2 8231   0.578   1.649  15.510 -0.3975  0.1077  0.3151
  555TMC3    C3 8232   0.543   1.633  15.641  0.2618  1.3233  0.6511
  555TMC3    C4 8233   0.661   1.422  15.524  0.0269  0.0041  0.4197
  555TMC3    C5 8234   0.606   1.406  15.644  0.1800 -0.5582 -0.1380
  555TMC3    C6 8235   0.553   1.512  15.710 -0.7218  0.1970  0.0507
  555TMC3     C 8236   0.697   1.563  15.317 -0.4035  0.0382  0.3306
  555TMC3     O 8237   0.822   1.560  15.307  0.3015 -0.3086  0.1773
  555TMC3     H 8238   0.576   1.745  15.460  0.4207  0.0201  0.1167
  555TMC3    H1 8239   0.734   1.350  15.489  0.2891  0.4194  0.1043
  555TMC3    H2 8240   0.502   1.496  15.804 -0.8328 -0.1866 -0.0766
  555TMC3    C7 8241   0.615   1.277  15.707 -0.0156 -0.0276  0.4171
  555TMC3    C8 8242   0.524   1.759  15.716 -0.0035  0.0092  1.0153
  555TMC3    O1 8243   0.597   1.279  15.828  0.5099  0.1145  0.0689
  555TMC3    O2 8244   0.500   1.860  15.654  0.0873  0.2508  0.8939
  556MPD2     C 8245   3.636   3.655  10.896 -0.0870 -0.3403 -0.1900
  556MPD2    C1 8246   3.611   3.543  10.973 -0.0154 -0.8596 -0.2930
  556MPD2    C2 8247   3.555   3.430  10.905 -0.6811  0.3078 -0.2201
  556MPD2    C3 8248   3.523   3.427  10.768  0.6648  0.3067 -0.2348
  556MPD2    C4 8249   3.544   3.542  10.700 -0.1573  0.0660  0.3990
  556MPD2    C5 8250   3.597   3.651  10.770 -0.2941  0.0319  0.2520
  556MPD2     H 8251   3.519   3.345  10.962 -2.1842 -0.3655 -2.1392
  556MPD2    H1 8252   3.536   3.548  10.592  4.2612 -1.2598  0.0167
  556MPD2    H2 8253   3.678   3.748  10.934 -0.7806  0.3567 -1.1273
  556MPD2    H3 8254   3.611   3.742  10.713 -2.9263  0.3974  0.1787
  556MPD2     N 8255   3.474   3.310  10.714  0.6144  0.3507  0.4991
  556MPD2    H5 8256   3.477   3.227  10.772  2.3940  1.7169  2.3380
  556MPD2    N1 8257   3.634   3.530  11.114 -0.0150 -0.0686 -0.4036
  556MPD2    H7 8258   3.609   3.446  11.164 -0.6456 -0.4176 -1.3113
  557TMC3    C1 8259   3.447   3.159  10.533  0.2637  0.2120 -0.2282
  557TMC3    C2 8260   3.473   3.132  10.403 -0.7885 -0.0467 -0.4256
  557TMC3    C3 8261   3.452   3.000  10.362  0.9589 -0.0732  0.0667
  557TMC3    C4 8262   3.413   3.057  10.612 -0.4126  0.0357 -0.1731
  557TMC3    C5 8263   3.413   2.925  10.571  0.3075 -0.6694 -0.3136
  557TMC3    C6 8264   3.436   2.892  10.439 -0.2232 -0.3163  0.3311
  557TMC3     C 8265   3.446   3.296  10.581  0.7213  0.2275 -0.4225
  557TMC3     O 8266   3.445   3.373  10.485  0.5908  0.0204 -0.1524
  557TMC3     H 8267   3.512   3.204  10.333  1.2527  0.1030  0.8693
  557TMC3    H1 8268   3.380   3.073  10.714 -1.3619  1.2234 -0.6589
  557TMC3    H2 8269   3.408   2.792  10.407  1.1381 -0.6258  0.0976
  557TMC3    C7 8270   3.327   2.840  10.642  0.5242 -0.0129  0.3007
  557TMC3    C8 8271   3.415   2.986  10.221 -0.4848 -0.2046  0.3328
  557TMC3    O1 8272   3.228   2.882  10.693 -0.3800  0.5601 -0.4619
  557TMC3    O2 8273   3.312   3.047  10.191 -0.3781  0.2173 -0.4534
  558TMC3    C1 8274   1.932   1.136   9.834  0.3227 -0.3479 -0.5624
  558TMC3    C2 8275   1.798   1.159   9.859  0.6601  0.1205  0.0620
  558TMC3    C3 8276   1.725   1.061   9.915 -0.2787 -0.1261  0.7878
  558TMC3    C4 8277   1.986   1.015   9.859 -0.6566 -0.4017  0.2589
  558TMC3    C5 8278   1.901   0.920   9.911 -0.0682  0.2642 -0.2662
  558TMC3    C6 8279   1.768   0.939   9.947 -1.3211 -0.6445  1.1052
  558TMC3     C 8280   2.022   1.252   9.850  0.1049  0.1851  0.4530
  558TMC3     O 8281   1.977   1.349   9.913  0.0362  0.5840  0.2145
  558TMC3     H 8282   1.749   1.253   9.836  1.8293  1.4363  3.0173
  558TMC3    H1 8283   2.090   0.990   9.838  0.8113  2.5179  3.9219
  558TMC3    H2 8284   1.706   0.863   9.993 -0.8495 -2.9815 -2.1700
  558TMC3    C7 8285   1.963   0.792   9.942 -0.2217  0.5499  0.1337
  558TMC3    C8 8286   1.579   1.084   9.912 -0.2064 -0.0199  0.8021
  558TMC3    O1 8287   2.082   0.777   9.913 -0.7540  0.3165 -0.4407
  558TMC3    O2 8288   1.541   1.101   9.797 -0.1220  0.1637  0.0197
  559MPD2     C 8289   1.136   2.006  11.013  0.0497  1.2957  0.6774
  559MPD2    C1 8290   1.134   1.921  11.120  0.1128 -0.1659 -0.0049
  559MPD2    C2 8291   1.232   1.829  11.142 -0.5973 -0.6794  0.1113
  559MPD2    C3 8292   1.344   1.822  11.058  0.4298  0.7046 -0.1834
  559MPD2    C4 8293   1.344   1.901  10.939  0.1822 -0.0969  0.0897
  559MPD2    C5 8294   1.245   1.993  10.926 -0.5764 -0.2498  0.6635
  559MPD2     H 8295   1.234   1.765  11.230 -3.0403 -0.7870  0.0773
  559MPD2    H1 8296   1.428   1.900  10.870  1.7060 -1.0460  1.9582
  559MPD2    H2 8297   1.059   2.081  10.998 -1.1154  0.1383  0.8857
  559MPD2    H3 8298   1.250   2.063  10.844 -0.0582 -0.5358  0.4475
  559MPD2     N 8299   1.460   1.756  11.094  0.6312 -0.2741 -0.4313
  559MPD2    H5 8300   1.454   1.728  11.192  0.2468  3.3630  0.5936
  559MPD2    N1 8301   1.023   1.940  11.206  0.1558 -0.4745 -0.0925
  559MPD2    H7 8302   0.974   2.028  11.195  0.7188 -0.0195  1.1157
  560TMC3    C1 8303   1.661   1.641  11.096 -0.4713  0.0222  0.0586
  560TMC3    C2 8304   1.651   1.509  11.069 -0.0978 -0.5313 -0.0102
  560TMC3    C3 8305   1.612   1.418  11.162 -0.0906  0.3600  0.2119
  560TMC3    C4 8306   1.654   1.687  11.224  0.5626 -0.2384  0.3450
  560TMC3    C5 8307   1.636   1.594  11.326  0.3343 -0.1962 -0.0109
  560TMC3    C6 8308   1.613   1.460  11.295  0.2665  0.2160 -0.0253
  560TMC3     C 8309   1.568   1.721  11.018 -0.0204 -0.3375 -0.0538
  560TMC3     O 8310   1.584   1.729  10.896 -0.5172 -0.4011 -0.6556
  560TMC3     H 8311   1.638   1.483  10.965 -0.2191 -1.2564  0.1910
  560TMC3    H1 8312   1.664   1.793  11.240 -0.1834 -0.0994 -0.1167
  560TMC3    H2 8313   1.577   1.398  11.377  0.6202 -0.6256 -0.5027
  560TMC3    C7 8314   1.673   1.626  11.464  0.2655  0.0085  0.7270
  560TMC3    C8 8315   1.502   1.343  11.103  0.0364  0.3367 -0.0355
  560TMC3    O1 8316   1.646   1.550  11.556  0.6972  0.6811 -1.0126
  560TMC3    O2 8317   1.500   1.304  10.987 -0.7616 -0.2442 -0.8063
  561TMC3    C1 8318   3.500   1.110  11.354  0.3401 -0.3166  0.4081
  561TMC3    C2 8319   3.611   1.054  11.409  0.1604 -0.4848 -0.1857
  561TMC3    C3 8320   3.680   1.123  11.507 -0.3630  0.6315  0.1642
  561TMC3    C4 8321   3.459   1.236  11.384  0.5204  0.2220 -0.2841
  561TMC3    C5 8322   3.543   1.318  11.463 -0.6859  0.0500  0.6817
  561TMC3    C6 8323   3.648   1.258  11.532  0.1781 -0.3864 -0.2722
  561TMC3     C 8324   3.425   1.044  11.249 -0.0043 -0.3159 -0.1263
  561TMC3     O 8325   3.308   1.066  11.253 -0.0395  0.1862 -0.0308
  561TMC3     H 8326   3.629   0.948  11.396 -1.0724 -0.7967  0.7133
  561TMC3    H1 8327   3.369   1.285  11.349  1.1819  0.6952 -1.2979
  561TMC3    H2 8328   3.712   1.308  11.603  0.5079  0.4076 -1.1279
  561TMC3    C7 8329   3.542   1.460  11.445  0.6471 -0.3397  0.8594
  561TMC3    C8 8330   3.711   1.052  11.623  0.2890  0.4655 -0.4379
  561TMC3    O1 8331   3.436   1.503  11.403  1.1354  0.4151  0.3230
  561TMC3    O2 8332   3.774   0.946  11.610  0.2142 -0.1740 -0.0294
  562TMC3    C1 8333   0.282   2.063  16.292 -0.3717 -0.5081  0.5370
  562TMC3    C2 8334   0.242   2.160  16.213 -0.1344 -0.0129  0.2378
  562TMC3    C3 8335   0.202   2.110  16.091 -0.6523 -0.3042 -0.1682
  562TMC3    C4 8336   0.311   1.932  16.254 -0.3272  0.2494  0.9725
  562TMC3    C5 8337   0.255   1.891  16.135 -0.6042 -0.2526  0.2697
  562TMC3    C6 8338   0.205   1.979  16.047 -0.1705  0.1401  0.5585
  562TMC3     C 8339   0.218   2.066  16.422  0.3398  0.2446  0.3854
  562TMC3     O 8340   0.265   1.988  16.507 -0.1374  0.0739 -0.2505
  562TMC3     H 8341   0.231   2.265  16.238  1.2527  0.0856  0.4414
  562TMC3    H1 8342   0.355   1.865  16.326  1.4349  0.4383  0.0649
  562TMC3    H2 8343   0.165   1.940  15.954 -0.9639 -0.2012  1.0416
  562TMC3    C7 8344   0.270   1.751  16.099 -0.7220  0.3139  0.1355
  562TMC3    C8 8345   0.100   2.195  16.031 -0.3013  0.1685  0.0016
  562TMC3    O1 8346   0.252   1.727  15.981  0.1532 -0.1284  0.0863
  562TMC3    O2 8347   0.039   2.261  16.117 -0.1195 -0.0619  0.3572
  563MPD2     C 8348   2.225   3.526  15.924  0.3406  0.0813  0.6243
  563MPD2    C1 8349   2.228   3.538  16.059  0.3212  0.8263 -0.6868
  563MPD2    C2 8350   2.313   3.642  16.110 -0.7798  0.1489  0.1959
  563MPD2    C3 8351   2.382   3.724  16.023  0.2247  0.2725 -0.5377
  563MPD2    C4 8352   2.371   3.708  15.889  0.2837 -0.1492 -0.1260
  563MPD2    C5 8353   2.290   3.607  15.835 -0.0434 -0.0766  0.1418
  563MPD2     H 8354   2.328   3.669  16.214  0.2181 -0.6983  0.2652
  563MPD2    H1 8355   2.418   3.775  15.817  0.5365  0.6794  0.8054
  563MPD2    H2 8356   2.154   3.456  15.881  0.4930 -0.4094  1.1577
  563MPD2    H3 8357   2.275   3.597  15.728  0.8408  0.5415 -0.0305
  563MPD2     N 8358   2.465   3.829  16.060  0.0028  0.4298  0.4723
  563MPD2    H5 8359   2.519   3.870  15.985 -2.9257 -0.4858 -2.1218
  563MPD2    N1 8360   2.148   3.451  16.130 -0.8213  0.7753 -0.4650
  563MPD2    H7 8361   2.111   3.369  16.083  0.3010 -1.2433  2.1754
  564TMC3    C1 8362   2.068   3.354  16.334 -0.0504 -0.4407  0.7182
  564TMC3    C2 8363   1.960   3.287  16.279 -0.0211 -0.2544 -0.3722
  564TMC3    C3 8364   1.884   3.212  16.368  0.0263  0.4559  0.5979
  564TMC3    C4 8365   2.094   3.347  16.471 -0.8848 -0.6457  0.4001
  564TMC3    C5 8366   2.019   3.270  16.554  0.1139  0.5962  0.4594
  564TMC3    C6 8367   1.909   3.203  16.500 -0.3461  0.0825  0.5991
  564TMC3     C 8368   2.136   3.465  16.264  0.3482  0.4891  0.0373
  564TMC3     O 8369   2.175   3.550  16.339  0.4717  0.3802 -0.1894
  564TMC3     H 8370   1.949   3.296  16.171 -0.8075  0.4190 -0.2364
  564TMC3    H1 8371   2.172   3.405  16.520  0.9685 -0.9215 -2.2290
  564TMC3    H2 8372   1.841   3.144  16.560  2.4287 -1.3627  2.3186
  564TMC3    C7 8373   2.100   3.188  16.643  0.0434 -0.4011  0.4545
  564TMC3    C8 8374   1.857   3.077  16.330  0.0872  0.8315 -0.1502
  564TMC3    O1 8375   2.209   3.233  16.670  0.1298 -0.9475  0.1339
  564TMC3    O2 8376   1.784   3.010  16.402  0.2248  0.0656 -0.3058
  565TMC3    C1 8377   3.161   4.094  10.553 -0.5469  0.3267 -0.0947
  565TMC3    C2 8378   3.191   4.071  10.682  0.2634 -0.0479 -0.3769
  565TMC3    C3 8379   3.136   3.955  10.733  0.4208 -0.8071 -0.8236
  565TMC3    C4 8380   3.068   4.028  10.478 -0.2635 -0.3369  0.2602
  565TMC3    C5 8381   3.015   3.915  10.538 -0.8435  0.7656  0.2072
  565TMC3    C6 8382   3.051   3.876  10.664 -0.0448  0.6268 -0.8412
  565TMC3     C 8383   3.226   4.196  10.478  0.3929  0.6648  0.1519
  565TMC3     O 8384   3.201   4.204  10.359 -0.1114 -0.1557  0.0718
  565TMC3     H 8385   3.253   4.137  10.742  1.4294 -1.4703 -0.0114
  565TMC3    H1 8386   3.029   4.077  10.389 -1.2043 -2.6280 -0.5918
  565TMC3    H2 8387   2.984   3.814  10.722  1.5814 -0.1655  0.1656
  565TMC3    C7 8388   2.915   3.846  10.460 -0.0572  0.7391  0.1195
  565TMC3    C8 8389   3.107   3.960  10.879  0.7682 -0.3587 -0.7021
  565TMC3    O1 8390   2.906   3.872  10.343 -0.6096  0.4001 -0.1871
  565TMC3    O2 8391   3.142   4.067  10.933 -0.2467 -0.1718  0.5815
  566MPD2     C 8392   0.047   1.150  14.504  0.2613  0.1786  0.6361
  566MPD2    C1 8393   0.064   1.284  14.486  0.3495 -0.1597  0.0982
  566MPD2    C2 8394   4.697   1.352  14.407 -0.4124 -0.2545  0.1334
  566MPD2    C3 8395   4.587   1.288  14.355 -0.1579 -0.1294  0.3079
  566MPD2    C4 8396   4.580   1.152  14.377 -0.2767 -0.0588 -0.3572
  566MPD2    C5 8397   4.677   1.082  14.442 -0.4288 -0.3746  0.4540
  566MPD2     H 8398   4.686   1.459  14.400  0.2702 -0.2812 -1.4047
  566MPD2    H1 8399   4.499   1.095  14.333  0.5625 -1.2783 -0.2907
  566MPD2    H2 8400   0.111   1.094  14.571 -0.6304 -1.4559  0.1335
  566MPD2    H3 8401   4.669   0.974  14.452  1.1938 -0.7252 -1.9660
  566MPD2     N 8402   4.489   1.346  14.269 -0.3777 -0.3029 -0.0735
  566MPD2    H5 8403   4.411   1.283  14.254 -2.1770  1.9048  0.0089
  566MPD2    N1 8404   0.179   1.347  14.546 -0.0747  0.1351  0.0440
  566MPD2    H7 8405   0.233   1.290  14.610  2.0565  1.2005 -0.8155
  567TMC3    C1 8406   0.362   1.492  14.553 -0.3530  0.8275  0.2925
  567TMC3    C2 8407   0.458   1.546  14.478  0.0202  0.6838  0.4069
  567TMC3    C3 8408   0.573   1.576  14.545 -0.2809  0.3106  0.4682
  567TMC3    C4 8409   0.378   1.450  14.680  0.3314 -0.5527 -0.7451
  567TMC3    C5 8410   0.499   1.478  14.743  0.6936 -0.2562 -0.3236
  567TMC3    C6 8411   0.598   1.541  14.673 -0.8981 -0.1627  0.0921
  567TMC3     C 8412   0.234   1.458  14.491  0.0372 -0.5680  0.0623
  567TMC3     O 8413   0.203   1.504  14.382  0.3558  0.3602 -0.3144
  567TMC3     H 8414   0.445   1.567  14.372  3.8014 -0.2254 -0.2622
  567TMC3    H1 8415   0.301   1.397  14.735 -0.4084  0.0148 -1.2399
  567TMC3    H2 8416   0.679   1.575  14.736 -2.5795 -0.7546  2.5912
  567TMC3    C7 8417   0.523   1.440  14.883 -0.6898  0.1424  0.2643
  567TMC3    C8 8418   0.637   1.693  14.495 -0.3532 -0.2006 -0.3735
  567TMC3    O1 8419   0.632   1.410  14.923 -0.1753  0.3117  0.8103
  567TMC3    O2 8420   0.569   1.770  14.422 -0.5632 -0.3495  0.0728
  568MPD2     C 8421   2.079   1.838  17.035 -0.4373 -0.0057 -0.3920
  568MPD2    C1 8422   1.964   1.908  17.060 -0.6304  0.3097  0.1896
  568MPD2    C2 8423   1.888   1.967  16.960 -0.0147  0.2256  0.0643
  568MPD2    C3 8424   1.934   1.974  16.834 -0.0655  0.4099  0.0348
  568MPD2    C4 8425   2.053   1.901  16.807 -0.6627  0.4090 -0.3156
  568MPD2    C5 8426   2.128   1.835  16.901  0.2004  0.2414  0.0627
  568MPD2     H 8427   1.801   2.028  16.984  0.9979  1.3866  0.7910
  568MPD2    H1 8428   2.083   1.884  16.704 -0.0304  1.1953 -0.2616
  568MPD2    H2 8429   2.128   1.782  17.113 -2.2417 -2.7131 -1.1610
  568MPD2    H3 8430   2.220   1.789  16.869  0.4321  0.4810  0.3921
  568MPD2     N 8431   1.859   2.043  16.729 -0.1681 -0.2166 -0.4593
  568MPD2    H5 8432   1.779   2.092  16.766  0.9019  0.0812  1.4939
  568MPD2    N1 8433   1.930   1.931  17.196 -0.3901  0.1233  0.2126
  568MPD2    H7 8434   1.997   1.896  17.264 -1.7065 -0.0549  1.4345
  569TMC3    C1 8435   1.812   2.166  16.532 -0.6738 -0.2054 -0.3344
  569TMC3    C2 8436   1.703   2.214  16.591  0.7178 -0.7057  0.0632
  569TMC3    C3 8437   1.662   2.342  16.557  0.3647  0.2320  0.8715
  569TMC3    C4 8438   1.889   2.237  16.446 -0.3242  0.1065 -0.7250
  569TMC3    C5 8439   1.855   2.367  16.415 -0.5612  0.2902  0.7469
  569TMC3    C6 8440   1.738   2.419  16.472  0.4931  0.8624  0.1883
  569TMC3     C 8441   1.881   2.054  16.595 -0.2619  0.2309  0.0591
  569TMC3     O 8442   1.973   2.008  16.526  0.2077 -0.2386 -0.4455
  569TMC3     H 8443   1.644   2.157  16.662  0.0445  0.5357  0.5121
  569TMC3    H1 8444   1.983   2.194  16.414 -0.3747  0.0619 -0.8147
  569TMC3    H2 8445   1.694   2.514  16.443 -1.2854  0.3916  1.3408
  569TMC3    C7 8446   1.960   2.435  16.344 -0.0754  0.2123 -0.3366
  569TMC3    C8 8447   1.639   2.425  16.674  0.3954  0.2065  0.1281
  569TMC3    O1 8448   2.068   2.381  16.325  0.2613  0.0907 -0.0701
  569TMC3    O2 8449   1.522   2.424  16.713 -0.2865 -0.0684 -0.0300
  570TMC3    C1 8450   1.706   1.123  16.504 -0.2761 -0.1736 -0.1295
  570TMC3    C2 8451   1.814   1.147  16.429  0.6152 -0.4447  0.5051
  570TMC3    C3 8452   1.840   1.282  16.398 -0.4226  1.2076  0.7498
  570TMC3    C4 8453   1.623   1.223  16.542  0.0054  0.5555  0.5221
  570TMC3    C5 8454   1.638   1.345  16.491  0.5929  0.3630 -0.4352
  570TMC3    C6 8455   1.750   1.383  16.426  0.0827  0.3331  0.3318
  570TMC3     C 8456   1.675   0.988  16.544 -0.3894 -0.9999 -0.3866
  570TMC3     O 8457   1.713   0.896  16.470  0.0145 -0.1314 -0.4639
  570TMC3     H 8458   1.882   1.064  16.412  1.5793  0.5540 -0.4102
  570TMC3    H1 8459   1.528   1.200  16.589  0.5963 -2.1253  0.4339
  570TMC3    H2 8460   1.757   1.488  16.401  0.9949  0.0064 -0.8007
  570TMC3    C7 8461   1.565   1.444  16.574 -0.1839  0.1444  0.5182
  570TMC3    C8 8462   1.952   1.325  16.327 -0.2643  0.3942 -0.3774
  570TMC3    O1 8463   1.511   1.401  16.677 -0.0407 -0.2114  0.1795
  570TMC3    O2 8464   1.982   1.446  16.319 -0.4613  0.5574 -0.7054
  571MPD2     C 8465   3.958   3.037  17.371  0.3674 -0.1657  0.1771
  571MPD2    C1 8466   3.955   3.007  17.514  0.0037 -0.4779 -0.0146
  571MPD2    C2 8467   4.017   3.084  17.611 -0.8512  0.0249  0.1283
  571MPD2    C3 8468   4.088   3.194  17.576  1.3315 -0.2187 -0.2663
  571MPD2    C4 8469   4.108   3.213  17.442 -0.6273 -0.1439  0.7296
  571MPD2    C5 8470   4.035   3.148  17.341  0.4063  0.1243  0.0278
  571MPD2     H 8471   4.012   3.058   0.019 -0.1136 -1.4985 -0.2149
  571MPD2    H1 8472   4.159   3.306  17.417 -1.6810  0.1121 -0.4697
  571MPD2    H2 8473   3.913   2.976  17.294  1.1135  0.5927 -0.8505
  571MPD2    H3 8474   4.062   3.170  17.238 -1.3584  0.3992 -0.3792
  571MPD2     N 8475   4.163   3.276  17.669 -0.2447  0.0232  0.0561
  571MPD2    H5 8476   4.219   3.350  17.628  1.9600 -1.0547  1.1382
  571MPD2    N1 8477   3.881   2.891  17.546 -0.4661 -0.3536  0.1827
  571MPD2    H7 8478   3.858   2.829  17.469  0.6505 -1.1584  0.4980
  572TMC3    C1 8479   4.252   3.377   0.161  0.1356 -0.3954 -0.2921
  572TMC3    C2 8480   4.236   3.430   0.291 -0.4944  0.1751 -0.6162
  572TMC3    C3 8481   4.328   3.525   0.333 -0.4464 -0.3086 -0.1583
  572TMC3    C4 8482   4.367   3.407   0.092 -0.0853 -0.0824 -0.3466
  572TMC3    C5 8483   4.452   3.506   0.135  0.8513 -0.3726 -0.1265
  572TMC3    C6 8484   4.436   3.561   0.257 -0.0435  0.0189 -0.3638
  572TMC3     C 8485   4.161   3.277   0.103 -0.1766 -0.5036 -0.3777
  572TMC3     O 8486   4.083   3.222   0.179 -0.2745 -0.0225  0.1715
  572TMC3     H 8487   4.144   3.405   0.343 -1.5887 -0.4276 -2.8565
  572TMC3    H1 8488   4.392   3.373  17.689  0.1992  0.0103 -0.3071
  572TMC3    H2 8489   4.508   3.630   0.300 -0.4023  0.0037  0.2584
  572TMC3    C7 8490   4.573   3.532   0.061  0.4670  0.4233 -0.0966
  572TMC3    C8 8491   4.324   3.553   0.474  0.4549 -0.2469  0.3908
  572TMC3    O1 8492   4.586   3.479  17.648  0.1696 -0.1281 -0.5340
  572TMC3    O2 8493   4.344   3.669   0.513  0.4478  0.5229 -0.0022
  573MPD2     C 8494   0.614   3.793   0.815 -0.0124 -0.9882 -0.1861
  573MPD2    C1 8495   0.725   3.858   0.874 -0.0232 -0.1775  0.5738
  573MPD2    C2 8496   0.843   3.868   0.793  0.7372 -1.1271  0.3367
  573MPD2    C3 8497   0.839   3.824   0.662 -0.3613 -0.3670 -0.7349
  573MPD2    C4 8498   0.718   3.785   0.608 -0.0208 -0.0024 -0.4470
  573MPD2    C5 8499   0.614   3.749   0.686  0.1310  0.2494  0.4935
  573MPD2     H 8500   0.934   3.918   0.824 -0.5293  1.0077  0.6212
  573MPD2    H1 8501   0.710   3.746   0.508 -1.3363 -0.2437 -0.2566
  573MPD2    H2 8502   0.527   3.770   0.877  0.4279 -0.4133  0.6537
  573MPD2    H3 8503   0.535   3.683   0.653  0.0931 -0.0024  1.0884
  573MPD2     N 8504   0.952   3.812   0.571  0.0667 -0.0325 -0.1053
  573MPD2    H5 8505   0.933   3.769   0.482 -1.3408 -2.0971  1.1866
  573MPD2    N1 8506   0.718   3.898   1.009  0.1645 -0.2307  0.5574
  573MPD2    H7 8507   0.626   3.896   1.053  0.5530  0.4351  1.4052
  574TMC3    C1 8508   1.175   3.791   0.506 -0.0851 -0.3557  0.2015
  574TMC3    C2 8509   1.140   3.734   0.383 -0.4288 -0.1372 -0.1215
  574TMC3    C3 8510   1.241   3.654   0.323  0.0407 -0.4149  0.3533
  574TMC3    C4 8511   1.301   3.787   0.557 -0.1449  0.1774 -0.0753
  574TMC3    C5 8512   1.394   3.717   0.487  0.4057  0.4445  0.2423
  574TMC3    C6 8513   1.366   3.650   0.372  0.1720  0.3229  0.0059
  574TMC3     C 8514   1.080   3.853   0.597 -0.3269 -0.1162  0.0358
  574TMC3     O 8515   1.115   3.916   0.695  0.3686  0.0847  0.0468
  574TMC3     H 8516   1.043   3.736   0.334 -0.3604  1.8033 -0.1796
  574TMC3    H1 8517   1.324   3.828   0.655 -0.0753 -0.8672  0.3463
  574TMC3    H2 8518   1.437   3.582   0.326 -0.6214 -0.2857 -0.2985
  574TMC3    C7 8519   1.527   3.726   0.543  0.1556  0.1693  0.2944
  574TMC3    C8 8520   1.217   3.587   0.196 -0.8307 -0.0509 -0.5045
  574TMC3    O1 8521   1.539   3.807   0.631  0.0819 -0.4354  0.0714
  574TMC3    O2 8522   1.286   3.494   0.174  0.0730 -0.0443  0.4510
  575TMC3    C1 8523   3.136   4.391  11.593 -0.1134 -0.0260 -0.9058
  575TMC3    C2 8524   3.198   4.345  11.709  0.0862  0.1254  0.3949
  575TMC3    C3 8525   3.205   4.210  11.725 -0.0133  0.4727 -0.0302
  575TMC3    C4 8526   3.065   4.311  11.513  0.0510  0.0344  0.3585
  575TMC3    C5 8527   3.076   4.177  11.537  0.5250 -0.4745  0.1603
  575TMC3    C6 8528   3.141   4.113  11.644 -0.0344 -0.3739  0.3168
  575TMC3     C 8529   3.158   4.525  11.529 -0.3631 -0.6417 -0.2824
  575TMC3     O 8530   3.100   4.555  11.424 -0.1783  0.6326  0.4903
  575TMC3     H 8531   3.238   4.420  11.777 -0.3798  0.0921  0.7053
  575TMC3    H1 8532   3.014   4.348  11.425 -0.0430  1.5724  1.0638
  575TMC3    H2 8533   3.149   4.009  11.672 -0.1045 -0.4251  0.1445
  575TMC3    C7 8534   3.083   4.112  11.402 -0.0592 -0.1586 -0.1170
  575TMC3    C8 8535   3.283   4.152  11.834 -0.0094  0.0623  0.3230
  575TMC3    O1 8536   3.084   4.179  11.302 -0.4923 -0.4998 -0.5793
  575TMC3    O2 8537   3.263   4.033  11.862  0.2866  0.1765 -0.2709
  576MPD2     C 8538   2.985   1.182  12.896  0.7802  0.3839 -0.1872
  576MPD2    C1 8539   2.942   1.269  12.806 -0.2369 -0.8034 -0.5176
  576MPD2    C2 8540   2.851   1.366  12.851  0.0299  0.2456 -0.5321
  576MPD2    C3 8541   2.812   1.376  12.984 -0.2241 -0.6374 -0.2587
  576MPD2    C4 8542   2.861   1.283  13.072 -1.1624  0.6838  0.1518
  576MPD2    C5 8543   2.948   1.188  13.022  0.3982  0.5646 -0.1923
  576MPD2     H 8544   2.825   1.447  12.784 -0.2808  0.1370 -0.5450
  576MPD2    H1 8545   2.843   1.285  13.179 -1.2555 -2.8540  0.1944
  576MPD2    H2 8546   3.049   1.097  12.873  0.7823  0.3421 -0.0285
  576MPD2    H3 8547   2.988   1.108  13.083  1.3021 -0.4747 -2.1328
  576MPD2     N 8548   2.731   1.482  13.025  0.5459  0.0670 -0.2008
  576MPD2    H5 8549   2.733   1.559  12.959  4.4401 -0.3415 -0.5539
  576MPD2    N1 8550   2.982   1.260  12.672  0.6581  0.2859  0.4883
  576MPD2    H7 8551   2.922   1.302  12.601  0.2016 -0.4070  0.4662
  577TMC3    C1 8552   3.127   1.216  12.485  0.4653  0.0892 -0.2194
  577TMC3    C2 8553   3.256   1.195  12.447  0.1722  0.2417  0.1571
  577TMC3    C3 8554   3.293   1.206  12.318  0.4012  0.3166  0.4174
  577TMC3    C4 8555   3.028   1.231  12.391  0.2958 -1.0462 -0.5027
  577TMC3    C5 8556   3.064   1.245  12.261  0.3632 -0.4501  0.3235
  577TMC3    C6 8557   3.196   1.230  12.220 -0.0701 -0.2254 -0.0034
  577TMC3     C 8558   3.096   1.192  12.629  0.0269  0.3145  0.4144
  577TMC3     O 8559   3.171   1.112  12.687  1.1121  0.5208  0.0641
  577TMC3     H 8560   3.336   1.176  12.517  0.0263  0.4972  0.3890
  577TMC3    H1 8561   2.928   1.221  12.429  1.3007  0.2234  2.4442
  577TMC3    H2 8562   3.209   1.226  12.113  0.7570 -3.0078  0.1968
  577TMC3    C7 8563   2.966   1.199  12.163 -0.4802 -0.1289 -0.3850
  577TMC3    C8 8564   3.397   1.113  12.277  0.6070  0.5694  0.1729
  577TMC3    O1 8565   3.008   1.136  12.066 -0.8948  0.3243  0.0507
  577TMC3    O2 8566   3.459   1.049  12.360 -0.4879 -0.0296  0.1179
  578MPD2     C 8567   0.575   0.467   1.627 -0.2283  0.0038 -0.1859
  578MPD2    C1 8568   0.641   0.533   1.525 -0.5513  0.5348  0.5912
  578MPD2    C2 8569   0.780   0.568   1.535  0.1122 -0.6624  0.2097
  578MPD2    C3 8570   0.843   0.533   1.656 -0.1963 -0.0377 -0.4800
  578MPD2    C4 8571   0.774   0.467   1.763 -0.3399 -0.3505 -0.1817
  578MPD2    C5 8572   0.642   0.433   1.743  0.4828  0.0665 -0.0615
  578MPD2     H 8573   0.840   0.612   1.457 -1.2771 -1.6318 -1.4071
  578MPD2    H1 8574   0.823   0.453   1.859  2.0358 -2.1785 -1.6431
  578MPD2    H2 8575   0.468   0.455   1.613 -0.0301 -0.3816 -1.4396
  578MPD2    H3 8576   0.588   0.385   1.824 -1.7061  2.4476 -0.1328
  578MPD2     N 8577   0.980   0.578   1.658  0.0487  0.2405  0.7554
  578MPD2    H5 8578   1.024   0.609   1.572  1.5809  0.6697  1.6969
  578MPD2    N1 8579   0.552   0.568   1.417  0.2330 -0.0144 -0.2652
  578MPD2    H7 8580   0.453   0.553   1.429  0.7367 -3.9418 -1.0936
  579TMC3    C1 8581   1.197   0.622   1.745  0.2868 -0.0897 -0.3949
  579TMC3    C2 8582   1.257   0.692   1.842  0.2032 -0.0386  0.6410
  579TMC3    C3 8583   1.387   0.735   1.820  0.6474 -0.2185  0.2544
  579TMC3    C4 8584   1.254   0.606   1.626 -0.9302 -0.8006 -0.0266
  579TMC3    C5 8585   1.383   0.649   1.605 -0.9102  0.5133  0.6220
  579TMC3    C6 8586   1.452   0.717   1.700  0.5340 -0.6707 -0.4932
  579TMC3     C 8587   1.060   0.581   1.771  0.6026 -0.2679  0.2103
  579TMC3     O 8588   1.028   0.568   1.888 -0.2580  0.0065 -0.4208
  579TMC3     H 8589   1.195   0.721   1.927  0.7805 -0.2718  1.1402
  579TMC3    H1 8590   1.186   0.575   1.548 -0.2433 -0.8332 -0.6137
  579TMC3    H2 8591   1.550   0.761   1.685  0.4740 -0.4274 -0.1916
  579TMC3    C7 8592   1.422   0.655   1.467 -0.1287  0.6684  0.2586
  579TMC3    C8 8593   1.453   0.794   1.936 -0.3265  0.4853 -0.1255
  579TMC3    O1 8594   1.496   0.742   1.430  0.3046 -0.3453  0.3751
  579TMC3    O2 8595   1.370   0.829   2.020  0.0943 -0.0929 -0.0053
  580TMC3    C1 8596   0.543   0.453  11.795  0.5298  0.0094 -0.4081
  580TMC3    C2 8597   0.572   0.416  11.670  0.6174  0.3719 -1.1093
  580TMC3    C3 8598   0.574   0.281  11.644 -0.1727  0.7314  0.5556
  580TMC3    C4 8599   0.507   0.359  11.892  0.0832 -0.1578  0.2068
  580TMC3    C5 8600   0.511   0.228  11.855 -0.3023  0.1916 -0.3960
  580TMC3    C6 8601   0.535   0.183  11.728 -0.4638  0.5204 -0.0822
  580TMC3     C 8602   0.612   0.579  11.833  0.2941  0.0268  0.9844
  580TMC3     O 8603   0.701   0.609  11.754  0.3017  0.1042  0.0619
  580TMC3     H 8604   0.594   0.497  11.602  0.3634  1.2685 -0.1294
  580TMC3    H1 8605   0.484   0.392  11.993  0.7659 -0.4999  0.4785
  580TMC3    H2 8606   0.551   0.078  11.706 -1.6873  0.1997  0.5464
  580TMC3    C7 8607   0.532   0.137  11.965  0.7561  0.1341 -0.7435
  580TMC3    C8 8608   0.674   0.242  11.553 -0.1557 -0.4264  0.0525
  580TMC3    O1 8609   0.571   0.188  12.069  0.0263 -0.1635  0.6232
  580TMC3    O2 8610   0.664   0.136  11.497 -0.0971 -0.7751 -0.2774
  581MPD2     C 8611   3.856   0.115  15.124  0.1132 -0.1748 -0.0884
  581MPD2    C1 8612   3.738   0.058  15.167  0.3739  0.2826 -0.0870
  581MPD2    C2 8613   3.627   0.090  15.090 -0.1308  0.6156  0.2295
  581MPD2    C3 8614   3.635   0.178  14.977 -0.8845 -0.2371  0.0145
  581MPD2    C4 8615   3.755   0.223  14.938  0.5297  0.2545 -0.0802
  581MPD2    C5 8616   3.868   0.193  15.010  0.1841 -0.1797  0.0026
  581MPD2     H 8617   3.526   0.067  15.120  0.5193 -2.8698 -0.2326
  581MPD2    H1 8618   3.763   0.283  14.848 -1.6141 -1.8066 -1.6614
  581MPD2    H2 8619   3.948   0.100  15.180  1.5735  0.2676 -2.3693
  581MPD2    H3 8620   3.963   0.232  14.978  0.5178  0.1778  1.4112
  581MPD2     N 8621   3.515   0.216  14.918 -0.1995  0.1837  0.8113
  581MPD2    H5 8622   3.434   0.177  14.965 -0.0388 -0.4339  0.5708
  581MPD2    N1 8623   3.718   4.710  15.286 -0.3847  0.3643 -0.0871
  581MPD2    H7 8624   3.621   4.685  15.303 -0.4827  1.2332  0.6165
  582TMC3    C1 8625   3.783   4.625  15.506  0.3144  0.1592  0.6384
  582TMC3    C2 8626   3.851   4.668  15.617  0.9147  0.0560  0.6479
  582TMC3    C3 8627   3.822   4.604  15.736  0.6298  0.1377  0.2773
  582TMC3    C4 8628   3.666   4.546  15.522  0.6805 -0.1944 -0.3585
  582TMC3    C5 8629   3.649   4.486  15.639  0.7084  0.1888  1.0956
  582TMC3    C6 8630   3.719   4.520  15.749 -0.0219 -0.1381 -0.1593
  582TMC3     C 8631   3.824   4.678  15.376 -0.5203 -0.7910  0.5728
  582TMC3     O 8632   3.943   4.708  15.376  0.1617 -0.6203  0.2556
  582TMC3     H 8633   3.933   0.016  15.617  0.7381  0.2509 -1.5879
  582TMC3    H1 8634   3.617   4.518  15.429  0.5266 -0.7973 -0.0995
  582TMC3    H2 8635   3.688   4.500  15.851  0.3128 -0.4309 -0.1153
  582TMC3    C7 8636   3.510   4.472  15.681  0.4062 -0.3961 -0.2087
  582TMC3    C8 8637   3.819   4.708  15.846 -0.0945 -0.5056 -0.0726
  582TMC3    O1 8638   3.487   4.402  15.774 -0.0916  0.2782  0.2601
  582TMC3    O2 8639   3.714   4.717  15.900  0.1379  0.2168  0.3608
  583MPD2     C 8640   3.310   1.697  17.053  1.2581 -0.4348 -0.6482
  583MPD2    C1 8641   3.358   1.828  17.030 -0.4310 -0.0368  0.7871
  583MPD2    C2 8642   3.317   1.929  17.115 -0.0728 -0.0149 -0.5374
  583MPD2    C3 8643   3.249   1.902  17.231 -0.2585  0.1966 -0.3343
  583MPD2    C4 8644   3.205   1.772  17.258  0.4826 -0.0129 -0.2152
  583MPD2    C5 8645   3.239   1.680  17.167 -0.0298  0.1697 -0.3499
  583MPD2     H 8646   3.348   2.030  17.090  1.8203 -1.1136 -2.6529
  583MPD2    H1 8647   3.144   1.740  17.342  2.1104 -1.1194  0.5550
  583MPD2    H2 8648   3.311   1.615  16.981 -0.6363 -0.0783 -1.0844
  583MPD2    H3 8649   3.208   1.577  17.180  0.8067  0.0495  0.6707
  583MPD2     N 8650   3.234   2.005  17.330  0.3416  0.2648 -0.7113
  583MPD2    H5 8651   3.286   2.093  17.326  0.0167  0.5474  1.2354
  583MPD2    N1 8652   3.439   1.859  16.911 -0.5402 -0.2904 -0.2469
  583MPD2    H7 8653   3.452   1.956  16.884  0.0720 -0.6031 -1.0585
  584TMC3    C1 8654   3.197   2.115  17.519 -0.1823  0.1150 -0.0168
  584TMC3    C2 8655   3.225   2.229  17.448 -0.8384  0.2262 -0.5159
  584TMC3    C3 8656   3.271   2.333  17.519  0.7406  0.0257  0.1728
  584TMC3    C4 8657   3.209   2.110  17.652  0.0826  0.1735 -0.0466
  584TMC3    C5 8658   3.240   2.230   0.015  0.3505 -0.4427 -0.3302
  584TMC3    C6 8659   3.275   2.349  17.647 -0.9950  0.0049 -0.0177
  584TMC3     C 8660   3.173   1.992  17.447  0.2289  0.4812  0.1893
  584TMC3     O 8661   3.121   1.898  17.509  0.0906  0.2329  0.4127
  584TMC3     H 8662   3.226   2.242  17.340  0.6525  1.6584 -0.3243
  584TMC3    H1 8663   3.177   2.019   0.005 -0.6809 -1.0815 -2.8749
  584TMC3    H2 8664   3.338   2.425  17.692 -2.3141  1.1932 -0.2059
  584TMC3    C7 8665   3.210   2.233   0.154 -0.1752 -1.3990  0.4478
  584TMC3    C8 8666   3.332   2.440  17.438 -0.3426  0.1516 -0.2604
  584TMC3    O1 8667   3.177   2.128   0.209  0.4854  0.4990 -0.5979
  584TMC3    O2 8668   3.386   2.396  17.337  0.5260 -0.1574  0.6238
  585MPD2     C 8669   2.423   0.805   1.097 -0.3496 -0.0462  0.7082
  585MPD2    C1 8670   2.515   0.844   1.003  0.1858 -0.1404  0.2888
  585MPD2    C2 8671   2.516   0.782   0.876 -0.4718  0.0155 -0.4312
  585MPD2    C3 8672   2.424   0.680   0.845  0.5213 -0.3771 -0.7795
  585MPD2    C4 8673   2.333   0.641   0.942  0.1793  0.3010  0.6497
  585MPD2    C5 8674   2.332   0.708   1.062  0.5481  0.1201 -0.2869
  585MPD2     H 8675   2.595   0.797   0.803  3.1769  1.4373  3.8508
  585MPD2    H1 8676   2.260   0.569   0.908  2.7471 -0.9969 -2.1100
  585MPD2    H2 8677   2.408   0.852   1.193 -1.2398 -2.4653  1.7438
  585MPD2    H3 8678   2.258   0.677   1.134  1.0484  1.4597  0.7838
  585MPD2     N 8679   2.431   0.639   0.709  0.3932 -0.1148  0.1829
  585MPD2    H5 8680   2.509   0.680   0.658  0.4054  0.7907  0.9405
  585MPD2    N1 8681   2.617   0.932   1.041 -0.7426  0.2274  0.0536
  585MPD2    H7 8682   2.620   0.977   1.132  0.9154  0.2274 -0.0091
  586TMC3    C1 8683   2.393   0.520   0.506  0.1825 -0.6056  0.0007
  586TMC3    C2 8684   2.521   0.558   0.466 -0.2832 -0.5170  0.8873
  586TMC3    C3 8685   2.536   0.631   0.354 -0.5206 -0.2487 -0.5683
  586TMC3    C4 8686   2.288   0.539   0.419 -0.5905  0.2890 -0.2004
  586TMC3    C5 8687   2.314   0.602   0.301  0.4694 -0.0656  0.4295
  586TMC3    C6 8688   2.431   0.666   0.279  0.0057 -0.6074 -0.0067
  586TMC3     C 8689   2.344   0.549   0.642  0.3236  0.3890  0.5438
  586TMC3     O 8690   2.237   0.502   0.680 -0.0084  0.3230 -0.3597
  586TMC3     H 8691   2.605   0.554   0.533  0.9228 -1.1796 -0.6557
  586TMC3    H1 8692   2.185   0.521   0.447 -0.6953  3.4582  1.4538
  586TMC3    H2 8693   2.435   0.732   0.193 -0.6316 -0.1247  0.3312
  586TMC3    C7 8694   2.279   0.501   0.199  0.4510  0.3325 -0.1461
  586TMC3    C8 8695   2.649   0.595   0.277  0.6278 -0.4083 -0.7776
  586TMC3    O1 8696   2.211   0.408   0.231  0.4410 -0.1540  0.3749
  586TMC3    O2 8697   2.699   0.488   0.315 -0.1473  0.4379  0.0223
  587TMC3    C1 8698   4.438   4.223  16.317  0.6355  0.6811  0.5791
  587TMC3    C2 8699   4.469   4.319  16.412 -0.4504 -0.1456 -0.1067
  587TMC3    C3 8700   4.588   4.300  16.478 -0.5475  0.4002 -1.0259
  587TMC3    C4 8701   4.526   4.124  16.278 -0.1060 -0.0069  0.0606
  587TMC3    C5 8702   4.631   4.098  16.359 -0.2264  0.0532  0.4780
  587TMC3    C6 8703   4.670   4.194  16.449 -0.4471 -0.9472 -0.2818
  587TMC3     C 8704   4.338   4.265  16.221  0.2245 -0.4239  0.8901
  587TMC3     O 8705   4.351   4.223  16.106 -0.0686 -0.8471  0.4793
  587TMC3     H 8706   4.420   4.415  16.418  1.5796  0.7894  1.6651
  587TMC3    H1 8707   4.496   4.046  16.210  1.6936  0.2752 -1.0726
  587TMC3    H2 8708   0.042   4.188  16.500 -0.3526  1.3977 -0.1853
  587TMC3    C7 8709   0.011   4.014  16.292  0.5166  0.6110  0.2688
  587TMC3    C8 8710   4.658   4.409  16.543  0.1261  0.3721 -0.0172
  587TMC3    O1 8711   4.717   3.998  16.170 -0.7593  0.1739 -0.6225
  587TMC3    O2 8712   0.055   4.394  16.550  0.2643  0.1715 -0.4861
  588TMC3    C1 8713   3.243   2.095  10.062  0.4532 -0.2579 -1.0878
  588TMC3    C2 8714   3.189   1.994   9.982 -0.3660 -0.2987 -0.0025
  588TMC3    C3 8715   3.171   1.872  10.038 -0.3996  0.5991 -0.1300
  588TMC3    C4 8716   3.266   2.064  10.189  0.3566 -0.5496  0.4398
  588TMC3    C5 8717   3.232   1.951  10.259 -0.8599  0.2122 -0.6496
  588TMC3    C6 8718   3.187   1.850  10.174  0.4975  0.2519  0.0895
  588TMC3     C 8719   3.204   2.237  10.056  0.3532  0.3254 -0.3110
  588TMC3     O 8720   3.127   2.276  10.143 -0.0989  0.3896  0.5305
  588TMC3     H 8721   3.166   2.017   9.878 -0.7516 -2.3081 -0.3657
  588TMC3    H1 8722   3.338   2.123  10.245  0.6093 -1.0219  0.6191
  588TMC3    H2 8723   3.147   1.762  10.225  1.5016  0.2446  0.8668
  588TMC3    C7 8724   3.145   1.985  10.371 -0.4957  0.6063  0.3980
  588TMC3    C8 8725   3.105   1.770   9.960 -0.5445  0.9823  0.0955
  588TMC3    O1 8726   3.076   1.900  10.429 -0.6613 -0.4830  0.3312
  588TMC3    O2 8727   3.037   1.812   9.868 -0.2416  0.4475 -0.3334
  589TMC3    C1 8728   1.811   4.657   1.741 -0.5429  0.7417  0.0883
  589TMC3    C2 8729   1.924   4.688   1.820  0.7568 -0.0832  0.3735
  589TMC3    C3 8730   2.038   4.636   1.781  0.4249  0.2206 -0.8189
  589TMC3    C4 8731   1.816   4.591   1.622 -0.6775 -0.4063 -0.1951
  589TMC3    C5 8732   1.938   4.540   1.589  0.2591 -0.9449 -0.9535
  589TMC3    C6 8733   2.051   4.567   1.669 -0.1368 -0.3539 -0.9416
  589TMC3     C 8734   1.676   4.694   1.788 -0.3380 -0.1486 -0.3940
  589TMC3     O 8735   1.584   4.675   1.707  0.2026 -0.3548 -0.2345
  589TMC3     H 8736   1.915   0.031   1.905  0.1756 -0.2205  0.4195
  589TMC3    H1 8737   1.731   4.578   1.558 -1.8141 -0.1645  1.2630
  589TMC3    H2 8738   2.148   4.528   1.640 -0.3328 -1.1902 -0.4501
  589TMC3    C7 8739   1.942   4.447   1.477 -0.9002  0.8264  0.3588
  589TMC3    C8 8740   2.144   4.630   1.881 -0.6000 -0.0113  0.1344
  589TMC3    O1 8741   1.837   4.419   1.418  0.6995 -0.2510  0.1711
  589TMC3    O2 8742   2.109   4.665   1.991  0.2770  0.1806 -0.3035
  590MPD2     C 8743   1.059   2.690  16.938  0.4129 -0.8332 -0.6187
  590MPD2    C1 8744   0.980   2.683  16.817 -0.8175 -0.0808 -0.6082
  590MPD2    C2 8745   1.040   2.719  16.698 -0.5954  0.1514  0.2614
  590MPD2    C3 8746   1.175   2.734  16.693 -0.0386  0.2970 -0.9318
  590MPD2    C4 8747   1.253   2.737  16.807 -0.6095 -0.2632 -0.8081
  590MPD2    C5 8748   1.193   2.718  16.932 -0.0031 -0.3249  0.9546
  590MPD2     H 8749   0.990   2.717  16.601  0.0125  0.6999 -0.0649
  590MPD2    H1 8750   1.356   2.772  16.806  0.3083 -3.0156 -2.4091
  590MPD2    H2 8751   1.024   2.670  17.039  2.6642 -1.6335  0.0069
  590MPD2    H3 8752   1.253   2.718  17.022  0.2792  0.7422  0.7702
  590MPD2     N 8753   1.224   2.765  16.564 -0.0080 -0.2026 -0.3512
  590MPD2    H5 8754   1.166   2.771  16.481  0.4082 -0.8421 -0.6912
  590MPD2    N1 8755   0.842   2.648  16.821  0.4127  0.1425 -0.5909
  590MPD2    H7 8756   0.801   2.645  16.914 -0.7296  2.2185 -1.0290
  591TMC3    C1 8757   1.366   2.824  16.391 -0.0018 -0.0320  0.5365
  591TMC3    C2 8758   1.490   2.814  16.331 -0.2416  0.2603  0.3934
  591TMC3    C3 8759   1.520   2.899  16.229 -1.2908  0.1188 -0.5799
  591TMC3    C4 8760   1.275   2.919  16.346  0.3583 -0.2594 -0.1539
  591TMC3    C5 8761   1.310   3.004  16.243 -0.1435 -0.9790 -0.1733
  591TMC3    C6 8762   1.434   2.997  16.186  0.1942 -0.3116 -0.2866
  591TMC3     C 8763   1.356   2.772  16.530  0.0414 -0.0005 -0.0406
  591TMC3     O 8764   1.452   2.717  16.583 -0.7423 -0.1543  0.7437
  591TMC3     H 8765   1.548   2.728  16.360 -0.7199  0.2291  1.2590
  591TMC3    H1 8766   1.174   2.929  16.386 -0.4023 -0.0822 -2.1455
  591TMC3    H2 8767   1.454   3.037  16.087  0.8200 -1.3283 -0.5762
  591TMC3    C7 8768   1.218   3.095  16.185 -0.1525  0.4223 -0.1214
  591TMC3    C8 8769   1.618   2.851  16.131 -0.3207 -0.4155  0.4293
  591TMC3    O1 8770   1.100   3.079  16.202 -0.1197  0.4293  0.0300
  591TMC3    O2 8771   1.628   2.729  16.130  0.2660  0.1627  0.5128
  592MPD2     C 8772   1.773   0.404  11.400 -0.6953  0.1674 -0.2812
  592MPD2    C1 8773   1.815   0.412  11.531  0.9887 -0.8606 -0.2000
  592MPD2    C2 8774   1.739   0.340  11.623  0.1364 -0.6147 -0.3105
  592MPD2    C3 8775   1.635   0.261  11.586  0.6187  0.0425 -0.2407
  592MPD2    C4 8776   1.595   0.248  11.456  0.3140  0.1167  0.0408
  592MPD2    C5 8777   1.664   0.329  11.363 -0.2327  0.1969  0.3010
  592MPD2     H 8778   1.760   0.329  11.728  0.0007  0.3531 -0.1839
  592MPD2    H1 8779   1.519   0.181  11.417 -0.0907  0.8326 -0.4172
  592MPD2    H2 8780   1.831   0.463  11.329  1.4244 -1.2169  0.3014
  592MPD2    H3 8781   1.636   0.324  11.259  0.3760  2.0969  0.0405
  592MPD2     N 8782   1.583   0.180  11.684 -0.0396  0.9261 -0.0901
  592MPD2    H5 8783   1.638   0.167  11.768 -0.2798  0.9487  0.0717
  592MPD2    N1 8784   1.931   0.489  11.562  0.4813  0.1329 -0.6523
  592MPD2    H7 8785   1.971   0.539  11.483  0.8234 -1.1941 -1.3175
  593TMC3    C1 8786   2.095   0.590  11.705 -0.3393 -0.4080 -0.3353
  593TMC3    C2 8787   2.135   0.614  11.830 -0.0521 -0.4641 -0.2014
  593TMC3    C3 8788   2.251   0.692  11.848 -0.1449 -0.5495 -1.0141
  593TMC3    C4 8789   2.172   0.615  11.592 -0.2395 -0.4807  0.1331
  593TMC3    C5 8790   2.291   0.693  11.620  0.7197 -0.2685  0.0591
  593TMC3    C6 8791   2.328   0.732  11.743 -0.7561 -0.0100  0.7828
  593TMC3     C 8792   1.971   0.514  11.694  0.3572  0.1982 -0.2349
  593TMC3     O 8793   1.914   0.483  11.798 -0.3576  0.6933 -0.1762
  593TMC3     H 8794   2.072   0.604  11.918 -0.6779 -0.4732 -0.6563
  593TMC3    H1 8795   2.159   0.566  11.496  2.5310  0.4667 -0.7304
  593TMC3    H2 8796   2.419   0.789  11.759 -0.6145 -0.0748  0.2116
  593TMC3    C7 8797   2.343   0.771  11.514 -0.4743  0.8994 -0.1951
  593TMC3    C8 8798   2.262   0.764  11.973  0.2013 -0.5390 -0.1395
  593TMC3    O1 8799   2.438   0.847  11.537  0.4047 -0.1783  0.3836
  593TMC3    O2 8800   2.159   0.789  12.039 -0.3670 -0.1937 -0.5346
  594MPD2     C 8801   0.397   3.409  14.107 -0.0688 -0.0252 -0.5824
  594MPD2    C1 8802   0.423   3.396  14.244 -0.2749 -0.3137  0.1600
  594MPD2    C2 8803   0.519   3.460  14.303  0.1284 -0.0785 -0.6273
  594MPD2    C3 8804   0.602   3.539  14.232 -0.0275  0.0864  0.2888
  594MPD2    C4 8805   0.571   3.562  14.095  0.3346  0.2533  1.1548
  594MPD2    C5 8806   0.462   3.504  14.038  0.1020  0.1835  0.2553
  594MPD2     H 8807   0.535   3.457  14.411  0.6070  0.4843 -0.6815
  594MPD2    H1 8808   0.636   3.624  14.034  1.0956 -0.6066  1.0948
  594MPD2    H2 8809   0.310   3.363  14.062 -0.2489 -0.8652  0.6341
  594MPD2    H3 8810   0.445   3.519  13.932  0.0808 -0.3658  0.1807
  594MPD2     N 8811   0.693   3.625  14.294  0.0952  0.7046  0.1882
  594MPD2    H5 8812   0.700   3.626  14.395 -0.0590 -2.2374  0.2279
  594MPD2    N1 8813   0.327   3.312  14.312 -0.6008 -0.3747  0.1574
  594MPD2    H7 8814   0.258   3.269  14.250 -1.3835  2.1306 -0.7204
  595TMC3    C1 8815   1.046   3.929  14.402  0.7833  0.0100 -0.4442
  595TMC3    C2 8816   0.994   3.837  14.314  0.2042  0.9090 -0.3081
  595TMC3    C3 8817   0.861   3.799  14.329  0.2061 -0.4852 -0.1104
  595TMC3    C4 8818   0.970   3.984  14.505  0.3793 -0.5357 -0.1015
  595TMC3    C5 8819   0.831   3.972  14.497 -0.2665 -0.5741 -1.0700
  595TMC3    C6 8820   0.778   3.867  14.421 -0.4427 -0.0062 -0.2811
  595TMC3     C 8821   1.186   3.947  14.404 -0.6306 -0.1480  0.4996
  595TMC3     O 8822   1.228   4.010  14.501 -0.1270 -0.0357 -0.1754
  595TMC3     H 8823   1.051   3.775  14.247  1.2220  0.9832  0.4913
  595TMC3    H1 8824   1.008   4.065  14.566 -0.0369 -0.2289 -0.2550
  595TMC3    H2 8825   0.675   3.839  14.440 -0.5816  0.3748 -0.4739
  595TMC3    C7 8826   0.746   4.020  14.600  0.2906 -0.7923 -0.0233
  595TMC3    C8 8827   0.785   3.708  14.233 -0.7023 -0.6789 -0.0245
  595TMC3    O1 8828   0.626   4.004  14.585 -0.4512 -0.1775  0.2027
  595TMC3    O2 8829   0.831   3.697  14.119  0.1135 -0.5335 -0.0950
  596MPD2     C 8830   4.329   1.537  16.910  0.1250 -0.0387 -0.1478
  596MPD2    C1 8831   4.315   1.666  16.857  0.5764  0.0321  0.1043
  596MPD2    C2 8832   4.334   1.691  16.725 -0.5026  0.6286 -1.1102
  596MPD2    C3 8833   4.366   1.583  16.642  0.1634 -0.0687  0.4373
  596MPD2    C4 8834   4.396   1.459  16.695 -0.8787 -0.4118  0.7133
  596MPD2    C5 8835   4.370   1.437  16.825 -0.2810 -0.2245 -0.3576
  596MPD2     H 8836   4.307   1.789  16.687 -1.4394  0.6874 -0.3048
  596MPD2    H1 8837   4.443   1.371  16.653 -0.7247 -0.4157  0.8946
  596MPD2    H2 8838   4.309   1.518  17.015  1.4326  1.3896  0.3583
  596MPD2    H3 8839   4.406   1.344  16.867 -0.7210 -0.5440 -0.6755
  596MPD2     N 8840   4.369   1.592  16.502  0.8463  0.0699  0.3310
  596MPD2    H5 8841   4.378   1.511  16.442  4.4724  1.7240 -1.3479
  596MPD2    N1 8842   4.276   1.779  16.933 -0.4510  0.5881 -0.8438
  596MPD2    H7 8843   4.272   1.866  16.880 -0.4061  1.0117 -0.1412
  597TMC3    C1 8844   4.202   1.904  17.116 -0.0515 -0.5359 -0.1982
  597TMC3    C2 8845   4.284   2.006  17.068 -0.0748 -0.4757  0.4687
  597TMC3    C3 8846   4.281   2.111  17.153 -0.1113 -0.0060  0.7574
  597TMC3    C4 8847   4.125   1.908  17.231  0.1766 -0.0605 -0.1896
  597TMC3    C5 8848   4.112   2.026  17.299  0.2055  0.1123  0.1633
  597TMC3    C6 8849   4.201   2.125  17.263 -0.4500 -0.1218 -0.5569
  597TMC3     C 8850   4.226   1.773  17.058 -0.2073 -0.3677 -0.2668
  597TMC3     O 8851   4.198   1.674  17.127 -0.4383 -0.4066  0.1610
  597TMC3     H 8852   4.352   2.005  16.984  1.1938 -2.6302  1.4880
  597TMC3    H1 8853   4.061   1.826  17.261  0.8517  0.0086  1.4482
  597TMC3    H2 8854   4.211   2.215  17.323 -2.0866 -0.2704 -0.0551
  597TMC3    C7 8855   4.004   2.049  17.405  0.2745 -0.8111 -0.1181
  597TMC3    C8 8856   4.390   2.210  17.135 -0.4803 -0.3669 -0.1988
  597TMC3    O1 8857   3.941   1.956  17.453 -0.3255  0.0193  0.0802
  597TMC3    O2 8858   4.479   2.179  17.060 -0.2163 -0.0331 -0.1869
  598TMC3    C1 8859   2.434   3.403  15.359  0.3163 -0.5629 -0.2277
  598TMC3    C2 8860   2.356   3.296  15.332 -1.0687  0.4163 -0.6397
  598TMC3    C3 8861   2.311   3.276  15.203  0.1267 -0.2768 -0.0927
  598TMC3    C4 8862   2.488   3.484  15.260 -0.1265  0.1990 -0.0603
  598TMC3    C5 8863   2.437   3.467  15.136 -0.2614  0.2625 -0.0931
  598TMC3    C6 8864   2.351   3.364  15.105  0.2082 -0.2561 -0.5985
  598TMC3     C 8865   2.480   3.415  15.493 -0.4195 -0.1702  0.0177
  598TMC3     O 8866   2.455   3.331  15.577 -0.2229  0.1629 -0.1515
  598TMC3     H 8867   2.350   3.227  15.416 -3.6545  0.4343 -0.8159
  598TMC3    H1 8868   2.558   3.565  15.282  0.7192 -0.8252  1.0520
  598TMC3    H2 8869   2.319   3.346  15.003  0.3269  1.7825 -0.9877
  598TMC3    C7 8870   2.471   3.538  15.015  0.2314  0.1880 -0.3502
  598TMC3    C8 8871   2.240   3.161  15.152  0.2243 -0.1573  0.4552
  598TMC3    O1 8872   2.413   3.521  14.909 -0.4155  0.5040 -0.1294
  598TMC3    O2 8873   2.218   3.149  15.031 -0.0160 -0.2455 -0.0993
  599MPD2     C 8874   2.448   1.225  16.381 -0.5909  0.5073 -0.7760
  599MPD2    C1 8875   2.395   1.102  16.332 -0.2025 -0.0524  0.2605
  599MPD2    C2 8876   2.287   1.049  16.405  0.2420  0.0299 -0.0485
  599MPD2    C3 8877   2.246   1.110  16.528 -0.5726  0.1886 -0.0166
  599MPD2    C4 8878   2.303   1.229  16.569 -0.4676  0.1897  0.3414
  599MPD2    C5 8879   2.413   1.274  16.504  0.6679  0.4741  0.1959
  599MPD2     H 8880   2.249   0.954  16.369  0.3455 -0.1905  0.4219
  599MPD2    H1 8881   2.278   1.287  16.657  0.7587  0.7527  0.3158
  599MPD2    H2 8882   2.532   1.267  16.327 -0.2819 -1.5611 -1.9225
  599MPD2    H3 8883   2.459   1.364  16.544 -2.2874  1.5936  1.1062
  599MPD2     N 8884   2.138   1.067  16.614 -0.5688  0.0514 -0.1741
  599MPD2    H5 8885   2.125   1.137  16.686 -2.0713 -1.5564  1.1231
  599MPD2    N1 8886   2.457   1.054  16.221 -0.0031 -0.1260  0.1119
  599MPD2    H7 8887   2.529   1.106  16.173 -2.7737  3.1689 -0.5152
  600TMC3    C1 8888   1.978   0.935  16.711  0.6883  0.3491 -0.1313
  600TMC3    C2 8889   1.943   0.808  16.735  0.0703  0.4660 -0.4816
  600TMC3    C3 8890   1.887   0.779  16.861  0.0335  0.1116 -0.3579
  600TMC3    C4 8891   1.962   1.039  16.801  0.2321 -0.5862 -0.5676
  600TMC3    C5 8892   1.902   1.006  16.923 -0.0404 -0.5706 -0.1880
  600TMC3    C6 8893   1.867   0.875  16.958 -0.3310  0.5896  0.1513
  600TMC3     C 8894   2.078   0.949  16.603  0.1116  0.3891  0.4700
  600TMC3     O 8895   2.095   0.861  16.522 -0.2675 -0.0437  0.0003
  600TMC3     H 8896   1.981   0.731  16.669 -3.6083 -1.4925 -0.3061
  600TMC3    H1 8897   1.979   1.143  16.777 -1.4040 -0.5226 -1.4350
  600TMC3    H2 8898   1.824   0.841  17.051 -0.9122 -2.4593 -1.2276
  600TMC3    C7 8899   1.855   1.107  17.007 -0.1891 -0.2735  0.7093
  600TMC3    C8 8900   1.862   0.637  16.900  0.0227 -0.0049 -0.6690
  600TMC3    O1 8901   1.811   1.202  16.945  0.6894 -0.1098  0.1594
  600TMC3    O2 8902   1.863   0.608  17.018 -0.1024 -0.2858 -0.0432
  601MPD2     C 8903   0.246   3.797  17.597 -0.2977 -0.3452  0.0954
  601MPD2    C1 8904   0.123   3.777  17.541  0.0568  0.3929  0.7074
  601MPD2    C2 8905   0.026   3.713  17.617  0.1448 -0.1807  0.5564
  601MPD2    C3 8906   0.051   3.663   0.050  0.6450  0.6274  1.0874
  601MPD2    C4 8907   0.176   3.687   0.101  1.1209 -0.9796 -0.7456
  601MPD2    C5 8908   0.270   3.757   0.031 -0.3016  0.1967  0.8369
  601MPD2     H 8909   4.646   3.710  17.586 -0.0750 -0.2248  1.3197
  601MPD2    H1 8910   0.183   3.666   0.207 -1.8657  0.7483 -0.1741
  601MPD2    H2 8911   0.319   3.866  17.557 -0.1800 -0.8686 -0.5924
  601MPD2    H3 8912   0.359   3.786   0.085  1.0516  0.4895 -1.5629
  601MPD2     N 8913   4.666   3.614   0.127  0.1818 -0.1288 -0.3785
  601MPD2    H5 8914   4.670   3.610   0.228  1.1075 -0.8496 -0.4331
  601MPD2    N1 8915   0.095   3.827  17.409  0.2360 -0.4348 -0.4862
  601MPD2    H7 8916   4.719   3.823  17.389 -0.2949 -1.4250  2.2340
  602TMC3    C1 8917   0.122   3.954  17.218  0.6118 -0.3765  0.1897
  602TMC3    C2 8918   0.122   4.093  17.231  0.7112 -0.1835 -0.5708
  602TMC3    C3 8919   0.009   4.157  17.198  0.0411  0.4931  0.1173
  602TMC3    C4 8920   0.012   3.888  17.165  0.2794  0.5176 -0.0853
  602TMC3    C5 8921   4.634   3.968  17.117 -0.2937  0.3528  0.0079
  602TMC3    C6 8922   4.626   4.099  17.140  0.1128  0.4386  0.7069
  602TMC3     C 8923   0.191   3.893  17.332  0.0645 -0.7695 -0.0014
  602TMC3     O 8924   0.314   3.892  17.341  0.0157  0.3928  0.4722
  602TMC3     H 8925   0.204   4.145  17.279 -1.0640  1.3098  0.7920
  602TMC3    H1 8926   0.010   3.780  17.155 -1.7531  0.6785 -1.6419
  602TMC3    H2 8927   4.550   4.161  17.094  0.3144  1.3380  1.5666
  602TMC3    C7 8928   4.529   3.903  17.044 -0.0264  0.0386 -0.1821
  602TMC3    C8 8929   0.019   4.306  17.186  0.3836 -0.5294  0.5147
  602TMC3    O1 8930   4.554   3.794  16.981  0.3988 -0.3079  0.2520
  602TMC3    O2 8931   0.120   4.357  17.138  0.7496 -0.0302 -0.1009
  603TMC3    C1 8932   2.527   0.017  11.503  0.7320  0.4271 -0.6673
  603TMC3    C2 8933   2.598   4.673  11.603 -0.6907 -0.2242  0.1246
  603TMC3    C3 8934   2.728   4.705  11.605  0.5072 -0.7995  0.3667
  603TMC3    C4 8935   2.584   0.094  11.401 -0.4235  0.0008  0.1677
  603TMC3    C5 8936   2.719   0.108  11.398 -0.1690 -0.3094 -0.3111
  603TMC3    C6 8937   2.785   0.063  11.508  0.5166  0.3311 -0.2021
  603TMC3     C 8938   2.380   0.009  11.512  0.1410 -0.3450 -0.2941
  603TMC3     O 8939   2.319   4.711  11.614  0.0251  0.3015 -0.2727
  603TMC3     H 8940   2.551   4.597  11.665  0.1016 -0.0172  0.9861
  603TMC3    H1 8941   2.521   0.140  11.326  0.2553  1.4827  0.5136
  603TMC3    H2 8942   2.894   0.055  11.505  0.5407  0.2798  0.8830
  603TMC3    C7 8943   2.792   0.187  11.304  0.5192  0.3120 -0.1026
  603TMC3    C8 8944   2.812   4.607  11.655  1.2766  0.0298  0.1364
  603TMC3    O1 8945   2.906   0.218  11.333 -0.3158  0.1934  0.3435
  603TMC3    O2 8946   2.785   4.492  11.630 -0.0022  0.3527 -0.1943
  604MPD2     C 8947   3.066   2.430  16.439  0.9021  0.0014  0.4678
  604MPD2    C1 8948   3.064   2.567  16.458  0.0950  0.1962 -0.6081
  604MPD2    C2 8949   3.140   2.652  16.381 -0.1094  0.2507 -0.0273
  604MPD2    C3 8950   3.222   2.606  16.282 -0.1850 -0.1258 -0.9053
  604MPD2    C4 8951   3.224   2.469  16.253 -0.3005 -0.0400 -0.0643
  604MPD2    C5 8952   3.146   2.382  16.335 -0.9374  0.3431  0.0199
  604MPD2     H 8953   3.126   2.760  16.387  0.3684  0.3195 -0.1000
  604MPD2    H1 8954   3.290   2.432  16.176 -0.6202 -1.8745  0.5545
  604MPD2    H2 8955   3.022   2.355  16.505 -0.5066 -0.4674 -1.0126
  604MPD2    H3 8956   3.149   2.276  16.312  1.3793  0.6046 -0.8658
  604MPD2     N 8957   3.292   2.701  16.206 -0.3405 -1.0038 -0.1547
  604MPD2    H5 8958   3.293   2.797  16.240 -0.9900 -1.1148  0.1751
  604MPD2    N1 8959   2.981   2.622  16.559  0.4974  0.1911  0.1603
  604MPD2    H7 8960   2.916   2.556  16.603 -0.0097  1.8537  1.9040
  605TMC3    C1 8961   2.897   2.776  16.720  0.1815 -0.1042 -0.6546
  605TMC3    C2 8962   2.963   2.857  16.803 -0.1787  0.7716 -0.1423
  605TMC3    C3 8963   2.903   2.962  16.872 -0.4271  0.6133 -0.2494
  605TMC3    C4 8964   2.764   2.790  16.693  0.7222  0.0913 -0.1504
  605TMC3    C5 8965   2.704   2.892  16.766 -0.0156 -0.3042  0.0181
  605TMC3    C6 8966   2.773   2.987  16.838 -0.2434 -0.1414 -0.4295
  605TMC3     C 8967   2.983   2.750  16.603 -0.0934 -0.5954  0.6231
  605TMC3     O 8968   3.064   2.843  16.578  0.0608  0.0695  0.1428
  605TMC3     H 8969   3.070   2.848  16.818 -0.6090 -3.8155  0.0040
  605TMC3    H1 8970   2.703   2.726  16.630 -2.4241  0.7922  2.1269
  605TMC3    H2 8971   2.726   3.072  16.886  1.7989  0.5334  0.3964
  605TMC3    C7 8972   2.574   2.932  16.730 -0.0643 -0.5410  0.0694
  605TMC3    C8 8973   2.994   3.076  16.881  0.1571 -0.1905  0.4534
  605TMC3    O1 8974   2.544   3.050  16.743 -0.2194  0.0002 -0.0529
  605TMC3    O2 8975   3.107   3.058  16.839  0.0427 -0.2424  0.0730
  606TMC3    C1 8976   4.482   1.183  17.263 -0.0589 -0.7361  0.4520
  606TMC3    C2 8977   4.608   1.136  17.277 -0.4363  0.2454  0.0369
  606TMC3    C3 8978   4.620   1.000  17.283  0.0714 -0.6257  0.3177
  606TMC3    C4 8979   4.366   1.104  17.262 -0.0315  0.2567  0.1379
  606TMC3    C5 8980   4.385   0.972  17.279 -0.3086  0.3062 -0.0417
  606TMC3    C6 8981   4.510   0.921  17.290  0.6179 -0.0711 -0.2962
  606TMC3     C 8982   4.460   1.325  17.263  0.0724  0.6324 -0.2450
  606TMC3     O 8983   4.364   1.359  17.200 -0.5076 -0.0977  0.0461
  606TMC3     H 8984   4.694   1.201  17.269 -0.8978  0.5491 -2.4906
  606TMC3    H1 8985   4.270   1.152  17.254 -0.1280  0.4036  2.1105
  606TMC3    H2 8986   4.516   0.813  17.299  0.0539 -0.2022 -1.4898
  606TMC3    C7 8987   4.283   0.904  17.358 -0.4839  0.2466  0.1926
  606TMC3    C8 8988   0.023   0.956  17.348 -0.0378 -0.5226  0.0147
  606TMC3    O1 8989   4.322   0.824  17.447  0.1317  0.3234  0.2618
  606TMC3    O2 8990   0.097   1.045  17.394 -0.2653  0.5530 -0.2177
  607MPD2     C 8991   1.697   4.532  11.922 -0.2042  0.5115 -0.2396
  607MPD2    C1 8992   1.766   4.580  12.032  0.0733 -0.4493 -0.0419
  607MPD2    C2 8993   1.769   4.512  12.150 -0.0508 -0.7458  0.8143
  607MPD2    C3 8994   1.702   4.395  12.165  0.7196 -0.4214 -0.4186
  607MPD2    C4 8995   1.629   4.346  12.061  0.1037  0.4703  0.2994
  607MPD2    C5 8996   1.631   4.411  11.941 -0.1116  0.2439  0.2859
  607MPD2     H 8997   1.813   4.555  12.239  0.5837  0.2440  0.0208
  607MPD2    H1 8998   1.584   4.247  12.068  0.3483  0.3688  0.4474
  607MPD2    H2 8999   1.689   4.575  11.823 -0.4393  0.3195 -0.3045
  607MPD2    H3 9000   1.579   4.363  11.859 -2.4004  0.1228  1.8149
  607MPD2     N 9001   1.721   4.332  12.292  0.3575 -0.0553 -0.5581
  607MPD2    H5 9002   1.755   4.388  12.369  0.0803  1.6823 -1.7095
  607MPD2    N1 9003   1.840   4.696  12.032 -0.4592 -1.0290  0.2828
  607MPD2    H7 9004   1.900   4.710  12.113 -0.5918 -0.6077  0.3115
  608TMC3    C1 9005   1.963   0.162  11.949 -0.4210  0.1490 -0.1469
  608TMC3    C2 9006   1.996   0.171  12.084  0.4211  0.0524  0.4434
  608TMC3    C3 9007   2.115   0.235  12.106 -0.5683 -0.3241  0.3496
  608TMC3    C4 9008   2.045   0.185  11.843  0.4625 -0.2009  0.0141
  608TMC3    C5 9009   2.157   0.256  11.869  0.3324  0.2888  0.1975
  608TMC3    C6 9010   2.197   0.268  12.001  1.1000 -0.0360 -0.6255
  608TMC3     C 9011   1.859   0.061  11.924 -1.1636  0.5814  0.2191
  608TMC3     O 9012   1.820   0.045  11.809 -0.0911 -0.3968 -0.5853
  608TMC3     H 9013   1.910   0.178  12.150  0.2339  1.3022  0.0694
  608TMC3    H1 9014   2.022   0.157  11.742  1.1213 -0.2001 -0.1379
  608TMC3    H2 9015   2.292   0.314  12.025  0.3933  0.4058  1.3321
  608TMC3    C7 9016   2.252   0.293  11.762  0.7677  0.0872  0.0419
  608TMC3    C8 9017   2.193   0.211  12.228  0.0030 -0.3042  0.1084
  608TMC3    O1 9018   2.201   0.309  11.655 -0.1463 -0.0018  0.5970
  608TMC3    O2 9019   2.306   0.256  12.232  0.3857  0.2533 -0.0072
  609TMC3    C1 9020   0.862   2.672   9.057 -0.1720 -0.6203 -0.1349
  609TMC3    C2 9021   0.806   2.604   8.953 -0.5985  0.3151  0.0490
  609TMC3    C3 9022   0.853   2.483   8.920  0.0585  0.7003 -1.1167
  609TMC3    C4 9023   0.963   2.614   9.130 -0.3554  0.6793  0.1160
  609TMC3    C5 9024   0.996   2.484   9.102  0.1476 -0.3671  0.1614
  609TMC3    C6 9025   0.964   2.418   8.985 -1.0456 -0.3016  0.4905
  609TMC3     C 9026   0.810   2.793   9.120  0.1412  1.0366 -0.1487
  609TMC3     O 9027   0.865   2.834   9.224  0.1482  0.0479 -0.2313
  609TMC3     H 9028   0.719   2.638   8.900 -0.2829  1.5791  0.3498
  609TMC3    H1 9029   1.002   2.656   9.222 -0.5539  0.4153  0.3192
  609TMC3    H2 9030   0.999   2.318   8.965 -1.9992  0.0309 -2.8860
  609TMC3    C7 9031   1.106   2.425   9.186 -0.0199  0.4190 -0.6118
  609TMC3    C8 9032   0.788   2.426   8.806 -0.1091  0.0820  0.1606
  609TMC3    O1 9033   1.173   2.497   9.258  0.5413  0.0411  0.2676
  609TMC3    O2 9034   0.703   2.491   8.744 -0.3242  0.7769  0.1086
  610TMC3    C1 9035   2.611   4.454  12.583  0.0453  0.0940 -0.4037
  610TMC3    C2 9036   2.542   4.448  12.471  0.9696  0.0728  0.4511
  610TMC3    C3 9037   2.468   4.337  12.435  0.6021 -0.0942  0.0740
  610TMC3    C4 9038   2.624   4.339  12.661  0.8609  0.0846 -0.3023
  610TMC3    C5 9039   2.563   4.226  12.610  0.3189  0.2190 -0.0035
  610TMC3    C6 9040   2.481   4.223  12.504 -0.0340 -0.1102 -0.2111
  610TMC3     C 9041   2.710   4.555  12.605 -0.3377 -0.0447 -0.6539
  610TMC3     O 9042   2.778   4.548  12.706  0.2450 -0.4561 -0.2988
  610TMC3     H 9043   2.541   4.529  12.399  1.1692 -0.1581  0.1858
  610TMC3    H1 9044   2.690   4.339  12.747  3.0544  0.5331 -2.0071
  610TMC3    H2 9045   2.411   4.143  12.485  1.1080 -1.0196 -0.6102
  610TMC3    C7 9046   2.565   4.118  12.705  0.4417 -0.1314  0.0449
  610TMC3    C8 9047   2.384   4.348  12.316 -0.5095 -0.2132 -0.2845
  610TMC3    O1 9048   2.636   4.127  12.800 -0.1815  0.1172 -0.3219
  610TMC3    O2 9049   2.381   4.459  12.263 -0.1409 -0.4752 -0.1848
  611MPD2     C 9050   2.167   4.429  10.477 -0.2455  0.3401  0.7970
  611MPD2    C1 9051   2.075   4.525  10.460  0.6367 -0.0582 -0.5207
  611MPD2    C2 9052   2.116   4.661  10.464  0.2763 -0.1272  0.3074
  611MPD2    C3 9053   2.252   4.687  10.495 -0.1887 -0.5744  0.2231
  611MPD2    C4 9054   2.340   4.586  10.529 -0.2938  0.3780  0.0769
  611MPD2    C5 9055   2.298   4.457  10.509 -0.3173 -0.7919 -0.6664
  611MPD2     H 9056   2.049   0.023  10.452  2.4334  1.6045  0.6695
  611MPD2    H1 9057   2.446   4.605  10.546  0.3422 -1.3133 -1.9812
  611MPD2    H2 9058   2.138   4.326  10.458  1.0927  0.3643 -1.4050
  611MPD2    H3 9059   2.368   4.377  10.529 -1.4758 -1.4210  0.8811
  611MPD2     N 9060   2.315   0.091  10.498  0.8416  0.5333  0.0047
  611MPD2    H5 9061   2.414   0.099  10.518  1.1742  0.6364 -1.6521
  611MPD2    N1 9062   1.941   4.480  10.460 -0.0187 -0.4493 -0.0599
  611MPD2    H7 9063   1.923   4.382  10.479  1.5165 -0.7143  0.0282
  612TMC3    C1 9064   2.347   0.321  10.460 -0.3673  0.2421  0.6354
  612TMC3    C2 9065   2.432   0.345  10.564  0.1049 -0.5613  0.3690
  612TMC3    C3 9066   2.485   0.468  10.586  0.8670 -0.1222  0.0579
  612TMC3    C4 9067   2.297   0.420  10.383 -0.0857 -0.2025  0.2147
  612TMC3    C5 9068   2.329   0.550  10.421 -0.5108 -1.0941  0.5712
  612TMC3    C6 9069   2.426   0.577  10.517  0.4295 -0.0423 -0.3931
  612TMC3     C 9070   2.258   0.209  10.461  0.7101  0.7092 -0.6857
  612TMC3     O 9071   2.160   0.217  10.384  0.3164  0.4675  0.1207
  612TMC3     H 9072   2.463   0.256  10.617  0.0835 -0.1480  1.0660
  612TMC3    H1 9073   2.227   0.404  10.303  0.0373  0.7946 -0.1010
  612TMC3    H2 9074   2.464   0.679  10.523 -1.6772  0.8087 -1.4621
  612TMC3    C7 9075   2.299   0.652  10.320 -0.1866 -0.7951  0.2265
  612TMC3    C8 9076   2.603   0.493  10.672 -0.1917  0.7696 -1.1268
  612TMC3    O1 9077   2.299   0.613  10.209 -0.3173  0.2280  0.4352
  612TMC3    O2 9078   2.644   0.609  10.681  0.1238  0.0511  0.4943
  613MPD2     C 9079   0.616   1.700  17.192  0.1938  0.1817 -0.2919
  613MPD2    C1 9080   0.580   1.694  17.061  0.0868 -0.1840  0.2088
  613MPD2    C2 9081   0.510   1.589  17.003  0.1794 -0.3329  0.1859
  613MPD2    C3 9082   0.484   1.481  17.082 -0.5417 -0.2051 -0.6649
  613MPD2    C4 9083   0.527   1.487  17.212  0.2787  0.4861  0.1701
  613MPD2    C5 9084   0.589   1.593  17.270  1.2929 -0.1047  0.1424
  613MPD2     H 9085   0.498   1.589  16.896  1.0173  1.4046  0.0927
  613MPD2    H1 9086   0.506   1.409  17.284  3.2528 -2.8523 -2.5292
  613MPD2    H2 9087   0.675   1.782  17.229  0.9854 -0.0793 -0.9639
  613MPD2    H3 9088   0.623   1.593  17.373  2.0426  1.6418 -0.1151
  613MPD2     N 9089   0.427   1.362  17.036 -0.2733 -0.5829  0.4292
  613MPD2    H5 9090   0.422   1.285  17.103  2.1215 -0.7869  0.3638
  613MPD2    N1 9091   0.629   1.804  16.981  0.4084 -0.6856  0.3278
  613MPD2    H7 9092   0.715   1.845  17.015  0.5085 -0.5534 -0.0839
  614TMC3    C1 9093   0.698   1.834  16.770 -0.4235 -0.4411  0.2236
  614TMC3    C2 9094   0.762   1.712  16.765 -0.4782  0.1919  1.1243
  614TMC3    C3 9095   0.790   1.651  16.648  0.0599 -0.2369 -0.3098
  614TMC3    C4 9096   0.674   1.899  16.651  0.6042 -0.2369  0.0840
  614TMC3    C5 9097   0.689   1.825  16.530  0.2611  0.1687  0.5373
  614TMC3    C6 9098   0.756   1.710  16.531 -0.7560 -0.7327 -0.1749
  614TMC3     C 9099   0.583   1.824  16.854  0.3101 -0.1396  0.1609
  614TMC3     O 9100   0.471   1.801  16.804 -0.3840  0.3875 -0.1809
  614TMC3     H 9101   0.789   1.663  16.857  0.9767  1.3954  1.3397
  614TMC3    H1 9102   0.620   1.992  16.658 -0.0246 -0.6340  0.6135
  614TMC3    H2 9103   0.777   1.657  16.438  1.0373 -4.5316  2.4130
  614TMC3    C7 9104   0.679   1.914  16.413 -0.3050  0.7798 -0.0397
  614TMC3    C8 9105   0.770   1.505  16.664  1.1381  0.5115 -0.1037
  614TMC3    O1 9106   0.656   2.035  16.428  0.1495  0.0958  0.4482
  614TMC3    O2 9107   0.708   1.469  16.767  0.6210 -0.3981 -0.1759
  615MPD2     C 9108   4.647   2.565  16.345 -0.0103 -0.4113  0.5534
  615MPD2    C1 9109   4.631   2.703  16.353 -0.2215  0.1587 -0.2108
  615MPD2    C2 9110   4.553   2.764  16.258 -0.2357 -1.2461 -0.3459
  615MPD2    C3 9111   4.509   2.692  16.150  0.5020 -0.1471 -0.2095
  615MPD2    C4 9112   4.540   2.562  16.135 -0.1097 -0.1900  0.3123
  615MPD2    C5 9113   4.605   2.492  16.236 -0.7073 -0.2824 -0.1585
  615MPD2     H 9114   4.538   2.870  16.271 -0.2567 -1.2055 -0.6962
  615MPD2    H1 9115   4.513   2.499  16.051 -2.9376  1.2514  0.1337
  615MPD2    H2 9116   4.696   2.503  16.419  0.4379 -0.5643  0.1276
  615MPD2    H3 9117   4.622   2.385  16.233  2.9619  0.3030 -1.0032
  615MPD2     N 9118   4.417   2.749  16.054  0.4448  0.2183 -0.4673
  615MPD2    H5 9119   4.383   2.699  15.973 -0.9197 -0.1824  0.3635
  615MPD2    N1 9120   4.673   2.763  16.472 -0.0778 -0.5927 -0.0651
  615MPD2    H7 9121   0.015   2.714  16.531  1.2794  1.6158  0.2738
  616TMC3    C1 9122   0.012   2.948  16.614 -0.7615 -0.3274 -0.1922
  616TMC3    C2 9123   0.135   2.902  16.609  0.3701  0.2047 -0.6915
  616TMC3    C3 9124   0.236   2.990  16.621 -1.0055 -0.0440 -0.7117
  616TMC3    C4 9125   4.708   3.078  16.630 -1.1406  0.5351 -0.9261
  616TMC3    C5 9126   0.082   3.166  16.621  0.1228 -1.2371  0.6064
  616TMC3    C6 9127   0.216   3.132  16.628 -0.0073 -0.1121 -0.7203
  616TMC3     C 9128   4.642   2.893  16.513  0.7782 -0.3099  0.7231
  616TMC3     O 9129   4.567   2.972  16.456 -0.2584 -0.3151  0.6056
  616TMC3     H 9130   0.156   2.798  16.629 -0.2817  0.3537  0.8266
  616TMC3    H1 9131   4.604   3.108  16.633 -0.0117  4.4346 -0.6578
  616TMC3    H2 9132   0.297   3.203  16.616 -1.2677  1.3532 -0.4489
  616TMC3    C7 9133   0.064   3.264  16.515  0.2269  0.5626  0.3267
  616TMC3    C8 9134   0.367   2.944  16.589  0.3274 -0.3161 -0.0116
  616TMC3    O1 9135   0.146   3.358  16.510  0.5250  0.1651 -0.0127
  616TMC3    O2 9136   0.372   2.835  16.539  0.1194  0.2099  0.2859
  617MPD2     C 9137   3.176   1.708  14.569  0.6910 -0.1732  0.9444
  617MPD2    C1 9138   3.222   1.628  14.475  0.1161  0.2381 -0.3580
  617MPD2    C2 9139   3.130   1.529  14.430  0.3627  0.0763 -0.6436
  617MPD2    C3 9140   3.003   1.519  14.482  0.0697 -0.3244  0.2113
  617MPD2    C4 9141   2.972   1.607  14.583 -1.5472  0.0267 -0.7979
  617MPD2    C5 9142   3.056   1.701  14.624  0.5186  0.0281  0.3193
  617MPD2     H 9143   3.161   1.460  14.352 -1.1178 -0.3921 -0.8158
  617MPD2    H1 9144   2.873   1.605  14.626 -0.9412  1.8155  0.6673
  617MPD2    H2 9145   3.246   1.778  14.614  0.7768 -0.6261  1.5234
  617MPD2    H3 9146   3.024   1.776  14.694 -0.1413 -0.2544  0.3222
  617MPD2     N 9147   2.908   1.419  14.452 -0.4240 -0.4295  0.2482
  617MPD2    H5 9148   2.826   1.413  14.511 -1.0215  0.0691 -0.5310
  617MPD2    N1 9149   3.361   1.637  14.429  0.1647 -0.0974  0.2089
  617MPD2    H7 9150   3.421   1.703  14.478 -0.2009  1.2287 -1.1334
  618TMC3    C1 9151   3.567   1.574  14.318 -0.1370 -0.7011  0.0152
  618TMC3    C2 9152   3.627   1.467  14.259 -0.1733 -0.5274 -0.0120
  618TMC3    C3 9153   3.761   1.469  14.239  0.2428 -0.5551  0.5041
  618TMC3    C4 9154   3.630   1.694  14.347 -0.2158  1.0378  0.4061
  618TMC3    C5 9155   3.767   1.691  14.327  0.4667 -0.1340 -0.1437
  618TMC3    C6 9156   3.832   1.582  14.277 -0.5824  0.4600  0.4430
  618TMC3     C 9157   3.421   1.552  14.333  0.2713 -0.6163 -0.4219
  618TMC3     O 9158   3.372   1.470  14.258  0.4400  0.6293  0.4886
  618TMC3     H 9159   3.579   1.379  14.219 -0.2066 -0.8049  0.6293
  618TMC3    H1 9160   3.567   1.781  14.362 -0.0334  1.2887 -0.2848
  618TMC3    H2 9161   3.939   1.584  14.259 -0.2735  2.3178  2.4463
  618TMC3    C7 9162   3.818   1.805  14.259  0.4700  0.4620 -0.3820
  618TMC3    C8 9163   3.801   1.394  14.116 -0.3251 -0.3240 -0.2492
  618TMC3    O1 9164   3.854   1.909  14.312 -0.2222  0.3216  0.4800
  618TMC3    O2 9165   3.707   1.351  14.051  0.4776  0.8486 -0.0143
  619MPD2     C 9166   4.428   2.545  13.911  0.8866  0.4556 -0.0726
  619MPD2    C1 9167   4.341   2.558  13.804  0.3853 -0.3285 -0.1706
  619MPD2    C2 9168   4.207   2.512  13.827  0.5695  0.1616 -0.2230
  619MPD2    C3 9169   4.172   2.461  13.945  0.2822 -0.4391  0.7288
  619MPD2    C4 9170   4.256   2.460  14.052 -0.2554  0.1286 -0.0032
  619MPD2    C5 9171   4.384   2.502  14.031 -0.0489 -0.2600  0.1652
  619MPD2     H 9172   4.135   2.500  13.747  0.2902  1.1390 -0.1148
  619MPD2    H1 9173   4.229   2.447  14.157 -0.8269  1.3881  0.0062
  619MPD2    H2 9174   4.524   2.597  13.912  1.0528  0.1471  0.0310
  619MPD2    H3 9175   4.445   2.514  14.119 -0.0614  1.6502 -0.0733
  619MPD2     N 9176   4.036   2.424  13.969 -0.6157  0.3165  0.4839
  619MPD2    H5 9177   4.005   2.420  14.065 -2.9539  1.2958 -0.2297
  619MPD2    N1 9178   4.373   2.613  13.681 -0.0525  0.3185  0.2248
  619MPD2    H7 9179   4.292   2.641  13.626 -0.9157 -0.3074  1.1850
  620TMC3    C1 9180   4.505   2.714  13.515  0.5628  0.3332  0.6114
  620TMC3    C2 9181   4.389   2.733  13.454 -0.5034  0.2354  0.4095
  620TMC3    C3 9182   4.355   2.860  13.413 -1.2770  0.5673  0.1460
  620TMC3    C4 9183   4.603   2.807  13.527  0.2348  0.2336  0.1172
  620TMC3    C5 9184   4.574   2.932  13.464 -0.5070  0.6357 -0.2749
  620TMC3    C6 9185   4.453   2.962  13.412  1.0037 -0.2834 -0.2633
  620TMC3     C 9186   4.497   2.632  13.635  0.4787  0.5115  0.6468
  620TMC3     O 9187   4.603   2.591  13.684  0.6537 -0.0084  0.3207
  620TMC3     H 9188   4.312   2.658  13.442 -2.4554  2.0099  2.0722
  620TMC3    H1 9189   4.697   2.777  13.572  0.5234  0.0993 -0.5811
  620TMC3    H2 9190   4.424   3.063  13.386 -1.4926 -1.6592 -2.9504
  620TMC3    C7 9191   4.657   3.048  13.497 -0.5720 -0.0016 -0.6073
  620TMC3    C8 9192   4.222   2.889  13.449  0.4537 -0.2840 -0.0009
  620TMC3    O1 9193   4.625   3.156  13.443 -0.0653 -0.2192 -0.2987
  620TMC3    O2 9194   4.164   2.807  13.518 -0.4756 -0.1233  0.0782
  621MPD2     C 9195   0.635   2.228  10.991 -0.2787 -0.1296  0.5849
  621MPD2    C1 9196   0.677   2.166  10.871  0.1187 -0.6032 -0.1687
  621MPD2    C2 9197   0.700   2.238  10.757  0.1248 -0.2327  0.3563
  621MPD2    C3 9198   0.673   2.370  10.754  0.3072  0.0090  0.0448
  621MPD2    C4 9199   0.625   2.434  10.869 -0.3648 -0.3243  0.5485
  621MPD2    C5 9200   0.607   2.360  10.986  0.0033  0.1314  0.2090
  621MPD2     H 9201   0.739   2.205  10.662 -0.2653 -0.2229  0.1927
  621MPD2    H1 9202   0.613   2.541  10.878  0.0675 -0.5577  4.2659
  621MPD2    H2 9203   0.622   2.183  11.089 -3.0312 -1.7177 -0.5240
  621MPD2    H3 9204   0.571   2.408  11.076  1.0044  0.9680  0.1634
  621MPD2     N 9205   0.700   2.434  10.629 -0.1908  0.1661 -0.5331
  621MPD2    H5 9206   0.740   2.374  10.557 -0.2424  0.6302 -0.9466
  621MPD2    N1 9207   0.700   2.030  10.864 -0.4830 -0.0652 -0.3670
  621MPD2    H7 9208   0.717   1.990  10.772  1.4638 -1.2231  0.4845
  622TMC3    C1 9209   0.651   1.803  10.914  0.6677  0.2515  0.2977
  622TMC3    C2 9210   0.560   1.733  10.995 -0.7269  0.2255  0.3468
  622TMC3    C3 9211   0.490   1.626  10.947  0.4114  0.4100 -0.2685
  622TMC3    C4 9212   0.684   1.762  10.785  0.2668  0.3515  0.2719
  622TMC3    C5 9213   0.625   1.646  10.745  0.0377  0.4809 -0.2872
  622TMC3    C6 9214   0.526   1.584  10.823 -0.2171 -0.2113  0.3576
  622TMC3     C 9215   0.679   1.937  10.969 -0.1084  0.1834  0.4455
  622TMC3     O 9216   0.659   1.954  11.087  0.2091 -0.3385 -0.3316
  622TMC3     H 9217   0.543   1.767  11.096  1.3085 -0.5266  0.9457
  622TMC3    H1 9218   0.754   1.815  10.721 -0.2812  1.4663  0.6006
  622TMC3    H2 9219   0.492   1.484  10.799 -1.1955  0.3575 -0.6309
  622TMC3    C7 9220   0.637   1.614  10.603 -0.0004 -0.2798 -0.8091
  622TMC3    C8 9221   0.349   1.644  10.947  0.5284  0.4243  0.0887
  622TMC3    O1 9222   0.605   1.499  10.571  0.6793 -0.1445  0.4416
  622TMC3    O2 9223   0.285   1.556  10.894 -0.2414 -0.3438 -0.7855
  623MPD2     C 9224   3.193   3.957  16.079  1.2322  0.6319 -0.2463
  623MPD2    C1 9225   3.123   3.936  16.196  0.0691  0.6825  0.3120
  623MPD2    C2 9226   3.193   3.888  16.310  0.1245  0.3381  0.4651
  623MPD2    C3 9227   3.326   3.854  16.294 -0.0822 -0.6659 -0.3777
  623MPD2    C4 9228   3.394   3.880  16.176 -0.0171 -0.1202  0.5047
  623MPD2    C5 9229   3.329   3.931  16.074  0.0266  0.4879 -0.2711
  623MPD2     H 9230   3.140   3.879  16.404 -1.8938  1.4646 -0.5635
  623MPD2    H1 9231   3.499   3.860  16.164  0.1314  1.4125 -0.7500
  623MPD2    H2 9232   3.155   3.980  15.980  1.7319  1.2752 -0.2844
  623MPD2    H3 9233   3.373   3.939  15.975 -0.8115  2.8516 -0.4449
  623MPD2     N 9234   3.390   3.793  16.402 -0.1871 -0.1127 -0.1833
  623MPD2    H5 9235   3.335   3.775  16.485 -2.7661 -2.2032 -2.3311
  623MPD2    N1 9236   2.991   3.981  16.207  0.0859 -0.1875 -0.4797
  623MPD2    H7 9237   2.952   3.985  16.301  1.3592  1.0596 -0.0195
  624TMC3    C1 9238   3.705   3.559  16.653 -0.4594  0.5890 -0.1270
  624TMC3    C2 9239   3.610   3.474  16.704  1.2241  0.2579  0.4765
  624TMC3    C3 9240   3.484   3.500  16.672  0.0682  0.0317  0.1952
  624TMC3    C4 9241   3.676   3.649  16.552 -0.6812 -0.3437  0.3670
  624TMC3    C5 9242   3.542   3.665  16.519  0.2316 -0.3951  0.1905
  624TMC3    C6 9243   3.443   3.602  16.588 -0.4255 -0.0373 -0.5991
  624TMC3     C 9244   3.839   3.542  16.707  0.4668  0.2538  0.5679
  624TMC3     O 9245   3.861   3.475  16.805  0.1414  0.1968 -0.4807
  624TMC3     H 9246   3.638   3.403  16.781 -0.5813  0.6183  1.4761
  624TMC3    H1 9247   3.756   3.710  16.512 -0.3479 -1.7055 -1.0561
  624TMC3    H2 9248   3.337   3.622  16.579 -0.6742 -0.5896  1.1388
  624TMC3    C7 9249   3.516   3.736  16.396 -0.0329 -0.0895 -0.8303
  624TMC3    C8 9250   3.385   3.431  16.752  0.5099  0.0293  0.7488
  624TMC3    O1 9251   3.614   3.753  16.326  0.3647 -0.5846 -0.3098
  624TMC3    O2 9252   3.398   3.310  16.755  0.5051  0.0507 -0.0767
  625MPD2     C 9253   3.319   4.290   0.696 -0.4730 -0.3734 -0.0916
  625MPD2    C1 9254   3.446   4.333   0.701  0.2899 -0.4409 -0.5096
  625MPD2    C2 9255   3.530   4.296   0.804 -0.0630  0.0840  0.3218
  625MPD2    C3 9256   3.493   4.204   0.895 -0.7653 -0.3338  0.2992
  625MPD2    C4 9257   3.364   4.151   0.888  0.2216 -0.1242 -0.5858
  625MPD2    C5 9258   3.287   4.191   0.784  1.1263  0.0417 -0.1426
  625MPD2     H 9259   3.633   4.328   0.805  0.0368 -0.2709  1.4382
  625MPD2    H1 9260   3.329   4.073   0.954  1.6058 -0.2046  0.0469
  625MPD2    H2 9261   3.249   4.319   0.618 -0.2561 -0.7167 -0.4180
  625MPD2    H3 9262   3.195   4.137   0.762  2.4660 -1.9495 -0.8906
  625MPD2     N 9263   3.579   4.182   1.011  0.0640  0.0312 -0.3259
  625MPD2    H5 9264   3.659   4.246   1.006  0.4403 -0.5475 -1.7809
  625MPD2    N1 9265   3.496   4.429   0.607  0.3521 -0.4834 -0.1372
  625MPD2    H7 9266   3.590   4.458   0.630 -0.1722 -0.4701  1.9566
  626TMC3    C1 9267   3.518   4.576   0.439  0.3462 -0.3971  0.1653
  626TMC3    C2 9268   3.501   4.607   0.303  0.7053 -0.1709 -0.0291
  626TMC3    C3 9269   3.575   4.702   0.239  0.5668  0.0428  0.2029
  626TMC3    C4 9270   3.607   4.649   0.514  0.1522  0.0110 -0.9013
  626TMC3    C5 9271   3.681   0.018   0.448 -0.7945  0.6910  0.4135
  626TMC3    C6 9272   3.665   0.046   0.314 -0.1506 -0.4832 -0.2055
  626TMC3     C 9273   3.447   4.458   0.483  0.2651 -0.0519 -0.0188
  626TMC3     O 9274   3.361   4.402   0.416 -0.0386 -0.3190 -0.4339
  626TMC3     H 9275   3.427   4.560   0.240  1.3205  0.1496 -0.9915
  626TMC3    H1 9276   3.620   4.632   0.621  1.7470 -0.9162 -1.2483
  626TMC3    H2 9277   3.701   0.142   0.278  0.3059 -0.1363  1.1914
  626TMC3    C7 9278   3.748   0.117   0.524 -0.7239  0.5030 -0.0662
  626TMC3    C8 9279   3.493   0.053   0.146  0.3381 -0.4613 -0.0071
  626TMC3    O1 9280   3.854   0.153   0.472  0.0720  0.4426 -0.1423
  626TMC3    O2 9281   3.543   0.072   0.034 -0.2895 -0.0649  0.4933
  627MPD2     C 9282   3.021   4.660  14.323  0.3142 -0.8246  0.0481
  627MPD2    C1 9283   2.961   0.002  14.428  0.0951 -0.0341  0.1043
  627MPD2    C2 9284   2.839   4.687  14.469 -0.7088  0.3599 -0.3326
  627MPD2    C3 9285   2.774   4.575  14.411 -0.3530  0.8219 -0.1753
  627MPD2    C4 9286   2.826   4.531  14.289 -0.0502  0.1074 -0.1002
  627MPD2    C5 9287   2.948   4.569  14.249  0.1822 -0.2160  0.7369
  627MPD2     H 9288   2.803   0.017  14.556 -2.3741  1.9138 -1.9780
  627MPD2    H1 9289   2.779   4.457  14.224  3.9280 -1.5265 -1.0921
  627MPD2    H2 9290   3.119   4.682  14.281  0.1199  0.8185  0.4339
  627MPD2    H3 9291   2.998   4.531  14.160  0.9438  1.0597  0.6245
  627MPD2     N 9292   2.659   4.527  14.467 -0.2516 -0.3275  0.2649
  627MPD2    H5 9293   2.631   4.581  14.549  4.0555  0.6719  1.0562
  627MPD2    N1 9294   3.035   0.098  14.508  0.1055 -0.1779  0.0351
  627MPD2    H7 9295   3.000   0.135  14.596  0.7973  0.9858 -0.1875
  628TMC3    C1 9296   3.200   0.241  14.582 -0.1020  0.1535 -0.6233
  628TMC3    C2 9297   3.333   0.224  14.623 -0.0590  0.1860  0.7037
  628TMC3    C3 9298   3.363   0.270  14.749 -0.7475 -0.0677 -0.6823
  628TMC3    C4 9299   3.108   0.305  14.661 -0.0570 -0.3226  0.1074
  628TMC3    C5 9300   3.152   0.350  14.786 -0.4695  0.2323 -0.0777
  628TMC3    C6 9301   3.278   0.325  14.838  0.1811 -0.1856 -0.1751
  628TMC3     C 9302   3.150   0.164  14.471 -0.6368 -0.2004  0.5470
  628TMC3     O 9303   3.219   0.139  14.374  0.3180  0.5254 -0.5375
  628TMC3     H 9304   3.410   0.166  14.574 -1.2141 -0.9992  0.3066
  628TMC3    H1 9305   3.005   0.327  14.631 -0.0710  1.6071  1.5420
  628TMC3    H2 9306   3.312   0.388  14.919  1.4535 -0.0490 -0.8170
  628TMC3    C7 9307   3.080   0.463  14.850 -0.4154  0.3341 -0.1391
  628TMC3    C8 9308   3.505   0.267  14.789  0.5071 -0.2012  0.3728
  628TMC3    O1 9309   3.097   0.473  14.971 -0.6406  0.1166 -0.2954
  628TMC3    O2 9310   3.589   0.289  14.702  0.2842 -0.4119 -0.2594
  629MPD2     C 9311   0.872   2.973  16.539 -0.8014 -0.0861 -0.3067
  629MPD2    C1 9312   0.831   3.085  16.612 -0.3200  0.1194 -0.2252
  629MPD2    C2 9313   0.696   3.098  16.649  0.2684 -0.3852 -1.2692
  629MPD2    C3 9314   0.607   3.001  16.609  0.6200 -0.1237  0.6740
  629MPD2    C4 9315   0.659   2.893  16.544 -0.4193  1.0591 -1.0826
  629MPD2    C5 9316   0.787   2.875  16.507  0.4657  0.4336 -0.3368
  629MPD2     H 9317   0.668   3.185  16.708  2.3017 -0.5173 -0.1304
  629MPD2    H1 9318   0.602   2.802  16.526 -1.9132  1.2073  2.9532
  629MPD2    H2 9319   0.974   2.962  16.504 -0.3310  0.5346  0.9001
  629MPD2    H3 9320   0.829   2.785  16.462 -0.2971 -0.0353 -0.1069
  629MPD2     N 9321   0.472   3.024  16.628  0.7614  0.1517 -0.2393
  629MPD2    H5 9322   0.444   3.105  16.681  0.3466 -1.1335  1.5031
  629MPD2    N1 9323   0.924   3.186  16.622  0.1253 -0.3024 -0.5341
  629MPD2    H7 9324   1.020   3.179  16.591 -0.4743 -0.3032 -2.3753
  630TMC3    C1 9325   1.005   3.403  16.645  0.8459  0.2085  0.5243
  630TMC3    C2 9326   0.988   3.536  16.619 -0.0840 -0.3525 -0.1745
  630TMC3    C3 9327   1.062   3.634  16.677 -0.4982 -0.2492  0.0860
  630TMC3    C4 9328   1.110   3.375  16.732 -0.0282  0.7437 -0.1614
  630TMC3    C5 9329   1.174   3.475  16.806  0.2202 -0.6679 -0.6845
  630TMC3    C6 9330   1.151   3.605  16.779  0.3116  0.1410  0.1480
  630TMC3     C 9331   0.886   3.318  16.644 -0.2454 -0.1576 -0.5359
  630TMC3     O 9332   0.779   3.377  16.627 -0.6106  0.3647 -0.3282
  630TMC3     H 9333   0.922   3.559  16.536 -0.0259  0.1668 -0.0779
  630TMC3    H1 9334   1.122   3.285  16.792  0.9665  0.7818 -0.3024
  630TMC3    H2 9335   1.199   3.688  16.831 -0.8175  1.4938 -0.9614
  630TMC3    C7 9336   1.244   3.432  16.927 -0.7078  0.3774  0.1360
  630TMC3    C8 9337   1.050   3.772  16.620  0.5056 -0.2914  0.1537
  630TMC3    O1 9338   1.208   3.331  16.994 -0.2674 -0.1505 -0.1163
  630TMC3    O2 9339   0.955   3.799  16.546  0.1606  0.0214 -0.4201
  631MPD2     C 9340   3.741   3.565  15.819  0.4477  0.0373  0.3071
  631MPD2    C1 9341   3.843   3.553  15.725 -0.7041  0.4646  0.6030
  631MPD2    C2 9342   3.912   3.433  15.717  0.3371 -0.2125  0.5170
  631MPD2    C3 9343   3.887   3.326  15.816  0.5259  0.1861 -0.3090
  631MPD2    C4 9344   3.792   3.340  15.907  0.0864 -0.0036  0.2989
  631MPD2    C5 9345   3.720   3.460  15.906  0.4986 -0.6307  0.5995
  631MPD2     H 9346   3.994   3.422  15.646  0.4707 -0.6313  0.7361
  631MPD2    H1 9347   3.772   3.259  15.976  0.5479 -0.7281 -0.4192
  631MPD2    H2 9348   3.673   3.648  15.829 -0.5713 -0.4766 -2.1209
  631MPD2    H3 9349   3.649   3.473  15.987 -0.8314 -1.5338 -0.4062
  631MPD2     N 9350   3.974   3.216  15.808  0.4848 -0.0132  0.1376
  631MPD2    H5 9351   4.036   3.208  15.728 -0.6363 -2.5815 -0.5093
  631MPD2    N1 9352   3.866   3.663  15.645  1.0504  0.0482  0.4872
  631MPD2    H7 9353   3.819   3.748  15.675 -0.1364  0.0995 -1.4616
  632TMC3    C1 9354   3.948   3.786  15.464  0.0850 -0.2588 -0.6747
  632TMC3    C2 9355   3.847   3.878  15.477  0.1317 -0.0142 -0.0134
  632TMC3    C3 9356   3.822   3.968  15.375  0.7478  0.3437 -0.2470
  632TMC3    C4 9357   4.023   3.776  15.350  0.4797 -0.2700  0.3689
  632TMC3    C5 9358   3.990   3.859  15.247  1.1539  0.4249 -0.1543
  632TMC3    C6 9359   3.892   3.954  15.256 -0.8055 -0.0479  0.2277
  632TMC3     C 9360   3.937   3.660  15.529 -0.4890 -0.3045  0.6747
  632TMC3     O 9361   3.984   3.562  15.475 -0.3584 -0.3345 -0.0077
  632TMC3     H 9362   3.782   3.877  15.563 -1.0029  3.7917 -0.8314
  632TMC3    H1 9363   4.104   3.704  15.339 -0.4725 -1.2724 -0.1378
  632TMC3    H2 9364   3.877   4.018  15.170  0.8040  2.2566  1.6390
  632TMC3    C7 9365   4.073   3.863  15.122  0.4952  0.4458  0.2830
  632TMC3    C8 9366   3.719   4.064  15.390  0.9401 -0.6149 -0.8783
  632TMC3    O1 9367   4.019   3.908  15.021  0.2669 -0.0261  0.5496
  632TMC3    O2 9368   3.620   4.030  15.454  0.5043 -0.1520 -0.2046
  633MPD2     C 9369   3.496   1.836  17.655 -1.1368  0.2353 -0.6878
  633MPD2    C1 9370   3.466   1.798  17.526 -0.5359 -0.0379  0.1148
  633MPD2    C2 9371   3.418   1.670  17.503  0.8781 -0.1342 -0.6068
  633MPD2    C3 9372   3.397   1.579  17.608 -0.4152  0.5825 -0.0258
  633MPD2    C4 9373   3.426   1.625   0.041 -0.3167  1.2084  0.7289
  633MPD2    C5 9374   3.469   1.751   0.063 -0.8677  0.0858 -0.5852
  633MPD2     H 9375   3.427   1.628  17.404  0.4990 -2.5352  0.3995
  633MPD2    H1 9376   3.408   1.567   0.131  0.2935 -0.3658 -0.1560
  633MPD2    H2 9377   3.545   1.930  17.674 -0.2751 -0.4000  0.2097
  633MPD2    H3 9378   3.493   1.773   0.166  0.3404 -0.3730 -0.7671
  633MPD2     N 9379   3.381   1.440  17.587 -0.0501  0.4788  0.0838
  633MPD2    H5 9380   3.376   1.376  17.666  4.0447  0.3512  0.2361
  633MPD2    N1 9381   3.523   1.862  17.421 -0.3316 -0.1487 -0.0264
  633MPD2    H7 9382   3.547   1.818  17.332 -0.6704  1.8971 -1.1327
  634TMC3    C1 9383   3.609   2.034  17.316 -0.4664 -0.4417  0.0216
  634TMC3    C2 9384   3.684   1.943  17.241  0.3360 -0.3251  0.7280
  634TMC3    C3 9385   3.752   1.983  17.131 -0.6988  0.4721 -0.0456
  634TMC3    C4 9386   3.581   2.154  17.256 -0.0628  0.2393 -0.2293
  634TMC3    C5 9387   3.636   2.185  17.130  0.2952  0.0038  0.3006
  634TMC3    C6 9388   3.729   2.106  17.070 -0.0078 -0.6687 -0.4253
  634TMC3     C 9389   3.543   2.000  17.431  0.2420  0.6879  0.2091
  634TMC3     O 9390   3.485   2.080  17.497 -0.3706 -0.4531 -0.1411
  634TMC3     H 9391   3.730   1.860  17.293 -0.6127 -0.7884  0.8192
  634TMC3    H1 9392   3.531   2.226  17.319  0.3665 -0.8732  1.3876
  634TMC3    H2 9393   3.767   2.134  16.972  1.5799  0.6362  0.5455
  634TMC3    C7 9394   3.532   2.217  17.041  0.0228 -0.5924 -0.3499
  634TMC3    C8 9395   3.806   1.887  17.044 -0.3617  0.2365  0.8623
  634TMC3    O1 9396   3.523   2.146  16.945 -0.7372  0.1802  0.0208
  634TMC3    O2 9397   3.770   1.772  17.067 -0.4826  0.3597 -0.5912
  635TMC3    C1 9398   3.829   2.709  17.684  0.4425 -0.2011 -0.7736
  635TMC3    C2 9399   3.926   2.642  17.613 -0.0768  0.7578 -0.1239
  635TMC3    C3 9400   3.983   2.533  17.676  0.6968  0.0579 -0.5458
  635TMC3    C4 9401   3.805   2.673   0.119 -0.1335  0.0050 -0.3090
  635TMC3    C5 9402   3.853   2.557   0.171  0.1950 -0.0992 -0.5827
  635TMC3    C6 9403   3.946   2.480   0.106 -1.2395 -0.4033 -0.4057
  635TMC3     C 9404   3.849   2.855  17.677 -0.2274 -1.3521  0.2373
  635TMC3     O 9405   3.830   2.926   0.075  0.3228 -0.5157 -0.0174
  635TMC3     H 9406   3.962   2.665  17.513 -1.6248 -1.4461 -1.2025
  635TMC3    H1 9407   3.735   2.728   0.181 -1.3354 -2.8088  0.8200
  635TMC3    H2 9408   3.995   2.401   0.161 -2.2886  0.5200  1.8687
  635TMC3    C7 9409   3.824   2.534   0.316  0.2260 -0.1834 -0.1641
  635TMC3    C8 9410   4.091   2.463  17.601  0.2357  0.6552 -0.5678
  635TMC3    O1 9411   3.737   2.605   0.370 -0.5033 -1.4710 -0.1699
  635TMC3    O2 9412   4.147   2.517  17.506 -0.6813  0.2046 -0.3508
  636MPD2     C 9413   0.369   1.474  16.085 -0.1837 -0.1448  0.1920
  636MPD2    C1 9414   0.321   1.531  16.197 -0.3995 -0.9251 -0.5357
  636MPD2    C2 9415   0.316   1.456  16.314  1.1149 -0.3990  0.1764
  636MPD2    C3 9416   0.360   1.330  16.332  1.0087 -0.2800 -0.1652
  636MPD2    C4 9417   0.405   1.273  16.216 -0.0763 -0.1130  0.6014
  636MPD2    C5 9418   0.412   1.346  16.096 -0.8603  0.3417 -0.5175
  636MPD2     H 9419   0.272   1.509  16.398 -1.5453  0.0789 -1.5185
  636MPD2    H1 9420   0.431   1.168  16.223 -1.1040 -0.3002  1.6394
  636MPD2    H2 9421   0.377   1.527  15.992 -0.1141 -1.9554 -0.8404
  636MPD2    H3 9422   0.449   1.307  16.002 -0.9136  0.1357 -0.4536
  636MPD2     N 9423   0.369   1.273  16.460  0.8247  0.2944 -0.2265
  636MPD2    H5 9424   0.339   1.342  16.529 -0.7795 -0.9975  0.3725
  636MPD2    N1 9425   0.284   1.666  16.210 -0.1407 -0.1433 -0.5916
  636MPD2    H7 9426   0.255   1.706  16.299  0.3160 -0.1373 -0.4462
  637TMC3    C1 9427   0.431   1.126  16.633  0.1019 -0.6538  0.5550
  637TMC3    C2 9428   0.353   1.197  16.722  0.1453 -0.7819  0.0343
  637TMC3    C3 9429   0.395   1.210  16.851  0.0886 -0.2351 -0.0365
  637TMC3    C4 9430   0.535   1.052  16.677 -0.1376 -0.8391 -0.3010
  637TMC3    C5 9431   0.575   1.070  16.808 -0.3250 -0.3653  0.3257
  637TMC3    C6 9432   0.502   1.139  16.899  0.1036 -0.3747 -0.7091
  637TMC3     C 9433   0.417   1.145  16.488  0.4277  0.1950  0.5407
  637TMC3     O 9434   0.477   1.065  16.421 -0.1953 -0.3399 -0.9258
  637TMC3     H 9435   0.262   1.251  16.701 -0.7063 -1.5791  1.7075
  637TMC3    H1 9436   0.594   0.997  16.605  1.1725  3.0775 -2.1781
  637TMC3    H2 9437   0.530   1.133  17.004 -0.3709 -0.9862 -0.6180
  637TMC3    C7 9438   0.695   1.009  16.856 -0.1299  0.0200 -0.2995
  637TMC3    C8 9439   0.387   1.345  16.903  0.7095  0.4418 -0.1296
  637TMC3    O1 9440   0.695   0.976  16.976  0.1473 -0.1493 -0.4844
  637TMC3    O2 9441   0.352   1.429  16.823 -0.1899 -0.2870  0.2185
  638MPD2     C 9442   0.266   0.762  15.118 -0.1037 -0.0336  0.0293
  638MPD2    C1 9443   0.252   0.648  15.044 -0.1460 -0.4847  0.1819
  638MPD2    C2 9444   0.169   0.542  15.089 -0.0353 -0.4154 -0.1034
  638MPD2    C3 9445   0.106   0.558  15.211  0.4342 -0.0810  0.0388
  638MPD2    C4 9446   0.113   0.677  15.282  0.6332 -0.3945 -0.1401
  638MPD2    C5 9447   0.185   0.779  15.229  0.3336 -0.2544 -0.9577
  638MPD2     H 9448   0.168   0.441  15.048  0.2583 -0.3045 -0.3804
  638MPD2    H1 9449   0.054   0.694  15.371  2.0275 -0.0989  0.7161
  638MPD2    H2 9450   0.327   0.843  15.081  0.6028  0.8976  3.2118
  638MPD2    H3 9451   0.196   0.875  15.279  1.2983 -0.6994 -0.3081
  638MPD2     N 9452   0.034   0.444  15.259  0.7017 -0.5008  0.4038
  638MPD2    H5 9453   0.033   0.356  15.208 -1.1337  1.0685 -2.2872
  638MPD2    N1 9454   0.323   0.637  14.927 -0.3949 -0.5976 -0.3773
  638MPD2    H7 9455   0.402   0.697  14.909 -0.4306  0.0272  1.4871
  639TMC3    C1 9456   4.632   0.306  15.399  0.7206 -0.6539  1.0745
  639TMC3    C2 9457   4.612   0.231  15.288 -0.2092 -0.2203  0.4014
  639TMC3    C3 9458   4.634   0.099  15.295  0.1963 -0.4637  0.5553
  639TMC3    C4 9459   4.646   0.246  15.515  0.2425  0.4245 -0.1784
  639TMC3    C5 9460   4.649   0.106  15.517  0.0008 -0.1687  0.0316
  639TMC3    C6 9461   4.661   0.033  15.406  0.1658 -0.9855  0.7226
  639TMC3     C 9462   4.701   0.430  15.384 -0.3899 -0.0609  0.8131
  639TMC3     O 9463   4.714   0.502  15.484 -0.0500  0.2540  1.0248
  639TMC3     H 9464   4.591   0.270  15.189 -0.5755  1.5173  1.1591
  639TMC3    H1 9465   4.639   0.302  15.607 -1.0836  1.9002 -1.1791
  639TMC3    H2 9466   4.659   4.648  15.405  0.5873 -0.9967  1.6865
  639TMC3    C7 9467   4.722   0.055  15.633 -0.8401 -0.1900  0.5002
  639TMC3    C8 9468   4.590   0.020  15.182  0.2253  0.2166  0.2003
  639TMC3    O1 9469   4.694   0.117  15.733  0.1409 -0.4565 -0.3227
  639TMC3    O2 9470   4.645   4.639  15.155 -0.5250 -0.1028  0.5599
  640MPD2     C 9471   1.061   3.664   9.981 -0.0398 -0.5099  0.1080
  640MPD2    C1 9472   1.021   3.595   9.878 -0.2111 -0.6487  0.0901
  640MPD2    C2 9473   0.890   3.617   9.838 -0.0399  0.2821 -0.0473
  640MPD2    C3 9474   0.803   3.705   9.893 -0.1430 -0.1741  0.1705
  640MPD2    C4 9475   0.852   3.780   9.996  0.0973  0.2758 -0.5288
  640MPD2    C5 9476   0.983   3.766  10.037 -0.5647 -0.6652 -0.5858
  640MPD2     H 9477   0.854   3.567   9.748 -0.4953  1.9093 -0.7630
  640MPD2    H1 9478   0.792   3.858  10.042  0.4825 -0.2837  0.9339
  640MPD2    H2 9479   1.161   3.659  10.021 -0.3447 -3.1094  0.5879
  640MPD2    H3 9480   1.016   3.835  10.114 -0.1073 -1.4305 -0.1043
  640MPD2     N 9481   0.673   3.736   9.846 -0.5810  0.5211  0.1072
  640MPD2    H5 9482   0.623   3.806   9.900  1.3620  1.2341  0.9807
  640MPD2    N1 9483   1.116   3.512   9.807  0.2101 -0.0497  0.3130
  640MPD2    H7 9484   1.202   3.494   9.858  0.6998  0.5609 -0.2935
  641TMC3    C1 9485   1.198   3.375   9.627 -1.3468 -0.0736  0.0098
  641TMC3    C2 9486   1.244   3.267   9.703  0.2910 -0.2012  0.9009
  641TMC3    C3 9487   1.299   3.163   9.637  0.9569  0.0217  0.3131
  641TMC3    C4 9488   1.214   3.388   9.494  0.0713 -0.3559 -0.3766
  641TMC3    C5 9489   1.273   3.277   9.436  0.3226  0.2748  0.6194
  641TMC3    C6 9490   1.319   3.170   9.499 -0.1993 -0.0822  0.3326
  641TMC3     C 9491   1.102   3.465   9.681 -0.5497  0.0553 -0.5475
  641TMC3     O 9492   1.015   3.494   9.598  0.8169 -0.4512  0.1335
  641TMC3     H 9493   1.210   3.264   9.806 -1.6713  3.2704  0.3646
  641TMC3    H1 9494   1.193   3.479   9.440 -0.3515 -1.2364 -1.6919
  641TMC3    H2 9495   1.372   3.092   9.446  0.6772  0.0856  0.9663
  641TMC3    C7 9496   1.263   3.279   9.296  0.1262  0.3171  0.0917
  641TMC3    C8 9497   1.355   3.048   9.704 -0.0870  0.2976  0.7061
  641TMC3    O1 9498   1.284   3.389   9.245  0.4380  0.5682 -0.2468
  641TMC3    O2 9499   1.373   2.948   9.635 -0.0371 -0.3652 -0.0281
  642TMC3    C1 9500   2.063   0.812  12.344 -0.6902  0.0056 -0.2867
  642TMC3    C2 9501   2.182   0.790  12.405 -0.4383 -0.0738  0.9367
  642TMC3    C3 9502   2.207   0.667  12.453 -0.0349  0.0166 -0.1307
  642TMC3    C4 9503   1.978   0.707  12.303  0.1090 -0.2375 -0.1892
  642TMC3    C5 9504   2.013   0.584  12.341  0.2722  0.2402  0.1197
  642TMC3    C6 9505   2.123   0.563  12.424 -0.2613 -0.6098 -0.7031
  642TMC3     C 9506   1.999   0.940  12.378  0.0581 -0.6236 -0.3178
  642TMC3     O 9507   2.063   1.042  12.357 -0.5396 -0.1918  0.1808
  642TMC3     H 9508   2.254   0.868  12.427  0.0710  0.1710 -1.5853
  642TMC3    H1 9509   1.879   0.728  12.266  0.8180 -0.7917 -2.4407
  642TMC3    H2 9510   2.148   0.464  12.459 -2.9701 -0.3846  1.8495
  642TMC3    C7 9511   1.910   0.482  12.310 -0.4551  0.0545  0.3588
  642TMC3    C8 9512   2.339   0.635  12.513 -0.1321  0.4133 -0.2612
  642TMC3    O1 9513   1.859   0.497  12.201  0.3405 -0.1420  0.7222
  642TMC3    O2 9514   2.393   0.530  12.485  0.7053 -0.2931 -0.8932
  643TMC3    C1 9515   1.112   4.296   0.713 -0.3411  0.3886  0.0850
  643TMC3    C2 9516   0.975   4.323   0.696  0.1713 -0.2121 -0.3862
  643TMC3    C3 9517   0.910   4.251   0.592  0.8296  0.3719 -0.0535
  643TMC3    C4 9518   1.188   4.220   0.628  0.3605 -0.6320  0.1088
  643TMC3    C5 9519   1.119   4.165   0.523 -0.2927 -0.6160 -0.0488
  643TMC3    C6 9520   0.984   4.182   0.507 -0.2728  0.4321 -0.3536
  643TMC3     C 9521   1.163   4.357   0.832 -0.4171  0.3066 -0.7805
  643TMC3     O 9522   1.075   4.401   0.905 -0.7750 -0.8235  0.3740
  643TMC3     H 9523   0.915   4.389   0.757 -0.5219 -0.3280 -0.9463
  643TMC3    H1 9524   1.292   4.198   0.648  0.3727 -2.1298 -1.5715
  643TMC3    H2 9525   0.930   4.122   0.435  1.9209 -1.9679  0.0249
  643TMC3    C7 9526   1.180   4.143   0.398 -0.6740 -0.7581  0.2278
  643TMC3    C8 9527   0.819   4.325   0.508 -0.3185  0.6016 -0.3893
  643TMC3    O1 9528   1.108   4.130   0.299  0.1097  0.5368  0.2285
  643TMC3    O2 9529   0.755   4.259   0.426  0.8551  0.3175 -0.0106
  644MPD2     C 9530   1.055   4.084   9.517  0.2879  0.2658 -0.6827
  644MPD2    C1 9531   1.131   4.119   9.627  0.1165 -0.0897  0.3100
  644MPD2    C2 9532   1.139   4.257   9.643  0.4646 -0.0192  0.0713
  644MPD2    C3 9533   1.098   4.354   9.553 -0.0740 -0.0954 -0.4286
  644MPD2    C4 9534   1.019   4.314   9.448 -1.0634 -0.0685 -0.0164
  644MPD2    C5 9535   0.992   4.180   9.440 -0.9058  0.1615 -0.0570
  644MPD2     H 9536   1.202   4.288   9.726 -0.6943 -1.8345  1.6166
  644MPD2    H1 9537   0.966   4.378   9.377 -1.5088  1.8041  2.0048
  644MPD2    H2 9538   1.039   3.978   9.498  0.1222  0.2925 -0.6901
  644MPD2    H3 9539   0.937   4.149   9.352  0.7437 -0.2436 -0.9633
  644MPD2     N 9540   1.141   4.488   9.581 -0.0747 -0.1080  0.2153
  644MPD2    H5 9541   1.198   4.506   9.664  4.4894 -1.0507 -2.7216
  644MPD2    N1 9542   1.197   4.018   9.706  0.5671  0.1308 -0.3857
  644MPD2    H7 9543   1.181   3.926   9.668  2.6141 -0.1070 -0.6410
  645TMC3    C1 9544   1.144   4.717   9.538  0.7550 -0.2185  0.3152
  645TMC3    C2 9545   1.273   4.717   9.596 -0.1505 -0.6542  0.2092
  645TMC3    C3 9546   1.328   0.112   9.616  0.0254  0.5104 -0.1247
  645TMC3    C4 9547   1.077   0.106   9.489  0.1762 -0.5364  0.0395
  645TMC3    C5 9548   1.145   0.226   9.516 -0.4642 -0.4313 -0.2412
  645TMC3    C6 9549   1.266   0.229   9.582  0.5542 -0.4633  0.0981
  645TMC3     C 9550   1.073   4.595   9.521  0.2978  0.2821 -0.3226
  645TMC3     O 9551   0.977   4.597   9.447 -0.6804  0.1542 -0.1990
  645TMC3     H 9552   1.327   4.627   9.623  0.4407 -0.5006 -0.4675
  645TMC3    H1 9553   0.981   0.093   9.440 -0.3876  0.1022  0.9992
  645TMC3    H2 9554   1.312   0.323   9.607  0.5877 -0.4898  0.1361
  645TMC3    C7 9555   1.082   0.347   9.472  0.6182  0.9589  0.1583
  645TMC3    C8 9556   1.466   0.107   9.659  0.0424  0.4061 -0.3488
  645TMC3    O1 9557   1.158   0.438   9.482 -0.4984 -0.3399  0.2101
  645TMC3    O2 9558   1.497   0.005   9.723 -0.0791 -0.1299  0.0483
  646MPD2     C 9559   0.135   3.756  14.810  0.6345 -0.2264  0.4647
  646MPD2    C1 9560   0.107   3.858  14.899 -0.0766  0.0708 -0.5230
  646MPD2    C2 9561   0.047   3.974  14.847 -0.5367 -1.4000 -0.1856
  646MPD2    C3 9562   0.016   3.990  14.713 -0.1565 -0.5546  0.1537
  646MPD2    C4 9563   0.032   3.879  14.634 -0.5722  0.5037  0.7052
  646MPD2    C5 9564   0.097   3.764  14.678 -0.7519  1.0920  0.5096
  646MPD2     H 9565   0.019   4.056  14.912 -0.4761  0.5009 -2.5537
  646MPD2    H1 9566   4.715   3.867  14.534 -1.1945 -0.0332  1.0228
  646MPD2    H2 9567   0.185   3.667  14.847 -1.9264 -0.3440  3.5861
  646MPD2    H3 9568   0.125   3.690  14.605 -3.1224  1.4827 -0.7998
  646MPD2     N 9569   4.679   4.105  14.661 -0.1820  0.2843  0.2251
  646MPD2    H5 9570   4.665   4.187  14.719 -0.1384  0.1145  0.4727
  646MPD2    N1 9571   0.145   3.835  15.034  0.2206  0.0425 -0.1290
  646MPD2    H7 9572   0.198   3.750  15.053  2.3018  1.1070 -1.1994
  647TMC3    C1 9573   0.190   3.886  15.258 -0.4651 -0.2099 -0.7401
  647TMC3    C2 9574   0.140   3.860  15.378 -0.4789 -0.6659  0.0125
  647TMC3    C3 9575   0.219   3.818  15.482 -0.0378 -0.2692  0.0594
  647TMC3    C4 9576   0.320   3.871  15.235 -0.5683 -0.1685 -0.2615
  647TMC3    C5 9577   0.402   3.829  15.334 -0.3126 -0.3935 -0.0456
  647TMC3    C6 9578   0.356   3.806  15.463  0.3161 -0.0024  0.0267
  647TMC3     C 9579   0.103   3.908  15.143 -0.2851  0.5456 -0.0044
  647TMC3     O 9580   4.719   3.961  15.156  0.1557  0.0524 -0.3967
  647TMC3     H 9581   0.034   3.869  15.401 -0.0076  0.5891  1.6879
  647TMC3    H1 9582   0.358   3.880  15.134  0.1213  1.4640  0.1354
  647TMC3    H2 9583   0.411   3.749  15.537  0.8160 -0.9320 -1.0612
  647TMC3    C7 9584   0.538   3.807  15.313  0.4597  0.4331  0.1491
  647TMC3    C8 9585   0.164   3.704  15.551  0.1753  0.3604 -0.6222
  647TMC3    O1 9586   0.595   3.793  15.417 -0.0643 -0.2268  0.3852
  647TMC3    O2 9587   0.195   3.681  15.666 -0.2416  0.0671 -0.3214
  648TMC3    C1 9588   4.325   1.684  16.288  0.2948 -0.0856 -0.4128
  648TMC3    C2 9589   4.340   1.562  16.226  0.4144  0.2179  0.1108
  648TMC3    C3 9590   4.318   1.562  16.094  0.2590  0.4031 -1.0767
  648TMC3    C4 9591   4.269   1.792  16.224 -0.4430 -0.7390  0.5242
  648TMC3    C5 9592   4.239   1.778  16.093  0.0183 -0.4499  0.4851
  648TMC3    C6 9593   4.270   1.666  16.025 -0.2122 -0.3769  0.0763
  648TMC3     C 9594   4.364   1.706  16.428  0.2736  0.3430 -0.3124
  648TMC3     O 9595   4.377   1.825  16.460 -0.0303 -0.2050 -0.4864
  648TMC3     H 9596   4.370   1.475  16.283 -0.5233  0.1304  0.4777
  648TMC3    H1 9597   4.254   1.887  16.274 -0.2788  0.3234 -1.4657
  648TMC3    H2 9598   4.242   1.653  15.921  2.9212  2.1944 -1.0835
  648TMC3    C7 9599   4.170   1.880  16.013  0.2436  0.1974 -0.7953
  648TMC3    C8 9600   4.316   1.438  16.026 -0.8347 -0.2793 -0.0113
  648TMC3    O1 9601   4.201   1.887  15.895  0.3515  0.0202 -0.4888
  648TMC3    O2 9602   4.223   1.419  15.947 -0.6073 -0.2501 -0.0560
  649TMC3    C1 9603   3.298   2.637  13.126  0.1670 -0.1294  0.1411
  649TMC3    C2 9604   3.402   2.716  13.164 -0.7980  0.3974  0.1496
  649TMC3    C3 9605   3.411   2.726  13.297 -0.0555 -0.5695 -0.1840
  649TMC3    C4 9606   3.214   2.567  13.205  0.3196  1.3468 -0.0692
  649TMC3    C5 9607   3.233   2.572  13.336 -0.0772 -0.5305  0.2845
  649TMC3    C6 9608   3.334   2.649  13.385  0.7622  0.0551 -0.6081
  649TMC3     C 9609   3.261   2.637  12.987  0.3443  0.9006  0.0947
  649TMC3     O 9610   3.143   2.639  12.957  0.1106  0.1433  0.1629
  649TMC3     H 9611   3.475   2.758  13.096 -1.7970  1.3561 -0.3294
  649TMC3    H1 9612   3.129   2.520  13.156  0.9599 -0.1559  0.2616
  649TMC3    H2 9613   3.339   2.662  13.493  0.8709  1.5052 -0.7768
  649TMC3    C7 9614   3.129   2.522  13.436 -0.1040 -0.3914 -0.4276
  649TMC3    C8 9615   3.481   2.832  13.359  0.2020 -0.2497  0.1050
  649TMC3    O1 9616   3.103   2.592  13.534 -0.2109 -0.2660 -0.3705
  649TMC3    O2 9617   3.547   2.810  13.460 -0.2079 -0.8662 -0.0276
  650TMC3    C1 9618   1.006   4.463  12.622  0.9828  0.0676 -0.2003
  650TMC3    C2 9619   1.006   4.595  12.664 -0.0014 -0.1696 -0.2460
  650TMC3    C3 9620   0.902   4.670  12.628  1.1706 -0.4601 -0.3135
  650TMC3    C4 9621   0.916   4.412  12.539  0.6420 -0.2334  0.0880
  650TMC3    C5 9622   0.811   4.492  12.512  0.7283  0.9642  0.2760
  650TMC3    C6 9623   0.800   4.620  12.551 -0.3386  0.3051 -0.3692
  650TMC3     C 9624   1.072   4.375  12.719  0.8736  0.3360  0.3302
  650TMC3     O 9625   1.120   4.434  12.815  1.1674 -0.6079 -0.7024
  650TMC3     H 9626   1.090   4.639  12.716 -0.8927  0.9602  0.2553
  650TMC3    H1 9627   0.921   4.311  12.500 -1.2564 -0.2944 -0.0150
  650TMC3    H2 9628   0.710   4.679  12.538 -0.1848  0.5119 -0.4958
  650TMC3    C7 9629   0.708   4.446  12.427 -0.2847  0.5433  0.0151
  650TMC3    C8 9630   0.891   0.087  12.680 -0.1022 -0.3879 -0.6220
  650TMC3    O1 9631   0.646   4.341  12.456  0.3937 -0.3984 -0.4293
  650TMC3    O2 9632   0.994   0.125  12.730 -0.3830 -0.1377  0.2134
  651MPD2     C 9633   0.082   1.554  11.206 -0.5889 -0.1369 -0.0629
  651MPD2    C1 9634   0.075   1.687  11.225 -0.7583 -0.0971 -0.2691
  651MPD2    C2 9635   0.190   1.763  11.249  0.4197 -0.3942 -0.0523
  651MPD2    C3 9636   0.300   1.693  11.300 -0.2968  0.1082  0.5815
  651MPD2    C4 9637   0.303   1.557  11.303 -0.1700 -0.6450 -0.0893
  651MPD2    C5 9638   0.194   1.491  11.255  0.1341 -0.5338 -0.6046
  651MPD2     H 9639   0.190   1.871  11.251 -3.0782 -0.3577 -1.4397
  651MPD2    H1 9640   0.390   1.497  11.326 -0.3243 -1.2115 -1.0082
  651MPD2    H2 9641   0.004   1.487  11.174 -1.6887  1.3026 -0.3914
  651MPD2    H3 9642   0.202   1.385  11.235 -1.7402 -0.0672 -3.8125
  651MPD2     N 9643   0.405   1.764  11.344  0.6252 -0.1033 -0.1816
  651MPD2    H5 9644   0.380   1.861  11.360  0.6296  0.2051 -2.0481
  651MPD2    N1 9645   4.680   1.759  11.200 -0.1433  0.0250 -0.3831
  651MPD2    H7 9646   4.684   1.860  11.191 -0.8389  0.0802 -0.1318
  652TMC3    C1 9647   0.847   1.888  11.350  0.3685 -0.0217  0.0515
  652TMC3    C2 9648   0.753   1.788  11.353  0.6698  0.4129 -0.4602
  652TMC3    C3 9649   0.625   1.815  11.395 -0.2236  0.1669 -0.2786
  652TMC3    C4 9650   0.827   2.019  11.386 -0.8464 -0.2824 -0.7915
  652TMC3    C5 9651   0.695   2.041  11.424  0.0048  0.0539 -0.6498
  652TMC3    C6 9652   0.595   1.944  11.437  0.5615 -0.3500 -0.0718
  652TMC3     C 9653   0.968   1.841  11.285  0.3553 -0.8010 -0.4449
  652TMC3     O 9654   1.005   1.724  11.296 -0.2852 -0.5009  0.0486
  652TMC3     H 9655   0.782   1.691  11.314  1.6103  0.3557  0.3899
  652TMC3    H1 9656   0.903   2.097  11.387 -1.4415  0.2805  0.6061
  652TMC3    H2 9657   0.496   1.956  11.479  0.2897  0.1583 -0.8533
  652TMC3    C7 9658   0.663   2.175  11.465 -0.6841 -0.8248 -0.2987
  652TMC3    C8 9659   0.527   1.716  11.373  0.3154 -0.3268 -0.6154
  652TMC3    O1 9660   0.574   2.195  11.549 -0.3368 -0.1225 -0.1533
  652TMC3    O2 9661   0.576   1.602  11.356 -0.9599 -0.2561 -0.2817
  653MPD2     C 9662   3.259   1.665   0.418  0.4459 -0.1201  0.6791
  653MPD2    C1 9663   3.253   1.777   0.340 -0.6327 -0.9754 -0.4772
  653MPD2    C2 9664   3.166   1.777   0.229  0.8275 -0.9830 -0.5039
  653MPD2    C3 9665   3.106   1.659   0.190 -0.3000 -0.2059 -0.7823
  653MPD2    C4 9666   3.112   1.547   0.272 -0.3567  0.2786 -0.0775
  653MPD2    C5 9667   3.185   1.558   0.388 -0.3573  0.0785 -0.4036
  653MPD2     H 9668   3.151   1.870   0.175 -1.0485 -1.0708 -0.1481
  653MPD2    H1 9669   3.054   1.458   0.254 -0.8350  0.6250 -0.2586
  653MPD2    H2 9670   3.326   1.661   0.503 -1.0091  0.9735  1.8661
  653MPD2    H3 9671   3.186   1.475   0.457 -0.5739  0.3200 -0.1129
  653MPD2     N 9672   3.024   1.666   0.076 -0.1057  1.5585  0.9394
  653MPD2    H5 9673   2.990   1.759   0.051  0.1691  1.3176 -0.3136
  653MPD2    N1 9674   3.337   1.891   0.347 -0.2945  0.8745  0.2009
  653MPD2    H7 9675   3.317   1.969   0.285 -0.1697  0.1615 -0.7343
  654TMC3    C1 9676   2.937   1.600  17.578  0.3649 -0.0888 -0.5525
  654TMC3    C2 9677   2.846   1.695  17.595  0.1528 -0.1848  0.2438
  654TMC3    C3 9678   2.771   1.726  17.476  0.0328  0.1166 -0.2206
  654TMC3    C4 9679   2.965   1.540  17.458 -0.3361  0.3986 -0.6893
  654TMC3    C5 9680   2.896   1.572  17.344  0.6545 -0.2072  0.0186
  654TMC3    C6 9681   2.801   1.669  17.357  0.5358 -0.1130 -0.0466
  654TMC3     C 9682   3.007   1.561  17.692  0.0554 -0.3833 -0.3774
  654TMC3     O 9683   3.047   1.447   0.009  0.4198  0.0994 -0.0619
  654TMC3     H 9684   2.808   1.716  17.694 -0.2652 -1.0618  0.2698
  654TMC3    H1 9685   3.064   1.495  17.450  0.2180  1.7372 -1.2546
  654TMC3    H2 9686   2.749   1.693  17.265  1.4311 -1.5349 -0.9174
  654TMC3    C7 9687   2.881   1.480  17.231  0.0976 -0.4568  0.2965
  654TMC3    C8 9688   2.640   1.795  17.486  0.0940 -0.1370  0.3367
  654TMC3    O1 9689   2.839   1.517  17.126 -0.3047 -0.0925 -0.2547
  654TMC3    O2 9690   2.543   1.751  17.426 -0.0761  0.3802 -0.4584
  655MPD2     C 9691   4.631   1.767  16.089  0.2449  0.4883  0.5917
  655MPD2    C1 9692   4.585   1.851  15.997  0.4117  0.6150  0.0603
  655MPD2    C2 9693   4.574   1.804  15.867  0.0328 -0.5141  0.0901
  655MPD2    C3 9694   4.605   1.677  15.832  0.3803  0.6136 -0.4149
  655MPD2    C4 9695   4.662   1.595  15.923  0.6222  0.5707 -0.1225
  655MPD2    C5 9696   4.666   1.634  16.053 -0.3630 -0.5085 -0.0422
  655MPD2     H 9697   4.535   1.875  15.795 -2.5885 -1.6287  0.4136
  655MPD2    H1 9698   4.693   1.493  15.902  0.5143  0.8878 -1.8814
  655MPD2    H2 9699   4.631   1.784  16.196 -1.2336  3.0959  0.1902
  655MPD2    H3 9700   4.698   1.567  16.132 -3.2183 -0.1691  1.3703
  655MPD2     N 9701   4.576   1.620  15.703 -0.1074 -0.1959  0.0935
  655MPD2    H5 9702   4.608   1.529  15.672 -2.5130 -1.4993  1.4089
  655MPD2    N1 9703   4.541   1.980  16.022 -0.2503 -0.0134  0.8316
  655MPD2    H7 9704   4.503   2.035  15.946 -0.8443  0.5710  1.5473
  656TMC3    C1 9705   4.437   2.142  16.152 -0.8447  0.1076  0.2407
  656TMC3    C2 9706   4.387   2.171  16.275  0.6082  0.5036  0.0718
  656TMC3    C3 9707   4.289   2.264  16.281 -0.1559  0.4860  0.3221
  656TMC3    C4 9708   4.405   2.209  16.037 -0.0758  0.4069  0.3531
  656TMC3    C5 9709   4.307   2.298  16.046  0.6681  0.3177 -0.4692
  656TMC3    C6 9710   4.246   2.325  16.166 -0.5107 -0.6905 -0.1873
  656TMC3     C 9711   4.532   2.034  16.150  0.7312  0.2985 -0.3676
  656TMC3     O 9712   4.588   2.007  16.257  0.2355 -0.3918  0.2211
  656TMC3     H 9713   4.426   2.116  16.360  0.6928  1.5145  0.6825
  656TMC3    H1 9714   4.460   2.201  15.944  1.1489  0.8473  1.0444
  656TMC3    H2 9715   4.155   2.383  16.173  0.1757  0.1440  1.9603
  656TMC3    C7 9716   4.279   2.391  15.941  0.0972  0.1125  0.1874
  656TMC3    C8 9717   4.204   2.265  16.396 -0.0274 -0.2539  0.1950
  656TMC3    O1 9718   4.324   2.362  15.830  0.3979  0.1800  0.1034
  656TMC3    O2 9719   4.202   2.163  16.459 -0.5267 -0.7259 -0.2162
  657TMC3    C1 9720   3.638   1.072  15.163 -0.0181 -0.1225 -0.5372
  657TMC3    C2 9721   3.660   1.073  15.296 -0.0706  0.1339 -0.6335
  657TMC3    C3 9722   3.566   1.136  15.375  0.4630  0.8971 -0.2848
  657TMC3    C4 9723   3.538   1.146  15.106 -0.0608 -0.0398 -0.6073
  657TMC3    C5 9724   3.454   1.215  15.186  0.0598 -0.4353  0.5175
  657TMC3    C6 9725   3.461   1.201  15.326 -0.4191  0.2997  0.5339
  657TMC3     C 9726   3.731   1.002  15.070 -0.4586  0.0043 -0.1816
  657TMC3     O 9727   3.742   1.029  14.950 -0.2417 -0.0207 -0.3923
  657TMC3     H 9728   3.753   1.039  15.339 -0.3072 -1.4897 -1.4198
  657TMC3    H1 9729   3.537   1.151  14.998 -1.5043  0.6771 -0.5589
  657TMC3    H2 9730   3.397   1.249  15.399 -0.0404  1.2182  0.2551
  657TMC3    C7 9731   3.362   1.311  15.120 -0.5375 -0.0904 -0.3650
  657TMC3    C8 9732   3.601   1.165  15.513  0.6168 -0.2105 -0.2870
  657TMC3    O1 9733   3.346   1.300  14.999  0.0584  0.4529 -0.2995
  657TMC3    O2 9734   3.552   1.263  15.567 -0.1710 -0.2132 -0.1151
  658MPD2     C 9735   0.306   1.318  15.339  0.4975  0.2729  0.0872
  658MPD2    C1 9736   0.214   1.406  15.273  0.3311 -0.5100 -0.2197
  658MPD2    C2 9737   0.251   1.450  15.149 -0.3233 -0.9023  0.4115
  658MPD2    C3 9738   0.378   1.417  15.091  0.5388  0.8583  0.4989
  658MPD2    C4 9739   0.448   1.315  15.151 -0.6977  0.8047 -0.1887
  658MPD2    C5 9740   0.413   1.262  15.272 -0.2239 -0.2290 -0.3813
  658MPD2     H 9741   0.188   1.503  15.078  2.9004  2.4217  0.0091
  658MPD2    H1 9742   0.524   1.269  15.089 -4.3175 -0.9899 -3.2676
  658MPD2    H2 9743   0.277   1.279  15.436 -0.2786 -1.6148 -0.9142
  658MPD2    H3 9744   0.464   1.170  15.297  1.0273 -0.3333 -3.3375
  658MPD2     N 9745   0.406   1.456  14.957  0.5591  0.0432  0.8201
  658MPD2    H5 9746   0.343   1.518  14.908  0.5708 -0.8419 -0.3139
  658MPD2    N1 9747   0.094   1.435  15.336  0.0401  0.1561 -0.2753
  658MPD2    H7 9748   0.080   1.397  15.429 -0.9581 -0.0685 -0.5156
  659TMC3    C1 9749   4.587   1.488  15.340  0.6668 -0.0723  0.3035
  659TMC3    C2 9750   4.586   1.560  15.460 -0.3856 -0.2427 -0.9220
  659TMC3    C3 9751   4.465   1.613  15.496 -0.0101 -0.0476 -0.0084
  659TMC3    C4 9752   4.475   1.481  15.265  0.0269  0.0119 -0.1836
  659TMC3    C5 9753   4.357   1.543  15.297  0.3094  0.4047  0.7811
  659TMC3    C6 9754   4.350   1.609  15.416 -0.7383  0.0872  0.0571
  659TMC3     C 9755   4.713   1.493  15.266 -0.7701  0.4299 -0.8548
  659TMC3     O 9756   4.702   1.536  15.152 -0.4013  0.1826  0.0985
  659TMC3     H 9757   4.681   1.573  15.511 -0.4611 -2.7324 -0.1268
  659TMC3    H1 9758   4.488   1.436  15.167  0.8969  0.5488 -0.3165
  659TMC3    H2 9759   4.266   1.668  15.449 -2.4210 -0.6490 -2.9485
  659TMC3    C7 9760   4.233   1.525  15.226  0.1447  0.1557 -0.3006
  659TMC3    C8 9761   4.473   1.671  15.628 -0.4798  0.0288 -0.2164
  659TMC3    O1 9762   4.141   1.602  15.255  0.9271  0.1370  0.3143
  659TMC3    O2 9763   4.388   1.753  15.654  0.1718 -0.2935 -0.4695
  660MPD2     C 9764   3.471   0.521  12.727  0.3588  0.0750  0.7582
  660MPD2    C1 9765   3.335   0.536  12.697  0.7890  0.1914  0.3966
  660MPD2    C2 9766   3.244   0.450  12.760  0.3874 -0.2279  0.5642
  660MPD2    C3 9767   3.294   0.357  12.850  0.2153 -0.2074 -0.1043
  660MPD2    C4 9768   3.428   0.345  12.878 -0.2995  0.1760  0.2708
  660MPD2    C5 9769   3.515   0.432  12.819  0.3016 -0.0792  0.5513
  660MPD2     H 9770   3.140   0.445  12.733 -0.9644  0.2517  5.6957
  660MPD2    H1 9771   3.468   0.274  12.950  1.2828  0.3839 -0.4042
  660MPD2    H2 9772   3.546   0.578  12.674 -1.0122  0.4058 -0.8529
  660MPD2    H3 9773   3.619   0.441  12.848  1.0736 -0.4305 -2.1672
  660MPD2     N 9774   3.219   0.252  12.910 -0.7968 -0.0180 -0.3434
  660MPD2    H5 9775   3.270   0.180  12.960  1.7827  0.7786 -1.8083
  660MPD2    N1 9776   3.304   0.638  12.606 -0.4624 -0.5268 -0.1526
  660MPD2    H7 9777   3.373   0.690  12.552 -0.2426 -0.4415  0.2087
  661TMC3    C1 9778   3.145   0.767  12.477  0.1850  0.0641 -0.1919
  661TMC3    C2 9779   3.203   0.747  12.352  0.0273  0.1914 -0.6880
  661TMC3    C3 9780   3.145   0.800  12.240  0.2488 -0.4672 -0.1886
  661TMC3    C4 9781   3.030   0.841  12.490 -0.8006  0.7371  0.4654
  661TMC3    C5 9782   2.970   0.881  12.374 -0.2811 -0.4314 -0.5438
  661TMC3    C6 9783   3.021   0.863  12.248  0.8430  0.1366  0.0073
  661TMC3     C 9784   3.176   0.695  12.597  1.0005 -0.1728  0.1414
  661TMC3     O 9785   3.082   0.685  12.675  0.3494  0.3609 -0.5782
  661TMC3     H 9786   3.286   0.679  12.341  0.0349  0.2509 -0.9843
  661TMC3    H1 9787   2.981   0.863  12.584  1.1382  1.1238  1.3829
  661TMC3    H2 9788   2.966   0.890  12.159 -1.1099  0.4995  1.3276
  661TMC3    C7 9789   2.836   0.924  12.389  0.1229  0.2895  0.3788
  661TMC3    C8 9790   3.217   0.796  12.116 -0.3727  0.1988  0.5394
  661TMC3    O1 9791   2.809   1.005  12.478  0.0821  0.0356  0.6003
  661TMC3    O2 9792   3.301   0.711  12.098  0.7470  0.1831 -0.8027
  662MPD2     C 9793   2.791   0.530  17.482  0.3642 -0.1355 -0.6687
  662MPD2    C1 9794   2.792   0.442  17.587 -0.3093 -0.2830 -0.1027
  662MPD2    C2 9795   2.759   0.486   0.022 -0.5015  0.2874 -0.2133
  662MPD2    C3 9796   2.720   0.618   0.043 -0.4007  0.5714  0.1941
  662MPD2    C4 9797   2.713   0.708  17.630 -0.4515  0.2991  0.0901
  662MPD2    C5 9798   2.740   0.658  17.503 -0.3185  0.1882 -0.5928
  662MPD2     H 9799   2.762   0.417   0.105  2.0701 -0.0447 -0.5626
  662MPD2    H1 9800   2.673   0.808  17.645 -1.9724 -0.1729 -0.8746
  662MPD2    H2 9801   2.813   0.508  17.378 -0.4288  0.2723 -0.9215
  662MPD2    H3 9802   2.721   0.725  17.420  0.0345  0.5844 -0.3589
  662MPD2     N 9803   2.660   0.668   0.163 -0.8982  0.1172 -0.2481
  662MPD2    H5 9804   2.635   0.766   0.152  0.8824  0.7413  1.1977
  662MPD2    N1 9805   2.841   0.307  17.581  0.5655  0.7592 -0.2066
  662MPD2    H7 9806   2.817   0.252  17.662 -0.3125  1.6365  0.1350
  663TMC3    C1 9807   2.935   0.108  17.494  0.3627  0.0109  0.4398
  663TMC3    C2 9808   3.013   0.082  17.609 -0.3330  0.0019 -0.0762
  663TMC3    C3 9809   3.090   4.697  17.598 -0.2684 -0.7309 -0.5920
  663TMC3    C4 9810   2.917   0.030  17.385  0.5906  0.1621 -0.4833
  663TMC3    C5 9811   2.987   4.641  17.390 -0.0286 -0.2430 -0.5050
  663TMC3    C6 9812   3.056   4.600  17.507  0.1734 -0.2235 -0.2686
  663TMC3     C 9813   2.905   0.251  17.474  0.4537  0.0505  0.0006
  663TMC3     O 9814   2.923   0.297  17.363 -0.4314  0.2602 -0.1932
  663TMC3     H 9815   3.042   0.172  17.663  3.8237  0.1232 -2.5149
  663TMC3    H1 9816   2.855   0.067  17.304  3.3812 -0.3150 -2.8023
  663TMC3    H2 9817   3.123   4.517  17.493 -0.1189 -0.4050 -0.6065
  663TMC3    C7 9818   2.944   4.549  17.286  0.4950  0.3976 -0.5882
  663TMC3    C8 9819   3.104   4.631   0.025  0.5584  0.2113  0.1446
  663TMC3    O1 9820   2.898   4.597  17.182 -0.0387  0.2188  0.4899
  663TMC3    O2 9821   3.183   4.538   0.027 -0.1910 -0.2074  0.0597
  664MPD2     C 9822   0.933   3.202   0.264 -0.0489 -0.1283  0.4771
  664MPD2    C1 9823   1.052   3.265   0.293  0.4285  0.2592 -0.0168
  664MPD2    C2 9824   1.065   3.346   0.398 -0.1208  0.4445 -0.1388
  664MPD2    C3 9825   0.963   3.345   0.494  0.2644 -0.4443  0.8175
  664MPD2    C4 9826   0.844   3.281   0.466  0.4173 -0.1938  1.1460
  664MPD2    C5 9827   0.827   3.216   0.345 -0.0754 -0.1151  0.5104
  664MPD2     H 9828   1.159   3.392   0.429 -0.3479  2.2092 -2.0581
  664MPD2    H1 9829   0.756   3.287   0.528 -0.6395  1.9111 -0.5203
  664MPD2    H2 9830   0.922   3.138   0.176  1.7028  2.7226 -1.8189
  664MPD2    H3 9831   0.730   3.168   0.336 -1.5033  2.6833  0.9348
  664MPD2     N 9832   0.991   3.412   0.618 -0.1787  1.0170 -0.0654
  664MPD2    H5 9833   1.084   3.451   0.631  0.4245 -0.6765  0.7153
  664MPD2    N1 9834   1.167   3.234   0.221  0.7445 -0.6774 -0.3931
  664MPD2    H7 9835   1.247   3.293   0.241  0.4805 -0.6872  0.6530
  665TMC3    C1 9836   0.953   3.507   0.827  0.0382 -0.5269 -0.1652
  665TMC3    C2 9837   0.895   3.492   0.951 -0.6847  0.2041  0.4004
  665TMC3    C3 9838   0.957   3.552   1.055 -0.3820 -0.3007  0.0396
  665TMC3    C4 9839   1.072   3.572   0.817  0.3366  0.0267 -0.2749
  665TMC3    C5 9840   1.125   3.633   0.927  0.4659  0.5354 -0.6430
  665TMC3    C6 9841   1.063   3.635   1.047 -1.1890 -0.2666  0.5146
  665TMC3     C 9842   0.899   3.425   0.723  0.0018 -0.2340 -0.7258
  665TMC3     O 9843   0.784   3.383   0.734 -0.8954  0.1327 -0.1153
  665TMC3     H 9844   0.808   3.428   0.960 -0.6129 -0.0962 -1.0647
  665TMC3    H1 9845   1.129   3.583   0.725 -1.5858 -0.3524 -1.5065
  665TMC3    H2 9846   1.115   3.673   1.134 -0.6371  0.3576 -0.0925
  665TMC3    C7 9847   1.252   3.705   0.915 -0.0989 -0.2419  0.1501
  665TMC3    C8 9848   0.877   3.544   1.175 -0.3168  0.2797  0.3176
  665TMC3    O1 9849   1.335   3.673   0.829  0.1733  0.0128  0.2567
  665TMC3    O2 9850   0.771   3.482   1.167 -0.0453  0.2852 -0.9993
  666TMC3    C1 9851   0.711   2.621  10.477  0.5192 -0.2094 -0.1366
  666TMC3    C2 9852   0.845   2.588  10.453  0.0994 -0.5198  0.8847
  666TMC3    C3 9853   0.930   2.685  10.400  0.2108 -0.1332 -0.3967
  666TMC3    C4 9854   0.669   2.747  10.442 -0.7657 -0.2965 -0.1926
  666TMC3    C5 9855   0.753   2.830  10.372  0.7765 -0.0611  0.0823
  666TMC3    C6 9856   0.884   2.807  10.351  0.2009  0.9000 -0.0161
  666TMC3     C 9857   0.656   2.559  10.597 -0.4299  0.4692  0.3311
  666TMC3     O 9858   0.566   2.627  10.649 -0.3419 -0.0232  0.1442
  666TMC3     H 9859   0.886   2.489  10.472 -0.9804 -0.8855  1.2807
  666TMC3    H1 9860   0.564   2.763  10.467 -0.3248  1.2811  0.6760
  666TMC3    H2 9861   0.956   2.882  10.320  0.6968 -0.3397 -1.8385
  666TMC3    C7 9862   0.688   2.943  10.310  0.3190  0.6145 -0.8179
  666TMC3    C8 9863   1.057   2.692  10.477 -0.6277 -0.5819 -0.4838
  666TMC3    O1 9864   0.571   2.959  10.342  0.1860 -0.2672  0.6935
  666TMC3    O2 9865   1.067   2.605  10.561 -0.1115  0.4272 -0.2014
  667MPD2     C 9866   1.311   3.305  15.075  0.2095 -0.6865 -0.0350
  667MPD2    C1 9867   1.377   3.184  15.075  0.7838  0.3000 -0.5080
  667MPD2    C2 9868   1.309   3.070  15.052  0.0743 -0.0290 -0.7095
  667MPD2    C3 9869   1.173   3.070  15.023  0.0946 -0.9043 -0.7682
  667MPD2    C4 9870   1.103   3.192  15.029  0.2992  0.3478 -0.5846
  667MPD2    C5 9871   1.175   3.305  15.058  0.0214 -0.2339 -0.1850
  667MPD2     H 9872   1.356   2.972  15.047 -1.6468 -0.9857  2.3274
  667MPD2    H1 9873   0.996   3.201  15.011  0.6978  0.7062 -2.7598
  667MPD2    H2 9874   1.354   3.404  15.085 -0.6069 -0.3580  0.2052
  667MPD2    H3 9875   1.125   3.400  15.064 -1.1811 -0.8237 -0.8789
  667MPD2     N 9876   1.097   2.957  14.979  0.1429  0.5670 -0.4320
  667MPD2    H5 9877   0.998   2.970  14.961 -0.4502 -1.1229  1.6565
  667MPD2    N1 9878   1.508   3.171  15.108  0.1362  0.2303  0.3178
  667MPD2    H7 9879   1.543   3.075  15.106  0.6059  0.4727 -2.7247
  668TMC3    C1 9880   1.719   3.206  15.206 -0.3782  0.1237  0.1459
  668TMC3    C2 9881   1.813   3.306  15.234 -0.3506 -0.1898  0.0827
  668TMC3    C3 9882   1.888   3.300  15.349  0.1354  0.5211  0.4430
  668TMC3    C4 9883   1.699   3.110  15.302 -0.1833 -0.5802  0.0202
  668TMC3    C5 9884   1.757   3.122  15.425 -0.5047  0.3266 -0.0464
  668TMC3    C6 9885   1.853   3.215  15.448  0.3015 -0.0982  0.0226
  668TMC3     C 9886   1.604   3.262  15.129  0.2614 -0.1553  0.0732
  668TMC3     O 9887   1.591   3.382  15.120  0.0854  0.0212  0.5275
  668TMC3     H 9888   1.826   3.381  15.158  2.3056  0.1739  0.8685
  668TMC3    H1 9889   1.625   3.032  15.286  1.4253 -1.8386 -1.3512
  668TMC3    H2 9890   1.879   3.214  15.553  0.8204 -1.0218 -0.1124
  668TMC3    C7 9891   1.682   3.079  15.532  0.3779 -0.4829 -0.4066
  668TMC3    C8 9892   1.985   3.401  15.396 -0.7524 -0.0114  0.0278
  668TMC3    O1 9893   1.651   3.167  15.610  0.6284 -0.1385  0.1833
  668TMC3    O2 9894   2.008   3.399  15.514  0.0524 -0.1049 -0.6875
  669TMC3    C1 9895   0.163   2.973  14.553  0.4066  0.1564 -0.0589
  669TMC3    C2 9896   0.040   2.982  14.483 -0.5991  0.4417 -0.4007
  669TMC3    C3 9897   0.005   3.105  14.439 -0.3880 -0.0944 -0.0078
  669TMC3    C4 9898   0.256   3.074  14.538 -0.0032 -0.2887 -0.2479
  669TMC3    C5 9899   0.219   3.190  14.478 -0.3042 -0.9611  0.1802
  669TMC3    C6 9900   0.092   3.214  14.427  0.5266  0.6502 -0.5944
  669TMC3     C 9901   0.189   2.863  14.652 -0.3994 -0.3768  0.1651
  669TMC3     O 9902   0.107   2.774  14.639  0.4392  0.1153 -0.2171
  669TMC3     H 9903   4.691   2.905  14.505  0.1720 -0.2504 -0.2808
  669TMC3    H1 9904   0.363   3.055  14.548 -0.3379 -1.4242  1.1746
  669TMC3    H2 9905   0.070   3.319  14.411  2.5791  1.2463  0.4527
  669TMC3    C7 9906   0.329   3.280  14.443 -0.0554 -0.3351  0.0381
  669TMC3    C8 9907   4.589   3.124  14.401  0.0967  0.3278  0.6211
  669TMC3    O1 9908   0.400   3.318  14.532 -0.1462 -0.0620 -0.6836
  669TMC3    O2 9909   4.531   3.026  14.360 -0.6554  0.0275  0.1049
  670MPD2     C 9910   3.645   1.127  13.520 -0.4700  0.2511  0.0938
  670MPD2    C1 9911   3.672   1.248  13.578  0.6574 -0.2516 -0.0979
  670MPD2    C2 9912   3.627   1.272  13.708 -0.9216 -0.6030  0.0253
  670MPD2    C3 9913   3.542   1.187  13.768 -0.4625 -0.3341  1.3232
  670MPD2    C4 9914   3.510   1.072  13.702 -0.1445 -0.4733  0.5203
  670MPD2    C5 9915   3.566   1.038  13.584  0.4841 -0.3318 -0.4174
  670MPD2     H 9916   3.653   1.364  13.760  0.1594 -0.0630 -1.4929
  670MPD2    H1 9917   3.444   0.997  13.744  0.6365 -2.3710 -1.6485
  670MPD2    H2 9918   3.687   1.098  13.424 -1.3987  1.1574 -0.5868
  670MPD2    H3 9919   3.523   0.954  13.530  1.3106 -1.0867  0.0983
  670MPD2     N 9920   3.481   1.215  13.894 -0.1305  0.1098 -0.3692
  670MPD2    H5 9921   3.543   1.273  13.948  1.5826 -0.9738 -1.1634
  670MPD2    N1 9922   3.757   1.342  13.524  0.1930 -0.1662  0.3651
  670MPD2    H7 9923   3.793   1.411  13.589 -1.6205  1.4846 -0.3999
  671TMC3    C1 9924   3.387   1.171  14.100  0.2271 -0.1523  0.7362
  671TMC3    C2 9925   3.501   1.142  14.171 -1.0890  0.3376  0.3424
  671TMC3    C3 9926   3.481   1.056  14.273 -0.6163 -0.0755 -0.1964
  671TMC3    C4 9927   3.262   1.145  14.144  0.7320  0.5537 -0.2733
  671TMC3    C5 9928   3.247   1.063  14.248 -0.0011 -0.4556  0.2610
  671TMC3    C6 9929   3.358   1.024  14.325  0.5182  0.1086  0.0000
  671TMC3     C 9930   3.392   1.140  13.962  0.3780 -0.1039 -0.3653
  671TMC3     O 9931   3.304   1.062  13.929 -0.5868 -0.9034  0.0613
  671TMC3     H 9932   3.599   1.150  14.126 -1.0759 -0.1640  0.2764
  671TMC3    H1 9933   3.174   1.178  14.089  1.1186 -0.8362 -1.7134
  671TMC3    H2 9934   3.342   0.957  14.408 -0.9552  1.1666  0.5759
  671TMC3    C7 9935   3.162   0.947  14.229 -0.2280 -0.0647 -0.0987
  671TMC3    C8 9936   3.575   0.946  14.248 -0.5028 -0.6588 -0.3746
  671TMC3    O1 9937   3.152   0.867  14.323 -0.0603  0.4321 -0.1043
  671TMC3    O2 9938   3.605   0.930  14.134 -0.6168  0.4444  0.0482
  672MPD2     C 9939   2.881   1.452   1.512  0.6805 -0.3692  0.1523
  672MPD2    C1 9940   3.011   1.421   1.472 -0.2762  0.3157  1.1872
  672MPD2    C2 9941   3.113   1.465   1.545 -0.0229  0.2381  0.2572
  672MPD2    C3 9942   3.093   1.544   1.655 -0.0785  0.6000 -0.4954
  672MPD2    C4 9943   2.968   1.586   1.687 -0.5836  0.0353  0.0663
  672MPD2    C5 9944   2.863   1.536   1.615  0.1448  0.0389 -0.4165
  672MPD2     H 9945   3.213   1.434   1.518  0.5725  2.9102 -0.6452
  672MPD2    H1 9946   2.952   1.652   1.772  1.7050  0.4315  0.1949
  672MPD2    H2 9947   2.793   1.429   1.452 -0.1916  0.7155  1.0001
  672MPD2    H3 9948   2.767   1.573   1.648  0.2840  0.4980 -0.5322
  672MPD2     N 9949   3.202   1.589   1.725  0.6459  0.0647 -0.2187
  672MPD2    H5 9950   3.181   1.662   1.793  1.9702 -1.1908  1.5348
  672MPD2    N1 9951   3.033   1.341   1.359  0.2325  0.2634  0.0932
  672MPD2    H7 9952   3.131   1.327   1.333 -0.1794  1.3751 -2.0529
  673TMC3    C1 9953   3.002   1.169   1.216 -0.3289  0.7487  0.7965
  673TMC3    C2 9954   2.999   1.039   1.256 -0.9040  0.9650 -0.4087
  673TMC3    C3 9955   3.100   0.957   1.215 -0.9791 -0.0513  0.0524
  673TMC3    C4 9956   3.106   1.221   1.143 -0.1628 -0.2261  0.1762
  673TMC3    C5 9957   3.211   1.140   1.111 -0.1481  0.2895  0.0967
  673TMC3    C6 9958   3.214   1.008   1.146  0.6812 -0.4771  0.4638
  673TMC3     C 9959   2.941   1.265   1.297 -0.2500  0.0704  0.6740
  673TMC3     O 9960   2.822   1.247   1.322 -0.0461 -0.4404  0.2477
  673TMC3     H 9961   2.917   0.999   1.315 -0.7232 -0.6383 -1.2378
  673TMC3    H1 9962   3.100   1.319   1.096 -0.1535 -0.8274 -1.0578
  673TMC3    H2 9963   3.302   0.947   1.129  1.4768  0.3311  1.6681
  673TMC3    C7 9964   3.292   1.180   1.001  0.3147  0.0545  0.1948
  673TMC3    C8 9965   3.147   0.876   1.317  0.6162  0.4199  0.1748
  673TMC3    O1 9966   3.329   1.088   0.934  0.4533 -0.4636  0.5164
  673TMC3    O2 9967   3.264   0.896   1.353  0.6540  0.6556  0.7331
  674MPD2     C 9968   3.250   1.083   0.368  0.6426 -0.5742  0.5788
  674MPD2    C1 9969   3.135   1.009   0.384  0.8253 -0.1114 -1.4424
  674MPD2    C2 9970   3.038   1.052   0.477 -0.9435 -0.4972 -0.4049
  674MPD2    C3 9971   3.057   1.163   0.552 -0.9734  0.1433  0.5754
  674MPD2    C4 9972   3.168   1.242   0.529 -0.5690  0.4178 -0.5768
  674MPD2    C5 9973   3.257   1.203   0.430 -0.1238  0.2604  0.5050
  674MPD2     H 9974   2.954   0.989   0.503  1.2625 -3.4361 -0.2739
  674MPD2    H1 9975   3.195   1.330   0.587 -1.5608  0.0301  0.4745
  674MPD2    H2 9976   3.322   1.056   0.291  1.3013  0.8517  0.7031
  674MPD2    H3 9977   3.348   1.262   0.435  1.9870 -2.9019 -0.7021
  674MPD2     N 9978   2.976   1.177   0.662 -0.7290  0.2724 -0.6492
  674MPD2    H5 9979   2.912   1.105   0.693  0.1507  0.7349  2.1907
  674MPD2    N1 9980   3.116   0.878   0.331  0.1044  0.1012  0.3812
  674MPD2    H7 9981   3.209   0.843   0.307 -1.6552 -2.6740 -2.4077
  675TMC3    C1 9982   3.005   0.676   0.363 -0.3169  0.0787 -0.2539
  675TMC3    C2 9983   2.924   0.652   0.471  0.3104 -0.2100  0.0655
  675TMC3    C3 9984   2.963   0.570   0.568  1.3185 -0.6122  0.6179
  675TMC3    C4 9985   3.129   0.621   0.348  1.1258  0.6369  0.1408
  675TMC3    C5 9986   3.170   0.541   0.451 -0.5282  0.6535  0.3691
  675TMC3    C6 9987   3.084   0.508   0.557  1.1582 -0.3128 -0.7972
  675TMC3     C 9988   2.998   0.812   0.317 -0.5840 -0.9254 -0.1482
  675TMC3     O 9989   2.887   0.857   0.291 -0.4189 -0.1089  0.1815
  675TMC3     H 9990   2.836   0.715   0.477  0.6072  0.2015  0.1139
  675TMC3    H1 9991   3.181   0.638   0.255 -2.2821 -0.5741 -2.0060
  675TMC3    H2 9992   3.118   0.438   0.633  0.9882  2.4372  1.7694
  675TMC3    C7 9993   3.300   0.486   0.458  0.0887 -0.6371 -0.3414
  675TMC3    C8 9994   2.887   0.562   0.695  0.2285 -0.3890 -0.3013
  675TMC3    O1 9995   3.325   0.393   0.535  0.4332  0.1755  0.2613
  675TMC3    O2 9996   2.774   0.616   0.693 -0.6869 -0.2826  0.4344
  676MPD2     C 9997   1.076   4.492  11.180  0.3211  0.0106  0.0246
  676MPD2    C1 9998   1.032   4.406  11.278 -0.4637 -0.4204  0.0363
  676MPD2    C2 9999   1.046   4.273  11.259 -0.4046  0.1770  0.0734
  676MPD2    C310000   1.099   4.218  11.144 -0.1392  0.2703 -0.2640
  676MPD2    C410001   1.143   4.304  11.045 -0.0591  0.0279  0.3219
  676MPD2    C510002   1.129   4.439  11.065 -0.0417  0.4812  0.0441
  676MPD2     H10003   1.018   4.205  11.339 -0.1648 -0.5498 -0.4596
  676MPD2    H110004   1.177   4.273  10.947 -0.1480  1.0895 -0.0463
  676MPD2    H210005   1.054   4.597  11.193  0.6235  0.1218 -0.3680
  676MPD2    H310006   1.162   4.504  10.986  0.2909 -0.2404 -0.4083
  676MPD2     N10007   1.109   4.077  11.116  0.3823  0.1651  0.2952
  676MPD2    H510008   1.168   4.053  11.037 -0.0890  0.0988 -0.0423
  676MPD2    N110009   0.973   4.445  11.404  0.2058 -0.1174  0.2275
  676MPD2    H710010   0.932   4.370  11.459 -0.2453 -0.8147 -1.0741
  677TMC3    C110011   0.886   4.583  11.573  0.7370  0.1225  1.0974
  677TMC3    C210012   0.797   4.486  11.605  0.0578 -0.0128 -0.3618
  677TMC3    C310013   0.746   4.487  11.730 -0.8117 -0.6224 -0.3767
  677TMC3    C410014   0.922   4.679  11.656  0.1463  0.1553 -0.2725
  677TMC3    C510015   0.869   4.677  11.784  0.3429  0.7269  0.7811
  677TMC3    C610016   0.773   4.582  11.823  0.3405 -1.0533 -0.0294
  677TMC3     C10017   0.965   4.573  11.452 -0.5137  0.0695  0.3421
  677TMC3     O10018   1.022   4.672  11.404  0.0442 -0.5840  0.0841
  677TMC3     H10019   0.761   4.411  11.536 -0.1292  1.6942 -2.1259
  677TMC3    H110020   1.015   0.007  11.633  0.6413 -1.2705 -1.4694
  677TMC3    H210021   0.733   4.586  11.924 -1.8236  0.8725 -0.9689
  677TMC3    C710022   0.929   0.036  11.878  0.0573  0.4428 -0.0355
  677TMC3    C810023   0.658   4.375  11.765 -0.5682 -0.6851  0.6101
  677TMC3    O110024   0.894   0.018  11.997  0.6475 -0.8725  0.2225
  677TMC3    O210025   0.557   4.376  11.693 -0.5101  0.0242  0.5855
  678MPD2     C10026   2.594   4.447   2.047  0.3501 -0.0166 -0.2280
  678MPD2    C110027   2.602   4.474   1.911 -0.1528 -0.2157  0.2076
  678MPD2    C210028   2.487   4.514   1.846  0.4627 -0.1127  0.1014
  678MPD2    C310029   2.369   4.538   1.914 -0.0105 -0.7802  0.1438
  678MPD2    C410030   2.366   4.513   2.046 -0.2151 -0.7565 -0.4419
  678MPD2    C510031   2.472   4.461   2.110  0.3430  0.0737  1.3465
  678MPD2     H10032   2.496   4.547   1.743  0.8695 -1.8582 -0.4237
  678MPD2    H110033   2.278   4.530   2.107 -1.4119 -0.6555 -2.1885
  678MPD2    H210034   2.684   4.411   2.095  1.2867  3.6593  0.7152
  678MPD2    H310035   2.461   4.437   2.214 -0.1596 -0.2371  1.2167
  678MPD2     N10036   2.264   4.585   1.834  0.5459  0.3042 -0.8445
  678MPD2    H510037   2.278   4.569   1.735 -1.2483 -1.8064 -0.7517
  678MPD2    N110038   2.731   4.461   1.846 -0.7724  0.5124  0.3252
  678MPD2    H710039   2.741   4.480   1.747 -2.1250  2.7031  0.6200
  679TMC3    C110040   3.119   4.301   1.680 -0.1103  0.6252 -0.2586
  679TMC3    C210041   3.033   4.306   1.787  0.6049  0.1427  0.0864
  679TMC3    C310042   2.956   4.419   1.799  0.2455 -0.4143  0.0625
  679TMC3    C410043   3.142   4.404   1.598  0.3138 -0.0075  0.3813
  679TMC3    C510044   3.065   4.515   1.621 -0.0052  0.5001  0.1832
  679TMC3    C610045   2.964   4.523   1.714  0.0358 -0.0650  0.9618
  679TMC3     C10046   3.188   4.171   1.654 -0.9672 -0.6433 -0.0235
  679TMC3     O10047   3.221   4.143   1.537  0.0737 -0.3481 -0.5583
  679TMC3     H10048   3.019   4.218   1.848 -0.8761  0.3568  0.0364
  679TMC3    H110049   3.213   4.397   1.517  3.1148 -3.5159  3.1714
  679TMC3    H210050   2.898   4.609   1.719 -0.5983 -0.5091  0.2906
  679TMC3    C710051   3.062   4.621   1.519  0.3285  0.0519  0.5511
  679TMC3    C810052   2.852   4.426   1.900 -0.6490 -0.2453  0.7151
  679TMC3    O110053   2.957   4.685   1.500 -0.0031 -0.5255 -0.6114
  679TMC3    O210054   2.873   4.377   2.011 -0.2356  0.0634  0.4605
  680MPD2     C10055   2.769   3.053  13.786 -0.8672 -0.3237 -0.1236
  680MPD2    C110056   2.853   2.981  13.878 -0.4384  0.0642  0.5550
  680MPD2    C210057   2.975   3.030  13.909  0.2685  0.2363 -0.9475
  680MPD2    C310058   3.023   3.149  13.860  0.1298  0.9131 -0.1320
  680MPD2    C410059   2.944   3.211  13.770 -0.1474 -0.4027 -0.0776
  680MPD2    C510060   2.820   3.168  13.738 -0.1701  0.3114 -0.1900
  680MPD2     H10061   3.046   2.965  13.959 -0.0494  0.0944 -0.6747
  680MPD2    H110062   2.974   3.302  13.718  2.4376 -1.1661  0.0575
  680MPD2    H210063   2.676   3.010  13.752 -0.0834 -1.0287 -1.3757
  680MPD2    H310064   2.755   3.226  13.674 -0.1655 -0.6561 -1.0806
  680MPD2     N10065   3.145   3.208  13.896 -0.2765 -0.5981  0.1838
  680MPD2    H510066   3.172   3.297  13.855 -2.2728 -1.4593 -3.0418
  680MPD2    N110067   2.814   2.855  13.929 -0.3453 -0.2178 -0.8095
  680MPD2    H710068   2.875   2.813  13.997 -0.5483  0.8909  0.0540
  681TMC3    C110069   2.684   2.668  13.967 -0.4985  0.1070  0.3155
  681TMC3    C210070   2.734   2.650  14.094 -0.5790 -0.2791  0.3376
  681TMC3    C310071   2.754   2.519  14.136 -0.8130 -0.0190 -0.4127
  681TMC3    C410072   2.627   2.561  13.894 -0.0586 -0.0144 -0.1160
  681TMC3    C510073   2.636   2.435  13.946 -0.5947  0.0826 -0.0046
  681TMC3    C610074   2.712   2.409  14.058 -0.8085  0.3545 -0.0698
  681TMC3     C10075   2.697   2.794  13.900  0.1747 -0.3454 -0.2952
  681TMC3     O10076   2.612   2.812  13.813 -0.1959 -0.2958  0.6519
  681TMC3     H10077   2.759   2.736  14.154  1.0477  1.6455 -3.0625
  681TMC3    H110078   2.581   2.572  13.797  0.7403  0.1283 -0.4813
  681TMC3    H210079   2.740   2.305  14.074  2.6350  1.3895  0.5757
  681TMC3    C710080   2.669   2.336  13.848 -0.1648  0.4011 -0.0314
  681TMC3    C810081   2.779   2.485  14.277  0.1241  0.1583 -0.5967
  681TMC3    O110082   2.606   2.234  13.850 -0.5028 -0.2531  0.1072
  681TMC3    O210083   2.726   2.385  14.317  1.1535  0.6091 -0.1723
  682MPD2     C10084   0.366   4.042  10.507  0.8498 -0.5474 -0.5239
  682MPD2    C110085   0.254   3.970  10.532  0.2713 -0.2306  0.1447
  682MPD2    C210086   0.171   4.008  10.638  0.3966 -0.0635  1.4171
  682MPD2    C310087   0.194   4.131  10.701  0.3636 -0.4781 -0.4535
  682MPD2    C410088   0.305   4.198  10.678  0.3801  0.7420  0.6918
  682MPD2    C510089   0.398   4.149  10.590 -0.7555  0.2295  0.3771
  682MPD2     H10090   0.082   3.951  10.661  0.1127  0.5640  1.9082
  682MPD2    H110091   0.318   4.288  10.737 -1.1475  2.0005 -0.9036
  682MPD2    H210092   0.441   4.006  10.437  1.1077 -1.4793  0.2115
  682MPD2    H310093   0.492   4.202  10.575 -0.3584 -0.3120  0.9824
  682MPD2     N10094   0.113   4.187  10.807  0.1983  0.5303  0.0584
  682MPD2    H510095   0.152   4.265  10.858 -1.3046  0.8255  0.7538
  682MPD2    N110096   0.208   3.868  10.447  0.2684 -0.6244 -0.4017
  682MPD2    H710097   0.113   3.835  10.463  0.8062 -1.7839  0.3444
  683TMC3    C110098   4.615   4.428  11.058 -0.1943 -0.6600  0.2518
  683TMC3    C210099   4.505   4.380  11.119  0.0913 -0.5771  0.4759
  683TMC3    C310100   4.457   4.259  11.064  0.3043 -0.1447  0.2209
  683TMC3    C410101   4.679   4.369  10.955  0.2163 -0.2382  0.3438
  683TMC3    C510102   4.630   4.255  10.908 -0.1495  0.0057  0.4132
  683TMC3    C610103   4.514   4.198  10.957  0.2336  0.4225  0.1210
  683TMC3     C10104   4.661   4.553  11.105 -0.6727  0.1467  0.2511
  683TMC3     O10105   4.625   4.588  11.218  0.4789 -0.8371  0.3898
  683TMC3     H10106   4.462   4.424  11.208 -2.4379 -1.2834 -0.3847
  683TMC3    H110107   0.049   4.405  10.912  0.6490 -0.6039  0.9813
  683TMC3    H210108   4.470   4.108  10.918 -1.3259  1.8474 -1.3709
  683TMC3    C710109   4.708   4.165  10.826 -0.2685  0.3087  0.0560
  683TMC3    C810110   4.350   4.192  11.137 -0.1141 -0.0632 -0.2701
  683TMC3    O110111   4.638   4.075  10.781  0.3498 -0.8139  0.4435
  683TMC3    O210112   4.254   4.250  11.184  0.0456  0.2148 -0.1503
  684MPD2     C10113   2.673   4.351  16.722  0.7064  0.3396  0.6342
  684MPD2    C110114   2.750   4.383  16.605  0.6290  0.3863 -0.9634
  684MPD2    C210115   2.820   4.503  16.602  0.7217 -0.4514  0.2310
  684MPD2    C310116   2.807   4.594  16.707 -0.7582 -0.3603 -0.1131
  684MPD2    C410117   2.723   4.568  16.815  0.3406 -0.5828 -0.0465
  684MPD2    C510118   2.663   4.448  16.820  1.1264 -0.4118 -0.2482
  684MPD2     H10119   2.882   4.533  16.519  1.6103 -0.8447  0.7516
  684MPD2    H110120   2.724   4.643  16.894 -1.7299  0.0780 -0.6618
  684MPD2    H210121   2.623   4.256  16.738  0.8407  0.1204 -0.2389
  684MPD2    H310122   2.608   4.421  16.909  0.9237  0.0912 -0.2244
  684MPD2     N10123   2.891   4.706  16.710 -0.2436  0.6167 -0.1121
  684MPD2    H510124   2.964   0.003  16.642  0.2306  1.4553  0.6542
  684MPD2    N110125   2.764   4.296  16.496 -0.0270  1.1982  0.1582
  684MPD2    H710126   2.813   4.334  16.416 -3.0731  2.5913 -1.0318
  685TMC3    C110127   2.686   4.130  16.343 -0.0553  0.7676 -0.2173
  685TMC3    C210128   2.589   4.039  16.319  0.4224 -0.4597 -0.9236
  685TMC3    C310129   2.577   3.979  16.199  0.5179  0.6935 -1.2257
  685TMC3    C410130   2.796   4.145  16.253  0.3131  0.0888  0.1324
  685TMC3    C510131   2.786   4.069  16.141 -0.0179 -0.1323  0.7312
  685TMC3    C610132   2.671   4.000  16.103  0.1700 -0.5924  0.1649
  685TMC3     C10133   2.687   4.181  16.480 -0.3165  0.5895  0.4451
  685TMC3     O10134   2.608   4.121  16.554 -0.0538  0.2298 -0.4176
  685TMC3     H10135   2.508   4.019  16.389  1.1780 -0.1524  0.0364
  685TMC3    H110136   2.888   4.196  16.281  1.3561 -1.1673 -1.0550
  685TMC3    H210137   2.671   3.944  16.010 -0.5829  0.2185 -0.3216
  685TMC3    C710138   2.912   4.011  16.098  0.9671 -0.5567  0.2850
  685TMC3    C810139   2.462   3.890  16.180 -0.2674 -0.6504 -0.0700
  685TMC3    O110140   2.928   3.971  15.982  0.4631  0.1959  0.4901
  685TMC3    O210141   2.371   3.885  16.262 -0.3466  0.4690  0.3175
  686MPD2     C10142   4.235   3.408  15.513 -0.3353 -0.3384  0.6839
  686MPD2    C110143   4.262   3.347  15.623 -0.2103 -0.2739 -0.0779
  686MPD2    C210144   4.288   3.212  15.622 -0.8586 -0.0948  0.2567
  686MPD2    C310145   4.269   3.134  15.498 -0.4425 -0.2131  0.2456
  686MPD2    C410146   4.235   3.199  15.387  0.4472 -0.2721  0.2764
  686MPD2    C510147   4.223   3.339  15.395 -0.3509  0.4573  0.2015
  686MPD2     H10148   4.329   3.158  15.707 -0.0401  1.0096  0.5599
  686MPD2    H110149   4.208   3.153  15.293  3.0511  1.0541 -1.0986
  686MPD2    H210150   4.212   3.514  15.508 -0.0625 -0.3330 -0.5056
  686MPD2    H310151   4.192   3.388  15.303  0.8926  2.1675  0.6966
  686MPD2     N10152   4.293   2.994  15.492  0.5361 -0.9694 -0.2610
  686MPD2    H510153   4.282   2.954  15.400  0.3535 -0.9139 -0.2630
  686MPD2    N110154   4.270   3.430  15.741  0.2808 -0.0666 -1.0666
  686MPD2    H710155   4.249   3.529  15.733 -1.1044 -0.3378 -0.7175
  687TMC3    C110156   4.252   2.934  15.725  0.0168  0.6578 -0.0727
  687TMC3    C210157   4.129   2.994  15.738  0.4310 -0.4550 -0.0485
  687TMC3    C310158   4.087   3.021  15.867  1.1085  0.3528 -0.6556
  687TMC3    C410159   4.326   2.890  15.832 -0.2008 -0.4863  0.3604
  687TMC3    C510160   4.275   2.911  15.960  0.3927 -0.4371  0.2517
  687TMC3    C610161   4.159   2.974  15.979  0.0948 -0.1912 -0.1465
  687TMC3     C10162   4.316   2.904  15.596 -0.0464  0.5136 -0.2395
  687TMC3     O10163   4.365   2.791  15.584 -0.5308 -0.1345  0.6562
  687TMC3     H10164   4.068   3.017  15.652  1.6885  0.5942 -0.6648
  687TMC3    H110165   4.417   2.835  15.812 -1.1255 -1.9407  0.1831
  687TMC3    H210166   4.116   2.981  16.078 -1.9021 -2.3744 -0.8612
  687TMC3    C710167   4.355   2.870  16.071  0.6219  0.5566  0.6577
  687TMC3    C810168   3.980   3.111  15.900 -0.1472 -0.2569 -0.0502
  687TMC3    O110169   4.337   2.934  16.176 -0.5500  0.3279 -0.2007
  687TMC3    O210170   3.927   3.096  16.010  0.0478 -0.6460  0.4502
  688MPD2     C10171   3.649   2.370  17.591  0.7179 -0.6663 -0.6327
  688MPD2    C110172   3.705   2.262  17.656 -1.2800  0.2670  0.6446
  688MPD2    C210173   3.803   2.189  17.589 -0.3787 -0.2066  0.2329
  688MPD2    C310174   3.848   2.241  17.465  1.3901  0.3285 -0.6088
  688MPD2    C410175   3.803   2.360  17.410 -0.2692  0.0424  1.2656
  688MPD2    C510176   3.698   2.420  17.471 -0.2900 -0.0948  0.2430
  688MPD2     H10177   3.848   2.096  17.625  0.5211  0.3124  0.4552
  688MPD2    H110178   3.823   2.397  17.310  0.0488 -1.7861  0.6519
  688MPD2    H210179   3.562   2.422  17.629  1.7127  0.0905  0.5990
  688MPD2    H310180   3.654   2.501  17.414  0.5502  1.4987  1.8789
  688MPD2     N10181   3.952   2.173  17.396 -0.0040 -0.0693  0.0687
  688MPD2    H510182   4.003   2.237  17.336  0.7392 -0.7824 -0.0686
  688MPD2    N110183   3.663   2.214   0.085 -0.1989  0.1782 -0.3436
  688MPD2    H710184   3.709   2.131   0.122 -1.5143 -0.2803  0.2709
  689TMC3    C110185   3.563   2.225   0.297  0.1043 -0.4694 -0.6727
  689TMC3    C210186   3.564   2.307   0.401  0.0208 -0.3585 -0.4954
  689TMC3    C310187   3.530   2.251   0.525  0.2966  0.1436 -0.0798
  689TMC3    C410188   3.523   2.093   0.311 -0.3663 -0.7969  0.4367
  689TMC3    C510189   3.488   2.041   0.435  0.1486  0.2896 -0.4573
  689TMC3    C610190   3.513   2.119   0.545  0.8487 -0.3634 -0.0150
  689TMC3     C10191   3.583   2.286   0.171  0.5113 -0.3022 -0.1104
  689TMC3     O10192   3.532   2.395   0.147 -0.5308  0.0298 -0.3687
  689TMC3     H10193   3.573   2.413   0.382  1.1400  0.2841  3.6599
  689TMC3    H110194   3.495   2.036   0.223  0.3307 -1.5060  0.6666
  689TMC3    H210195   3.486   2.084   0.644 -1.7045  0.0734 -0.5745
  689TMC3    C710196   3.421   1.914   0.453  0.5329 -0.7101  0.6353
  689TMC3    C810197   3.521   2.339   0.638 -0.2964  0.0459  0.3751
  689TMC3    O110198   3.443   1.862   0.562  0.3141  0.3162  0.3044
  689TMC3    O210199   3.555   2.296   0.744  0.1106 -0.7922 -0.1255
  690MPD2     C10200   1.427   3.894  15.973  0.0079 -0.2480  0.3472
  690MPD2    C110201   1.326   3.931  15.889  0.3544  0.1204 -0.3425
  690MPD2    C210202   1.337   4.050  15.819 -0.4406  0.0688  0.1087
  690MPD2    C310203   1.447   4.132  15.833  1.0920 -0.4239 -0.3976
  690MPD2    C410204   1.559   4.084  15.900 -0.0146 -0.5179 -0.0992
  690MPD2    C510205   1.539   3.968  15.969 -0.2226  0.6996  0.0466
  690MPD2     H10206   1.246   4.093  15.778 -0.3055 -0.5738 -0.8702
  690MPD2    H110207   1.656   4.132  15.907 -0.6696  0.7496  0.1085
  690MPD2    H210208   1.413   3.806  16.035 -0.4664 -0.4158  0.0026
  690MPD2    H310209   1.626   3.924  16.016 -1.8524 -1.4101  1.0796
  690MPD2     N10210   1.438   4.257  15.774  0.6704  0.2209  0.4067
  690MPD2    H510211   1.341   4.279  15.752  0.2569 -0.5082  1.4928
  690MPD2    N110212   1.201   3.860  15.882  0.0693  0.3106 -0.4910
  690MPD2    H710213   1.131   3.904  15.821  1.2148  1.3595 -1.0508
  691TMC3    C110214   1.019   3.737  15.957 -0.0451  0.0216  0.6251
  691TMC3    C210215   0.927   3.816  15.884  0.0313  0.3550  0.3067
  691TMC3    C310216   0.796   3.815  15.915  0.2420 -0.0056 -0.2428
  691TMC3    C410217   0.969   3.647  16.049 -0.2059  0.5505  0.0367
  691TMC3    C510218   0.832   3.643  16.059 -0.3957 -0.3929  0.0018
  691TMC3    C610219   0.741   3.721  15.997  0.3005  0.1547  0.7015
  691TMC3     C10220   1.159   3.763  15.969  0.3467  0.1053 -0.3766
  691TMC3     O10221   1.226   3.697  16.048  0.1544  0.0524 -0.5470
  691TMC3     H10222   0.959   3.900  15.823 -0.0269  2.0683  2.6082
  691TMC3    H110223   1.038   3.577  16.097 -0.2179 -1.1530 -2.4530
  691TMC3    H210224   0.632   3.715  15.996  0.4329 -1.5836 -1.6061
  691TMC3    C710225   0.782   3.540  16.149  0.4272 -0.0292 -0.2504
  691TMC3    C810226   0.716   3.910  15.841  0.1957  0.3122 -0.3186
  691TMC3    O110227   0.846   3.523  16.254  0.0697 -0.3247  0.4011
  691TMC3    O210228   0.762   3.947  15.734 -0.4716  0.2143 -0.3861
  692TMC3    C110229   2.502   0.904  16.041  0.2251 -0.1042  1.4729
  692TMC3    C210230   2.544   0.996  15.948  0.2105  0.1320 -0.0469
  692TMC3    C310231   2.588   0.960  15.823 -0.3710  0.2084 -0.3060
  692TMC3    C410232   2.515   0.767  16.017  0.1649  0.5185 -0.3072
  692TMC3    C510233   2.549   0.735  15.888 -0.2034  0.3858 -0.0025
  692TMC3    C610234   2.575   0.827  15.789  0.3941  0.2037  0.1085
  692TMC3     C10235   2.419   0.942  16.158 -0.8782 -0.1741  0.2433
  692TMC3     O10236   2.336   0.859  16.192 -0.2167  0.0264  0.1387
  692TMC3     H10237   2.497   1.093  15.959  1.0076  0.4427  0.6090
  692TMC3    H110238   2.471   0.692  16.082  1.3466 -0.3910 -0.5569
  692TMC3    H210239   2.630   0.787  15.704 -1.2236 -2.1170  0.1435
  692TMC3    C710240   2.624   0.612  15.874  0.2227 -0.6345  0.5805
  692TMC3    C810241   2.729   0.997  15.807 -0.3756  0.8312  0.2618
  692TMC3    O110242   2.626   0.549  15.765  0.6768 -0.8744 -0.0462
  692TMC3    O210243   2.794   0.952  15.710  0.2114  0.4491 -0.0625
  693MPD2     C10244   2.543   3.190  11.240  0.0141  0.3856 -0.1454
  693MPD2    C110245   2.473   3.112  11.154 -0.6124  0.1593  0.2247
  693MPD2    C210246   2.529   2.989  11.130  0.3155 -0.1884  0.6759
  693MPD2    C310247   2.658   2.954  11.174 -0.4931 -0.0684  0.0022
  693MPD2    C410248   2.734   3.044  11.249 -0.1774  0.4098 -0.6153
  693MPD2    C510249   2.675   3.165  11.278  0.5872 -0.1024 -0.5137
  693MPD2     H10250   2.476   2.922  11.063 -0.1763  1.2816 -0.3978
  693MPD2    H110251   2.829   3.025  11.298 -1.2974 -1.7972  0.7186
  693MPD2    H210252   2.504   3.288  11.265  1.6562  0.8526  0.6351
  693MPD2    H310253   2.722   3.239  11.342 -2.0106  1.1299 -0.0298
  693MPD2     N10254   2.721   2.826  11.151 -0.3858 -0.3191 -0.3034
  693MPD2    H510255   2.812   2.807  11.191 -0.5458  0.4548  0.4319
  693MPD2    N110256   2.348   3.150  11.104  0.5287 -0.3243 -0.7859
  693MPD2    H710257   2.313   3.238  11.138  0.2173 -1.3621  1.5825
  694TMC3    C110258   2.140   3.147  10.986 -0.6379 -0.7127 -0.3395
  694TMC3    C210259   2.050   3.069  10.909 -0.3185 -0.4593 -0.0800
  694TMC3    C310260   1.923   3.046  10.948 -0.0867 -0.5999  0.0310
  694TMC3    C410261   2.086   3.213  11.089 -0.4062 -0.1876  0.3349
  694TMC3    C510262   1.950   3.199  11.123 -0.0022  0.3095 -0.5998
  694TMC3    C610263   1.868   3.110  11.057  0.4961 -0.5204 -0.4935
  694TMC3     C10264   2.272   3.081  11.007  0.1988 -0.0054 -0.3520
  694TMC3     O10265   2.289   2.978  10.945 -0.1993 -0.0137 -0.6975
  694TMC3     H10266   2.086   2.995  10.838  0.5792  1.1816 -1.3360
  694TMC3    H110267   2.147   3.271  11.157 -1.9302  1.9742 -0.1687
  694TMC3    H210268   1.763   3.098  11.082  1.2911 -0.0612  3.0419
  694TMC3    C710269   1.914   3.254  11.252 -0.1572  0.0793  0.2985
  694TMC3    C810270   1.836   2.967  10.866 -0.0434 -0.1661  0.1188
  694TMC3    O110271   1.973   3.357  11.271 -0.2699  0.0899 -0.2961
  694TMC3    O210272   1.727   2.939  10.914 -0.4311 -0.0934 -0.6521
  695MPD2     C10273   3.780   0.529  13.317  0.3750 -0.0702 -0.8830
  695MPD2    C110274   3.720   0.513  13.441 -0.4530 -0.4412 -0.1937
  695MPD2    C210275   3.582   0.542  13.455 -0.5060 -0.2947 -0.3877
  695MPD2    C310276   3.503   0.587  13.347  0.2225 -0.1701  0.3742
  695MPD2    C410277   3.565   0.578  13.222 -0.0506 -0.5395  0.2926
  695MPD2    C510278   3.701   0.565  13.208  0.6019 -0.8231 -0.4328
  695MPD2     H10279   3.529   0.535  13.550 -2.1576 -0.3706 -1.3053
  695MPD2    H110280   3.514   0.604  13.130 -2.8178  1.2164  2.3384
  695MPD2    H210281   3.888   0.534  13.315  0.4224 -0.3121  1.2975
  695MPD2    H310282   3.739   0.576  13.107 -2.0715 -1.9699 -1.5414
  695MPD2     N10283   3.368   0.612  13.363  0.4319  0.0507  0.0068
  695MPD2    H510284   3.322   0.594  13.452 -1.0801  0.1902 -0.7642
  695MPD2    N110285   3.786   0.473  13.559  0.1102  0.6278 -0.5941
  695MPD2    H710286   3.733   0.480  13.645  0.8198 -1.0723 -0.0214
  696TMC3    C110287   3.159   0.700  13.332 -0.1092 -0.3654  0.0198
  696TMC3    C210288   3.102   0.616  13.423  0.0085  0.5083  0.6428
  696TMC3    C310289   2.991   0.665  13.486  0.4435 -0.0634 -0.9241
  696TMC3    C410290   3.105   0.818  13.296  0.2910  0.1395  0.4299
  696TMC3    C510291   2.998   0.866  13.363  0.1537 -0.5513 -0.2034
  696TMC3    C610292   2.936   0.781  13.452  0.2243 -0.6566 -0.0108
  696TMC3     C10293   3.285   0.670  13.267 -0.0655  0.3273  0.4847
  696TMC3     O10294   3.316   0.709  13.154  0.1385  0.4710 -0.1527
  696TMC3     H10295   3.134   0.516  13.448  2.6021  0.7204 -1.8397
  696TMC3    H110296   3.156   0.881  13.224 -1.0105  0.8393  0.1184
  696TMC3    H210297   2.839   0.801  13.497 -0.4688  1.0584 -2.2683
  696TMC3    C710298   3.002   1.004  13.404 -0.0414 -0.2061  0.7704
  696TMC3    C810299   2.968   0.620  13.617 -0.0894 -0.3139  0.3402
  696TMC3    O110300   3.075   1.086  13.347 -0.0837 -0.0418 -0.4321
  696TMC3    O210301   2.917   0.512  13.641 -0.3487  0.3267  0.3567
  697MPD2     C10302   2.411   2.342  16.095 -0.5046 -0.9378 -0.1297
  697MPD2    C110303   2.442   2.265  15.982  0.8287  0.4699  0.0348
  697MPD2    C210304   2.450   2.333  15.866  0.3218  0.2566 -0.3958
  697MPD2    C310305   2.445   2.474  15.860  0.2414  0.0729 -0.2701
  697MPD2    C410306   2.428   2.543  15.974  0.6079 -0.1756  0.0981
  697MPD2    C510307   2.401   2.477  16.090 -0.2387  0.2051  0.0220
  697MPD2     H10308   2.465   2.268  15.781  1.0765 -0.6893  0.4618
  697MPD2    H110309   2.442   2.650  15.976  0.2110 -0.1036 -0.8275
  697MPD2    H210310   2.385   2.293  16.188  0.5775 -1.2820 -0.0084
  697MPD2    H310311   2.404   2.540  16.178  3.2035  0.6642 -0.4193
  697MPD2     N10312   2.482   2.527  15.737  0.1557  0.0347 -0.5166
  697MPD2    H510313   2.497   2.466  15.657 -0.0641 -1.2853  0.4521
  697MPD2    N110314   2.452   2.125  15.980  0.1546 -0.8898  0.3746
  697MPD2    H710315   2.460   2.082  15.888  1.3562 -1.1408  0.5999
  698TMC3    C110316   2.553   2.687  15.581  0.8657 -0.5472  0.2084
  698TMC3    C210317   2.506   2.789  15.506 -0.3145  0.1197  0.1984
  698TMC3    C310318   2.581   2.813  15.389 -0.8544 -0.1572 -0.7302
  698TMC3    C410319   2.663   2.614  15.551 -0.8787  0.2955  0.4499
  698TMC3    C510320   2.723   2.644  15.436 -0.5391  1.0116  0.0737
  698TMC3    C610321   2.686   2.747  15.354 -0.0734 -0.5449  0.0989
  698TMC3     C10322   2.480   2.659  15.705  0.0991  0.1083  0.2248
  698TMC3     O10323   2.434   2.753  15.769  0.2851  0.4018  0.0323
  698TMC3     H10324   2.407   2.832  15.512 -0.4154  0.0975 -1.2427
  698TMC3    H110325   2.701   2.536  15.616 -0.4100  2.1074  2.3631
  698TMC3    H210326   2.742   2.762  15.263  1.7807  1.1750  1.5098
  698TMC3    C710327   2.798   2.542  15.370 -0.8279 -0.7787 -0.2660
  698TMC3    C810328   2.576   2.942  15.314  0.3015 -0.4963  0.1665
  698TMC3    O110329   2.901   2.491  15.417 -0.6758 -0.1454  0.0347
  698TMC3    O210330   2.470   3.001  15.304 -0.0724  0.2847  0.0898
  699TMC3    C110331   3.016   0.134  12.968  0.9703 -0.0408  0.0932
  699TMC3    C210332   3.066   0.069  13.082 -0.1749  0.3598  0.8610
  699TMC3    C310333   2.981   4.701  13.144 -0.8968 -0.8713 -0.1427
  699TMC3    C410334   2.894   0.113  12.912  0.3135  0.6549  0.0611
  699TMC3    C510335   2.809   0.032  12.984 -0.6304  0.1274 -0.2925
  699TMC3    C610336   2.857   4.681  13.093 -0.4919 -0.2293  0.1153
  699TMC3     C10337   3.076   0.255  12.911  0.3288 -0.9211 -0.5369
  699TMC3     O10338   2.999   0.349  12.879  0.6710  0.3045  0.2145
  699TMC3     H10339   3.161   0.089  13.131  0.9314 -1.7414 -0.4322
  699TMC3    H110340   2.872   0.172  12.825 -0.2115  0.4076  0.0221
  699TMC3    H210341   2.788   4.613  13.142 -0.5467 -1.2089 -1.3348
  699TMC3    C710342   2.665   0.042  12.970  0.0728 -0.0459 -0.3973
  699TMC3    C810343   2.994   4.683  13.282 -0.0898  0.5547  0.8578
  699TMC3    O110344   2.598   4.680  13.028 -0.2390  0.2586 -0.0746
  699TMC3    O210345   2.943   4.577  13.326 -0.2147  0.2335  0.1737
  700TMC3    C110346   1.342   2.709   0.163  0.0699 -0.2694  0.0740
  700TMC3    C210347   1.297   2.594   0.226 -0.2308  0.1774  0.4221
  700TMC3    C310348   1.359   2.551   0.339 -0.2893 -0.0757  0.7064
  700TMC3    C410349   1.428   2.794   0.225 -0.3695  0.3379  0.1422
  700TMC3    C510350   1.488   2.750   0.341  0.0914  0.4726  0.2518
  700TMC3    C610351   1.459   2.626   0.390 -0.0735  0.5309  0.5573
  700TMC3     C10352   1.309   2.746   0.028 -0.1665  0.4380  0.1002
  700TMC3     O10353   1.198   2.704  17.685 -0.1807  0.2484  0.0856
  700TMC3     H10354   1.220   2.536   0.176 -0.9697  0.0811  1.6633
  700TMC3    H110355   1.453   2.891   0.184 -2.5920  2.0388  2.7832
  700TMC3    H210356   1.496   2.599   0.488 -0.9407 -0.0529  0.7247
  700TMC3    C710357   1.611   2.818   0.386  0.0046 -0.1628 -0.7012
  700TMC3    C810358   1.392   2.412   0.353 -0.0813 -0.4225  0.0847
  700TMC3    O110359   1.679   2.879   0.303  0.4626  0.1108  0.8888
  700TMC3    O210360   1.487   2.387   0.424 -0.3006 -0.4359 -0.3450
  701TMC3    C110361   1.766   1.294  15.971  0.2077  0.3185  0.9925
  701TMC3    C210362   1.787   1.217  15.856  0.1801 -0.9939  0.2139
  701TMC3    C310363   1.883   1.258  15.770  0.0683  0.4308  0.4181
  701TMC3    C410364   1.839   1.412  15.992  0.1379  0.3866 -0.6987
  701TMC3    C510365   1.946   1.440  15.909 -0.1120  0.5276 -0.4924
  701TMC3    C610366   1.971   1.368  15.795 -0.2020  0.2306  0.1494
  701TMC3     C10367   1.671   1.247  16.068 -0.1897  0.2044 -0.2997
  701TMC3     O10368   1.623   1.329  16.140  0.3387 -0.1112  0.7528
  701TMC3     H10369   1.722   1.132  15.835  0.5594 -0.5103 -2.9080
  701TMC3    H110370   1.826   1.466  16.086 -2.1674  0.3134 -0.9912
  701TMC3    H210371   2.048   1.395  15.724 -1.3836  0.6620 -0.9756
  701TMC3    C710372   1.997   1.570  15.911 -0.5452  0.4819 -0.0044
  701TMC3    C810373   1.905   1.196  15.638  0.1946  0.0138  0.3527
  701TMC3    O110374   2.040   1.618  15.806  0.6387 -0.2091 -0.6721
  701TMC3    O210375   2.005   1.230  15.579 -0.4347 -0.7613 -0.6228
  702MPD2     C10376   1.677   3.765  10.882 -0.0307 -0.1091 -0.3004
  702MPD2    C110377   1.563   3.837  10.872 -0.1190 -0.5475 -0.8125
  702MPD2    C210378   1.550   3.933  10.776  0.0046 -0.2907 -0.3766
  702MPD2    C310379   1.663   3.985  10.713 -0.1787  0.4664 -0.2116
  702MPD2    C410380   1.782   3.922  10.732  0.4417 -0.3630  0.6022
  702MPD2    C510381   1.792   3.814  10.816  0.0808  0.0519  0.1720
  702MPD2     H10382   1.450   3.976  10.775  0.7208  1.4404  1.6938
  702MPD2    H110383   1.873   3.966  10.694  0.0597 -0.9746 -1.0057
  702MPD2    H210384   1.695   3.680  10.947  2.1055 -0.2974 -1.1101
  702MPD2    H310385   1.884   3.760  10.835  1.8012  2.4622 -1.2914
  702MPD2     N10386   1.669   4.114  10.651  0.1896 -0.1065  0.9013
  702MPD2    H510387   1.761   4.149  10.629 -0.7186  2.4154  1.0417
  702MPD2    N110388   1.446   3.798  10.946  0.2571  0.5846 -0.0742
  702MPD2    H710389   1.367   3.861  10.937 -0.2912 -0.0632  0.2047
  703TMC3    C110390   1.580   4.331  10.597  0.4718 -0.1757  0.2991
  703TMC3    C210391   1.476   4.420  10.605 -0.8136  0.3519 -0.1873
  703TMC3    C310392   1.482   4.550  10.557  0.0350 -0.6484  0.1639
  703TMC3    C410393   1.697   4.374  10.539  0.4279  0.3561  0.0645
  703TMC3    C510394   1.709   4.508  10.495 -0.5807  0.4913 -0.4042
  703TMC3    C610395   1.600   4.594  10.492 -0.1632  0.4893  0.0554
  703TMC3     C10396   1.552   4.190  10.634 -0.1668 -0.2167  0.1511
  703TMC3     O10397   1.433   4.172  10.656  0.5299 -0.1316 -0.0827
  703TMC3     H10398   1.379   4.384  10.638 -0.2303 -1.2247 -0.2214
  703TMC3    H110399   1.774   4.299  10.520 -0.1318  0.7260 -3.5264
  703TMC3    H210400   1.615   4.700  10.474  1.1961  0.3082  0.1337
  703TMC3    C710401   1.831   4.561  10.441 -1.3746  0.7364 -0.2115
  703TMC3    C810402   1.376   4.638  10.592 -0.6861  1.0643  0.0141
  703TMC3    O110403   1.827   4.671  10.386  0.7532 -0.0964  0.0936
  703TMC3    O210404   1.393   0.033  10.559 -0.0334  0.4839  0.1890
  704TMC3    C110405   3.225   1.668  12.814  0.3181 -0.1724  0.0123
  704TMC3    C210406   3.283   1.750  12.906  0.2023 -0.0641  0.5192
  704TMC3    C310407   3.313   1.703  13.028  0.2175  0.0824 -0.7488
  704TMC3    C410408   3.201   1.540  12.852 -0.4495  0.3582  0.2237
  704TMC3    C510409   3.242   1.491  12.969  0.8625  0.0034  0.1518
  704TMC3    C610410   3.300   1.574  13.067 -0.4572 -0.3464  0.2913
  704TMC3     C10411   3.198   1.709  12.683 -0.0755 -0.2934  0.3611
  704TMC3     O10412   3.110   1.654  12.622  0.6705  0.1879  0.0882
  704TMC3     H10413   3.311   1.850  12.875 -0.8517  0.0827  0.0444
  704TMC3    H110414   3.154   1.474  12.780 -0.6057  0.9749 -0.2341
  704TMC3    H210415   3.363   1.528  13.142 -0.3481  0.0807  0.4580
  704TMC3    C710416   3.313   1.371  12.946 -0.1866  0.5731 -0.3520
  704TMC3    C810417   3.436   1.753  13.082 -0.4749  0.3606 -0.7750
  704TMC3    O110418   3.343   1.353  12.828  0.4406 -0.1899 -0.2851
  704TMC3    O210419   3.516   1.793  13.002 -0.4884  0.3114 -0.2176
  705MPD2     C10420   3.357   0.362  16.914 -0.1590 -0.6394  0.3439
  705MPD2    C110421   3.303   0.447  16.823 -0.0759  0.1916 -0.5729
  705MPD2    C210422   3.164   0.477  16.838  0.0658 -0.0543  0.3618
  705MPD2    C310423   3.098   0.430  16.946  0.3098  0.0632 -0.5558
  705MPD2    C410424   3.154   0.338  17.032 -0.8200  0.2810 -0.1546
  705MPD2    C510425   3.278   0.303  17.014  0.3501  0.0689  0.0525
  705MPD2     H10426   3.123   0.554  16.774 -3.6494 -1.0019  1.6287
  705MPD2    H110427   3.107   0.312  17.127 -0.3970 -3.3807 -0.9474
  705MPD2    H210428   3.460   0.329  16.914 -0.1614 -0.6514 -0.2078
  705MPD2    H310429   3.328   0.235  17.083 -0.3027  0.8771  1.2959
  705MPD2     N10430   2.956   0.459  16.956  0.6406 -0.4236  0.1842
  705MPD2    H510431   2.903   0.421  17.034 -0.0341 -1.4228 -0.7626
  705MPD2    N110432   3.366   0.510  16.718 -0.0920  0.3929 -0.6998
  705MPD2    H710433   3.300   0.572  16.672 -0.5317  1.3191  1.1940
  706TMC3    C110434   3.632   0.485  16.334  0.5974 -0.3305 -0.4337
  706TMC3    C210435   3.553   0.571  16.262  0.2702 -0.2727 -0.1636
  706TMC3    C310436   3.450   0.629  16.339 -0.1368  0.3702 -0.4820
  706TMC3    C410437   3.618   0.470  16.471 -0.6727 -0.4513  0.1760
  706TMC3    C510438   3.517   0.527  16.536 -0.0727 -0.0568  0.2260
  706TMC3    C610439   3.430   0.608  16.474  0.4151 -0.0656  0.4051
  706TMC3     C10440   3.758   0.444  16.288  0.0064 -0.2933  0.7146
  706TMC3     O10441   3.852   0.464  16.367 -0.0880 -0.4016 -0.3031
  706TMC3     H10442   3.568   0.593  16.157 -1.5166  1.6238 -0.0164
  706TMC3    H110443   3.673   0.390  16.518  0.2350 -0.5723 -1.0871
  706TMC3    H210444   3.334   0.638  16.516 -0.0796 -1.6382  0.3841
  706TMC3    C710445   3.486   0.477  16.670  0.6521 -0.2402 -0.8132
  706TMC3    C810446   3.382   0.739  16.272  0.0417  0.1884  0.0366
  706TMC3    O110447   3.574   0.407  16.716 -0.4579 -0.1469  0.2516
  706TMC3    O210448   3.400   0.745  16.147  0.2011 -0.6216  0.3131
  707TMC3    C110449   4.582   3.885   1.462  0.2438 -1.0821  0.3555
  707TMC3    C210450   4.587   3.755   1.501 -0.1071  0.0777  0.3198
  707TMC3    C310451   4.474   3.707   1.558  0.3231 -0.0029  0.0131
  707TMC3    C410452   4.467   3.954   1.462  0.1313 -0.2586 -1.0117
  707TMC3    C510453   4.355   3.904   1.530 -0.2990 -0.4045  0.7972
  707TMC3    C610454   4.358   3.778   1.577  0.1079  0.1811  0.3057
  707TMC3     C10455   4.702   3.952   1.441  0.2129 -0.1687 -0.0205
  707TMC3     O10456   0.074   3.887   1.473  0.4285 -0.6885 -0.4490
  707TMC3     H10457   4.676   3.698   1.480 -0.4065 -1.2238  2.7408
  707TMC3    H110458   4.458   4.057   1.431 -0.9203 -0.6630 -2.0030
  707TMC3    H210459   4.278   3.721   1.624  1.0278 -0.9612  0.4719
  707TMC3    C710460   4.241   3.981   1.552 -0.4682  0.7512 -0.5598
  707TMC3    C810461   4.472   3.569   1.603  0.1679  0.4390 -0.1890
  707TMC3    O110462   4.244   4.103   1.531 -0.3608  0.0361  0.0035
  707TMC3    O210463   4.371   3.523   1.652 -0.5801  0.1162  0.3047
  708MPD2     C10464   1.781   3.087  13.996  0.5015 -1.3028  0.1016
  708MPD2    C110465   1.654   3.135  14.033 -0.2615 -0.0399  0.0168
  708MPD2    C210466   1.601   3.123  14.166  0.2998  0.4395  0.4715
  708MPD2    C310467   1.675   3.043  14.256 -0.4861 -0.3492  0.2824
  708MPD2    C410468   1.796   2.999  14.220  0.1457 -0.7760  0.0205
  708MPD2    C510469   1.851   3.022  14.100  0.2754 -0.4459 -0.6552
  708MPD2     H10470   1.515   3.182  14.195 -2.3187 -2.1652 -1.9653
  708MPD2    H110471   1.855   2.946  14.295 -0.9638  0.3076  1.6772
  708MPD2    H210472   1.825   3.109  13.900  0.0953 -2.5777 -0.3718
  708MPD2    H310473   1.956   3.002  14.081 -0.0106 -1.5436 -1.0341
  708MPD2     N10474   1.626   3.016  14.386 -0.1137 -0.0735 -0.1731
  708MPD2    H510475   1.701   2.993  14.451 -0.2744 -3.6369 -1.2204
  708MPD2    N110476   1.572   3.202  13.941 -0.1051 -0.3088  0.9065
  708MPD2    H710477   1.485   3.238  13.981 -1.0296 -1.3090 -0.2010
  709TMC3    C110478   1.486   3.303  13.751  0.8599 -0.1252 -0.5392
  709TMC3    C210479   1.415   3.227  13.657 -0.2276  0.3204 -0.2429
  709TMC3    C310480   1.282   3.240  13.651  0.3733 -0.1834  0.5114
  709TMC3    C410481   1.413   3.372  13.841 -0.1780  0.8645 -0.9542
  709TMC3    C510482   1.275   3.348  13.859 -0.1696  0.1621 -0.3356
  709TMC3    C610483   1.210   3.274  13.766  0.8313  0.5460  0.2991
  709TMC3     C10484   1.595   3.233  13.809  0.1385  0.4215 -0.8493
  709TMC3     O10485   1.680   3.192  13.731 -0.2508 -0.9608  0.1436
  709TMC3     H10486   1.464   3.181  13.572 -1.9477  1.4987 -1.8567
  709TMC3    H110487   1.465   3.439  13.908 -1.0182  1.3747 -0.7989
  709TMC3    H210488   1.102   3.276  13.762  0.8281 -1.6570 -1.1104
  709TMC3    C710489   1.250   3.338  13.999  0.2176  0.1735  0.2959
  709TMC3    C810490   1.213   3.157  13.557 -0.2533  0.6611 -0.1361
  709TMC3    O110491   1.347   3.321  14.070  0.0881  0.1804 -0.3504
  709TMC3    O210492   1.122   3.086  13.597  0.2235 -0.2981 -0.3589
  710TMC3    C110493   2.653   0.235   0.850  0.1336  0.5962  0.2338
  710TMC3    C210494   2.707   0.234   0.725 -0.8652  0.0030  0.1747
  710TMC3    C310495   2.838   0.196   0.717  0.9631 -0.4138 -0.9478
  710TMC3    C410496   2.721   0.198   0.965 -0.8388  0.1797 -0.6720
  710TMC3    C510497   2.854   0.172   0.945  0.2201  0.4474  0.1523
  710TMC3    C610498   2.913   0.161   0.824  0.4217 -0.6546  0.3781
  710TMC3     C10499   2.507   0.257   0.852 -0.1502  0.2670  0.0144
  710TMC3     O10500   2.445   0.254   0.744  0.2065  0.0329 -0.2410
  710TMC3     H10501   2.648   0.261   0.639 -0.3381  3.7138  0.9920
  710TMC3    H110502   2.680   0.208   1.064 -1.8894 -3.5590 -0.7423
  710TMC3    H210503   3.014   0.129   0.801  0.6881 -0.6143  1.5198
  710TMC3    C710504   2.926   0.132   1.064 -0.4776  0.4491 -0.3013
  710TMC3    C810505   2.868   0.136   0.589  0.5901  0.3222 -0.3228
  710TMC3    O110506   2.862   0.109   1.161  0.0774  0.3960 -0.3898
  710TMC3    O210507   2.823   0.193   0.492  0.1446 -0.3927 -0.3404
  711TMC3    C110508   2.211   1.081  14.898 -0.9189 -0.4732  0.1857
  711TMC3    C210509   2.208   1.175  15.000  0.5089 -0.1561 -0.2708
  711TMC3    C310510   2.321   1.211  15.062 -0.6847 -0.3352  0.4967
  711TMC3    C410511   2.321   0.998  14.882  0.2319 -0.1569  0.0858
  711TMC3    C510512   2.435   1.046  14.945  0.0766  0.0302 -1.0176
  711TMC3    C610513   2.444   1.162  15.021 -0.9686 -0.2238  0.1890
  711TMC3     C10514   2.093   1.017  14.869  0.0746  0.1574  0.2727
  711TMC3     O10515   2.091   0.903  14.826  0.0164  0.2700  0.1069
  711TMC3     H10516   2.111   1.213  15.028  0.6732 -0.5129  0.7647
  711TMC3    H110517   2.324   0.912  14.817  0.0498 -0.0161 -0.1085
  711TMC3    H210518   2.536   1.193  15.070 -0.5516 -1.1782  0.0031
  711TMC3    C710519   2.531   0.957  14.998 -0.1445  0.8543 -0.0790
  711TMC3    C810520   2.291   1.265  15.195  0.1281 -0.7027 -0.5650
  711TMC3    O110521   2.599   0.994  15.092  0.0257 -0.1471 -0.0257
  711TMC3    O210522   2.182   1.311  15.228 -0.4620  0.0295 -0.3562
  712MPD2     C10523   3.468   1.632  13.973  0.6536 -0.3061  0.1770
  712MPD2    C110524   3.395   1.740  14.015 -0.3718  0.6685  0.6708
  712MPD2    C210525   3.439   1.868  13.988  0.3121  0.1408 -0.4392
  712MPD2    C310526   3.562   1.885  13.929  0.2713  0.0297 -0.3028
  712MPD2    C410527   3.624   1.773  13.887 -0.2407 -0.7134  0.0041
  712MPD2    C510528   3.587   1.649  13.908  0.0309  0.2657 -0.2105
  712MPD2     H10529   3.384   1.957  14.016 -0.7034 -0.6992  0.2752
  712MPD2    H110530   3.719   1.792  13.838 -1.0289 -0.3774 -1.3661
  712MPD2    H210531   3.432   1.533  13.999  1.9313 -0.7950  0.0574
  712MPD2    H310532   3.639   1.562  13.869 -1.3357 -0.9730  0.7264
  712MPD2     N10533   3.623   2.016  13.906 -0.0690  0.2178 -0.7465
  712MPD2    H510534   3.722   2.025  13.889  0.1005 -0.8105 -0.3330
  712MPD2    N110535   3.268   1.724  14.068  0.7780 -0.2104  0.0664
  712MPD2    H710536   3.212   1.642  14.046  1.1491 -1.3394  3.3160
  713TMC3    C110537   3.617   2.246  13.895 -0.0651  0.4218  0.9719
  713TMC3    C210538   3.751   2.244  13.889 -0.2290 -0.0472  0.6212
  713TMC3    C310539   3.819   2.359  13.921  1.1178 -0.1066 -0.3001
  713TMC3    C410540   3.546   2.357  13.933  0.4453  0.5643  0.0130
  713TMC3    C510541   3.622   2.472  13.970 -0.5661  0.2176 -0.3486
  713TMC3    C610542   3.757   2.473  13.973 -0.0356 -0.6227 -0.1844
  713TMC3     C10543   3.538   2.124  13.897  0.5742  1.0040 -0.4616
  713TMC3     O10544   3.420   2.128  13.873  0.4659  0.1878  0.5790
  713TMC3     H10545   3.805   2.170  13.831  2.3354  1.7077  0.7997
  713TMC3    H110546   3.438   2.349  13.930  0.2887  2.4210  0.3181
  713TMC3    H210547   3.815   2.561  13.998  2.4147 -2.1057 -0.6443
  713TMC3    C710548   3.569   2.603  13.974  0.4816  0.3525  0.3729
  713TMC3    C810549   3.951   2.378  13.874 -0.1481 -0.1541  0.1139
  713TMC3    O110550   3.628   2.684  14.034 -0.4654 -0.2575 -0.3296
  713TMC3    O210551   3.961   2.355  13.753  0.2518 -0.5625  0.2126
  714MPD2     C10552   1.024   0.052   1.820  0.0263 -0.2263  0.0449
  714MPD2    C110553   1.070   0.154   1.737  0.2218 -0.1962 -0.0519
  714MPD2    C210554   0.992   0.192   1.627 -0.2262 -0.1018 -0.3487
  714MPD2    C310555   0.876   0.124   1.604 -0.0938 -0.1647 -1.0898
  714MPD2    C410556   0.834   0.024   1.694  0.3049 -1.1880  0.0499
  714MPD2    C510557   0.904   4.714   1.800  0.6288  0.0250 -0.0439
  714MPD2     H10558   1.018   0.270   1.557 -0.8886  1.1100  0.7556
  714MPD2    H110559   0.735   4.704   1.686  0.4871 -1.7927  1.0511
  714MPD2    H210560   1.074   0.018   1.910  1.8931 -1.8494 -1.6306
  714MPD2    H310561   0.858   4.637   1.860  2.6074 -2.1131 -1.2764
  714MPD2     N10562   0.805   0.156   1.485  0.4409  0.2817 -0.6624
  714MPD2    H510563   0.840   0.240   1.440 -0.5643  1.5111  0.8504
  714MPD2    N110564   1.198   0.201   1.765  0.7339  0.1570  0.7709
  714MPD2    H710565   1.245   0.168   1.849  1.5867  2.4086  1.1725
  715TMC3    C110566   1.403   0.289   1.718 -0.4056  0.1677 -0.3988
  715TMC3    C210567   1.501   0.289   1.625  0.7905  0.4635 -0.2178
  715TMC3    C310568   1.626   0.313   1.668  0.1225 -0.3388 -1.0636
  715TMC3    C410569   1.426   0.332   1.845 -0.4090  0.8492  0.6481
  715TMC3    C510570   1.551   0.375   1.877  0.4904 -0.1388 -0.5190
  715TMC3    C610571   1.657   0.367   1.788 -0.4407 -0.4293 -0.2033
  715TMC3     C10572   1.269   0.268   1.674  0.7764 -0.1973  0.5388
  715TMC3     O10573   1.252   0.283   1.553 -0.3155  0.0502  0.1865
  715TMC3     H10574   1.485   0.255   1.523  0.7870 -0.2568  0.0241
  715TMC3    H110575   1.337   0.349   1.903 -2.0314 -0.6749 -1.3871
  715TMC3    H210576   1.754   0.405   1.818 -0.5303 -0.4426  0.1019
  715TMC3    C710577   1.572   0.432   2.012 -0.0662 -0.2360  0.0687
  715TMC3    C810578   1.738   0.293   1.574  0.5935 -0.0072  0.1726
  715TMC3    O110579   1.690   0.466   2.031 -0.6108 -0.1446  0.1858
  715TMC3    O210580   1.706   0.288   1.456  0.0678 -0.3561 -0.4750
  716MPD2     C10581   1.461   3.025  10.048 -0.2283 -0.2022  0.2960
  716MPD2    C110582   1.434   2.974   9.922  0.1916  0.1498  0.5817
  716MPD2    C210583   1.469   2.844   9.893  0.0424  1.0318  0.0230
  716MPD2    C310584   1.547   2.772   9.974 -0.0788 -1.0993  0.3812
  716MPD2    C410585   1.585   2.832  10.093 -0.0940  0.0177  0.0696
  716MPD2    C510586   1.547   2.959  10.132  0.4031  0.3674  0.2974
  716MPD2     H10587   1.444   2.806   9.794  0.6074  0.8832 -0.0600
  716MPD2    H110588   1.645   2.763  10.152  1.9894  0.8866 -1.0474
  716MPD2    H210589   1.439   3.126  10.079 -0.5800 -0.2235  0.1143
  716MPD2    H310590   1.574   2.991  10.232  0.8197 -1.0055  0.6154
  716MPD2     N10591   1.579   2.644   9.920 -0.3960 -0.0058  0.3032
  716MPD2    H510592   1.527   2.625   9.836 -0.7024  1.0134  0.2543
  716MPD2    N110593   1.383   3.070   9.837 -0.1365 -0.5001 -0.1740
  716MPD2    H710594   1.368   3.165   9.868 -3.0918 -1.0610  0.0767
  717TMC3    C110595   1.672   2.439   9.876 -0.0671 -0.2278  0.0973
  717TMC3    C210596   1.575   2.438   9.780  0.1139 -0.7917 -0.8876
  717TMC3    C310597   1.587   2.349   9.678  0.1220 -0.0812  0.4575
  717TMC3    C410598   1.785   2.363   9.856  0.1644  0.5160 -0.6419
  717TMC3    C510599   1.793   2.282   9.745 -0.1996 -0.8188 -0.1810
  717TMC3    C610600   1.693   2.264   9.656 -0.1632  0.5581  0.4323
  717TMC3     C10601   1.673   2.559   9.962  0.4067 -0.5541 -0.8776
  717TMC3     O10602   1.757   2.564  10.053 -0.3622 -0.2995  0.6561
  717TMC3     H10603   1.472   2.464   9.805 -0.4523 -1.4413 -2.5424
  717TMC3    H110604   1.877   2.375   9.912  0.3389 -1.2319 -0.5670
  717TMC3    H210605   1.699   2.205   9.565 -1.3242  0.5757  0.3494
  717TMC3    C710606   1.917   2.207   9.729  0.1126  0.3521 -0.1660
  717TMC3    C810607   1.474   2.337   9.584 -0.0583  0.1055 -0.4299
  717TMC3    O110608   2.019   2.261   9.769 -0.8442  0.0802  0.9435
  717TMC3    O210609   1.407   2.438   9.577  0.0170 -0.6893 -0.8389
  718MPD2     C10610   0.482   2.066  12.687 -0.2020  0.0010  0.2403
  718MPD2    C110611   0.389   2.147  12.619  0.0730  0.0002 -0.4359
  718MPD2    C210612   0.281   2.195  12.686 -0.4730  0.1201 -0.1348
  718MPD2    C310613   0.269   2.173  12.821 -0.9960 -0.3512 -0.5865
  718MPD2    C410614   0.344   2.072  12.882  0.3153  0.8021 -0.1544
  718MPD2    C510615   0.449   2.018  12.810 -0.0136 -0.0659 -1.0424
  718MPD2     H10616   0.217   2.270  12.640 -1.2819  0.0921  0.9403
  718MPD2    H110617   0.334   2.040  12.986 -0.1211 -0.5959 -0.6189
  718MPD2    H210618   0.567   2.029  12.631 -0.8335  0.5622 -1.1044
  718MPD2    H310619   0.510   1.942  12.855 -1.2595 -0.4385  0.0104
  718MPD2     N10620   0.166   2.247  12.890 -0.4365  0.3143 -0.1970
  718MPD2    H510621   0.100   2.292  12.827  0.9842  1.7095 -0.6903
  718MPD2    N110622   0.426   2.193  12.493 -0.3577 -0.3970  0.1364
  718MPD2    H710623   0.511   2.161  12.448 -0.4352 -1.7502  0.9521
  719TMC3    C110624   0.413   2.321  12.290  1.0509 -0.6875 -0.4110
  719TMC3    C210625   0.331   2.400  12.228 -0.8136 -0.0199 -0.2368
  719TMC3    C310626   0.364   2.529  12.193  0.2454 -0.1266 -0.0998
  719TMC3    C410627   0.543   2.361  12.304 -0.5506  0.3048  0.0866
  719TMC3    C510628   0.578   2.489  12.259 -0.1469  0.6613 -0.3703
  719TMC3    C610629   0.489   2.574  12.199  0.1286 -0.6872 -0.6406
  719TMC3     C10630   0.348   2.277  12.413 -0.3781  0.1017 -0.2228
  719TMC3     O10631   0.241   2.326  12.427 -0.3107 -0.5032  0.8178
  719TMC3     H10632   0.227   2.373  12.212 -0.3613 -1.3338 -0.9798
  719TMC3    H110633   0.619   2.307  12.359 -2.7186 -2.0458  0.7291
  719TMC3    H210634   0.510   2.679  12.183 -0.0011 -0.3970  1.0642
  719TMC3    C710635   0.693   2.560  12.314  0.2624 -0.4219  0.5030
  719TMC3    C810636   0.263   2.624  12.230  0.5001  0.6016 -0.0845
  719TMC3    O110637   0.721   2.665  12.262  0.1718  0.0339 -0.2834
  719TMC3    O210638   0.286   2.739  12.197  0.7866 -0.6484  0.6061
  720MPD2     C10639   3.690   4.132  14.029 -0.1859 -0.4281 -0.0347
  720MPD2    C110640   3.805   4.114  13.948 -0.4876 -0.0012 -0.0961
  720MPD2    C210641   3.915   4.045  13.998  0.5322 -0.3832  0.3977
  720MPD2    C310642   3.919   3.990  14.124  0.5114 -0.7165  0.2760
  720MPD2    C410643   3.802   3.990  14.193 -0.4354 -0.0562 -0.1575
  720MPD2    C510644   3.693   4.064  14.145  0.4265  0.0153  0.3043
  720MPD2     H10645   4.000   4.040  13.931 -0.8170 -1.3347 -1.2230
  720MPD2    H110646   3.781   3.931  14.282  2.4887 -0.8246  0.0203
  720MPD2    H210647   3.594   4.174  14.002  0.5056  1.1826 -0.0103
  720MPD2    H310648   3.612   4.066  14.217 -1.1055  0.0569 -1.4121
  720MPD2     N10649   4.038   3.938  14.165 -0.1139  0.2727  1.0121
  720MPD2    H510650   4.120   3.947  14.106 -1.1494  0.3090 -0.4337
  720MPD2    N110651   3.824   4.182  13.823  0.0510 -0.0541 -0.2534
  720MPD2    H710652   3.902   4.151  13.765 -0.6179 -0.7136 -0.8046
  721TMC3    C110653   4.201   3.852  14.302 -0.3128 -0.1283 -0.3498
  721TMC3    C210654   4.234   3.802  14.423 -1.0901  0.1439  0.0904
  721TMC3    C310655   4.368   3.757  14.443 -0.4828  0.6420  0.3484
  721TMC3    C410656   4.291   3.857  14.196  0.2153 -0.1316 -0.2406
  721TMC3    C510657   4.415   3.814  14.221  0.3572  1.2643 -0.1032
  721TMC3    C610658   4.455   3.756  14.339  0.1885 -0.3986 -0.1423
  721TMC3     C10659   4.065   3.899  14.290  0.0754 -0.5589  0.1965
  721TMC3     O10660   3.986   3.903  14.388 -0.5029 -0.2584 -0.0805
  721TMC3     H10661   4.157   3.792  14.498  0.5741 -1.0567  1.6690
  721TMC3    H110662   4.254   3.871  14.095  0.8903  1.6572 -0.2491
  721TMC3    H210663   4.559   3.735  14.359  0.5904  1.8290  0.0765
  721TMC3    C710664   4.522   3.849  14.129 -0.6437  0.1481  0.3571
  721TMC3    C810665   4.422   3.718  14.567  0.1794  0.6800 -0.1076
  721TMC3    O110666   4.628   3.791  14.134  0.2258 -0.1660 -0.5176
  721TMC3    O210667   4.520   3.647  14.581 -0.2810  0.4053 -0.2466
  722MPD2     C10668   2.468   2.495  13.548 -0.2653 -1.1505 -0.0575
  722MPD2    C110669   2.451   2.603  13.462  0.6703 -0.5783 -0.0861
  722MPD2    C210670   2.330   2.620  13.407 -0.0187 -0.4937 -0.7214
  722MPD2    C310671   2.213   2.550  13.438 -0.9113 -0.0781 -0.0067
  722MPD2    C410672   2.227   2.446  13.520  0.1889  0.1283  0.0479
  722MPD2    C510673   2.353   2.421  13.566  0.6556 -0.0372 -0.4727
  722MPD2     H10674   2.326   2.702  13.336  0.1393 -0.5952 -0.8489
  722MPD2    H110675   2.145   2.385  13.555  1.3771 -1.4538  0.0573
  722MPD2    H210676   2.561   2.464  13.594 -0.2193  1.8472  1.8564
  722MPD2    H310677   2.351   2.326  13.618  0.6879  0.3947  0.3145
  722MPD2     N10678   2.090   2.591  13.374  0.3345 -0.1177 -0.8790
  722MPD2    H510679   2.085   2.659  13.299 -0.5553  0.5985 -0.1667
  722MPD2    N110680   2.557   2.691  13.427 -0.2283 -0.1294 -0.0958
  722MPD2    H710681   2.520   2.769  13.374  3.8860  1.0762 -1.1934
  723TMC3    C110682   1.870   2.587  13.299 -0.1604  0.5807 -0.0576
  723TMC3    C210683   1.767   2.500  13.284  0.3427 -0.6377 -0.0043
  723TMC3    C310684   1.675   2.541  13.195 -0.0454 -0.0350 -0.4613
  723TMC3    C410685   1.874   2.711  13.251 -0.6748  0.5650  0.1527
  723TMC3    C510686   1.770   2.757  13.178  0.0598 -0.4262  0.2809
  723TMC3    C610687   1.668   2.668  13.144 -0.0115  0.1424  0.0791
  723TMC3     C10688   1.965   2.550  13.404 -0.3052 -0.1069 -0.2640
  723TMC3     O10689   1.931   2.489  13.502  0.3393  0.3510  0.2293
  723TMC3     H10690   1.762   2.403  13.333 -0.1044 -0.3579  0.5011
  723TMC3    H110691   1.954   2.778  13.281  0.6893 -1.8208  1.8389
  723TMC3    H210692   1.588   2.695  13.075  0.9669  1.5176 -0.5101
  723TMC3    C710693   1.781   2.881  13.096  0.2746 -0.4981  0.3004
  723TMC3    C810694   1.616   2.437  13.102  0.4738 -1.2049  0.3609
  723TMC3    O110695   1.728   2.884  12.985 -0.2395 -0.1139  0.1215
  723TMC3    O210696   1.510   2.469  13.051  0.4222 -0.2559  0.4155
  724TMC3    C110697   2.994   0.941   9.799 -0.1638  0.0533 -0.2632
  724TMC3    C210698   3.020   1.067   9.741  0.5676 -1.2281  0.5630
  724TMC3    C310699   2.931   1.127   9.653  0.7101 -0.2756 -0.6189
  724TMC3    C410700   2.893   0.863   9.755 -0.4860  0.9181  0.2500
  724TMC3    C510701   2.816   0.918   9.654 -0.7904  0.5096  0.1450
  724TMC3    C610702   2.830   1.048   9.613 -0.4036  0.6574  0.2864
  724TMC3     C10703   3.107   0.888   9.869 -0.3586 -0.0478 -0.0563
  724TMC3     O10704   3.213   0.947   9.856 -0.5552 -0.1190  0.2473
  724TMC3     H10705   3.094   1.126   9.794 -3.1584  2.5297  1.5514
  724TMC3    H110706   2.876   0.762   9.790 -0.1306  1.5874  2.3459
  724TMC3    H210707   2.761   1.091   9.541  0.7194  0.0488 -1.1432
  724TMC3    C710708   2.726   0.830   9.576  0.3797 -0.0100 -0.4277
  724TMC3    C810709   2.948   1.251   9.580  0.4723 -0.4795  0.1719
  724TMC3    O110710   2.728   0.711   9.615  0.1884 -0.2943  0.5294
  724TMC3    O210711   2.899   1.261   9.467  0.0263 -0.5037  0.6401
  725TMC3    C110712   4.419   4.478  12.717  0.0039  0.8488  0.2230
  725TMC3    C210713   4.342   4.519  12.603  0.0400  0.0282 -0.5997
  725TMC3    C310714   4.275   4.418  12.542  0.2067  0.2057  0.1536
  725TMC3    C410715   4.429   4.344  12.767  1.2628  0.2171 -0.1783
  725TMC3    C510716   4.355   4.253  12.700 -0.2795 -0.1853  0.2914
  725TMC3    C610717   4.276   4.287  12.596  0.1329 -0.2676  0.6942
  725TMC3     C10718   4.452   4.589  12.803 -0.2211  0.5346  0.2456
  725TMC3     O10719   4.494   4.696  12.757  0.0523  0.0810 -0.3263
  725TMC3     H10720   4.329   4.623  12.576 -2.9188 -0.1071  0.2628
  725TMC3    H110721   4.492   4.324  12.853  2.3199  1.0344 -0.7611
  725TMC3    H210722   4.235   4.206  12.537 -1.2424  0.7035  0.3345
  725TMC3    C710723   4.411   4.117  12.681 -0.2811  0.1688 -0.2831
  725TMC3    C810724   4.218   4.444  12.410  0.0170  0.3197  0.5890
  725TMC3    O110725   4.333   4.032  12.636  0.2049  0.4487 -0.2134
  725TMC3    O210726   4.126   4.373  12.376 -0.2856  0.0743  0.1420
  726MPD2     C10727   2.515   1.075  10.522 -0.6486 -0.4413  0.4988
  726MPD2    C110728   2.559   1.190  10.589  0.2436  0.4694  0.1742
  726MPD2    C210729   2.483   1.245  10.694  0.7782  0.2828  0.0216
  726MPD2    C310730   2.363   1.191  10.718  0.2896  0.2749 -0.0589
  726MPD2    C410731   2.320   1.082  10.644 -0.0122 -0.0038 -0.2788
  726MPD2    C510732   2.397   1.026  10.552  0.1740  0.2583 -0.1960
  726MPD2     H10733   2.513   1.334  10.749 -0.2521  0.5794  0.0881
  726MPD2    H110734   2.222   1.046  10.674  0.0901 -1.4214 -1.6559
  726MPD2    H210735   2.579   1.023  10.452 -0.6831  0.0500  0.1058
  726MPD2    H310736   2.362   0.941  10.494 -1.6877 -0.2654  1.6830
  726MPD2     N10737   2.277   1.233  10.821 -0.3403  0.2080  0.8840
  726MPD2    H510738   2.186   1.189  10.814  0.4489 -1.0726 -1.1722
  726MPD2    N110739   2.675   1.262  10.550 -0.2779 -0.1658  0.5008
  726MPD2    H710740   2.696   1.344  10.606  1.6844 -0.8290  0.7387
  727TMC3    C110741   2.857   1.328  10.431  0.0307 -0.3205  0.2656
  727TMC3    C210742   2.909   1.387  10.537 -0.5201  0.0008 -0.5816
  727TMC3    C310743   2.967   1.509  10.519 -0.7181  0.1926 -0.0410
  727TMC3    C410744   2.826   1.396  10.315 -0.2338  0.2800 -0.3326
  727TMC3    C510745   2.874   1.521  10.302 -0.6346  1.0701  0.4748
  727TMC3    C610746   2.951   1.577  10.402 -0.4675  0.0055 -0.1666
  727TMC3     C10747   2.762   1.220  10.456 -0.8886 -0.3875 -0.0735
  727TMC3     O10748   2.762   1.136  10.363  0.3387 -0.0389  0.0719
  727TMC3     H10749   2.920   1.331  10.629  1.1291  1.0820 -0.1208
  727TMC3    H110750   2.756   1.356  10.243 -2.3019  2.8923  0.2136
  727TMC3    H210751   3.007   1.666  10.377 -2.6463  1.2717 -0.4692
  727TMC3    C710752   2.789   1.605  10.217 -0.0550  0.1601 -0.4021
  727TMC3    C810753   3.090   1.519  10.591 -0.2423 -0.3460 -0.0437
  727TMC3    O110754   2.681   1.557  10.181  0.6765 -0.6929  0.2825
  727TMC3    O210755   3.144   1.410  10.607 -0.5810 -0.0653 -0.2873
  728TMC3    C110756   1.493   4.470  15.707 -0.2636 -0.2844  0.8202
  728TMC3    C210757   1.374   4.524  15.756  0.1083  0.3964  0.3559
  728TMC3    C310758   1.326   4.634  15.709  0.7809 -0.4835 -0.2330
  728TMC3    C410759   1.562   4.532  15.611 -0.6374 -0.7475  0.1745
  728TMC3    C510760   1.505   4.646  15.555 -0.0543 -0.3205 -0.0865
  728TMC3    C610761   1.381   4.689  15.591 -0.8215 -0.1039  0.2374
  728TMC3     C10762   1.539   4.336  15.732 -0.2127  0.4904  0.2246
  728TMC3     O10763   1.657   4.310  15.739 -0.1327 -0.0088  0.1766
  728TMC3     H10764   1.314   4.479  15.834 -1.0843 -0.0969 -0.8282
  728TMC3    H110765   1.655   4.493  15.571 -0.9642  1.2758 -2.5995
  728TMC3    H210766   1.350   0.058  15.545  3.5924  1.1899 -0.0539
  728TMC3    C710767   1.604   0.025  15.530 -0.0143 -0.2560  1.1226
  728TMC3    C810768   1.222   4.714  15.782 -0.4798 -0.6359 -0.5000
  728TMC3    O110769   1.702   0.028  15.602 -0.1269  0.0554  0.2038
  728TMC3    O210770   1.188   0.095  15.729  0.1564  0.1961  0.4876
  729MPD2     C10771   3.411   1.283  16.711 -0.0496  0.0978  0.1204
  729MPD2    C110772   3.496   1.192  16.776 -0.5955 -0.6386 -0.2020
  729MPD2    C210773   3.452   1.147  16.902  0.1674 -0.3757  0.0327
  729MPD2    C310774   3.332   1.185  16.958 -0.3913 -0.6218 -0.7393
  729MPD2    C410775   3.251   1.266  16.883 -0.7118 -0.1840 -0.7508
  729MPD2    C510776   3.290   1.322  16.759  0.1652  0.0958  0.3859
  729MPD2     H10777   3.511   1.074  16.955  0.1003 -0.6695 -0.2956
  729MPD2    H110778   3.155   1.306  16.915 -0.8042  0.7847 -2.1963
  729MPD2    H210779   3.449   1.328  16.620 -2.0696  1.8167  0.1182
  729MPD2    H310780   3.234   1.393  16.700 -0.1675  0.0611  0.6610
  729MPD2     N10781   3.292   1.159  17.094  0.6700 -0.2819  0.0019
  729MPD2    H510782   3.212   1.213  17.123  0.0294 -0.7394 -0.9147
  729MPD2    N110783   3.624   1.175  16.719 -0.1911  0.4364  0.3366
  729MPD2    H710784   3.645   1.236  16.641  1.4182  0.2798  0.6479
  730TMC3    C110785   3.347   1.088  17.305 -0.1735 -0.0439  0.3944
  730TMC3    C210786   3.441   1.020  17.373  0.5831  0.4451 -0.3413
  730TMC3    C310787   3.471   1.067  17.500  1.1047 -0.7759 -0.8889
  730TMC3    C410788   3.278   1.195  17.358  0.5946  0.3416 -0.0090
  730TMC3    C510789   3.316   1.242  17.477  0.2031  0.3384  0.4431
  730TMC3    C610790   3.408   1.178  17.550 -0.2387 -0.4142  0.4217
  730TMC3     C10791   3.339   1.048  17.167  0.6647  0.1819 -0.1526
  730TMC3     O10792   3.412   0.962  17.121 -0.2944 -0.4566  0.2856
  730TMC3     H10793   3.498   0.936  17.336 -1.2541 -0.5572 -0.8943
  730TMC3    H110794   3.203   1.249  17.300 -0.0471  0.5849  1.0522
  730TMC3    H210795   3.457   1.224  17.635 -0.4381  1.1621 -0.3194
  730TMC3    C710796   3.329   1.381  17.473 -0.2593 -0.7574  0.7022
  730TMC3    C810797   3.603   1.046  17.555  0.2809 -0.0115 -0.2911
  730TMC3    O110798   3.299   1.437  17.368  0.6187 -0.4378 -0.0912
  730TMC3    O210799   3.592   1.046  17.679  0.1102  0.4471 -0.3377
  731MPD2     C10800   3.958   3.832  12.265  0.1551 -0.0951 -0.0886
  731MPD2    C110801   4.089   3.789  12.251 -0.5257  0.2999  0.0405
  731MPD2    C210802   4.144   3.742  12.363  0.2573  0.0419  0.0127
  731MPD2    C310803   4.081   3.752  12.480 -0.0609  0.0418 -1.1445
  731MPD2    C410804   3.951   3.799  12.498  0.1933  0.2941 -0.9964
  731MPD2    C510805   3.890   3.838  12.382 -0.2007  0.0033  0.0876
  731MPD2     H10806   4.244   3.699  12.366  0.3148  0.0504 -1.6524
  731MPD2    H110807   3.891   3.798  12.589 -2.0413  1.5386 -2.4719
  731MPD2    H210808   3.908   3.879  12.181 -1.7652 -1.0319  0.5242
  731MPD2    H310809   3.795   3.890  12.388 -0.0990  0.0973  0.8905
  731MPD2     N10810   4.157   3.713  12.596 -0.1354 -0.0733 -0.5412
  731MPD2    H510811   4.257   3.708  12.578 -0.2989 -1.2692 -1.0794
  731MPD2    N110812   4.145   3.794  12.118 -0.6570  0.2470 -0.3493
  731MPD2    H710813   4.086   3.807  12.036 -0.8147  0.3211 -0.2228
  732TMC3    C110814   4.306   3.719  11.949 -0.2963 -0.8085 -1.0557
  732TMC3    C210815   4.210   3.689  11.862 -0.0993 -0.1833  0.0293
  732TMC3    C310816   4.251   3.624  11.747  0.3850  0.4704  0.7281
  732TMC3    C410817   4.428   3.668  11.934  0.5983 -0.8558  0.0213
  732TMC3    C510818   4.474   3.611  11.815 -0.7555  1.0285 -0.7623
  732TMC3    C610819   4.378   3.599  11.715 -0.2474  0.4807  0.2646
  732TMC3     C10820   4.272   3.758  12.088  0.4089 -0.3106 -0.4829
  732TMC3     O10821   4.365   3.763  12.166 -0.2569  0.2648 -0.3385
  732TMC3     H10822   4.104   3.710  11.875  0.1043  0.1401  1.1286
  732TMC3    H110823   4.501   3.680  12.013 -1.1334  1.4777  1.2743
  732TMC3    H210824   4.410   3.572  11.614  1.4250  0.3802  0.8206
  732TMC3    C710825   4.571   3.498  11.812  0.5168  0.1739 -0.0946
  732TMC3    C810826   4.151   3.552  11.669  0.7396 -0.3909  0.0327
  732TMC3    O110827   4.584   3.445  11.703  0.5643  0.2132 -0.0496
  732TMC3    O210828   4.168   3.543  11.548  0.1077 -0.2368 -0.9486
  733TMC3    C110829   4.632   2.478  13.189  0.2086  0.2104 -0.3417
  733TMC3    C210830   4.715   2.368  13.170  0.0004  0.7391 -0.3835
  733TMC3    C310831   0.070   2.370  13.061  0.7793  0.0661  0.1562
  733TMC3    C410832   4.624   2.586  13.095  0.0411  0.0415 -0.0029
  733TMC3    C510833   4.710   2.581  12.990 -0.3363  0.3011  0.3641
  733TMC3    C610834   0.065   2.474  12.972  0.3361 -0.1271 -0.2250
  733TMC3     C10835   4.510   2.474  13.269  0.6389 -0.0485  0.0761
  733TMC3     O10836   4.417   2.529  13.222  0.3750 -0.1224 -0.2697
  733TMC3     H10837   4.703   2.285  13.239 -0.8126  1.3615  0.2229
  733TMC3    H110838   4.556   2.669  13.109  0.7512  0.8809 -1.6494
  733TMC3    H210839   0.149   2.481  12.904  0.1840  1.1069 -0.2886
  733TMC3    C710840   4.676   2.658  12.870 -0.1713 -0.0490  0.6888
  733TMC3    C810841   0.142   2.245  13.019 -0.2347  0.8787 -0.5684
  733TMC3    O110842   4.611   2.763  12.887  0.0315  0.3804 -0.1470
  733TMC3    O210843   0.188   2.177  13.108  0.0473 -0.1526  0.4593
  734MPD2     C10844   2.283   4.597  12.616 -0.2882 -0.3974  0.0783
  734MPD2    C110845   2.170   4.560  12.547 -0.7719 -0.0274 -0.0597
  734MPD2    C210846   2.127   4.649  12.453  0.0195  0.0515  0.3024
  734MPD2    C310847   2.186   0.049  12.417  0.3971  0.0702  0.1731
  734MPD2    C410848   2.301   0.074  12.483  0.3572 -0.5688  0.3058
  734MPD2    C510849   2.350   4.713  12.581 -0.4362  0.1098 -0.2996
  734MPD2     H10850   2.030   4.634  12.406  0.6813  0.5290 -1.2207
  734MPD2    H110851   2.361   0.162  12.464 -0.2859 -0.8035 -2.6962
  734MPD2    H210852   2.317   4.542  12.703  0.8530 -0.8758 -0.6741
  734MPD2    H310853   2.425   0.040  12.640 -0.6401  1.7391 -1.4278
  734MPD2     N10854   2.134   0.124  12.308  0.7650  0.0322 -0.2971
  734MPD2    H510855   2.059   0.076  12.259  3.3739 -1.6067 -2.6254
  734MPD2    N110856   2.097   4.448  12.582  1.0977  0.0577 -0.4808
  734MPD2    H710857   2.140   4.382  12.647 -3.6869  0.7070  3.3175
  735TMC3    C110858   1.916   4.304  12.582  0.1727  0.5136  0.1801
  735TMC3    C210859   1.794   4.281  12.514  0.5568  0.2723  0.0599
  735TMC3    C310860   1.775   4.164  12.438 -0.6062  0.0846 -0.6585
  735TMC3    C410861   2.007   4.212  12.589  0.1616 -0.5465  0.3898
  735TMC3    C510862   1.985   4.089  12.520 -0.1897 -0.1647 -0.2393
  735TMC3    C610863   1.877   4.069  12.441 -0.2395  0.3548  0.1063
  735TMC3     C10864   1.965   4.442  12.559  0.0177 -0.4214  0.9623
  735TMC3     O10865   1.885   4.513  12.504 -1.0632 -0.0901  0.4162
  735TMC3     H10866   1.720   4.358  12.533  0.0787 -0.5716  1.6419
  735TMC3    H110867   2.091   4.221  12.657  0.3672 -1.0206  0.1976
  735TMC3    H210868   1.876   3.985  12.372  0.5858 -0.1310  0.6845
  735TMC3    C710869   2.107   4.009  12.499 -0.5656  0.2761 -0.1332
  735TMC3    C810870   1.723   4.195  12.311  0.4319 -0.2562 -0.2621
  735TMC3    O110871   2.214   4.046  12.537  0.8752  0.6522 -0.5976
  735TMC3    O210872   1.721   4.105  12.230  0.0656  0.3179 -0.5897
  736MPD2     C10873   2.140   3.658  12.410  0.0677  0.3157  0.1247
  736MPD2    C110874   2.178   3.787  12.415  0.3538 -0.2953 -0.3135
  736MPD2    C210875   2.310   3.821  12.386  0.5398  0.4557  0.7097
  736MPD2    C310876   2.401   3.734  12.327  0.3411  0.7278  0.2976
  736MPD2    C410877   2.367   3.599  12.333  0.3578 -0.1542 -0.0775
  736MPD2    C510878   2.235   3.567  12.373 -0.4733 -0.2222 -0.2086
  736MPD2     H10879   2.335   3.926  12.396 -0.7487  0.9199 -1.0720
  736MPD2    H110880   2.436   3.527  12.292  0.7995  0.2288 -0.0023
  736MPD2    H210881   2.043   3.623  12.443  0.0223  0.4941  0.1792
  736MPD2    H310882   2.211   3.461  12.380  1.3115 -0.6813 -0.8342
  736MPD2     N10883   2.522   3.773  12.275  0.5356  0.3791 -0.2035
  736MPD2    H510884   2.580   3.699  12.236 -0.0147  1.1171 -2.4234
  736MPD2    N110885   2.080   3.882  12.454  0.1712  0.1849  0.0464
  736MPD2    H710886   1.984   3.850  12.454  0.2795 -0.1138  2.3126
  737TMC3    C110887   2.679   3.914  12.180 -0.0601  0.2799 -0.2667
  737TMC3    C210888   2.696   4.023  12.096 -0.1262  0.0207 -0.9091
  737TMC3    C310889   2.822   4.041  12.037 -0.1271 -0.4815 -0.4692
  737TMC3    C410890   2.782   3.826  12.197  0.0878  0.1025 -0.4274
  737TMC3    C510891   2.900   3.841  12.123  0.2122 -0.8845 -0.5242
  737TMC3    C610892   2.922   3.957  12.053 -0.1491  0.2236  0.6916
  737TMC3     C10893   2.559   3.905  12.260 -0.3660 -0.1556  1.0449
  737TMC3     O10894   2.493   4.008  12.254  0.2178  0.0884 -0.0684
  737TMC3     H10895   2.629   4.109  12.094  1.5694  1.3596  1.2125
  737TMC3    H110896   2.757   3.733  12.248 -2.7913  0.7335 -0.7212
  737TMC3    H210897   3.011   3.978  11.995 -0.5074  0.0707  0.0928
  737TMC3    C710898   2.976   3.717  12.098 -0.5379 -0.0406 -0.2463
  737TMC3    C810899   2.837   4.177  11.974 -0.1953  0.2840 -0.0080
  737TMC3    O110900   2.948   3.620  12.164 -0.5205 -0.5131 -0.4642
  737TMC3    O210901   2.738   4.222  11.915 -0.4420 -1.2436  0.0443
  738MPD2     C10902   2.622   3.122  15.092  0.2057  0.0669 -0.2081
  738MPD2    C110903   2.723   3.077  15.178  0.3965 -0.5891 -0.1236
  738MPD2    C210904   2.852   3.115  15.162 -0.6980  0.0616 -0.2566
  738MPD2    C310905   2.888   3.194  15.058  0.2749 -0.3242  0.1154
  738MPD2    C410906   2.791   3.239  14.973 -0.3507 -1.1383 -0.4037
  738MPD2    C510907   2.660   3.205  14.992 -0.0119 -0.6373 -0.0759
  738MPD2     H10908   2.923   3.084  15.237  0.3295 -0.9170 -1.6336
  738MPD2    H110909   2.817   3.300  14.887 -0.0978 -0.5562  0.0836
  738MPD2    H210910   2.516   3.099  15.101  0.4868 -0.7094  1.1462
  738MPD2    H310911   2.597   3.239  14.909  1.7838  0.0227 -1.1693
  738MPD2     N10912   3.020   3.238  15.034  0.0822 -0.7203  0.0067
  738MPD2    H510913   3.039   3.289  14.948 -1.4495  0.3937  0.3358
  738MPD2    N110914   2.695   2.983  15.274 -0.8298  0.0807  0.3747
  738MPD2    H710915   2.772   2.941  15.325  1.2826  1.1732 -1.9605
  739TMC3    C110916   3.229   3.339  15.084 -0.4667  0.0816 -0.5153
  739TMC3    C210917   3.290   3.332  14.959 -0.3706  0.0230  0.6908
  739TMC3    C310918   3.408   3.398  14.945  0.6717 -0.2001 -0.2564
  739TMC3    C410919   3.288   3.404  15.191 -0.0824 -0.2386 -0.1807
  739TMC3    C510920   3.412   3.464  15.172  0.0388 -1.0127  0.2038
  739TMC3    C610921   3.474   3.463  15.050 -0.4521  0.3341  0.3259
  739TMC3     C10922   3.124   3.244  15.122 -0.2927  0.9278 -0.3805
  739TMC3     O10923   3.131   3.201  15.236 -0.3937  0.0231 -1.0100
  739TMC3     H10924   3.241   3.279  14.878 -0.6009  1.7494 -0.2948
  739TMC3    H110925   3.251   3.396  15.293 -0.7795  0.5534 -0.3699
  739TMC3    H210926   3.570   3.512  15.050  0.3129 -1.1505  1.7880
  739TMC3    C710927   3.469   3.535  15.282 -0.3532 -0.0665  0.7062
  739TMC3    C810928   3.479   3.387  14.818  0.2494  0.2856  0.1082
  739TMC3    O110929   3.559   3.615  15.260  0.5457  0.9174 -0.1953
  739TMC3    O210930   3.419   3.323  14.734 -0.0911  0.6281  0.6002
  740TMC3    C110931   3.942   4.337  14.333  0.4581 -0.0244  0.5031
  740TMC3    C210932   4.001   4.285  14.445 -0.3437  0.5158 -0.1553
  740TMC3    C310933   4.116   4.222  14.428  0.0966 -0.4414 -0.1861
  740TMC3    C410934   4.012   4.348  14.217  0.1440  0.1340  0.0106
  740TMC3    C510935   4.133   4.284  14.206  0.3091 -0.1448  0.3108
  740TMC3    C610936   4.188   4.216  14.311  0.4160 -0.0969  0.0512
  740TMC3     C10937   3.814   4.409  14.339  0.1581 -0.0633 -0.1057
  740TMC3     O10938   3.774   4.457  14.231  0.3463  0.2933 -0.0284
  740TMC3     H10939   3.930   4.260  14.523 -0.1441  3.6057  0.9776
  740TMC3    H110940   3.962   4.389  14.130  0.1015 -2.1709 -1.0716
  740TMC3    H210941   4.288   4.176  14.310  0.1969 -0.6835  3.4807
  740TMC3    C710942   4.176   4.238  14.076  0.5859 -0.2215 -0.4879
  740TMC3    C810943   4.185   4.180  14.545 -0.0637 -0.0023  0.9588
  740TMC3    O110944   4.221   4.123  14.072  0.0957  0.0611  0.4965
  740TMC3    O210945   4.271   4.094  14.526 -0.2924  0.0324 -0.3882
  741TMC3    C110946   3.187   3.606  14.442 -0.3170  0.5040 -0.6800
  741TMC3    C210947   3.098   3.512  14.479  0.0418 -0.3536 -0.1414
  741TMC3    C310948   3.072   3.502  14.611  0.0133 -0.3396  0.0650
  741TMC3    C410949   3.263   3.681  14.533  0.3698 -0.2273 -0.0720
  741TMC3    C510950   3.234   3.665  14.665  0.3911 -0.4180 -0.8621
  741TMC3    C610951   3.140   3.573  14.707 -0.4357 -0.3668 -0.5839
  741TMC3     C10952   3.188   3.632  14.301 -0.2151  0.2616 -0.4112
  741TMC3     O10953   3.148   3.545  14.225 -0.2965  0.0338 -0.2536
  741TMC3     H10954   3.045   3.448  14.409 -0.7009 -2.5435  2.4498
  741TMC3    H110955   3.343   3.748  14.503  0.2335 -0.3129 -0.6335
  741TMC3    H210956   3.126   3.549  14.812  3.0728 -0.6534 -0.2051
  741TMC3    C710957   3.317   3.729  14.761 -0.4123 -0.1984  0.0719
  741TMC3    C810958   3.006   3.385  14.651  0.2229 -1.0977 -0.3968
  741TMC3    O110959   3.427   3.766  14.723 -0.2403  0.1637  0.1255
  741TMC3    O210960   3.026   3.343  14.761  0.2842  0.2429 -0.0946
  742TMC3    C110961   2.876   2.218  15.568 -0.1930  0.7183 -0.4048
  742TMC3    C210962   2.780   2.173  15.487 -0.3580  0.5754  0.2432
  742TMC3    C310963   2.815   2.092  15.385  0.0722 -0.3774 -0.2380
  742TMC3    C410964   3.000   2.177  15.557  0.2349 -0.0253  0.3104
  742TMC3    C510965   3.030   2.085  15.461  0.7401 -0.2415 -0.5634
  742TMC3    C610966   2.938   2.045  15.367  0.1267 -0.2758 -0.3908
  742TMC3     C10967   2.832   2.272  15.692  0.6992  0.1492  0.0434
  742TMC3     O10968   2.716   2.260  15.722  0.1711  0.0132 -0.2366
  742TMC3     H10969   2.682   2.217  15.505 -0.4768  0.1983  0.5223
  742TMC3    H110970   3.074   2.209  15.630 -0.5462  2.6106 -0.0298
  742TMC3    H210971   2.965   1.978  15.287 -0.0539 -0.7982 -0.0146
  742TMC3    C710972   3.159   2.012  15.462  0.1294  0.3050 -0.0774
  742TMC3    C810973   2.726   2.054  15.281 -0.2972 -0.6699 -0.0134
  742TMC3    O110974   3.170   1.902  15.409  0.1049 -0.5635  0.0465
  742TMC3    O210975   2.774   1.982  15.192 -0.2503  0.3417  0.2375
  743MPD2     C10976   0.362   2.910   1.058 -0.7020 -0.1851 -0.5159
  743MPD2    C110977   0.475   2.917   1.138 -0.1126  0.6522 -0.0094
  743MPD2    C210978   0.600   2.926   1.081  0.6563  0.2895  0.1497
  743MPD2    C310979   0.611   2.945   0.940 -0.1327  0.3604  0.4640
  743MPD2    C410980   0.496   2.934   0.863 -0.2703  0.0817  0.2820
  743MPD2    C510981   0.374   2.925   0.922  0.6928 -0.5301 -0.0187
  743MPD2     H10982   0.690   2.928   1.141  0.8407 -1.3062 -0.0786
  743MPD2    H110983   0.488   2.935   0.755 -1.9641  1.6040  0.4413
  743MPD2    H210984   0.261   2.886   1.091 -1.0621 -0.1592 -1.6248
  743MPD2    H310985   0.290   2.922   0.854 -1.1890  2.4738  2.2023
  743MPD2     N10986   0.741   2.976   0.894 -0.0243  0.7167 -0.1686
  743MPD2    H510987   0.807   2.987   0.969 -0.2873  2.1468 -0.1549
  743MPD2    N110988   0.462   2.913   1.273 -0.0241  0.2649  0.6574
  743MPD2    H710989   0.372   2.942   1.310 -0.2540  0.3169  0.0575
  744TMC3    C110990   0.541   2.962   1.485  0.1495  0.3562  0.7392
  744TMC3    C210991   0.412   3.004   1.522  0.2709 -0.3657  0.4115
  744TMC3    C310992   0.407   3.114   1.604 -0.8757  0.3951  0.3843
  744TMC3    C410993   0.650   3.003   1.556  0.6569  0.1886 -0.0287
  744TMC3    C510994   0.642   3.119   1.630 -0.8150  0.2181 -0.1110
  744TMC3    C610995   0.520   3.170   1.661  0.0192 -0.4084  0.9501
  744TMC3     C10996   0.562   2.885   1.360 -0.8796 -0.2293 -0.3080
  744TMC3     O10997   0.676   2.836   1.337  0.2451 -0.6577 -0.3501
  744TMC3     H10998   0.324   2.961   1.476  0.8252 -1.6251  0.5180
  744TMC3    H110999   0.744   2.962   1.522  0.3438 -1.6239  1.2913
  744TMC3    H211000   0.511   3.266   1.710 -2.3122  0.7250 -1.7255
  744TMC3    C711001   0.739   3.214   1.583  0.4044 -0.3712 -0.1616
  744TMC3    C811002   0.293   3.199   1.602  0.3678  0.2532  1.1952
  744TMC3    O111003   0.814   3.177   1.493  0.0400  0.0586  0.3604
  744TMC3    O211004   0.317   3.317   1.624  0.4050  0.1014 -0.4533
  745TMC3    C111005   3.074   1.836  14.122 -0.1744  0.1477 -0.2752
  745TMC3    C211006   3.044   1.968  14.161 -0.2087  0.3242  0.2286
  745TMC3    C311007   3.021   2.067  14.075  0.2469 -0.0837 -0.2736
  745TMC3    C411008   3.060   1.813  13.988  0.6354  0.7749  0.3064
  745TMC3    C511009   3.049   1.916  13.902  0.3770  0.2596 -0.0217
  745TMC3    C611010   3.043   2.040  13.942  0.0637 -0.3436 -0.0805
  745TMC3     C11011   3.211   1.820  14.148  0.4934 -0.1521  0.4449
  745TMC3     O11012   3.260   1.914  14.216  0.1204 -0.5463 -0.4193
  745TMC3     H11013   3.047   1.980  14.268 -0.8173 -2.1351  0.5203
  745TMC3    H111014   3.049   1.711  13.952  0.0941  0.3810  1.6026
  745TMC3    H211015   3.024   2.122  13.873 -1.9925 -0.4676  0.3594
  745TMC3    C711016   3.060   1.894  13.759 -0.1161  0.2443 -0.1511
  745TMC3    C811017   3.071   2.196  14.115  0.0942  0.2778 -0.2898
  745TMC3    O111018   3.019   1.789  13.705 -0.5071  0.1565  0.0433
  745TMC3    O211019   3.000   2.293  14.080 -0.5825  0.2619 -0.0512
  746TMC3    C111020   1.137   3.855  11.193  0.0897 -0.2697  0.2251
  746TMC3    C211021   1.257   3.853  11.130  0.2616 -0.4575 -0.2819
  746TMC3    C311022   1.312   3.726  11.121  0.6217 -0.3739  0.4377
  746TMC3    C411023   1.075   3.750  11.249  0.4920  0.3109  0.2284
  746TMC3    C511024   1.130   3.627  11.220  0.0815 -0.4696  0.1461
  746TMC3    C611025   1.248   3.608  11.147 -0.3949  0.0931 -0.3343
  746TMC3     C11026   1.072   3.984  11.207  0.2384  0.2522 -0.2432
  746TMC3     O11027   0.980   3.990  11.284  0.0686 -0.5285 -0.2516
  746TMC3     H11028   1.318   3.939  11.106 -0.5348  0.0469 -0.4718
  746TMC3    H111029   0.972   3.757  11.281 -0.5514 -0.3877 -2.9937
  746TMC3    H211030   1.279   3.510  11.112 -3.6001 -0.6124 -1.2216
  746TMC3    C711031   1.041   3.512  11.203  0.2884  0.3378 -0.4896
  746TMC3    C811032   1.439   3.708  11.046  0.5848 -0.0635 -0.6246
  746TMC3    O111033   1.060   3.444  11.102  0.1321 -0.6470 -0.2416
  746TMC3    O211034   1.502   3.605  11.062 -0.3732 -0.3551 -0.1882
  747TMC3    C111035   3.708   3.597  11.328  0.5829  0.4091 -0.2048
  747TMC3    C211036   3.583   3.567  11.385 -0.4147 -0.4587  0.1761
  747TMC3    C311037   3.560   3.599  11.514 -0.3412  0.2885 -0.7335
  747TMC3    C411038   3.802   3.650  11.403  0.8084 -0.8632  0.2588
  747TMC3    C511039   3.781   3.677  11.533  0.3165 -0.4788  0.1097
  747TMC3    C611040   3.658   3.657  11.589 -0.1167  0.2802  0.0771
  747TMC3     C11041   3.712   3.624  11.186  0.3289 -1.3911  0.1356
  747TMC3     O11042   3.765   3.724  11.140 -0.0938  0.5361 -0.6509
  747TMC3     H11043   3.502   3.555  11.315 -0.5149 -1.0035  0.3858
  747TMC3    H111044   3.902   3.665  11.365  0.6284 -0.5271 -0.0738
  747TMC3    H211045   3.642   3.680  11.694 -1.6051 -2.8026  0.5256
  747TMC3    C711046   3.865   3.787  11.583  0.5314 -0.0327 -0.1183
  747TMC3    C811047   3.451   3.533  11.578  0.5826  0.6762  0.5527
  747TMC3    O111048   3.823   3.857  11.678  0.1509  0.2769  0.3565
  747TMC3    O211049   3.403   3.440  11.510 -0.3396  0.0671 -1.0910
  748MPD2     C11050   4.387   3.857   1.915 -0.2779  0.0954 -0.5598
  748MPD2    C111051   4.516   3.805   1.898  0.4005  0.3111 -0.2255
  748MPD2    C211052   4.608   3.891   1.857  0.0518  0.1899 -0.1660
  748MPD2    C311053   4.573   4.015   1.808 -0.2694 -0.1020  0.0819
  748MPD2    C411054   4.444   4.063   1.830  0.3617 -0.0522  0.2351
  748MPD2    C511055   4.351   3.985   1.890  0.1970  0.2576  0.4246
  748MPD2     H11056   4.709   3.853   1.851  0.8151  2.4433 -1.6119
  748MPD2    H111057   4.422   4.167   1.812  0.7519  0.3019  1.7920
  748MPD2    H211058   4.309   3.799   1.963  2.2352 -1.9844  1.0564
  748MPD2    H311059   4.252   4.020   1.918 -0.1480 -0.7209  0.4411
  748MPD2     N11060   4.682   4.084   1.744 -0.4233 -1.0061 -0.2547
  748MPD2    H511061   0.051   4.043   1.749  1.0962  1.8624 -4.7666
  748MPD2    N111062   4.533   3.671   1.945 -0.1407  0.0300 -0.0061
  748MPD2    H711063   4.442   3.631   1.966  0.2438 -1.1899 -0.6697
  749TMC3    C111064   0.088   4.263   1.651 -0.2615 -0.3518  0.6718
  749TMC3    C211065   0.202   4.231   1.719 -0.3499 -0.0218 -0.4172
  749TMC3    C311066   0.314   4.308   1.686  0.7136  0.1845 -0.2145
  749TMC3    C411067   0.090   4.361   1.554  0.6052  0.4338  0.0271
  749TMC3    C511068   0.202   4.444   1.529  0.5452  0.0527  0.4227
  749TMC3    C611069   0.314   4.415   1.597  0.2064  0.0774  0.3623
  749TMC3     C11070   4.679   4.214   1.690  0.4406 -0.0629  0.1594
  749TMC3     O11071   4.586   4.295   1.689 -0.3550 -0.2887  0.3467
  749TMC3     H11072   0.209   4.156   1.798  0.6108 -0.4003 -0.8594
  749TMC3    H111073   0.012   4.364   1.478 -1.0450  2.2251  1.7999
  749TMC3    H211074   0.391   4.491   1.596  1.0153 -0.7714 -1.4263
  749TMC3    C711075   0.208   4.518   1.400  0.2789  0.6236  0.0598
  749TMC3    C811076   0.427   4.294   1.773 -0.1715  0.6687 -0.4036
  749TMC3    O111077   0.101   4.539   1.351  0.0581 -0.0959  0.4645
  749TMC3    O211078   0.404   4.242   1.877 -0.5387 -0.4856  0.2219
  750MPD2     C11079   1.497   1.038  11.380 -1.4547  0.5488  0.3307
  750MPD2    C111080   1.369   1.017  11.423  0.3550  0.2328 -0.5352
  750MPD2    C211081   1.277   0.975  11.330  0.0262  0.1132  0.0862
  750MPD2    C311082   1.312   0.931  11.203  0.8526  0.8480 -0.3484
  750MPD2    C411083   1.444   0.949  11.170  0.4366 -0.1020  0.4728
  750MPD2    C511084   1.538   0.996  11.255 -0.3809 -0.1499 -0.6663
  750MPD2     H11085   1.181   0.944  11.368  0.9395 -3.2496 -0.4001
  750MPD2    H111086   1.465   0.902  11.074 -0.1221 -1.2524  0.9093
  750MPD2    H211087   1.570   1.072  11.452  0.0273 -1.8082 -0.0947
  750MPD2    H311088   1.643   1.005  11.228  0.1881  0.6480  1.8415
  750MPD2     N11089   1.220   0.859  11.112 -0.3780  0.8333 -0.4069
  750MPD2    H511090   1.254   0.836  11.019 -0.5389 -0.2715 -0.1935
  750MPD2    N111091   1.326   1.060  11.550  0.2026 -0.3304 -0.6381
  750MPD2    H711092   1.399   1.108  11.602  0.5319 -2.2732  0.7153
  751TMC3    C111093   1.040   0.724  11.043 -0.1727 -0.0862  0.0398
  751TMC3    C211094   0.966   0.611  11.089  0.0882 -0.2382  0.5686
  751TMC3    C311095   0.899   0.539  10.992  0.3194 -0.7523 -0.2537
  751TMC3    C411096   1.055   0.764  10.911  0.1006  0.5382 -0.6391
  751TMC3    C511097   1.004   0.674  10.822  0.1439  0.1426 -0.1447
  751TMC3    C611098   0.934   0.563  10.861 -0.2686  0.0554 -0.4169
  751TMC3     C11099   1.095   0.813  11.143 -0.1416  0.0688  0.0180
  751TMC3     O11100   1.035   0.822  11.248  0.0300 -0.3658 -0.1185
  751TMC3     H11101   0.957   0.597  11.196 -0.6562  0.0817  0.5429
  751TMC3    H111102   1.092   0.861  10.878  0.8171  0.2334 -0.7378
  751TMC3    H211103   0.882   0.514  10.779  1.7960  0.8974 -2.2248
  751TMC3    C711104   1.082   0.661  10.698 -0.3609 -0.0251  0.5622
  751TMC3    C811105   0.813   0.418  11.009  0.1641  0.1710  0.5775
  751TMC3    O111106   1.155   0.752  10.664 -0.1164  0.1987  0.6216
  751TMC3    O211107   0.836   0.331  10.924  0.5722 -0.2692  0.0085
  752TMC3    C111108   4.298   0.422  17.350  0.0751  0.2307  0.1933
  752TMC3    C211109   4.359   0.299  17.354  0.6558 -0.5039  0.5113
  752TMC3    C311110   4.295   0.205  17.421  0.5023 -0.2358 -0.1173
  752TMC3    C411111   4.183   0.454  17.416  0.4669 -0.7107 -0.7645
  752TMC3    C511112   4.125   0.349  17.483 -0.1811  0.1241 -0.3932
  752TMC3    C611113   4.182   0.226  17.486  0.2225  0.7493 -0.0761
  752TMC3     C11114   4.369   0.524  17.280  0.5844 -0.0117  0.1879
  752TMC3     O11115   4.494   0.508  17.273 -0.1278 -0.4247 -0.4426
  752TMC3     H11116   4.450   0.269  17.303  0.3246 -0.0546 -0.3562
  752TMC3    H111117   4.141   0.553  17.412 -0.4433 -1.1045 -1.0448
  752TMC3    H211118   4.131   0.147  17.540  0.3879  2.7872  3.0776
  752TMC3    C711119   4.005   0.376  17.562 -0.2163  0.7874  0.2450
  752TMC3    C811120   4.362   0.084  17.434 -0.2032 -0.1595 -0.2762
  752TMC3    O111121   3.991   0.312  17.668 -0.4283 -0.0027 -0.1552
  752TMC3    O211122   4.414   0.047  17.334 -0.0009  0.5015 -0.6975
  753TMC3    C111123   1.877   1.943  13.584  0.4318  0.6365  0.5515
  753TMC3    C211124   1.960   2.044  13.619 -0.6953 -0.2667 -0.3400
  753TMC3    C311125   2.048   2.035  13.721 -0.1069 -0.5057 -0.1462
  753TMC3    C411126   1.894   1.826  13.641 -0.1430 -0.1361 -0.6955
  753TMC3    C511127   1.983   1.821  13.750  0.9588 -0.9441 -0.0509
  753TMC3    C611128   2.056   1.922  13.798  0.4683  0.0611 -0.0556
  753TMC3     C11129   1.746   1.966  13.528 -0.2032 -0.0200  0.3899
  753TMC3     O11130   1.683   1.869  13.479  0.5263 -0.3033  0.3645
  753TMC3     H11131   1.954   2.146  13.582  0.1038  0.6086  1.9527
  753TMC3    H111132   1.836   1.745  13.600  0.0745 -1.4341  1.5553
  753TMC3    H211133   2.116   1.907  13.887 -3.6677 -1.4636  2.4358
  753TMC3    C711134   2.010   1.689  13.802 -0.1015 -0.0273  0.1881
  753TMC3    C811135   2.082   2.162  13.782  0.0816 -0.3260  0.0486
  753TMC3    O111136   2.101   1.675  13.880  0.7170  0.3802  0.2021
  753TMC3    O211137   2.038   2.267  13.732 -0.3282 -0.1526 -0.0508
  754MPD2     C11138   0.154   0.065  12.650 -0.1261 -0.6697  0.9320
  754MPD2    C111139   0.191   0.114  12.778  0.3761  0.0828  0.5099
  754MPD2    C211140   0.216   0.251  12.793  0.3002  0.2294  0.0192
  754MPD2    C311141   0.207   0.347  12.687  0.1917  0.3897  0.0384
  754MPD2    C411142   0.172   0.295  12.568 -0.1350  0.8724  0.1789
  754MPD2    C511143   0.149   0.161  12.547 -0.1123 -0.5355  0.1502
  754MPD2     H11144   0.243   0.284  12.893 -1.2950 -0.8982  0.8219
  754MPD2    H111145   0.165   0.359  12.481 -1.1808  0.9528  0.3272
  754MPD2    H211146   0.117   4.689  12.632 -0.8743 -0.7212  2.6807
  754MPD2    H311147   0.118   0.123  12.450 -1.8187 -0.3089  0.5972
  754MPD2     N11148   0.229   0.485  12.691  0.0965 -0.5301 -0.1391
  754MPD2    H511149   0.247   0.526  12.600 -2.0948  1.2834  0.2452
  754MPD2    N111150   0.193   0.022  12.879 -0.3543 -0.0212 -0.0942
  754MPD2    H711151   0.160   4.651  12.863  1.1519 -0.8831  1.9714
  755MPD2     C11152   0.206   1.079  13.525  0.1640 -0.7399  0.3622
  755MPD2    C111153   0.149   0.961  13.571  0.2272 -0.6199  0.0524
  755MPD2    C211154   0.161   0.848  13.487  0.8122  0.1531  0.7349
  755MPD2    C311155   0.214   0.859  13.353  0.0316  0.0624 -0.0233
  755MPD2    C411156   0.260   0.984  13.314  0.3102 -0.2788  0.4248
  755MPD2    C511157   0.251   1.093  13.393 -0.2991  0.1245  0.4858
  755MPD2     H11158   0.120   0.757  13.529  1.3941 -0.9580 -1.1113
  755MPD2    H111159   0.293   0.999  13.212 -1.0484 -0.0157  0.0240
  755MPD2    H211160   0.213   1.168  13.586 -2.1526  0.6197 -1.3371
  755MPD2    H311161   0.295   1.187  13.361  0.0776 -0.5140 -0.8539
  755MPD2     N11162   0.214   0.754  13.253  0.1674 -0.6008  0.6363
  755MPD2    H511163   0.244   0.773  13.158  0.4596 -0.8910  0.6697
  755MPD2    N111164   0.100   0.944  13.698  0.4642  0.0700 -0.2373
  755MPD2    H711165   0.070   0.851  13.727  1.9359 -0.9564 -1.9816
  756MPD2     C11166   2.037   0.521  10.051  0.9972  0.1224 -0.6214
  756MPD2    C111167   1.908   0.564  10.016  0.3851  0.2850 -0.0137
  756MPD2    C211168   1.806   0.476  10.023 -0.2395  0.3052  0.0009
  756MPD2    C311169   1.820   0.346  10.051 -0.5899 -0.3484  0.0642
  756MPD2    C411170   1.951   0.298  10.066 -0.0582 -0.0604  0.0039
  756MPD2    C511171   2.054   0.386  10.059 -0.2655  0.3792  0.8526
  756MPD2     H11172   1.706   0.504   9.996 -0.5186 -2.5495 -2.0016
  756MPD2    H111173   1.967   0.193  10.090  0.1650 -0.6651 -2.6861
  756MPD2    H211174   2.123   0.586  10.058  0.3550  1.1070 -1.7082
  756MPD2    H311175   2.152   0.348  10.085  0.8896  0.8071 -2.7611
  756MPD2     N11176   1.704   0.263  10.060 -0.2513 -0.8068  0.0701
  756MPD2    H511177   1.612   0.305  10.054 -0.0261 -0.7158 -3.0032
  756MPD2    N111178   1.875   0.694   9.984 -0.9571  0.1177  0.1345
  756MPD2    H711179   1.776   0.713   9.972 -1.1781 -1.7655 -1.2130
  757MPD2     C11180   0.823   0.219   9.706  0.3781 -0.5080 -0.0300
  757MPD2    C111181   0.824   0.079   9.734 -0.2091  0.4350  0.2160
  757MPD2    C211182   0.919   0.033   9.818 -0.4504  0.6278  0.3944
  757MPD2    C311183   1.014   0.117   9.868  0.3293 -0.2786  0.1655
  757MPD2    C411184   0.994   0.253   9.866 -0.1846  0.4539 -0.1801
  757MPD2    C511185   0.895   0.304   9.784 -0.0659 -0.6884  0.0829
  757MPD2     H11186   0.923   4.648   9.827 -0.9179  0.5158 -0.7890
  757MPD2    H111187   1.067   0.324   9.903 -0.1495  0.4568 -0.2537
  757MPD2    H211188   0.750   0.262   9.637 -0.8437 -0.7018  1.1320
  757MPD2    H311189   0.895   0.411   9.763  0.2494 -0.7372 -0.1649
  757MPD2     N11190   1.127   0.068   9.936 -0.1130  0.3529 -0.3258
  757MPD2    H511191   1.140   4.692   9.927 -1.3880  0.1575  0.0074
  757MPD2    N111192   0.730   4.721   9.661 -0.4031 -0.4813 -0.3831
  757MPD2    H711193   0.661   0.036   9.597  0.0850 -1.1735 -1.3444
  758MPD2     C11194   0.482   4.450  16.238  1.1672  0.5017 -0.2379
  758MPD2    C111195   0.491   4.409  16.368 -0.4506 -0.0624 -0.0304
  758MPD2    C211196   0.557   4.490  16.461 -0.2382  0.2952  0.1418
  758MPD2    C311197   0.601   4.620  16.422 -0.4890  0.3946 -0.1286
  758MPD2    C411198   0.589   4.657  16.290 -0.1800  0.1503 -0.7061
  758MPD2    C511199   0.520   4.572  16.203  0.2634 -0.5455  0.1811
  758MPD2     H11200   0.585   4.462  16.562  0.8531  2.8308  0.5513
  758MPD2    H111201   0.618   0.034  16.262 -0.4621  0.0059 -1.5456
  758MPD2    H211202   0.431   4.385  16.167  1.7052 -1.2916  1.0120
  758MPD2    H311203   0.516   4.600  16.098  0.8332 -2.6762 -0.4226
  758MPD2     N11204   0.657   4.705  16.519  0.0455  0.7530  0.0178
  758MPD2    H511205   0.654   4.676  16.616 -0.3895  1.1249  0.1126
  758MPD2    N111206   0.445   4.276  16.398 -0.2487  1.0602  0.0039
  758MPD2    H711207   0.430   4.217  16.316  0.5886  1.5621 -0.5129
  759MPD2     C11208   0.675   2.556  10.137 -0.2206  0.1877 -0.1204
  759MPD2    C111209   0.554   2.618  10.156  0.8100 -0.4200  0.1710
  759MPD2    C211210   0.525   2.733  10.086 -0.0783 -0.1675 -0.0592
  759MPD2    C311211   0.610   2.794   9.993  0.3818 -0.2691 -0.1326
  759MPD2    C411212   0.724   2.722   9.976  0.2510 -0.1378  0.4525
  759MPD2    C511213   0.755   2.607  10.043 -0.5042 -0.4894  0.5770
  759MPD2     H11214   0.432   2.785  10.107  1.2276  2.2134 -0.1443
  759MPD2    H111215   0.798   2.751   9.902  1.5509  1.5957  2.4053
  759MPD2    H211216   0.705   2.472  10.200 -0.5310  0.3489  0.2461
  759MPD2    H311217   0.845   2.554  10.015  0.7267  1.6960  0.4130
  759MPD2     N11218   0.575   2.914   9.934 -0.2299 -0.2665 -0.7556
  759MPD2    H511219   0.485   2.949   9.965  0.1381  1.6381 -1.8668
  759MPD2    N111220   0.462   2.584  10.255  0.2520 -0.0678  0.2557
  759MPD2    H711221   0.392   2.654  10.272 -0.2782 -1.0475  2.0499
  760MPD2     C11222   4.079   0.929  12.079 -0.4148  0.0780  0.5247
  760MPD2    C111223   4.216   0.954  12.063  0.5627 -0.9156  0.4214
  760MPD2    C211224   4.298   0.854  12.006 -0.5133  0.1886  0.0246
  760MPD2    C311225   4.249   0.731  11.967  0.2744  0.0869  0.4765
  760MPD2    C411226   4.112   0.709  11.974  0.0753 -0.8499  0.0100
  760MPD2    C511227   4.033   0.807  12.030  0.1956 -0.3567 -0.6399
  760MPD2     H11228   4.405   0.856  11.991 -0.3926 -0.0667  0.8469
  760MPD2    H111229   4.077   0.609  11.949 -1.1893 -0.5066  0.4025
  760MPD2    H211230   4.004   0.997  12.116  0.8223  1.5247  0.3811
  760MPD2    H311231   3.926   0.791  12.038 -0.0243  0.5943 -1.6225
  760MPD2     N11232   4.322   0.618  11.931 -0.3769 -0.3949  0.5100
  760MPD2    H511233   4.266   0.535  11.917  0.2273 -0.6390 -0.4431
  760MPD2    N111234   4.268   1.085  12.095  0.2430  0.4086 -0.0064
  760MPD2    H711235   4.365   1.090  12.064 -0.1473 -1.0077 -1.5222
  761MPD2     C11236   0.413   0.172  11.177  0.8106 -0.1211  0.2723
  761MPD2    C111237   0.485   0.150  11.067  0.0190  0.1374  0.2339
  761MPD2    C211238   0.601   0.220  11.049  0.0363 -0.6384  0.0175
  761MPD2    C311239   0.633   0.329  11.137 -0.0245  0.7046 -0.5532
  761MPD2    C411240   0.557   0.347  11.246 -0.1348  0.0688 -0.2584
  761MPD2    C511241   0.447   0.265  11.271  0.6916 -0.0387  0.0219
  761MPD2     H11242   0.653   0.211  10.955 -0.9867 -2.3448 -0.3736
  761MPD2    H111243   0.566   0.431  11.315  0.8992 -0.9252  0.8088
  761MPD2    H211244   0.328   0.106  11.190 -0.0624  0.2339 -3.5258
  761MPD2    H311245   0.393   0.259  11.365 -0.8566 -0.0630 -0.8770
  761MPD2     N11246   0.735   0.418  11.117  0.0979  0.0031 -0.4125
  761MPD2    H511247   0.749   0.495  11.181  0.4827 -2.6651  2.7327
  761MPD2    N111248   0.434   0.053  10.977  0.3219  0.6735 -0.0456
  761MPD2    H711249   0.347   0.008  11.003  0.1512  0.4271 -1.0365
  762MPD2     C11250   0.920   0.085  10.724 -0.2915 -0.4880 -0.3671
  762MPD2    C111251   0.903   4.673  10.696  0.5990 -0.2801 -0.5732
  762MPD2    C211252   1.013   4.601  10.659 -0.5818 -0.3939 -0.3913
  762MPD2    C311253   1.144   4.660  10.651  0.7654  0.5630 -0.1605
  762MPD2    C411254   1.148   0.072  10.679 -0.5645 -0.3897 -0.3841
  762MPD2    C511255   1.041   0.143  10.713 -0.3529  0.7312  0.3147
  762MPD2     H11256   1.003   4.498  10.628  0.0463 -1.1060  1.7847
  762MPD2    H111257   1.244   0.122  10.685 -1.0563  0.7121 -1.4815
  762MPD2    H211258   0.836   0.146  10.756  0.7628 -0.3145  2.0817
  762MPD2    H311259   1.055   0.240  10.761  0.7013  0.6432  0.1728
  762MPD2     N11260   1.258   4.579  10.631 -0.0337 -0.1363 -0.1683
  762MPD2    H511261   1.244   4.480  10.615  3.5248 -0.5185 -0.8001
  762MPD2    N111262   0.766   4.624  10.708  0.4471  0.1870 -0.1702
  762MPD2    H711263   0.698   4.697  10.728  0.9609  0.7207 -0.3577
  763MPD2     C11264   2.367   0.206  16.215 -0.4686 -0.5889 -0.0574
  763MPD2    C111265   2.446   0.304  16.158  1.2921  0.2981 -0.2095
  763MPD2    C211266   2.473   0.427  16.221  0.4302 -0.5135  0.0412
  763MPD2    C311267   2.429   0.446  16.358 -0.2678 -0.3078 -0.2550
  763MPD2    C411268   2.345   0.343  16.412 -0.9846  0.3789  0.6342
  763MPD2    C511269   2.306   0.239  16.336  0.5331  0.3073  0.0839
  763MPD2     H11270   2.537   0.497  16.167 -3.1950  1.6011 -1.5254
  763MPD2    H111271   2.299   0.352  16.510 -0.6907  0.6068  0.7510
  763MPD2    H211272   2.345   0.107  16.175 -0.4109 -0.5202 -0.2563
  763MPD2    H311273   2.250   0.165  16.392 -1.1746 -0.2432 -2.3357
  763MPD2     N11274   2.455   0.550  16.439 -0.1916 -0.1964 -0.1445
  763MPD2    H511275   2.409   0.550  16.529 -0.9078 -2.1870 -0.5188
  763MPD2    N111276   2.503   0.279  16.032  0.1747 -0.4254 -0.1151
  763MPD2    H711277   2.560   0.352  15.992  0.9518  0.2064  2.1052
  764MPD2     C11278   0.610   1.566   0.011  0.3760  0.0229 -0.3129
  764MPD2    C111279   0.509   1.484  17.665  0.0372  0.0520  0.4426
  764MPD2    C211280   0.505   1.357   0.019  0.2258 -0.3697 -0.1818
  764MPD2    C311281   0.604   1.312   0.107 -0.2446  0.9014  0.4198
  764MPD2    C411282   0.679   1.401   0.172 -0.2166  0.0709  0.3783
  764MPD2    C511283   0.687   1.525   0.121  0.3430 -0.1180  0.6876
  764MPD2     H11284   0.423   1.288   0.001 -0.4381 -0.1954  2.2848
  764MPD2    H111285   0.750   1.369   0.247 -1.3842 -0.7703  1.1183
  764MPD2    H211286   0.629   1.667  17.672  1.3945 -0.4134 -0.9967
  764MPD2    H311287   0.754   1.599   0.162  0.9381  0.2822 -1.0074
  764MPD2     N11288   0.604   1.177   0.142  0.5339 -0.9288 -0.6692
  764MPD2    H511289   0.528   1.117   0.110 -0.8128  0.7338 -0.5827
  764MPD2    N111290   0.409   1.526  17.580  0.3483  0.4888  0.2492
  764MPD2    H711291   0.344   1.450  17.561 -1.5893  1.6543  2.1510
  765MPD2     C11292   0.284   4.141  15.717  0.7823  0.0190  0.1720
  765MPD2    C111293   0.297   4.137  15.852 -0.2856 -0.9885 -0.2553
  765MPD2    C211294   0.399   4.080  15.918 -0.1099 -0.3188 -0.4351
  765MPD2    C311295   0.495   4.021  15.830 -0.3277 -0.4059 -0.6546
  765MPD2    C411296   0.477   4.023  15.694  0.5034 -0.6085 -0.7474
  765MPD2    C511297   0.374   4.085  15.632 -1.0512 -0.0949  0.6273
  765MPD2     H11298   0.406   4.076  16.026  1.6790  1.4557 -0.4921
  765MPD2    H111299   0.538   3.962  15.627  1.1694  0.1889 -0.8565
  765MPD2    H211300   0.200   4.191  15.670  1.0338 -1.2297 -1.5988
  765MPD2    H311301   0.364   4.085  15.524  0.0025 -1.5789  0.5362
  765MPD2     N11302   0.598   3.942  15.896  1.0774  0.1642  0.1449
  765MPD2    H511303   0.594   3.926  15.996 -0.1389 -2.0536 -0.2654
  765MPD2    N111304   0.197   4.212  15.928 -0.0763 -0.0184 -0.4047
  765MPD2    H711305   0.122   4.263  15.883  1.6666  3.1712  0.3220
  766MPD2     C11306   4.328   4.522  15.588  0.2587  0.3308  0.0380
  766MPD2    C111307   4.443   4.458  15.626 -0.1562  0.2035 -0.2672
  766MPD2    C211308   4.524   4.403  15.530 -0.8129  0.8404 -0.3929
  766MPD2    C311309   4.494   4.429  15.398 -0.1750 -0.1555  0.7933
  766MPD2    C411310   4.377   4.498  15.364 -0.0453 -0.3303  0.2123
  766MPD2    C511311   4.292   4.547  15.459 -0.2115  0.0439 -0.3155
  766MPD2     H11312   4.618   4.357  15.555 -1.5747  0.6090  2.0203
  766MPD2    H111313   4.345   4.501  15.260 -1.6063  0.4092  0.7094
  766MPD2    H211314   4.255   4.563  15.657 -0.0620  2.4462 -1.5593
  766MPD2    H311315   4.195   4.594  15.447 -0.0315  0.6092  0.5023
  766MPD2     N11316   4.576   4.390  15.287 -0.1307  0.4816 -0.3068
  766MPD2    H511317   4.591   4.449  15.206 -1.6713  0.7025 -0.4206
  766MPD2    N111318   4.477   4.441  15.767  0.4147 -0.1291 -0.4120
  766MPD2    H711319   4.406   4.470  15.834  1.4568 -3.4102  2.1110
  767MPD2     C11320   4.254   0.052  15.040 -0.1197 -0.8995 -0.2570
  767MPD2    C111321   4.387   0.015  15.040  0.1595  0.2316  0.0647
  767MPD2    C211322   4.436   4.657  14.939 -0.0308 -0.3207 -0.7605
  767MPD2    C311323   4.354   4.616  14.834 -1.1791  0.1792 -0.2315
  767MPD2    C411324   4.219   4.660  14.833 -0.2312  0.3061  0.0318
  767MPD2    C511325   4.178   0.021  14.935 -0.6718 -0.1028 -0.3297
  767MPD2     H11326   4.538   4.623  14.932 -0.0029 -0.3435 -0.2514
  767MPD2    H111327   4.149   4.649  14.751 -0.0292 -1.5231  0.1069
  767MPD2    H211328   4.222   0.118  15.120  0.4267 -0.5169 -0.3545
  767MPD2    H311329   4.076   0.059  14.932 -0.3290  1.0742  3.4930
  767MPD2     N11330   4.407   4.526  14.741 -0.1631  0.6060  0.4012
  767MPD2    H511331   4.494   4.480  14.762 -0.2962 -0.4555 -1.4056
  767MPD2    N111332   4.472   0.067  15.143  0.4785 -0.1813 -0.3949
  767MPD2    H711333   4.425   0.127  15.211  2.2361 -1.3643  1.8581
  768MPD2     C11334   1.239   3.158  10.744 -0.7546 -0.2794 -0.4458
  768MPD2    C111335   1.184   3.116  10.862  0.0006 -0.7338 -0.0536
  768MPD2    C211336   1.246   3.158  10.977 -0.9062 -0.0929  0.1223
  768MPD2    C311337   1.354   3.240  10.983 -0.8707  0.4322  0.3781
  768MPD2    C411338   1.409   3.276  10.865 -0.1567  0.4656 -0.1643
  768MPD2    C511339   1.352   3.240  10.747  0.4679 -0.4963  0.3304
  768MPD2     H11340   1.197   3.126  11.069  0.3869 -0.1302  0.7971
  768MPD2    H111341   1.495   3.342  10.861 -0.2308  0.5656 -0.0985
  768MPD2    H211342   1.197   3.142  10.646 -2.4912 -3.4558  0.8163
  768MPD2    H311343   1.391   3.282  10.655  1.0365 -5.7504 -1.8239
  768MPD2     N11344   1.422   3.275  11.105 -0.3661 -1.2154  0.7137
  768MPD2    H511345   1.514   3.316  11.100 -2.2039  2.8564 -0.4590
  768MPD2    N111346   1.075   3.036  10.875  0.1033 -0.3162  0.1769
  768MPD2    H711347   1.066   2.996  10.968 -0.6540 -0.3123  0.1054
  769MPD2     C11348   1.745   0.947  15.227  0.3469  0.0973 -0.1102
  769MPD2    C111349   1.677   0.897  15.333 -0.3676  0.3829  0.5939
  769MPD2    C211350   1.689   0.952  15.459  0.0734  0.0927  0.1893
  769MPD2    C311351   1.787   1.046  15.479  0.6988  0.3057  0.3422
  769MPD2    C411352   1.856   1.100  15.368  0.4325 -0.6403  0.0353
  769MPD2    C511353   1.845   1.028  15.255 -0.4094  0.1683  0.6270
  769MPD2     H11354   1.619   0.917  15.534 -0.3468  0.4910 -0.0134
  769MPD2    H111355   1.926   1.183  15.367 -0.1865 -0.1086  0.8079
  769MPD2    H211356   1.744   0.900  15.129  3.4177 -0.3382  0.0889
  769MPD2    H311357   1.898   1.065  15.167  0.1136  1.9135  1.6749
  769MPD2     N11358   1.807   1.099  15.610 -0.7674 -0.7179 -0.0561
  769MPD2    H511359   1.739   1.080  15.683 -0.9535 -1.9164 -0.5431
  769MPD2    N111360   1.591   0.786  15.300 -0.5168 -0.0697 -0.1157
  769MPD2    H711361   1.604   0.749  15.206  0.8537  1.0684 -0.3811
  770MPD2     C11362   0.756   0.254  15.666 -0.3153 -0.1848  0.1981
  770MPD2    C111363   0.849   0.166  15.614  0.2307 -0.1397  0.3961
  770MPD2    C211364   0.952   0.223  15.545  0.3118  0.2168  0.5538
  770MPD2    C311365   0.954   0.356  15.524 -0.0572  0.9989 -0.0517
  770MPD2    C411366   0.876   0.442  15.589  0.0383  0.1220  0.5539
  770MPD2    C511367   0.777   0.391  15.668 -0.1104 -0.0664 -0.2711
  770MPD2     H11368   1.022   0.156  15.496 -1.8137  0.1013 -2.3175
  770MPD2    H111369   0.877   0.549  15.576 -1.0237 -0.0744 -1.1388
  770MPD2    H211370   0.662   0.222  15.709  0.7791  0.4453  3.0467
  770MPD2    H311371   0.697   0.459  15.695 -0.5587  0.2021 -2.2369
  770MPD2     N11372   1.056   0.397  15.437  0.2274 -0.0126  0.2335
  770MPD2    H511373   1.114   0.325  15.394 -1.6897 -0.7393 -1.1009
  770MPD2    N111374   0.836   0.025  15.636 -0.0189  0.3020  0.3260
  770MPD2    H711375   0.755   0.000  15.691 -0.4413 -0.6713 -0.7418
  771MPD2     C11376   2.530   3.934  13.795 -0.2865  0.3668 -0.3386
  771MPD2    C111377   2.438   4.038  13.780 -0.2217 -0.4956  0.0835
  771MPD2    C211378   2.320   4.016  13.717 -0.3816  0.2501  0.1409
  771MPD2    C311379   2.291   3.887  13.672  0.3232  0.0277  0.3561
  771MPD2    C411380   2.380   3.789  13.689  0.0041  0.1033  0.7600
  771MPD2    C511381   2.495   3.810  13.758 -0.2205 -0.8458  0.1097
  771MPD2     H11382   2.252   4.098  13.694 -0.2453  0.0062 -1.1657
  771MPD2    H111383   2.351   3.692  13.649  2.1455  0.4251 -1.5707
  771MPD2    H211384   2.624   3.945  13.847 -1.1099 -2.8414  1.8519
  771MPD2    H311385   2.562   3.731  13.788  1.8908  0.5512 -0.8970
  771MPD2     N11386   2.177   3.870  13.584 -0.1471 -0.1861  0.1490
  771MPD2    H511387   2.123   3.953  13.565 -0.1364 -0.1362  0.3370
  771MPD2    N111388   2.479   4.171  13.809  0.7654  0.0660 -0.2497
  771MPD2    H711389   2.407   4.242  13.816 -2.3367 -3.2429  1.6746
  772MPD2     C11390   2.182   4.500  14.370 -0.3457  0.5359 -0.1630
  772MPD2    C111391   2.165   4.439  14.248 -0.1094  0.0141 -0.3635
  772MPD2    C211392   2.048   4.367  14.221 -0.4300 -0.8331  0.6589
  772MPD2    C311393   1.943   4.364  14.309  0.0558  0.0657  0.5034
  772MPD2    C411394   1.963   4.417  14.433 -0.1444 -0.0007 -0.3603
  772MPD2    C511395   2.081   4.487  14.461 -0.1034 -0.3379  0.2818
  772MPD2     H11396   2.034   4.328  14.121 -1.1195 -0.8443  0.7595
  772MPD2    H111397   1.886   4.413  14.509  2.1872 -0.9736  1.9429
  772MPD2    H211398   2.274   4.551  14.395  1.2968 -2.5551  0.0693
  772MPD2    H311399   2.084   4.532  14.560 -0.4040 -1.8145  0.9613
  772MPD2     N11400   1.816   4.309  14.282 -0.1426  0.2835 -0.2163
  772MPD2    H511401   1.739   4.339  14.342  0.0642  2.6114 -1.1182
  772MPD2    N111402   2.265   4.446  14.148  0.2545 -1.2143  0.2257
  772MPD2    H711403   2.244   4.398  14.062 -1.6293 -0.8719  0.4992
  773MPD2     C11404   1.408   0.529   0.631 -0.4102  0.9023  0.4469
  773MPD2    C111405   1.313   0.429   0.618  0.0340  0.9443  0.1987
  773MPD2    C211406   1.346   0.296   0.639 -0.4850 -0.5098 -0.9783
  773MPD2    C311407   1.475   0.258   0.656 -0.0124 -0.3197 -0.8299
  773MPD2    C411408   1.570   0.357   0.667 -0.5101 -0.8939  0.5390
  773MPD2    C511409   1.535   0.484   0.654  0.5324  0.1088  0.2725
  773MPD2     H11410   1.269   0.220   0.636  0.9186 -1.9577 -0.0406
  773MPD2    H111411   1.676   0.340   0.685 -0.3502  1.4812  1.6985
  773MPD2    H211412   1.383   0.634   0.631 -1.6914  0.5987  1.2124
  773MPD2    H311413   1.616   0.555   0.670  0.1257  0.3847  1.1276
  773MPD2     N11414   1.498   0.118   0.679  0.7947  0.1191  0.3780
  773MPD2    H511415   1.418   0.055   0.683 -0.7045  2.0770  0.8390
  773MPD2    N111416   1.181   0.446   0.565  0.1780  0.2881  0.1442
  773MPD2    H711417   1.125   0.362   0.564  0.2579  0.2094  3.1073
  774MPD2     C11418   0.568   3.860  13.153  0.0723  0.3019 -0.3582
  774MPD2    C111419   0.513   3.910  13.270  0.4965 -0.3473  0.3690
  774MPD2    C211420   0.438   4.020  13.268 -0.4821  0.3046  0.8357
  774MPD2    C311421   0.447   4.100  13.153  0.5976 -0.5019  0.1483
  774MPD2    C411422   0.491   4.054  13.039  0.3644  0.2890  0.3052
  774MPD2    C511423   0.545   3.929  13.039  0.0188  0.1491  1.1134
  774MPD2     H11424   0.397   4.066  13.357  0.8249  0.5720  1.2985
  774MPD2    H111425   0.476   4.099  12.942 -0.3725  2.3933  1.3906
  774MPD2    H211426   0.623   3.766  13.153  0.0598  0.2818 -1.8935
  774MPD2    H311427   0.573   3.888  12.942 -2.7494  0.6916  0.0673
  774MPD2     N11428   0.392   4.231  13.168  0.5604  0.6797  0.0301
  774MPD2    H511429   0.385   4.258  13.265 -0.6693  1.5477 -0.3110
  774MPD2    N111430   0.529   3.849  13.396 -0.0538 -0.3314 -0.9130
  774MPD2    H711431   0.595   3.771  13.393  0.1179 -0.2350  0.5287
  775MPD2     C11432   2.126   1.134  16.062 -0.6095  0.1801 -0.1351
  775MPD2    C111433   2.111   1.237  16.151 -0.4587 -0.2463  0.2555
  775MPD2    C211434   2.196   1.344  16.158 -0.2563  0.0409  0.1878
  775MPD2    C311435   2.296   1.354  16.067 -0.0804 -0.6605 -0.4256
  775MPD2    C411436   2.303   1.257  15.969  0.8277 -1.0140  0.1579
  775MPD2    C511437   2.219   1.148  15.964  0.6167  0.0357  0.3635
  775MPD2     H11438   2.180   1.422  16.231  0.6737  0.9312 -0.5701
  775MPD2    H111439   2.365   1.281  15.883 -2.2357  0.2820 -1.7095
  775MPD2    H211440   2.070   1.042  16.074  0.1178 -0.0453  1.6077
  775MPD2    H311441   2.217   1.072  15.886  0.2903  1.1020 -0.6654
  775MPD2     N11442   2.373   1.475  16.053 -0.4150 -0.0944  0.8570
  775MPD2    H511443   2.435   1.479  15.973  2.3598  1.3074  3.0766
  775MPD2    N111444   2.003   1.221  16.247  0.7900 -0.3528  0.1107
  775MPD2    H711445   1.947   1.137  16.237 -0.2850  0.4244 -0.4099
  776MPD2     C11446   0.943   1.753  11.729 -0.0805 -0.7808 -0.2835
  776MPD2    C111447   1.071   1.698  11.729  1.1954 -0.2834 -0.3624
  776MPD2    C211448   1.180   1.762  11.676  0.0258 -0.1295 -0.1094
  776MPD2    C311449   1.168   1.895  11.646  0.0851 -0.4002  0.0838
  776MPD2    C411450   1.045   1.958  11.669  0.6971  0.1658 -0.2727
  776MPD2    C511451   0.933   1.889  11.712  0.0230 -0.0417  0.1084
  776MPD2     H11452   1.281   1.725  11.661 -0.0066  0.3532 -1.5815
  776MPD2    H111453   1.034   2.065  11.673 -1.6290 -0.0752 -0.4768
  776MPD2    H211454   0.865   1.689  11.770 -2.0691  0.8292 -1.5835
  776MPD2    H311455   0.836   1.936  11.725 -0.7709 -0.8394 -2.7978
  776MPD2     N11456   1.275   1.977  11.594  0.1591  0.6564 -0.5064
  776MPD2    H511457   1.283   2.078  11.607 -0.6021  0.5750  0.6291
  776MPD2    N111458   1.082   1.562  11.759  0.0820  0.7253  0.2691
  776MPD2    H711459   0.999   1.514  11.794  0.1314  0.9711  0.7198
  777MPD2     C11460   1.520   4.131   1.048  0.7118 -0.0859  0.1235
  777MPD2    C111461   1.401   4.139   1.118  0.6153  0.3842  1.0892
  777MPD2    C211462   1.308   4.026   1.099  0.3738 -0.0476  0.2543
  777MPD2    C311463   1.344   3.913   1.021 -0.1659  0.7125 -0.8100
  777MPD2    C411464   1.451   3.926   0.933 -0.4394  0.7766 -0.3316
  777MPD2    C511465   1.538   4.033   0.954  0.1626 -0.4588 -0.1024
  777MPD2     H11466   1.209   4.031   1.143  1.0150  2.6211  1.3827
  777MPD2    H111467   1.477   3.853   0.856  3.2623  1.2413  0.4798
  777MPD2    H211468   1.603   4.196   1.070  0.0885  0.4240  0.9818
  777MPD2    H311469   1.632   4.033   0.901 -0.0168 -0.9261 -0.4270
  777MPD2     N11470   1.249   3.811   1.009 -0.2757 -0.6583  0.0363
  777MPD2    H511471   1.164   3.832   1.062  0.5862  0.5824  0.9359
  777MPD2    N111472   1.375   4.252   1.192  0.2156  0.6870 -0.3752
  777MPD2    H711473   1.458   4.309   1.207  0.7837  0.1423 -1.4400
  778MPD2     C11474   2.193   3.609  15.418  0.1269  0.4404 -0.4291
  778MPD2    C111475   2.128   3.582  15.301  0.2574  0.3600 -0.1209
  778MPD2    C211476   2.162   3.655  15.192 -0.9044  1.0061  0.0457
  778MPD2    C311477   2.253   3.762  15.187 -0.5092  0.8349 -0.0825
  778MPD2    C411478   2.313   3.792  15.307 -0.0572 -0.7680 -0.5131
  778MPD2    C511479   2.270   3.718  15.417 -0.4288 -0.3872  0.5947
  778MPD2     H11480   2.096   3.635  15.109  0.4210  1.5351 -1.1333
  778MPD2    H111481   2.381   3.873  15.328  0.6174 -1.8841  1.5623
  778MPD2    H211482   2.173   3.564  15.515  1.2248  2.4887  0.7600
  778MPD2    H311483   2.298   3.768  15.509  0.7711  0.3475 -0.1653
  778MPD2     N11484   2.291   3.827  15.069 -0.4138  0.2101  0.3484
  778MPD2    H511485   2.255   3.790  14.981  0.4283  0.3544 -0.0561
  778MPD2    N111486   2.029   3.482  15.293  0.0512  0.0318 -0.5639
  778MPD2    H711487   1.986   3.469  15.202 -2.9201 -0.0612  0.8281
  779MPD2     C11488   1.968   2.574  14.707 -0.4838 -0.6021 -0.3168
  779MPD2    C111489   2.076   2.594  14.615  0.6454  0.2118  0.4407
  779MPD2    C211490   2.096   2.717  14.551  0.9847 -0.1870  0.1310
  779MPD2    C311491   2.008   2.823  14.564 -0.7344  0.0933 -0.9183
  779MPD2    C411492   1.909   2.805  14.663 -0.0456 -0.8631 -0.3766
  779MPD2    C511493   1.891   2.687  14.733  0.6864 -0.6175  0.5703
  779MPD2     H11494   2.181   2.735  14.486  1.5207  1.8791  1.4293
  779MPD2    H111495   1.839   2.885  14.682  0.0804 -0.6186 -0.9252
  779MPD2    H211496   1.936   2.480  14.751  1.7222 -0.7923  0.9086
  779MPD2    H311497   1.796   2.683  14.785 -0.2637  0.4273 -1.0734
  779MPD2     N11498   2.038   2.948  14.504 -0.4236  0.1565  0.1091
  779MPD2    H511499   2.124   2.959  14.452 -0.8144 -2.2422 -1.0590
  779MPD2    N111500   2.181   2.504  14.603 -0.8393  0.3693 -0.3650
  779MPD2    H711501   2.243   2.527  14.526 -1.1234 -3.4304 -1.7135
  780MPD2     C11502   0.906   2.161   1.457  0.5715 -0.1316 -0.5249
  780MPD2    C111503   0.904   2.075   1.352 -0.3546 -0.1341 -0.0882
  780MPD2    C211504   0.941   2.112   1.222  0.1154 -0.2994  0.4094
  780MPD2    C311505   1.003   2.230   1.209 -0.3621 -0.4576  0.3466
  780MPD2    C411506   0.996   2.320   1.311  0.1879  0.0498 -0.1968
  780MPD2    C511507   0.946   2.287   1.432  0.1287 -0.0232 -0.0610
  780MPD2     H11508   0.928   2.046   1.137 -2.2228  0.5496  0.0926
  780MPD2    H111509   1.035   2.421   1.301  1.7067 -0.6563 -1.1947
  780MPD2    H211510   0.851   2.134   1.546 -0.8393 -1.0893 -1.6899
  780MPD2    H311511   0.961   2.363   1.508 -1.0044 -0.8914  1.0370
  780MPD2     N11512   1.076   2.260   1.089  0.2381  0.2543 -0.5215
  780MPD2    H511513   1.080   2.190   1.016 -0.1489 -1.1636  0.8253
  780MPD2    N111514   0.849   1.945   1.383 -0.6862 -0.3343 -0.8009
  780MPD2    H711515   0.844   1.919   1.481  1.6712  1.2707 -0.2559
  781MPD2     C11516   3.492   0.026  12.125  0.1286  0.6586  0.5253
  781MPD2    C111517   3.587   4.649  12.135 -0.6536  0.8766 -0.1949
  781MPD2    C211518   3.693   4.641  12.043  1.3193  0.3780 -0.5354
  781MPD2    C311519   3.701   4.724  11.934 -0.0974  0.0619  0.3192
  781MPD2    C411520   3.608   0.104  11.927  0.0932  0.0701 -0.1617
  781MPD2    C511521   3.505   0.110  12.022  0.2688 -0.0904  0.2660
  781MPD2     H11522   3.757   4.553  12.053  0.3049 -0.1343  1.4158
  781MPD2    H111523   3.605   0.164  11.836 -0.4832 -1.2633 -1.0106
  781MPD2    H211524   3.414   0.047  12.198 -2.9881 -1.2115 -2.2781
  781MPD2    H311525   3.430   0.188  12.018  0.7284  0.2415 -1.6893
  781MPD2     N11526   3.795   4.704  11.828  0.5370 -0.6686 -0.4127
  781MPD2    H511527   3.792   0.050  11.754 -0.9826  0.2872  0.5686
  781MPD2    N111528   3.583   4.551  12.238 -0.7812  0.1865 -0.3666
  781MPD2    H711529   3.673   4.514  12.267 -1.3661 -1.4749 -0.6657
  782MPD2     C11530   1.686   1.232  10.422  0.0841  0.9264  0.1573
  782MPD2    C111531   1.736   1.133  10.498  0.1045  0.2169  0.0547
  782MPD2    C211532   1.770   1.160  10.625  0.1473  0.1962 -0.2525
  782MPD2    C311533   1.788   1.287  10.660  0.3237 -0.5769 -0.5195
  782MPD2    C411534   1.752   1.392  10.575 -0.4842 -0.5937 -0.0936
  782MPD2    C511535   1.698   1.365  10.454 -1.0581  0.4063 -0.2675
  782MPD2     H11536   1.804   1.082  10.692 -0.0160 -0.5066 -0.9893
  782MPD2    H111537   1.783   1.495  10.592 -0.8736 -0.5214  0.1899
  782MPD2    H211538   1.653   1.207  10.322 -1.3729  0.1293  0.8258
  782MPD2    H311539   1.658   1.442  10.389  0.0027  0.5478 -0.7494
  782MPD2     N11540   1.846   1.302  10.789  0.4048  0.2725 -0.8274
  782MPD2    H511541   1.869   1.217  10.839  2.8062  0.0649 -2.2830
  782MPD2    N111542   1.735   0.998  10.460 -0.2327  0.1268 -0.0111
  782MPD2    H711543   1.760   0.932  10.533  0.3686  0.5889  0.2001
  783MPD2     C11544   1.097   0.367  10.479  0.7539 -0.5552 -0.5042
  783MPD2    C111545   1.137   0.483  10.537 -0.3882  0.3768 -0.9589
  783MPD2    C211546   1.252   0.544  10.486  0.5316  0.8871  0.3669
  783MPD2    C311547   1.322   0.483  10.386  0.0727 -0.2715  0.4195
  783MPD2    C411548   1.283   0.358  10.335 -0.0035 -0.0440 -0.1962
  783MPD2    C511549   1.167   0.305  10.381 -0.6833 -0.1033  0.7741
  783MPD2     H11550   1.300   0.629  10.531  0.5877  0.7394  0.5845
  783MPD2    H111551   1.352   0.295  10.280 -2.3379 -1.6007 -1.2935
  783MPD2    H211552   1.004   0.320  10.509 -0.7911  3.0569  0.3398
  783MPD2    H311553   1.131   0.208  10.349  0.2126 -0.2782  0.2945
  783MPD2     N11554   1.445   0.545  10.352 -0.5969 -0.5208 -0.2734
  783MPD2    H511555   1.477   0.618  10.415  1.6009  0.4363 -2.5229
  783MPD2    N111556   1.063   0.537  10.640 -0.6603  0.2300  0.5615
  783MPD2    H711557   0.985   0.483  10.677 -0.0134 -1.5063 -0.6417
  784MPD2     C11558   3.074   0.553   1.714  0.1143  0.2949  0.3177
  784MPD2    C111559   3.182   0.631   1.683  0.3317  0.4393  0.3364
  784MPD2    C211560   3.176   0.703   1.565 -0.9184  0.6177 -0.0007
  784MPD2    C311561   3.064   0.707   1.490  0.6382  0.6991 -0.2782
  784MPD2    C411562   2.948   0.636   1.524 -0.5014  0.6169  0.1489
  784MPD2    C511563   2.960   0.566   1.641  0.3482 -0.3750  0.3626
  784MPD2     H11564   3.264   0.761   1.539 -0.9741  0.6966 -0.0148
  784MPD2    H111565   2.855   0.621   1.471 -0.8973  0.8858  0.7679
  784MPD2    H211566   3.074   0.490   1.802 -1.6607  0.1687  0.2246
  784MPD2    H311567   2.868   0.520   1.676 -0.0846  1.7164  1.9757
  784MPD2     N11568   3.049   0.794   1.375 -0.4923  0.2011 -0.2180
  784MPD2    H511569   2.958   0.791   1.329  0.2452 -0.5811 -1.6361
  784MPD2    N111570   3.300   0.626   1.759  0.0285  0.1661 -0.2052
  784MPD2    H711571   3.376   0.692   1.745  1.2887 -1.2897 -0.2322
  785MPD2     C11572   4.434   3.380  10.657  0.1380 -0.4820  0.6382
  785MPD2    C111573   4.310   3.441  10.673 -0.2721  0.1884  0.1274
  785MPD2    C211574   4.203   3.372  10.624 -0.2222 -0.4191 -0.4130
  785MPD2    C311575   4.213   3.257  10.546 -0.1388  0.1259  0.0161
  785MPD2    C411576   4.341   3.211  10.525  0.9645  0.0920 -0.0812
  785MPD2    C511577   4.448   3.269  10.581 -0.6617 -0.2198  0.0307
  785MPD2     H11578   4.101   3.405  10.641 -0.6018 -0.9890 -1.5503
  785MPD2    H111579   4.364   3.121  10.470 -0.5979  0.6076 -1.5801
  785MPD2    H211580   4.525   3.433  10.684  1.2786 -0.6576 -2.8500
  785MPD2    H311581   4.547   3.225  10.577  0.0439  1.1693  2.2451
  785MPD2     N11582   4.089   3.200  10.505  0.4319  0.0122 -0.3289
  785MPD2    H511583   4.009   3.252  10.539  0.8708  1.8533 -2.1161
  785MPD2    N111584   4.285   3.558  10.739 -0.3159  0.5739  0.1918
  785MPD2    H711585   4.189   3.591  10.736 -0.5291 -0.0864 -0.2580
  786MPD2     C11586   2.331   2.047  14.968  0.3409 -0.3305  0.1281
  786MPD2    C111587   2.439   1.960  14.987 -0.9530 -0.5423 -0.6617
  786MPD2    C211588   2.513   1.971  15.100  0.2163  0.1815  0.1048
  786MPD2    C311589   2.501   2.082  15.186  0.3164 -0.1365 -0.9037
  786MPD2    C411590   2.394   2.174  15.164  0.7122 -0.2079 -0.4328
  786MPD2    C511591   2.307   2.142  15.062  0.4929  0.3269 -0.6272
  786MPD2     H11592   2.594   1.899  15.105 -1.8047 -2.0525  0.5855
  786MPD2    H111593   2.380   2.252  15.237  0.7076 -0.9315  0.3416
  786MPD2    H211594   2.260   2.031  14.888  0.0141 -0.2316  0.4005
  786MPD2    H311595   2.219   2.205  15.062  0.6191  0.5022 -0.6993
  786MPD2     N11596   2.597   2.106  15.280  0.2361 -0.1464 -0.7173
  786MPD2    H511597   2.567   2.176  15.347  0.9624  1.0969 -1.6730
  786MPD2    N111598   2.480   1.861  14.891 -0.5163 -0.3680  0.1355
  786MPD2    H711599   2.562   1.811  14.921  0.1956  1.1455  0.7181
  787MPD2     C11600   2.718   1.372  15.126 -0.4627  0.0051  0.0279
  787MPD2    C111601   2.737   1.358  14.989  0.2519 -0.2187  0.1597
  787MPD2    C211602   2.853   1.285  14.948 -0.6554  0.2076 -0.1307
  787MPD2    C311603   2.940   1.223  15.035 -0.5735  0.5085 -0.4657
  787MPD2    C411604   2.914   1.242  15.169 -0.1427  0.0805 -0.2209
  787MPD2    C511605   2.806   1.319  15.211  0.0079  0.7929 -0.1083
  787MPD2     H11606   2.882   1.270  14.845 -0.1574  0.5737 -0.0400
  787MPD2    H111607   2.976   1.193  15.244  0.2073 -0.1956 -0.6883
  787MPD2    H211608   2.631   1.421  15.168 -1.2054  0.0704 -1.5995
  787MPD2    H311609   2.793   1.328  15.318  1.8634  2.9824 -0.0647
  787MPD2     N11610   3.049   1.144  14.986 -0.1906  0.1413  0.2079
  787MPD2    H511611   3.048   1.134  14.885  0.7967  0.3481  0.1820
  787MPD2    N111612   2.652   1.421  14.901  0.1370  0.3027  0.1012
  787MPD2    H711613   2.572   1.472  14.939 -0.4128 -0.7035  0.2817
  788MPD2     C11614   4.057   4.585   1.271 -0.1963 -0.3209 -0.2711
  788MPD2    C111615   4.010   4.508   1.172  0.4771 -0.1642  0.4321
  788MPD2    C211616   4.033   4.552   1.043  0.4879 -0.0924  0.0699
  788MPD2    C311617   4.107   4.667   1.021  0.1006  0.1377 -0.3163
  788MPD2    C411618   4.141   0.023   1.128 -0.2961 -0.0135 -0.1397
  788MPD2    C511619   4.116   4.705   1.254  0.0917 -0.6890 -0.2539
  788MPD2     H11620   4.011   4.487   0.959  0.7056  1.5744 -1.3033
  788MPD2    H111621   4.193   0.117   1.116 -0.3088  0.2322  1.7794
  788MPD2    H211622   4.048   4.567   1.378 -0.2374 -0.6222 -0.3254
  788MPD2    H311623   4.144   0.047   1.336  0.3974  0.4745 -1.2970
  788MPD2     N11624   4.147   4.702   0.892  0.4080  0.2861 -0.5431
  788MPD2    H511625   4.204   0.063   0.893 -1.2403  1.3575  1.0720
  788MPD2    N111626   3.947   4.383   1.188  0.2157  0.0996 -0.5661
  788MPD2    H711627   3.884   4.346   1.118 -1.4653  2.6881 -0.4221
  789MPD2     C11628   0.034   4.664  16.657  0.6412 -0.1586  0.4341
  789MPD2    C111629   4.623   4.635  16.642 -0.0236  0.5536 -0.6255
  789MPD2    C211630   4.537   0.014  16.679 -0.1109 -0.0222  0.1372
  789MPD2    C311631   4.577   0.143  16.713  0.1634  0.0444 -0.2141
  789MPD2    C411632   4.709   0.169  16.714  0.5421 -0.0341  0.2188
  789MPD2    C511633   0.076   0.067  16.688  0.0029  0.7789  0.7053
  789MPD2     H11634   4.431   4.717  16.679 -0.2429  0.6439 -1.9743
  789MPD2    H111635   0.025   0.264  16.747  1.3205 -0.2160 -0.2077
  789MPD2    H211636   0.107   4.585  16.647 -0.9701 -1.2110 -3.0824
  789MPD2    H311637   0.181   0.087  16.705  0.3675 -0.0073 -0.6142
  789MPD2     N11638   4.477   0.230  16.760 -0.5572  0.3665  0.1184
  789MPD2    H511639   4.388   0.186  16.778 -1.0349  2.1670  2.1388
  789MPD2    N111640   4.580   4.515  16.587  0.1023  0.8090 -0.5320
  789MPD2    H711641   4.479   4.503  16.581  0.1290 -0.5186  1.6329
  790MPD2     C11642   1.349   2.031  13.675  0.3554  0.3680 -0.0064
  790MPD2    C111643   1.411   1.914  13.715  0.2334 -0.0086 -0.8429
  790MPD2    C211644   1.380   1.792  13.662  0.8856  0.6108  0.3840
  790MPD2    C311645   1.281   1.780  13.564  0.2744 -0.2113  0.7529
  790MPD2    C411646   1.217   1.901  13.524 -0.1076 -0.0006 -0.0845
  790MPD2    C511647   1.240   2.022  13.591  0.0579  0.3391 -0.2079
  790MPD2     H11648   1.430   1.705  13.703 -0.2301 -0.2850 -0.1123
  790MPD2    H111649   1.134   1.909  13.454  0.6250  0.5603 -0.8967
  790MPD2    H211650   1.376   2.126  13.719 -0.9929  0.7598 -0.0255
  790MPD2    H311651   1.180   2.106  13.558  0.2060  0.7277  0.5148
  790MPD2     N11652   1.241   1.653  13.519  0.6917 -0.6443 -0.6793
  790MPD2    H511653   1.300   1.575  13.544 -0.9834 -2.0367 -1.0970
  790MPD2    N111654   1.521   1.933  13.800 -0.2964  0.2501  0.3001
  790MPD2    H711655   1.524   2.025  13.844 -2.1320  1.3509 -1.8475
  791MPD2     C11656   0.490   1.424  13.340 -0.2344 -0.1303  0.4273
  791MPD2    C111657   0.581   1.344  13.280  0.1734  0.0373  0.4747
  791MPD2    C211658   0.544   1.281  13.168  0.1585 -0.2895  0.2445
  791MPD2    C311659   0.425   1.297  13.108  0.6845 -0.4337 -0.4960
  791MPD2    C411660   0.329   1.376  13.170  0.3483  0.2131 -0.0458
  791MPD2    C511661   0.363   1.441  13.284 -0.1593 -0.0295  0.1690
  791MPD2     H11662   0.624   1.229  13.115 -1.0853 -0.2981 -1.6343
  791MPD2    H111663   0.228   1.398  13.140  0.6580 -0.2186 -1.4159
  791MPD2    H211664   0.517   1.467  13.436  0.8180 -0.1531  0.1382
  791MPD2    H311665   0.285   1.500  13.330 -3.1112 -1.7060 -2.7110
  791MPD2     N11666   0.398   1.229  12.989 -0.5944  0.1187 -0.2292
  791MPD2    H511667   0.473   1.181  12.940 -2.1770 -0.2081 -2.3102
  791MPD2    N111668   0.717   1.343  13.334 -0.1844 -0.2626 -0.1760
  791MPD2    H711669   0.721   1.403  13.416 -1.8990 -0.3480 -0.0164
  792MPD2     C11670   1.187   1.286  11.283 -0.3505 -0.6534  0.0957
  792MPD2    C111671   1.269   1.273  11.178  0.0684 -0.9649 -0.4500
  792MPD2    C211672   1.225   1.213  11.063 -0.0369 -0.4608 -0.1067
  792MPD2    C311673   1.089   1.192  11.048  0.0516 -0.6793  0.1015
  792MPD2    C411674   1.010   1.199  11.162  0.6024 -1.1639 -0.2096
  792MPD2    C511675   1.057   1.236  11.278 -0.2373 -0.1423 -0.2124
  792MPD2     H11676   1.288   1.225  10.976  1.1881  1.1917  1.0080
  792MPD2    H111677   0.905   1.171  11.153  0.2469 -0.0628  0.4611
  792MPD2    H211678   1.229   1.323  11.376 -1.9563 -0.3297  0.6925
  792MPD2    H311679   0.994   1.233  11.366  0.1200 -1.9204 -0.0231
  792MPD2     N11680   1.027   1.153  10.924 -0.4790 -0.3990 -0.4158
  792MPD2    H511681   0.927   1.168  10.934 -0.0820  2.7781 -0.9839
  792MPD2    N111682   1.399   1.330  11.194  1.0317  0.7018  0.7235
  792MPD2    H711683   1.413   1.381  11.281 -0.7931  0.4899  1.1361
  793MPD2     C11684   1.288   1.139   9.935  0.2966  0.0953 -0.1496
  793MPD2    C111685   1.370   1.100  10.039 -0.2351  0.0602  0.2104
  793MPD2    C211686   1.310   1.073  10.160  0.2181 -0.0171 -0.3293
  793MPD2    C311687   1.171   1.080  10.175 -0.2840  0.4749 -0.6362
  793MPD2    C411688   1.094   1.120  10.067 -0.4199 -1.0470  0.0358
  793MPD2    C511689   1.154   1.147   9.948 -0.7676 -0.3447 -0.1393
  793MPD2     H11690   1.370   1.037  10.243  0.5959  0.4399 -0.4106
  793MPD2    H111691   0.989   1.143  10.074 -0.1845  0.2470 -0.8090
  793MPD2    H211692   1.328   1.178   9.842 -0.3864 -1.2121 -0.9822
  793MPD2    H311693   1.099   1.179   9.860 -1.1695 -2.2461 -0.5737
  793MPD2     N11694   1.109   1.052  10.304 -0.0035  0.0526 -0.2814
  793MPD2    H511695   1.174   1.006  10.367  2.0790  1.0879 -1.6530
  793MPD2    N111696   1.510   1.102  10.027  0.2713  0.0122  0.0381
  793MPD2    H711697   1.566   1.079  10.109  0.3192  1.7427  0.4801
  794MPD2     C11698   0.798   0.942  17.604  0.0758  0.0358 -1.0748
  794MPD2    C111699   0.782   0.803  17.600  0.2527  0.1613 -0.0407
  794MPD2    C211700   0.707   0.751  17.500 -0.2420  0.7299  0.3201
  794MPD2    C311701   0.641   0.830  17.407 -0.5984  0.2874 -0.3572
  794MPD2    C411702   0.643   0.968  17.426 -0.1722 -0.6749  0.2959
  794MPD2    C511703   0.728   1.023  17.514  0.6611 -0.3117 -0.6362
  794MPD2     H11704   0.693   0.643  17.501 -2.1137  0.9734  0.6317
  794MPD2    H111705   0.584   1.030  17.359  0.7896 -1.0384 -0.9071
  794MPD2    H211706   0.857   0.990  17.681  0.5650 -0.3361 -1.2150
  794MPD2    H311707   0.735   1.129  17.537 -0.8426 -0.2405 -0.4840
  794MPD2     N11708   0.558   0.775  17.314  0.3416  0.1332 -0.0772
  794MPD2    H511709   0.502   0.843  17.263  2.2568  2.1450  0.4640
  794MPD2    N111710   0.836   0.704  17.691  0.4647  0.5138  0.2646
  794MPD2    H711711   0.823   0.611  17.653  1.9330  0.9266 -1.2642
  795MPD2     C11712   3.326   2.976  13.717  0.0330  0.8532 -0.4335
  795MPD2    C111713   3.258   2.861  13.692  0.3659  0.2315 -0.6630
  795MPD2    C211714   3.298   2.748  13.763 -1.0313 -0.4957 -0.0450
  795MPD2    C311715   3.407   2.751  13.848  0.1694  0.2512 -0.1823
  795MPD2    C411716   3.469   2.871  13.871  1.0401 -0.5976  0.2280
  795MPD2    C511717   3.441   2.983  13.796 -1.0327  0.1721  0.0994
  795MPD2     H11718   3.237   2.659  13.772  0.6693 -1.5538  1.0631
  795MPD2    H111719   3.546   2.881  13.947  0.8868 -0.0780  0.3139
  795MPD2    H211720   3.294   3.064  13.663  0.6188  1.3182 -0.0138
  795MPD2    H311721   3.494   3.077  13.807  1.7784 -1.3886  0.0376
  795MPD2     N11722   3.448   2.623  13.908 -0.3920  0.3403  0.0563
  795MPD2    H511723   3.399   2.546  13.865  2.2134 -0.3270 -1.6680
  795MPD2    N111724   3.143   2.845  13.608  0.9866  0.3036 -0.1823
  795MPD2    H711725   3.103   2.752  13.611  1.5643 -0.0272 -2.7227
  796MPD2     C11726   3.001   0.320  16.066 -0.3933  0.4578  0.0828
  796MPD2    C111727   2.935   0.379  16.172 -0.7501 -0.3829 -0.1294
  796MPD2    C211728   2.834   0.459  16.145  0.7999 -0.6386  0.1557
  796MPD2    C311729   2.786   0.485  16.015 -0.8068 -0.1863 -0.0310
  796MPD2    C411730   2.847   0.423  15.910 -0.4122 -1.0425 -0.6903
  796MPD2    C511731   2.949   0.337  15.939  1.1189 -0.2412  0.3438
  796MPD2     H11732   2.780   0.501  16.229 -0.9947 -0.4167 -1.0853
  796MPD2    H111733   2.817   0.431  15.806  0.5816 -0.5889 -0.9446
  796MPD2    H211734   3.091   0.264  16.086 -0.3491  0.5564  0.1601
  796MPD2    H311735   2.999   0.291  15.854 -0.1790  0.0338 -0.5625
  796MPD2     N11736   2.680   0.582  15.994  0.7170 -0.0028  0.1689
  796MPD2    H511737   2.646   0.631  16.075 -2.5116 -0.3290 -0.9853
  796MPD2    N111738   2.979   0.345  16.304 -0.4113  0.6205  0.3392
  796MPD2    H711739   3.070   0.300  16.300 -1.4777 -1.3969 -0.8674
  797MPD2     C11740   4.255   3.866  16.893 -0.1659 -0.5033  0.8358
  797MPD2    C111741   4.291   3.971  16.978  0.1091 -0.2249  0.2471
  797MPD2    C211742   4.208   4.081  16.992  0.2868  0.1557  0.8910
  797MPD2    C311743   4.100   4.091  16.906 -0.7175  0.3463 -0.0519
  797MPD2    C411744   4.072   3.990  16.817 -0.1742  0.0410 -0.4653
  797MPD2    C511745   4.146   3.868  16.813  0.4569  0.7912  0.0230
  797MPD2     H11746   4.243   4.159  17.059  0.7770  1.5043 -0.9351
  797MPD2    H111747   3.984   3.986  16.753  0.0921 -1.2337 -0.7654
  797MPD2    H211748   4.316   3.777  16.889  0.1896 -0.1604 -1.1841
  797MPD2    H311749   4.128   3.792  16.738  1.5714 -0.3328  0.8980
  797MPD2     N11750   4.026   4.217  16.909  0.2331  0.0753 -0.4198
  797MPD2    H511751   3.952   4.211  16.840 -0.2568 -1.3717  0.2239
  797MPD2    N111752   4.416   3.984  17.045  0.0635 -0.5261  0.1894
  797MPD2    H711753   4.423   4.071  17.097 -0.6083 -0.3922  0.0454
  798MPD2     C11754   4.488   4.712  17.016 -0.5792 -0.1140 -0.2758
  798MPD2    C111755   4.396   4.617  17.064 -0.0015  0.6365  0.2895
  798MPD2    C211756   4.439   4.508  17.132 -0.5229 -0.1323 -0.2049
  798MPD2    C311757   4.575   4.497  17.161 -0.0305 -0.1334  0.5593
  798MPD2    C411758   4.668   4.588  17.111 -0.3941  0.2066  0.2992
  798MPD2    C511759   4.621   4.692  17.033  0.1151 -0.3424 -0.2010
  798MPD2     H11760   4.367   4.434  17.162 -1.0780  0.8501  0.8472
  798MPD2    H111761   0.046   4.589  17.148 -0.3860  2.3806  0.1778
  798MPD2    H211762   4.449   0.072  16.959 -0.8949 -0.9227 -1.2635
  798MPD2    H311763   4.700   0.038  17.005  0.3536 -0.6735 -0.3510
  798MPD2     N11764   4.618   4.364  17.211 -0.1834 -0.2787 -0.1177
  798MPD2    H511765   4.550   4.296  17.245  1.3279 -1.7543 -0.0279
  798MPD2    N111766   4.262   4.614  17.028  0.5575 -0.1617 -0.0227
  798MPD2    H711767   4.211   4.535  17.067  0.6079 -0.5601 -0.7716
  799MPD2     C11768   2.951   0.729  14.911  0.0899 -0.0434 -0.4895
  799MPD2    C111769   2.950   0.664  14.789  0.5311  0.2246  1.1250
  799MPD2    C211770   2.888   0.731  14.684 -0.1543  0.1311 -0.2855
  799MPD2    C311771   2.824   0.849  14.703  0.6113 -0.7623 -0.6875
  799MPD2    C411772   2.819   0.904  14.826  0.2958 -0.6181 -0.8130
  799MPD2    C511773   2.884   0.851  14.931 -0.2567  0.4711  0.0538
  799MPD2     H11774   2.890   0.677  14.591  1.8710 -0.3773  0.0428
  799MPD2    H111775   2.793   1.009  14.840  0.2550 -0.7719  0.2120
  799MPD2    H211776   3.009   0.690  14.994  0.1382  0.2857 -0.3708
  799MPD2    H311777   2.879   0.901  15.027  0.7168  0.2364  0.2253
  799MPD2     N11778   2.787   0.931  14.595 -0.0414 -0.2998 -0.5713
  799MPD2    H511779   2.758   1.026  14.616  1.6839 -0.1305  1.0359
  799MPD2    N111780   3.018   0.548  14.759 -0.0728  0.3559 -0.6289
  799MPD2    H711781   3.030   0.522  14.661 -0.8106 -2.1829 -0.0371
  800MPD2     C11782   3.402   2.509  14.332 -0.2692 -0.1790 -0.0861
  800MPD2    C111783   3.475   2.401  14.299 -0.6413  0.0281 -0.0085
  800MPD2    C211784   3.402   2.293  14.240  0.3483  0.6460 -0.2603
  800MPD2    C311785   3.265   2.298  14.207  0.4199 -0.4643 -0.2309
  800MPD2    C411786   3.206   2.425  14.232  0.0963 -0.4806  0.5057
  800MPD2    C511787   3.270   2.524  14.296 -0.0610 -0.3064 -0.1306
  800MPD2     H11788   3.446   2.197  14.214  1.8371  1.2003  0.1888
  800MPD2    H111789   3.108   2.457  14.198  0.4040 -1.1210 -0.9457
  800MPD2    H211790   3.451   2.599  14.367  2.2093 -1.0314 -1.4528
  800MPD2    H311791   3.217   2.618  14.301 -1.7652 -1.3792  1.6287
  800MPD2     N11792   3.200   2.190  14.148 -0.2167  0.3185  0.2771
  800MPD2    H511793   3.254   2.105  14.138 -1.5386 -0.4613 -0.1996
  800MPD2    N111794   3.611   2.394  14.332 -0.0267 -0.5868  0.6301
  800MPD2    H711795   3.652   2.455  14.401  0.3965  0.1917 -0.3134
  801MPD2     C11796   3.998   2.909  14.576 -0.4602  0.7021  0.2514
  801MPD2    C111797   3.898   2.817  14.568  0.3298 -0.4908  0.0871
  801MPD2    C211798   3.778   2.845  14.635  0.4417 -0.2845 -0.1529
  801MPD2    C311799   3.757   2.970  14.684  0.3182  0.3605 -0.7127
  801MPD2    C411800   3.860   3.059  14.701  0.3065 -0.0024 -0.8004
  801MPD2    C511801   3.980   3.027  14.638 -0.2614  0.1580  0.0618
  801MPD2     H11802   3.698   2.771  14.635  1.3493 -1.2682 -1.0554
  801MPD2    H111803   3.841   3.161  14.734 -0.9586  0.1142 -1.8927
  801MPD2    H211804   4.095   2.898  14.528 -0.9398 -0.7011 -0.3872
  801MPD2    H311805   4.065   3.093  14.653  0.0421 -0.0646 -0.7208
  801MPD2     N11806   3.637   3.011  14.735  0.1500  0.0504 -0.3243
  801MPD2    H511807   3.629   3.087  14.801  3.2644  0.7990 -0.8017
  801MPD2    N111808   3.911   2.693  14.501  0.6004 -0.5266  0.0150
  801MPD2    H711809   3.835   2.632  14.529 -0.5927  0.7392 -0.4594
  802MPD2     C11810   2.100   2.235  17.231 -0.9150  0.4709  0.4136
  802MPD2    C111811   2.185   2.279  17.329 -0.3958 -0.3650 -0.2498
  802MPD2    C211812   2.318   2.232  17.339 -0.0971 -0.5271  0.0130
  802MPD2    C311813   2.365   2.156  17.238  0.4494  0.5681 -0.1783
  802MPD2    C411814   2.285   2.123  17.135  0.0487 -0.1167 -0.7747
  802MPD2    C511815   2.161   2.162  17.129 -0.6695  0.1711  0.2206
  802MPD2     H11816   2.382   2.267  17.419 -0.3234  0.0026 -0.0376
  802MPD2    H111817   2.320   2.065  17.050 -0.0143 -0.3893 -0.6150
  802MPD2    H211818   1.993   2.250  17.221 -1.0721 -1.2752 -0.6507
  802MPD2    H311819   2.094   2.138  17.047 -0.8370 -4.2805  1.7092
  802MPD2     N11820   2.498   2.111  17.245  0.3465 -0.1476  0.3754
  802MPD2    H511821   2.548   2.141  17.328 -0.0601 -0.6814  0.8222
  802MPD2    N111822   2.137   2.364  17.435 -0.0914  0.5006 -0.2165
  802MPD2    H711823   2.209   2.380  17.505  0.3459  0.4136 -0.6434
  803MPD2     C11824   4.032   1.700  12.604  0.0295  0.7405  0.0005
  803MPD2    C111825   4.109   1.636  12.698 -1.1939 -0.2860  0.0157
  803MPD2    C211826   4.093   1.502  12.710 -0.2116 -0.3199  0.7220
  803MPD2    C311827   3.998   1.434  12.640  0.1895 -0.2623  0.6767
  803MPD2    C411828   3.922   1.496  12.551  0.2541 -0.2249 -0.2057
  803MPD2    C511829   3.946   1.629  12.524  0.6085 -0.0296 -0.0461
  803MPD2     H11830   4.150   1.442  12.780  0.0055 -1.4538 -0.4115
  803MPD2    H111831   3.840   1.459  12.491  0.3997  0.3338 -0.7380
  803MPD2    H211832   4.032   1.808  12.596  1.4293  0.9018  2.3785
  803MPD2    H311833   3.899   1.672  12.436 -0.9279  3.2498  2.3605
  803MPD2     N11834   3.981   1.299  12.662  0.1026  0.1554  0.4246
  803MPD2    H511835   3.896   1.259  12.624  0.4312  0.4941 -0.6701
  803MPD2    N111836   4.187   1.708  12.790 -0.1425 -0.3593  0.5115
  803MPD2    H711837   4.240   1.651  12.855 -2.8945 -2.7314  0.6808
  804MPD2     C11838   3.403   2.682  17.299  0.5019 -0.3253 -0.2701
  804MPD2    C111839   3.397   2.680  17.433  0.0860 -0.5062  0.1554
  804MPD2    C211840   3.429   2.793  17.510  0.2605 -0.6082  0.5197
  804MPD2    C311841   3.480   2.903  17.437 -0.8055 -0.5484 -0.2084
  804MPD2    C411842   3.492   2.895  17.300  0.0841  0.4559  0.7053
  804MPD2    C511843   3.452   2.786  17.223 -0.0793  0.3833  0.3088
  804MPD2     H11844   3.426   2.796  17.618 -0.9331 -1.7783  0.5154
  804MPD2    H111845   3.535   2.975  17.241  1.2610 -0.7205 -0.0308
  804MPD2    H211846   3.348   2.604  17.248  0.6086 -1.0630  0.7476
  804MPD2    H311847   3.457   2.782  17.115  0.8396  2.3491  0.2748
  804MPD2     N11848   3.519   3.022  17.509  0.4342  0.0235 -0.1274
  804MPD2    H511849   3.504   3.012  17.609 -1.1073 -1.7846 -0.5316
  804MPD2    N111850   3.344   2.560  17.495 -0.4596  0.3404 -0.0315
  804MPD2    H711851   3.311   2.575  17.590  0.1103  1.3259  0.0207
  805MPD2     C11852   2.330   1.374  15.474  0.3135  0.1997  0.6600
  805MPD2    C111853   2.429   1.315  15.400 -0.1920 -1.0139 -0.4665
  805MPD2    C211854   2.556   1.294  15.456 -0.3121  0.2866 -0.3710
  805MPD2    C311855   2.586   1.340  15.583  0.1660 -0.9645  0.5250
  805MPD2    C411856   2.490   1.398  15.660  0.4254 -0.2490 -0.3693
  805MPD2    C511857   2.366   1.416  15.600  0.4497  0.3558  0.7085
  805MPD2     H11858   2.636   1.241  15.405 -1.2143 -2.2474  0.8320
  805MPD2    H111859   2.521   1.458  15.744  0.4162 -2.2821  1.0807
  805MPD2    H211860   2.232   1.394  15.433  1.0411  1.1633 -0.6063
  805MPD2    H311861   2.287   1.468  15.653  1.3376  1.8823  0.5441
  805MPD2     N11862   2.718   1.323  15.639  0.0242 -0.2731 -0.0246
  805MPD2    H511863   2.787   1.279  15.579 -0.1441  0.8563 -1.0523
  805MPD2    N111864   2.409   1.269  15.268 -0.7837 -0.3059 -0.1474
  805MPD2    H711865   2.489   1.232  15.218  1.8290  1.7189  2.5230
  806MPD2     C11866   2.830   0.488   1.188  0.1990  0.3164 -0.5734
  806MPD2    C111867   2.963   0.468   1.151 -0.3039  0.6096 -1.0904
  806MPD2    C211868   2.996   0.470   1.020  0.1353 -0.1001 -0.1216
  806MPD2    C311869   2.908   0.514   0.928 -0.3928  0.0624 -0.8776
  806MPD2    C411870   2.776   0.547   0.962  0.1518 -0.4331  0.9259
  806MPD2    C511871   2.738   0.528   1.089  0.8120 -0.2164  0.2187
  806MPD2     H11872   3.095   0.449   0.981  0.9921  1.4501  1.2485
  806MPD2    H111873   2.695   0.573   0.895  0.8304 -3.1180 -0.9316
  806MPD2    H211874   2.807   0.494   1.294  2.2013 -2.4807  0.0291
  806MPD2    H311875   2.638   0.544   1.127  1.0036  0.7700  0.3076
  806MPD2     N11876   2.957   0.513   0.794 -0.5600  0.0292  0.3816
  806MPD2    H511877   3.048   0.475   0.768 -0.3916  1.8840 -1.7196
  806MPD2    N111878   3.056   0.433   1.248 -0.0590 -0.1602 -0.3179
  806MPD2    H711879   3.028   0.356   1.309  0.1588  0.8661  1.0620
  807MPD2     C11880   3.390   0.081   1.834 -0.1192  1.0335  0.0580
  807MPD2    C111881   3.293   0.149   1.766 -0.1655  0.3588 -0.1471
  807MPD2    C211882   3.162   0.138   1.809  0.0722 -0.2948  0.2057
  807MPD2    C311883   3.123   0.076   1.922  0.5392 -0.0473 -0.2907
  807MPD2    C411884   3.224   4.724   1.985  0.2509 -0.4971  0.4423
  807MPD2    C511885   3.354   0.007   1.943 -0.2656  0.3945  0.1502
  807MPD2     H11886   3.089   0.186   1.745 -0.6254 -0.0204  1.2221
  807MPD2    H111887   3.209   4.668   2.076  0.0533  1.0794  1.3705
  807MPD2    H211888   3.495   0.081   1.808 -0.0229  1.3718  0.4429
  807MPD2    H311889   3.426   4.666   1.993  0.3514  1.4248  0.5829
  807MPD2     N11890   2.988   0.076   1.959 -0.1594 -0.2185  0.4428
  807MPD2    H511891   2.917   0.130   1.909  1.6429  2.4834  0.7967
  807MPD2    N111892   3.319   0.240   1.665 -0.4195 -0.6293 -0.6315
  807MPD2    H711893   3.244   0.293   1.622  0.5008 -0.7378 -2.3872
  808MPD2     C11894   4.065   1.789  10.181 -0.0076 -0.2825  0.0112
  808MPD2    C111895   4.005   1.905  10.138  0.7344  0.2435 -0.2880
  808MPD2    C211896   4.079   2.017  10.137  0.0606 -0.3057  0.7876
  808MPD2    C311897   4.203   2.027  10.196 -0.0961  0.1135 -0.1583
  808MPD2    C411898   4.265   1.913  10.246  0.3134 -0.3579  0.5566
  808MPD2    C511899   4.198   1.794  10.230  0.0465 -0.3738 -0.1220
  808MPD2     H11900   4.034   2.103  10.090  1.3771 -0.2057 -0.2969
  808MPD2    H111901   4.365   1.911  10.286  1.3463  0.2787 -1.9950
  808MPD2    H211902   4.010   1.696  10.190 -0.2551  0.2099  3.6315
  808MPD2    H311903   4.240   1.694  10.242  2.1040  0.5800  0.5377
  808MPD2     N11904   4.278   2.149  10.203 -0.8878 -0.5665 -0.0473
  808MPD2    H511905   4.374   2.142  10.235 -0.1278  0.8875 -2.0270
  808MPD2    N111906   3.865   1.908  10.086  0.1950 -0.1955  0.4259
  808MPD2    H711907   3.829   1.993  10.044 -0.2316  0.0526  1.2802
  809MPD2     C11908   0.331   2.642   9.800  0.1923  0.4776  0.4535
  809MPD2    C111909   0.317   2.532   9.880 -0.5238 -0.3649  0.9369
  809MPD2    C211910   0.189   2.510   9.931 -0.6205 -0.2906 -0.5549
  809MPD2    C311911   0.085   2.599   9.898  0.1821  0.0281  0.4969
  809MPD2    C411912   0.109   2.704   9.815  0.5862  0.2141  0.5034
  809MPD2    C511913   0.238   2.727   9.770 -0.1373 -0.4273  0.1354
  809MPD2     H11914   0.177   2.419   9.989 -1.1464 -0.4917 -0.9870
  809MPD2    H111915   0.032   2.776   9.787 -2.7808 -3.4004  0.5660
  809MPD2    H211916   0.430   2.669   9.767  0.6872 -0.0738  1.5214
  809MPD2    H311917   0.255   2.808   9.701 -0.0000 -1.0618 -0.5847
  809MPD2     N11918   4.670   2.583   9.932 -0.4291 -0.4905  0.1574
  809MPD2    H511919   4.596   2.651   9.916  0.0681 -0.1820 -0.7760
  809MPD2    N111920   0.423   2.449   9.903 -0.4399  0.1394  0.3466
  809MPD2    H711921   0.400   2.374   9.967 -1.2801 -1.3259 -1.6728
  810MPD2     C11922   3.772   0.855  10.184 -0.2104  0.3558 -0.1165
  810MPD2    C111923   3.676   0.879  10.287  0.1072 -0.3221 -0.4042
  810MPD2    C211924   3.715   0.931  10.409 -0.1442  0.0797  0.4392
  810MPD2    C311925   3.849   0.974  10.423  0.0023  0.6504 -0.9842
  810MPD2    C411926   3.940   0.954  10.320  0.1592  0.2913 -0.0572
  810MPD2    C511927   3.904   0.888  10.206 -0.1318  0.1707  1.0325
  810MPD2     H11928   3.644   0.944  10.490 -1.0662  0.8853 -0.4994
  810MPD2    H111929   4.043   0.983  10.341  0.1822  0.7163 -0.7521
  810MPD2    H211930   3.740   0.838  10.082 -0.5518 -1.5309  0.3032
  810MPD2    H311931   3.979   0.884  10.128  0.6143 -1.0792  1.8063
  810MPD2     N11932   3.895   1.055  10.532 -0.1654 -0.1655 -0.5302
  810MPD2    H511933   3.983   1.101  10.512 -1.3662  1.1716 -2.7575
  810MPD2    N111934   3.544   0.843  10.257 -0.3150 -0.3814  0.5554
  810MPD2    H711935   3.521   0.846  10.158  0.9355 -1.8320  0.2109
  811MPD2     C11936   2.896   1.297   9.957 -0.5751  0.5015 -1.0772
  811MPD2    C111937   3.003   1.293  10.031  0.0431  0.1583  0.3120
  811MPD2    C211938   3.077   1.412  10.048  0.4453 -0.2097 -0.4811
  811MPD2    C311939   3.043   1.529   9.991 -0.5911 -0.4191  0.2119
  811MPD2    C411940   2.931   1.534   9.912 -0.0878 -0.8861 -0.3617
  811MPD2    C511941   2.865   1.413   9.889  0.5303 -0.5617  0.3317
  811MPD2     H11942   3.161   1.420  10.116  0.5447 -0.6211 -0.5587
  811MPD2    H111943   2.888   1.620   9.862 -1.7460 -1.0686  0.7697
  811MPD2    H211944   2.838   1.209   9.933 -1.4950  0.9223 -0.3766
  811MPD2    H311945   2.785   1.405   9.816  0.6026  1.9400 -0.0260
  811MPD2     N11946   3.111   1.654  10.027 -0.3777 -0.2357  0.1134
  811MPD2    H511947   3.192   1.645  10.087 -1.4214 -1.7169  1.3128
  811MPD2    N111948   3.036   1.176  10.093  1.1992 -0.0952  0.1499
  811MPD2    H711949   2.975   1.095  10.093  2.1004 -0.7714 -0.4897
  812MPD2     C11950   2.282   1.448  12.451 -0.0153  0.4581  0.5818
  812MPD2    C111951   2.180   1.489  12.531 -0.7753  0.1688  0.5634
  812MPD2    C211952   2.121   1.398  12.622 -0.1002 -0.2591  0.1951
  812MPD2    C311953   2.172   1.264  12.631  0.5845 -0.1965 -0.3446
  812MPD2    C411954   2.275   1.225  12.545  0.0259  1.0119 -0.1738
  812MPD2    C511955   2.326   1.311  12.449 -0.0604  0.7738  0.0075
  812MPD2     H11956   2.039   1.431  12.684 -1.6528 -1.3364 -1.2843
  812MPD2    H111957   2.331   1.134  12.560 -1.0057  0.4692  0.3790
  812MPD2    H211958   2.335   1.514  12.384  0.7926 -0.5506  0.2185
  812MPD2    H311959   2.405   1.273  12.386 -0.0765  3.2198 -1.4874
  812MPD2     N11960   2.112   1.172  12.717  0.0867  0.4984 -0.1787
  812MPD2    H511961   2.031   1.201  12.770  0.2263  3.5837 -1.6474
  812MPD2    N111962   2.131   1.622  12.520  0.0408 -0.0110  0.5214
  812MPD2    H711963   2.171   1.674  12.443  0.7002 -0.9536  0.2282
  813MPD2     C11964   0.764   2.997  12.705  0.1564 -0.0476  0.3938
  813MPD2    C111965   0.796   3.130  12.745 -0.4582  0.0676 -0.2117
  813MPD2    C211966   0.783   3.170  12.876  0.1886 -0.3442  0.1197
  813MPD2    C311967   0.736   3.075  12.971  0.2360 -0.3509 -0.4393
  813MPD2    C411968   0.703   2.949  12.928  0.4188  0.5449 -0.0994
  813MPD2    C511969   0.719   2.913  12.798  0.5704 -0.4637  0.0392
  813MPD2     H11970   0.825   3.262  12.913 -0.6263  0.1518 -0.1819
  813MPD2    H111971   0.660   2.878  12.998 -0.3621 -0.2043 -1.3415
  813MPD2    H211972   0.779   2.960  12.604 -0.2206  5.1494 -1.5618
  813MPD2    H311973   0.702   2.814  12.756 -1.8600  0.5536 -1.4344
  813MPD2     N11974   0.732   3.114  13.109  0.0703 -0.2750 -0.0528
  813MPD2    H511975   0.752   3.212  13.126 -1.9649 -0.2107  1.9784
  813MPD2    N111976   0.841   3.214  12.644 -0.1530 -0.4611 -0.1626
  813MPD2    H711977   0.883   3.168  12.564 -0.0039  0.2940 -0.5215
  814MPD2     C11978   1.662   0.041  12.405 -0.3100 -0.3871 -0.0405
  814MPD2    C111979   1.653   0.132  12.299 -0.5634 -0.3953  0.8144
  814MPD2    C211980   1.714   0.254  12.299 -0.3776 -0.4925 -0.1721
  814MPD2    C311981   1.821   0.266  12.391 -0.7727  0.4212  0.1558
  814MPD2    C411982   1.826   0.174  12.500  0.6561  0.3895  0.5839
  814MPD2    C511983   1.745   0.074  12.509  0.1442  0.5857 -1.1849
  814MPD2     H11984   1.711   0.327  12.219 -1.2420  0.5781  0.8175
  814MPD2    H111985   1.910   0.181  12.568  0.1064  0.1621  1.2849
  814MPD2    H211986   1.618   4.666  12.406 -2.5963  0.6118  0.3192
  814MPD2    H311987   1.743   0.010  12.596 -1.4854 -2.6692 -3.6181
  814MPD2     N11988   1.903   0.381  12.403  0.5999 -0.3068 -0.3070
  814MPD2    H511989   1.957   0.394  12.488 -0.6915 -0.2832  0.5110
  814MPD2    N111990   1.567   0.115  12.183  0.5818 -0.2183  0.2604
  814MPD2    H711991   1.563   0.189  12.114 -0.2822  1.8312  2.4892
  815MPD2     C11992   2.019   2.895  12.555  0.7261 -0.1394  0.0704
  815MPD2    C111993   1.984   2.961  12.435  0.0822 -0.2673  0.2324
  815MPD2    C211994   1.859   3.029  12.423  0.6405 -1.2836 -0.3721
  815MPD2    C311995   1.783   3.046  12.532 -0.8135  0.8698 -0.1567
  815MPD2    C411996   1.826   2.995  12.654 -0.4330  0.5551  0.3390
  815MPD2    C511997   1.932   2.910  12.661  0.4795 -0.6029  0.3269
  815MPD2     H11998   1.823   3.069  12.329 -0.4397 -0.1370  0.5342
  815MPD2    H111999   1.769   3.010  12.746 -0.1578  2.3484  0.2325
  815MPD2    H212000   2.111   2.839  12.567  0.4528 -1.2661 -3.0429
  815MPD2    H312001   1.960   2.859  12.753 -2.4400  1.5215  2.3783
  815MPD2     N12002   1.665   3.118  12.509 -0.1253  0.5487 -0.3086
  815MPD2    H512003   1.632   3.132  12.414 -1.0269  1.0292  0.0736
  815MPD2    N112004   2.058   2.920  12.324  0.0523 -0.0477 -0.8262
  815MPD2    H712005   2.130   2.851  12.342 -0.5240 -0.5981 -0.6281
  816MPD2     C12006   1.182   2.122   0.257  1.1212  0.0763  0.2066
  816MPD2    C112007   1.301   2.195   0.268  0.1516 -0.7935 -0.1029
  816MPD2    C212008   1.421   2.157   0.220 -0.5698 -0.3719 -0.8780
  816MPD2    C312009   1.432   2.046   0.144  0.2760 -0.4180 -0.0613
  816MPD2    C412010   1.316   1.970   0.131 -0.6379  0.5959  0.1908
  816MPD2    C512011   1.192   2.005   0.186 -0.6434  0.1455 -0.4237
  816MPD2     H12012   1.515   2.208   0.241 -0.5775 -0.3250 -0.9550
  816MPD2    H112013   1.320   1.883   0.067 -1.6572  1.2702 -0.7744
  816MPD2    H212014   1.086   2.161   0.289  0.7177 -0.1904 -0.6685
  816MPD2    H312015   1.107   1.944   0.160  1.8504 -2.7299 -1.8807
  816MPD2     N12016   1.556   2.018   0.088  0.4492 -0.0888 -0.9279
  816MPD2    H512017   1.633   2.080   0.110  1.9248 -2.3406  0.2509
  816MPD2    N112018   1.287   2.331   0.319  0.3993  0.2554 -0.4786
  816MPD2    H712019   1.193   2.368   0.325  1.3813  2.2929  1.9221
  817MPD2     C12020   1.680   3.608  10.586  0.1042 -0.1973 -0.4372
  817MPD2    C112021   1.775   3.641  10.491 -0.4126  0.0232  0.0666
  817MPD2    C212022   1.739   3.695  10.369  0.2045 -0.5780  0.3193
  817MPD2    C312023   1.606   3.717  10.347 -0.5878  0.7453 -0.4191
  817MPD2    C412024   1.510   3.665  10.435 -0.4970 -0.3469  0.1038
  817MPD2    C512025   1.546   3.619  10.557  0.0978 -0.4843  0.3538
  817MPD2     H12026   1.813   3.714  10.293 -0.7458 -0.1873 -0.5054
  817MPD2    H112027   1.402   3.669  10.422 -0.3596  0.0622 -0.8615
  817MPD2    H212028   1.711   3.561  10.678 -1.0413  0.4970  0.3055
  817MPD2    H312029   1.475   3.587  10.632 -1.5032  0.9592 -0.5285
  817MPD2     N12030   1.577   3.779  10.222  0.2700  0.7004 -0.0245
  817MPD2    H512031   1.648   3.820  10.162  0.7901 -0.2509 -0.0448
  817MPD2    N112032   1.910   3.613  10.506 -0.1003 -0.3700 -0.5712
  817MPD2    H712033   1.976   3.652  10.439  0.3223  0.3673  0.2805
  818MPD2     C12034   0.686   3.400  10.069  0.6747 -0.2669  0.0399
  818MPD2    C112035   0.584   3.326  10.126  0.0237  0.0545 -0.3215
  818MPD2    C212036   0.612   3.198  10.176 -0.5803  0.1003  0.0629
  818MPD2    C312037   0.737   3.136  10.164  0.1262 -0.6764 -0.1163
  818MPD2    C412038   0.841   3.211  10.099 -0.4794  0.0877  0.0082
  818MPD2    C512039   0.811   3.340  10.054  0.3867 -0.1462  0.0685
  818MPD2     H12040   0.536   3.150  10.236 -0.5375  1.9805  1.5768
  818MPD2    H112041   0.938   3.163  10.090 -0.7827 -0.4456 -0.4375
  818MPD2    H212042   0.675   3.493  10.014  0.3019 -0.0511  0.4823
  818MPD2    H312043   0.896   3.393  10.014  0.2144  0.2976  0.2892
  818MPD2     N12044   0.773   3.019  10.233 -0.4118 -0.2857 -0.0524
  818MPD2    H512045   0.868   2.987  10.217 -0.3161  1.2619 -2.5938
  818MPD2    N112046   0.454   3.375  10.146 -0.2129 -0.0126  0.1315
  818MPD2    H712047   0.392   3.310  10.192  0.9040  0.9325  2.9768
  819MPD2     C12048   3.210   1.015  15.628 -0.3603 -0.3123 -0.3461
  819MPD2    C112049   3.235   0.886  15.682 -0.2799 -0.6222 -0.0913
  819MPD2    C212050   3.319   0.867  15.794 -0.0771 -0.6709 -0.4185
  819MPD2    C312051   3.380   0.983  15.849 -0.1753 -0.4528  0.5261
  819MPD2    C412052   3.354   1.108  15.789  0.2493  0.2134  0.3215
  819MPD2    C512053   3.272   1.122  15.680 -0.4979 -0.8405 -0.1535
  819MPD2     H12054   3.339   0.768  15.832 -1.2085 -0.5376  0.4935
  819MPD2    H112055   3.400   1.192  15.840 -2.0784  0.0603  2.6601
  819MPD2    H212056   3.129   1.035  15.558 -0.3852  0.2663 -0.1534
  819MPD2    H312057   3.240   1.216  15.638 -1.0668 -0.2903  1.5035
  819MPD2     N12058   3.466   0.961  15.956 -0.5431 -0.0302 -0.1671
  819MPD2    H512059   3.473   0.867  15.993 -3.6432 -0.4304 -0.5641
  819MPD2    N112060   3.155   0.782  15.630  0.4437 -0.3429  0.3015
  819MPD2    H712061   3.099   0.805  15.548  1.2448 -0.5593 -0.2999
  820MPD2     C12062   2.558   0.609  14.894  0.1388  0.3640 -0.6700
  820MPD2    C112063   2.578   0.718  14.979  0.9092 -0.1036 -0.0451
  820MPD2    C212064   2.645   0.704  15.099  0.5100  0.0458  1.0230
  820MPD2    C312065   2.701   0.580  15.125 -0.0314 -0.3697 -0.5905
  820MPD2    C412066   2.694   0.478  15.036 -0.7041 -0.0559 -0.0572
  820MPD2    C512067   2.621   0.489  14.922  0.4757 -0.1108  0.2162
  820MPD2     H12068   2.664   0.791  15.160 -1.3467  1.0474  0.1665
  820MPD2    H112069   2.752   0.388  15.054  0.0934  0.5026  0.1589
  820MPD2    H212070   2.496   0.620  14.806  0.0818  3.0153 -0.3098
  820MPD2    H312071   2.615   0.408  14.850  0.0984 -0.2171  0.3660
  820MPD2     N12072   2.770   0.543  15.247 -0.1798  0.9721  0.0972
  820MPD2    H512073   2.788   0.444  15.260  0.4763  1.6391  4.0484
  820MPD2    N112074   2.521   0.835  14.940  0.8492  0.4798  0.0374
  820MPD2    H712075   2.464   0.832  14.856 -0.4050  0.5744  0.8775
  821MPD2     C12076   3.160   1.923  13.471 -0.2116 -0.2345  0.3731
  821MPD2    C112077   3.209   1.991  13.581  0.3887  0.5461  0.0081
  821MPD2    C212078   3.315   2.082  13.556 -0.0208 -0.1836  0.8198
  821MPD2    C312079   3.363   2.110  13.424 -0.5205 -1.0682  0.1664
  821MPD2    C412080   3.308   2.041  13.320 -0.2481  0.4463  0.2562
  821MPD2    C512081   3.208   1.954  13.347  0.5402 -0.5468 -0.7453
  821MPD2     H12082   3.368   2.135  13.635  0.7085  2.3554 -1.4128
  821MPD2    H112083   3.337   2.050  13.216 -0.4311  1.3910  0.2955
  821MPD2    H212084   3.090   1.842  13.483  1.1761 -1.3129  1.2361
  821MPD2    H312085   3.174   1.888  13.268 -2.2798  1.3004 -1.0977
  821MPD2     N12086   3.464   2.204  13.391  0.0027 -0.1221  0.0502
  821MPD2    H512087   3.488   2.213  13.292  1.3524  0.3911  0.4267
  821MPD2    N112088   3.162   1.979  13.713  0.3083 -0.5879  0.0914
  821MPD2    H712089   3.205   2.041  13.781 -2.3447  0.1571  1.0551
  822MPD2     C12090   4.022   2.124  15.930 -0.9440  0.4568 -0.1167
  822MPD2    C112091   4.018   2.079  16.059 -0.8931 -0.3108  0.0407
  822MPD2    C212092   3.946   2.154  16.152  1.0391 -0.1860 -0.8802
  822MPD2    C312093   3.882   2.275  16.118  0.3698 -0.0679  1.2234
  822MPD2    C412094   3.899   2.319  15.989  0.3326 -0.1182 -0.3116
  822MPD2    C512095   3.968   2.241  15.895  0.0230 -0.1540  0.1132
  822MPD2     H12096   3.939   2.122  16.255 -0.9086  0.0210 -0.9446
  822MPD2    H112097   3.858   2.411  15.949  0.0608  0.7582  2.0147
  822MPD2    H212098   4.061   2.065  15.847 -0.7217  1.6293 -0.8353
  822MPD2    H312099   3.979   2.272  15.792 -1.0112  1.7747  0.5940
  822MPD2     N12100   3.812   2.350  16.214  0.4386 -0.0561  0.2543
  822MPD2    H512101   3.820   2.319  16.311 -0.2682 -2.4225 -0.4624
  822MPD2    N112102   4.093   1.962  16.098 -0.5008  0.2448  0.7332
  822MPD2    H712103   4.080   1.930  16.194 -1.6618  0.8968  0.7902
  823MPD2     C12104   3.236   2.571  16.821 -0.3463 -0.4874  0.2720
  823MPD2    C112105   3.321   2.478  16.768  0.3461  0.1710 -0.1734
  823MPD2    C212106   3.380   2.383  16.847 -0.2903 -0.7710  0.1402
  823MPD2    C312107   3.368   2.391  16.987 -1.0369  0.1459 -0.0024
  823MPD2    C412108   3.273   2.480  17.037  0.1100  0.2109 -0.7056
  823MPD2    C512109   3.200   2.564  16.953  0.3502  0.5641 -0.7314
  823MPD2     H12110   3.452   2.312  16.808 -0.2023 -0.8637  0.4713
  823MPD2    H112111   3.247   2.475  17.142  0.8369 -0.7392 -0.5617
  823MPD2    H212112   3.188   2.645  16.759  2.6843  1.6731  0.4639
  823MPD2    H312113   3.119   2.621  16.996  1.3521  0.8079  0.8168
  823MPD2     N12114   3.448   2.313  17.076  0.6435 -0.3976 -0.1123
  823MPD2    H512115   3.442   2.331  17.175 -2.1762 -0.1837 -0.3221
  823MPD2    N112116   3.347   2.503  16.630 -0.2973 -0.2652 -0.3970
  823MPD2    H712117   3.299   2.583  16.590 -0.6887 -0.3147 -0.0209
  824MPD2     C12118   4.306   1.145  15.954  0.2832 -0.2641 -0.3469
  824MPD2    C112119   4.402   1.212  16.037 -0.3789  0.5222 -0.1101
  824MPD2    C212120   4.506   1.134  16.084  0.0344  0.0878  0.0341
  824MPD2    C312121   4.516   1.004  16.060 -0.8500 -0.3364 -0.3929
  824MPD2    C412122   4.428   0.937  15.979 -0.2901 -0.0158  0.0696
  824MPD2    C512123   4.332   1.015  15.922 -0.2536  0.5138 -0.1247
  824MPD2     H12124   4.582   1.178  16.148  1.9468 -0.0260 -2.1760
  824MPD2    H112125   4.436   0.833  15.950 -1.1940  0.4582 -1.9204
  824MPD2    H212126   4.236   1.197  15.889  0.4530  1.6773  1.0318
  824MPD2    H312127   4.268   0.976  15.843  2.2326  0.4156 -2.0646
  824MPD2     N12128   4.637   0.947  16.109  0.2853 -0.7942  0.7052
  824MPD2    H512129   4.706   1.006  16.154 -0.7234  1.1227 -0.2603
  824MPD2    N112130   4.404   1.347  16.077 -0.0080  0.8348 -0.2080
  824MPD2    H712131   4.474   1.374  16.145 -1.7296 -1.4498  2.4817
  825MPD2     C12132   0.624   0.774  15.754 -0.0835  0.4687  0.2296
  825MPD2    C112133   0.553   0.862  15.822 -0.8572  0.4358 -0.1199
  825MPD2    C212134   0.558   0.996  15.785 -0.3759  0.3036  0.2629
  825MPD2    C312135   0.635   1.036  15.675  0.5154 -0.8232  0.7890
  825MPD2    C412136   0.694   0.941  15.598  0.0247  0.2390 -0.2865
  825MPD2    C512137   0.688   0.813  15.639 -0.2319  0.4205 -0.1003
  825MPD2     H12138   0.497   1.073  15.831 -0.1091 -0.4178  1.8245
  825MPD2    H112139   0.751   0.971  15.511 -0.8331  0.0326 -0.9195
  825MPD2    H212140   0.622   0.670  15.785 -3.9934  0.4774 -0.0150
  825MPD2    H312141   0.728   0.736  15.574  1.2868  1.9133 -0.9177
  825MPD2     N12142   0.648   1.171  15.632  0.0623  0.5251 -0.3995
  825MPD2    H512143   0.685   1.193  15.540 -2.7963 -0.5549 -1.8047
  825MPD2    N112144   0.486   0.820  15.938  0.1104  0.1319 -0.3629
  825MPD2    H712145   0.484   0.721  15.961 -3.0146  0.5475  1.2624
  826MPD2     C12146   0.423   1.003  14.105  0.6767 -0.6888 -0.0618
  826MPD2    C112147   0.385   1.068  13.983  0.6652 -0.2732 -0.4019
  826MPD2    C212148   0.312   1.186  13.990 -0.4758 -0.3087 -0.8058
  826MPD2    C312149   0.280   1.239  14.113  0.6471 -0.4753  0.9996
  826MPD2    C412150   0.302   1.167  14.230 -0.4757  0.0347  0.1350
  826MPD2    C512151   0.380   1.050  14.226 -1.1332 -0.2428  0.4016
  826MPD2     H12152   0.275   1.235  13.900 -1.0389  1.9395  0.6531
  826MPD2    H112153   0.269   1.196  14.329 -1.8623 -0.5030 -0.1732
  826MPD2    H212154   0.492   0.921  14.113 -0.0229 -1.3365 -0.6742
  826MPD2    H312155   0.408   1.001  14.319  1.7294 -1.1229 -0.9421
  826MPD2     N12156   0.205   1.358  14.120  0.1595 -0.4921  0.6289
  826MPD2    H512157   0.165   1.381  14.210 -0.6979 -1.5632  0.5201
  826MPD2    N112158   0.425   1.014  13.862 -0.4946  1.2152  0.4075
  826MPD2    H712159   0.395   1.057  13.775  0.0637 -1.2303 -0.9900
  827MPD2     C12160   1.089   2.341  10.291 -0.3305 -0.4495 -0.5591
  827MPD2    C112161   1.100   2.269  10.415 -0.1264  0.1876  1.3553
  827MPD2    C212162   1.087   2.135  10.402 -0.6331  0.5776  0.4375
  827MPD2    C312163   1.080   2.068  10.281  0.6269 -0.7647 -0.3094
  827MPD2    C412164   1.060   2.140  10.163 -0.5231 -0.2512  0.2819
  827MPD2    C512165   1.053   2.277  10.174 -0.4717  0.2722 -0.1094
  827MPD2     H12166   1.085   2.072  10.491 -3.8344 -0.1019 -0.1191
  827MPD2    H112167   1.045   2.089  10.068  1.1192 -0.3137  0.0571
  827MPD2    H212168   1.092   2.449  10.299  0.6935 -0.5772  0.7998
  827MPD2    H312169   1.035   2.340  10.088  0.0179  0.0096 -0.4050
  827MPD2     N12170   1.076   1.929  10.289  0.1921  0.8913 -0.1536
  827MPD2    H512171   1.067   1.897  10.385 -2.9327  0.1751 -0.6732
  827MPD2    N112172   1.138   2.335  10.530 -0.3965  0.0869 -0.0069
  827MPD2    H712173   1.151   2.435  10.521 -0.5655  0.2167  1.1246
  828MPD2     C12174   3.825   2.139  13.218 -0.1927 -0.4434 -0.6017
  828MPD2    C112175   3.858   2.178  13.091  0.3699 -0.5432  0.2187
  828MPD2    C212176   3.988   2.183  13.052 -0.7899 -0.1053  0.7133
  828MPD2    C312177   4.089   2.175  13.152  0.6917  0.3152 -0.2289
  828MPD2    C412178   4.055   2.147  13.284 -0.0901 -0.0840  0.3449
  828MPD2    C512179   3.923   2.124  13.314 -0.5121 -0.7179 -0.5130
  828MPD2     H12180   4.016   2.197  12.948 -1.3788  1.4520  0.7569
  828MPD2    H112181   4.129   2.129  13.361  0.4751 -2.5763 -0.7816
  828MPD2    H212182   3.723   2.121  13.252 -0.7239  0.4807 -1.7305
  828MPD2    H312183   3.898   2.106  13.418 -0.0106 -1.8315 -0.5842
  828MPD2     N12184   4.229   2.187  13.126 -0.5332 -0.1087  1.0181
  828MPD2    H512185   4.290   2.184  13.208  0.3203 -1.0096  0.3531
  828MPD2    N112186   3.762   2.199  12.993 -0.1253 -0.3424  0.0231
  828MPD2    H712187   3.794   2.226  12.901  2.4190 -0.0066  1.0176
  829MPD2     C12188   3.981   2.499  12.268 -0.4909 -0.3962  0.4568
  829MPD2    C112189   3.848   2.479  12.234  0.9796  0.2386 -0.2471
  829MPD2    C212190   3.770   2.407  12.315 -0.1444  0.5807 -0.0127
  829MPD2    C312191   3.818   2.357  12.437 -0.2882 -0.1103  0.5659
  829MPD2    C412192   3.953   2.366  12.468 -0.0540  1.2984 -0.4532
  829MPD2    C512193   4.036   2.438  12.381 -0.2482 -0.9723  0.7967
  829MPD2     H12194   3.667   2.385  12.291 -0.5376 -1.0825  3.2553
  829MPD2    H112195   3.993   2.328  12.562 -0.8393 -2.0045 -1.4698
  829MPD2    H212196   4.038   2.568  12.207  0.6085 -0.0696  1.8411
  829MPD2    H312197   4.136   2.464  12.416 -0.4020 -0.4721  0.8695
  829MPD2     N12198   3.734   2.287  12.526 -0.5071 -0.0290 -0.1255
  829MPD2    H512199   3.773   2.257  12.614  0.3798 -1.3487 -0.9583
  829MPD2    N112200   3.808   2.524  12.100 -0.1185  0.1615  1.2696
  829MPD2    H712201   3.884   2.560  12.044  0.5174 -2.5227  0.4232
  830MPD2     C12202   4.188   0.606  16.263  0.6267  0.6887 -0.8896
  830MPD2    C112203   4.106   0.626  16.153  0.5946 -0.5102  1.0174
  830MPD2    C212204   4.151   0.594  16.025  0.2274  0.3141  0.8284
  830MPD2    C312205   4.289   0.559  16.010 -0.7592  0.5683 -0.1639
  830MPD2    C412206   4.368   0.551  16.117  0.4090  0.5572 -0.4765
  830MPD2    C512207   4.321   0.578  16.243 -0.3364  0.4293  1.1313
  830MPD2     H12208   4.086   0.614  15.942  2.4498 -2.0981 -1.5036
  830MPD2    H112209   4.473   0.525  16.110  0.5010  0.7846  0.0956
  830MPD2    H212210   4.155   0.607  16.366  0.2668  1.2420 -1.0137
  830MPD2    H312211   4.391   0.569  16.325 -0.3687  1.1043  1.2363
  830MPD2     N12212   4.347   0.533  15.883 -0.1830  1.1272  0.1386
  830MPD2    H512213   4.448   0.529  15.876 -0.2578 -0.2264 -0.1994
  830MPD2    N112214   3.973   0.679  16.176 -0.1128  0.1700 -0.1317
  830MPD2    H712215   3.946   0.684  16.274 -2.9774  0.6292 -0.9696
  831MPD2     C12216   3.989   2.526  16.540 -0.1026 -0.3970 -0.6498
  831MPD2    C112217   4.026   2.396  16.502 -0.4802  0.0508  0.2141
  831MPD2    C212218   3.948   2.289  16.533  0.8718  0.4657 -0.4099
  831MPD2    C312219   3.824   2.305  16.598  0.5816 -0.1021  0.4187
  831MPD2    C412220   3.791   2.437  16.638  0.3794  0.5261 -0.2796
  831MPD2    C512221   3.869   2.545  16.610 -0.1939 -0.3373  0.4406
  831MPD2     H12222   3.980   2.186  16.521  3.2327  1.4398 -2.5955
  831MPD2    H112223   3.714   2.456  16.712 -0.1074 -0.1635 -0.5949
  831MPD2    H212224   4.053   2.614  16.531 -1.3158  0.6628  1.0367
  831MPD2    H312225   3.835   2.636  16.658 -1.4596  0.5303 -2.1440
  831MPD2     N12226   3.732   2.193  16.613 -0.1441 -0.0156 -0.5312
  831MPD2    H512227   3.653   2.201  16.676  0.8456 -0.0675  0.7138
  831MPD2    N112228   4.140   2.386  16.414  0.1189 -0.7899 -0.2624
  831MPD2    H712229   4.173   2.469  16.366 -1.2808  0.7874  1.4905
  832MPD2     C12230   2.635   3.124  17.457 -0.2053  0.7898 -0.2405
  832MPD2    C112231   2.600   3.262  17.455  0.2739 -0.5273  0.2807
  832MPD2    C212232   2.477   3.296  17.400 -0.8550  0.1106 -0.4139
  832MPD2    C312233   2.382   3.191  17.365 -0.1384  0.1231 -0.2832
  832MPD2    C412234   2.421   3.061  17.388  0.4098 -0.1930  0.7769
  832MPD2    C512235   2.543   3.033  17.430  1.0966 -0.0617  0.6064
  832MPD2     H12236   2.445   3.399  17.398 -0.1136  0.3918  1.9056
  832MPD2    H112237   2.348   2.983  17.370  0.8562 -0.9227  2.1368
  832MPD2    H212238   2.737   3.097  17.479  0.0195  3.0631  1.4556
  832MPD2    H312239   2.565   2.927  17.443 -0.8856 -0.6835 -1.0880
  832MPD2     N12240   2.243   3.202  17.335 -0.4932 -0.3460 -0.7907
  832MPD2    H512241   2.200   3.114  17.309  0.2301 -0.8069 -0.4548
  832MPD2    N112242   2.702   3.353  17.498  0.2706  0.0264 -0.3691
  832MPD2    H712243   2.793   3.317  17.527 -0.3949 -0.6613  0.8479
  833MPD2     C12244   0.020   0.157  12.084 -0.5856  0.5224  0.0222
  833MPD2    C112245   0.022   0.291  12.060 -0.0907  0.1297 -0.1261
  833MPD2    C212246   0.063   0.335  11.939 -0.7700 -0.6599 -0.0280
  833MPD2    C312247   0.103   0.254  11.834  0.3899  0.6925 -0.5781
  833MPD2    C412248   0.105   0.117  11.862  0.5597 -0.1731  0.1572
  833MPD2    C512249   0.054   0.071  11.983  0.5053 -0.5161  0.4342
  833MPD2     H12250   0.030   0.437  11.922 -0.4386 -0.2083  2.0058
  833MPD2    H112251   0.144   0.049  11.788 -0.5720 -0.7569  0.1044
  833MPD2    H212252   4.708   0.112  12.176 -1.1050  2.3804  0.7186
  833MPD2    H312253   0.046   4.690  12.011 -0.9944 -0.9930 -1.7835
  833MPD2     N12254   0.157   0.298  11.710  0.0616  0.4773  0.1358
  833MPD2    H512255   0.188   0.229  11.642  0.1178  0.2886  0.3534
  833MPD2    N112256   4.695   0.385  12.160 -0.6026  0.4180 -0.0000
  833MPD2    H712257   4.632   0.343  12.228 -0.6640  1.2380  0.4505
  834MPD2     C12258   0.094   0.075  10.879  0.3646  0.2429 -0.3686
  834MPD2    C112259   0.040   0.034  10.997  0.4357  0.0039  0.1638
  834MPD2    C212260   0.039   0.120  11.107 -0.1833 -0.8766 -0.0532
  834MPD2    C312261   0.098   0.245  11.100 -0.0014 -0.0669  0.0492
  834MPD2    C412262   0.146   0.285  10.977  0.5114 -0.4305 -0.5804
  834MPD2    C512263   0.150   0.200  10.872 -0.2977  0.1970  0.4606
  834MPD2     H12264   4.721   0.085  11.201 -1.2508 -1.2899 -0.6866
  834MPD2    H112265   0.193   0.381  10.960  0.8611 -0.4997 -0.0067
  834MPD2    H212266   0.101   0.018  10.787 -2.3345 -0.2259 -0.2737
  834MPD2    H312267   0.190   0.239  10.779 -0.1720  0.8972  0.8069
  834MPD2     N12268   0.095   0.337  11.214  0.7282  0.5011  0.0505
  834MPD2    H512269   0.065   0.302  11.305 -0.3400 -0.0114 -0.4987
  834MPD2    N112270   4.723   4.621  11.003  0.1777  0.3062  0.1632
  834MPD2    H712271   4.719   4.585  10.908  0.2981  1.4628 -0.2817
  835MPD2     C12272   0.101   2.808  11.052 -0.4134 -0.8193 -0.2717
  835MPD2    C112273   4.683   2.809  11.069  0.7617  0.4668 -0.1863
  835MPD2    C212274   4.624   2.848  11.183 -0.1576  0.5032 -0.6486
  835MPD2    C312275   4.704   2.884  11.290  0.1103  0.1846 -0.1446
  835MPD2    C412276   0.112   2.873  11.275  0.2988  0.8596  0.0712
  835MPD2    C512277   0.180   2.843  11.159 -0.4477 -0.3254  0.3874
  835MPD2     H12278   4.516   2.855  11.184 -0.0657  2.1406 -1.0217
  835MPD2    H112279   0.176   2.890  11.361 -1.2903 -2.1081  1.8280
  835MPD2    H212280   0.153   2.779  10.962  1.3126  0.2167  0.3807
  835MPD2    H312281   0.287   2.840  11.148 -0.2740  0.7759  1.8938
  835MPD2     N12282   4.651   2.913  11.419 -0.2408 -0.1605 -0.1209
  835MPD2    H512283   4.711   2.920  11.500 -0.9609 -0.2989  0.4326
  835MPD2    N112284   4.599   2.810  10.955  0.5409 -0.3095 -0.0286
  835MPD2    H712285   4.501   2.828  10.976  0.4281 -0.7242 -0.2049
  836MPD2     C12286   3.905   2.892  11.686  0.3490  0.2865 -0.0485
  836MPD2    C112287   3.990   2.880  11.794  0.1565  0.5269  0.2270
  836MPD2    C212288   3.941   2.893  11.924  1.0432 -1.0877  0.3448
  836MPD2    C312289   3.801   2.920  11.938 -0.0087  0.2539  0.5345
  836MPD2    C412290   3.719   2.944  11.828  0.2195  0.2586  0.0013
  836MPD2    C512291   3.769   2.919  11.704  0.2396 -0.0617 -0.6241
  836MPD2     H12292   4.003   2.861  12.007  0.7759  1.4913  1.5292
  836MPD2    H112293   3.617   2.980  11.836  0.0875 -0.1231  0.0094
  836MPD2    H212294   3.932   2.890  11.581  0.1303  1.1698 -0.1229
  836MPD2    H312295   3.707   2.937  11.617  0.7149  1.1822 -0.7086
  836MPD2     N12296   3.741   2.919  12.064 -0.8501 -0.3475  0.0160
  836MPD2    H512297   3.641   2.940  12.070 -1.0905 -0.8526 -2.1923
  836MPD2    N112298   4.122   2.855  11.755 -0.4849  0.4116 -0.4484
  836MPD2    H712299   4.136   2.855  11.655  0.1609 -1.3493 -0.3647
  837MPD2     C12300   3.021   2.159  10.598 -0.2775  0.4313 -0.0452
  837MPD2    C112301   3.065   2.203  10.482 -0.5057  0.5193  0.0025
  837MPD2    C212302   3.043   2.333  10.449  0.9511  0.1331  0.4386
  837MPD2    C312303   2.975   2.416  10.530  0.0292  0.4789  0.4042
  837MPD2    C412304   2.938   2.369  10.652 -0.1486  0.0122  0.6123
  837MPD2    C512305   2.954   2.242  10.687  0.4867 -0.5131  0.1048
  837MPD2     H12306   3.075   2.364  10.350  0.1030  0.1956  0.1828
  837MPD2    H112307   2.877   2.429  10.719 -1.5973  1.2166 -1.7921
  837MPD2    H212308   3.051   2.062  10.638  1.3302 -0.1411 -2.6557
  837MPD2    H312309   2.910   2.205  10.779  1.1025 -3.2476 -0.6810
  837MPD2     N12310   2.963   2.546  10.480 -0.1299 -0.7112  0.4642
  837MPD2    H512311   3.000   2.573  10.390  2.3103 -1.7756  1.1656
  837MPD2    N112312   3.129   2.124  10.382 -0.2027  0.0338  0.2842
  837MPD2    H712313   3.144   2.185  10.301  2.3806 -0.9536  0.0150
  838MPD2     C12314   1.135   0.348  11.350  0.2267  0.1008  0.2033
  838MPD2    C112315   1.097   0.450  11.433 -0.1947  0.7687 -0.7517
  838MPD2    C212316   0.985   0.430  11.507 -0.0012 -0.7155 -0.1422
  838MPD2    C312317   0.892   0.334  11.481 -0.5281 -0.1277  0.3369
  838MPD2    C412318   0.920   0.240  11.387 -0.4375  0.0838  0.1299
  838MPD2    C512319   1.042   0.250  11.324  0.7732 -0.2934  0.0431
  838MPD2     H12320   0.957   0.504  11.582  1.0304 -1.6525  1.1713
  838MPD2    H112321   0.849   0.163  11.359  0.3791 -0.7775  0.4294
  838MPD2    H212322   1.238   0.357  11.317 -0.3987 -1.9496 -2.3033
  838MPD2    H312323   1.072   0.179  11.248  1.5953  1.1170 -0.9473
  838MPD2     N12324   0.778   0.331  11.565 -0.3560  0.0925 -0.4648
  838MPD2    H512325   0.752   0.401  11.634 -1.6893  0.2287 -1.1041
  838MPD2    N112326   1.186   0.552  11.478  0.2276 -0.2865  0.2063
  838MPD2    H712327   1.155   0.614  11.552 -0.4944  1.1282 -1.2740
  839MPD2     C12328   1.148   0.193  12.024  0.5425 -0.3528 -0.8325
  839MPD2    C112329   1.114   0.208  11.890 -0.2750 -0.1620 -0.8268
  839MPD2    C212330   1.193   0.287  11.810 -0.3842 -0.5515 -1.0448
  839MPD2    C312331   1.285   0.369  11.865 -0.2447  0.3998  0.5128
  839MPD2    C412332   1.314   0.361  11.999  0.4049  0.0811  0.5654
  839MPD2    C512333   1.247   0.271  12.072 -0.7804 -0.1966  0.1426
  839MPD2     H12334   1.185   0.292  11.702 -0.7654  0.2076 -0.9819
  839MPD2    H112335   1.383   0.435  12.037  0.2495  1.0971 -1.1899
  839MPD2    H212336   1.102   0.121  12.092  1.7866 -0.3440  0.0187
  839MPD2    H312337   1.271   0.272  12.177  0.2580  0.3074 -0.1024
  839MPD2     N12338   1.348   0.454  11.766  0.3405  0.3180  0.4145
  839MPD2    H512339   1.299   0.446  11.678 -1.8185  2.8182  1.3774
  839MPD2    N112340   1.015   0.131  11.825 -0.8470  0.3501  0.1495
  839MPD2    H712341   1.000   0.141  11.725 -2.3331  2.4969  0.5799
  840MPD2     C12342   1.705   2.635  10.483  0.1081 -0.6743 -0.4323
  840MPD2    C112343   1.660   2.639  10.613 -0.3685 -0.6000 -0.1708
  840MPD2    C212344   1.719   2.736  10.694 -0.2574  0.5132 -0.4456
  840MPD2    C312345   1.831   2.812  10.658  0.2384 -0.1111  0.3480
  840MPD2    C412346   1.879   2.796  10.529  0.0287 -0.2036  0.1478
  840MPD2    C512347   1.806   2.719  10.439  0.1019  0.3743 -0.3380
  840MPD2     H12348   1.666   2.754  10.788  0.5427 -0.2587  0.1554
  840MPD2    H112349   1.971   2.846  10.502 -0.2602 -0.3343 -1.0854
  840MPD2    H212350   1.666   2.575  10.401 -1.2092 -2.1462  1.2746
  840MPD2    H312351   1.850   2.692  10.344  0.2025  0.4572 -0.3156
  840MPD2     N12352   1.882   2.919  10.741  0.2176 -0.5621  0.1728
  840MPD2    H512353   1.964   2.962  10.699  0.0076 -0.2817  0.0451
  840MPD2    N112354   1.550   2.561  10.647  0.3169  0.4380 -0.3465
  840MPD2    H712355   1.511   2.506  10.571 -0.3189  2.0189 -1.1662
  841MPD2     C12356   1.405   2.026  15.044  0.4308 -0.6324 -0.1402
  841MPD2    C112357   1.374   2.030  14.914  0.8477  0.1839  0.4103
  841MPD2    C212358   1.308   2.145  14.868  0.6648  0.0189  0.3403
  841MPD2    C312359   1.296   2.255  14.950  0.5076  0.9758  0.3407
  841MPD2    C412360   1.338   2.254  15.084 -0.6874  0.2513 -0.3748
  841MPD2    C512361   1.405   2.142  15.122  0.4605  0.0263  0.2267
  841MPD2     H12362   1.259   2.146  14.771  3.3004 -1.0145 -1.0157
  841MPD2    H112363   1.328   2.343  15.146  1.8585 -0.7210  1.4072
  841MPD2    H212364   1.446   1.936  15.088  0.5255  0.1346  1.3112
  841MPD2    H312365   1.448   2.137  15.221 -1.0291  0.7660  0.9031
  841MPD2     N12366   1.223   2.368  14.916 -0.4496  0.4927 -0.2625
  841MPD2    H512367   1.235   2.440  14.987 -0.2291 -1.4837  1.7106
  841MPD2    N112368   1.401   1.918  14.834  0.2217  0.1607  0.5812
  841MPD2    H712369   1.442   1.837  14.880  0.1611  0.0407  0.4235
  842MPD2     C12370   1.532   3.632  17.051 -0.5784  0.2223 -0.4324
  842MPD2    C112371   1.441   3.528  17.054  0.5092  0.3567 -0.3547
  842MPD2    C212372   1.445   3.437  17.155 -0.2484  0.0291 -0.4197
  842MPD2    C312373   1.518   3.464  17.268 -0.0569  0.6523 -0.0315
  842MPD2    C412374   1.613   3.565  17.261 -0.2472 -1.0593 -0.0944
  842MPD2    C512375   1.618   3.653  17.157  0.4075  0.2865 -0.3285
  842MPD2     H12376   1.372   3.358  17.142  0.4068 -0.5699 -0.4784
  842MPD2    H112377   1.680   3.580  17.344 -0.7888  0.2328  0.1161
  842MPD2    H212378   1.542   3.702  16.968  0.3249  1.0731  0.3885
  842MPD2    H312379   1.685   3.739  17.150  0.3387  0.2822 -1.0726
  842MPD2     N12380   1.519   3.388  17.388  0.3655 -0.6299  0.1679
  842MPD2    H512381   1.589   3.417  17.456  0.0115 -1.3858  0.8499
  842MPD2    N112382   1.343   3.524  16.952 -0.9333 -0.6648  0.0077
  842MPD2    H712383   1.365   3.585  16.874  0.0976 -0.3366  0.5564
  843MPD2     C12384   3.443   3.735  17.489 -0.2229 -0.2013  0.7339
  843MPD2    C112385   3.556   3.718  17.568  0.5352  0.0300 -0.6292
  843MPD2    C212386   3.681   3.774  17.531 -0.7560 -0.1207  0.1690
  843MPD2    C312387   3.680   3.864  17.423 -0.2533 -0.3626 -0.3552
  843MPD2    C412388   3.558   3.892  17.357 -0.3016  0.0048 -0.7080
  843MPD2    C512389   3.449   3.818  17.386  0.3384  0.9053 -1.0226
  843MPD2     H12390   3.772   3.759  17.588 -0.9801  1.9506  1.0377
  843MPD2    H112391   3.559   3.956  17.270  3.1201  2.6326  1.2252
  843MPD2    H212392   3.350   3.681  17.507 -2.2023  2.6396 -0.9805
  843MPD2    H312393   3.357   3.832  17.330 -0.4136 -0.7160 -0.2099
  843MPD2     N12394   3.790   3.934  17.373 -0.2886 -0.3486  0.8215
  843MPD2    H512395   3.767   3.996  17.296  3.8854 -0.0890 -0.2451
  843MPD2    N112396   3.543   3.638  17.684  0.6307  0.2290 -0.3082
  843MPD2    H712397   3.450   3.602   0.006 -0.0561  0.6281 -2.8936
  844MPD2     C12398   1.650   2.637  16.900 -0.6772 -0.4922  0.6304
  844MPD2    C112399   1.752   2.585  16.832 -0.2303  0.4896  1.0909
  844MPD2    C212400   1.876   2.650  16.847  0.4268 -0.2942  0.2557
  844MPD2    C312401   1.891   2.768  16.915  0.4362  0.0270 -0.2244
  844MPD2    C412402   1.785   2.827  16.982  0.4868  0.7852  1.1259
  844MPD2    C512403   1.664   2.754  16.978  0.7275  0.2113 -0.6398
  844MPD2     H12404   1.965   2.609  16.801  0.1074 -3.4230  2.4242
  844MPD2    H112405   1.788   2.914  17.047 -0.3558  2.2389 -0.7682
  844MPD2    H212406   1.557   2.582  16.903 -2.4822  2.5518  0.3631
  844MPD2    H312407   1.578   2.773  17.041  0.0868 -1.9143 -0.8734
  844MPD2     N12408   2.016   2.819  16.924 -0.6179 -0.1019 -0.0505
  844MPD2    H512409   2.092   2.764  16.886 -0.8862 -0.4741 -0.0457
  844MPD2    N112410   1.752   2.489  16.727  0.0277 -0.8701  0.7329
  844MPD2    H712411   1.845   2.464  16.696  0.2142 -1.8207  2.0678
  845MPD2     C12412   2.278   3.768  16.891 -0.7954 -0.4908 -0.1600
  845MPD2    C112413   2.341   3.709  17.001  0.2411  0.1275 -0.3938
  845MPD2    C212414   2.341   3.572  17.014  0.0811  0.1779 -0.3685
  845MPD2    C312415   2.279   3.493  16.924  0.3645  0.6250 -0.0409
  845MPD2    C412416   2.200   3.554  16.827  0.1683  0.3398 -0.1644
  845MPD2    C512417   2.213   3.688  16.805 -0.1913  0.5083 -0.3745
  845MPD2     H12418   2.394   3.520  17.094  0.1259  0.4604 -0.2130
  845MPD2    H112419   2.150   3.492  16.754 -1.1415 -0.2842  1.2776
  845MPD2    H212420   2.278   3.877  16.884  2.6615 -0.3281  2.0501
  845MPD2    H312421   2.159   3.729  16.720  0.6756  2.7391  0.1704
  845MPD2     N12422   2.290   3.351  16.931  0.3473  0.2972  0.1379
  845MPD2    H512423   2.228   3.300  16.871 -0.3091 -0.6074  1.5769
  845MPD2    N112424   2.384   3.804  17.102 -0.0195  0.1756  0.6696
  845MPD2    H712425   2.391   3.901  17.072 -1.1509 -0.8845 -2.9703
  846MPD2     C12426   4.202   4.274  13.570 -0.6383 -0.2926  0.4262
  846MPD2    C112427   4.177   4.402  13.618 -0.1058 -0.1235  0.7447
  846MPD2    C212428   4.164   4.418  13.753 -0.2663 -0.3317 -0.1213
  846MPD2    C312429   4.187   4.311  13.836  0.2626  0.2946  0.4225
  846MPD2    C412430   4.224   4.183  13.786 -0.5332  0.3750  0.4239
  846MPD2    C512431   4.217   4.165  13.650  0.8404 -0.1488 -0.1645
  846MPD2     H12432   4.121   4.509  13.795  0.3876  0.2304 -0.6746
  846MPD2    H112433   4.229   4.100  13.856  0.6577 -2.0017 -2.5038
  846MPD2    H212434   4.213   4.256  13.463  1.0157 -3.3623  1.1196
  846MPD2    H312435   4.234   4.069  13.604 -1.0446 -0.8645  0.6299
  846MPD2     N12436   4.168   4.336  13.975 -0.3115 -0.2512  0.6092
  846MPD2    H512437   4.118   4.423  13.995  1.6692  1.6306 -2.6531
  846MPD2    N112438   4.143   4.513  13.535 -0.5531  0.2520 -0.0908
  846MPD2    H712439   4.104   4.597  13.577  0.2185  1.2949 -1.4524
  847MPD2     C12440   4.301   0.705  13.978 -0.8406  0.0839  0.7422
  847MPD2    C112441   4.277   0.673  14.109  0.4180  0.4885 -0.7649
  847MPD2    C212442   4.326   0.560  14.175  0.5652  0.5630  0.6159
  847MPD2    C312443   4.391   0.471  14.099  0.6026  0.1793  0.0629
  847MPD2    C412444   4.428   0.501  13.968  0.3468  0.9293 -1.0645
  847MPD2    C512445   4.378   0.616  13.914  0.0574 -0.5318 -0.2508
  847MPD2     H12446   4.323   0.555  14.283  0.2570 -2.4105  0.4633
  847MPD2    H112447   4.486   0.446  13.895 -1.2109 -0.6561 -1.1184
  847MPD2    H212448   4.259   0.792  13.929 -0.6145 -0.1842  0.0794
  847MPD2    H312449   4.406   0.625  13.809  1.2207  0.4066  0.1414
  847MPD2     N12450   4.466   0.363  14.161 -0.3528  0.4548 -0.8919
  847MPD2    H512451   4.544   0.322  14.111 -0.4550 -1.0635  0.1833
  847MPD2    N112452   4.215   0.770  14.196  0.6304  0.0319  0.1334
  847MPD2    H712453   4.228   0.743  14.293  0.8775  1.4873  0.5038
  848MPD2     C12454   1.766   3.474  16.734 -0.2087  0.5520 -0.4843
  848MPD2    C112455   1.826   3.551  16.829 -0.5429  0.0965 -1.3911
  848MPD2    C212456   1.861   3.683  16.795 -0.2544 -1.0476  0.4049
  848MPD2    C312457   1.831   3.734  16.668 -0.3243  0.8456 -0.5369
  848MPD2    C412458   1.763   3.657  16.579 -0.8986  0.4036 -0.1627
  848MPD2    C512459   1.734   3.527  16.613  0.0362 -0.7439 -0.0750
  848MPD2     H12460   1.907   3.742  16.873 -0.5415 -0.3770  0.0648
  848MPD2    H112461   1.736   3.696  16.481 -0.1168 -1.2021 -1.0158
  848MPD2    H212462   1.746   3.369  16.750  1.5880 -0.1129 -2.6432
  848MPD2    H312463   1.686   3.467  16.536 -0.5977 -0.5758  0.1822
  848MPD2     N12464   1.853   3.864  16.629 -0.7675 -0.1347 -0.4045
  848MPD2    H512465   1.825   3.881  16.533  1.0854  1.1241 -0.7446
  848MPD2    N112466   1.857   3.504  16.956 -0.3275 -0.3960 -0.1089
  848MPD2    H712467   1.925   3.562  17.004 -0.8421  0.5091 -0.4613
  849MPD2     C12468   0.940   3.367  14.196 -0.3178 -0.8644 -0.1798
  849MPD2    C112469   1.064   3.317  14.165 -0.5269  0.6754  0.1528
  849MPD2    C212470   1.138   3.251  14.265  0.2938 -0.9322  0.5419
  849MPD2    C312471   1.083   3.234  14.386 -0.4064  0.8324 -0.7944
  849MPD2    C412472   0.960   3.291  14.414 -0.5427  0.2794  0.0939
  849MPD2    C512473   0.891   3.358  14.320 -0.8315 -0.2688  0.1120
  849MPD2     H12474   1.234   3.208  14.238  0.3514 -1.0622  0.9540
  849MPD2    H112475   0.921   3.262  14.510 -1.6802 -1.7043 -0.9710
  849MPD2    H212476   0.876   3.416  14.125 -0.4539  1.3882  1.4936
  849MPD2    H312477   0.791   3.391  14.345 -0.5897  0.8891 -0.4279
  849MPD2     N12478   1.158   3.158  14.473 -0.9280 -0.7753  0.3003
  849MPD2    H512479   1.241   3.110  14.440 -1.0250 -1.3040  0.8203
  849MPD2    N112480   1.117   3.343  14.038  0.5288  0.8691 -0.0181
  849MPD2    H712481   1.047   3.374  13.971  0.6576  2.7849  0.7153
  850MPD2     C12482   3.943   1.280  14.879  0.0929 -0.2086  0.5824
  850MPD2    C112483   3.906   1.371  14.978 -1.2149  1.0596  0.2240
  850MPD2    C212484   4.010   1.425  15.056  0.4077 -0.3622 -0.0795
  850MPD2    C312485   4.139   1.378  15.044  0.0369  0.0938  0.3537
  850MPD2    C412486   4.174   1.289  14.946  0.0565 -0.8900 -0.5959
  850MPD2    C512487   4.071   1.251  14.859  0.0622 -0.3811  0.4220
  850MPD2     H12488   3.981   1.494  15.134 -2.4244 -0.1097 -1.3627
  850MPD2    H112489   4.276   1.257  14.934 -0.2146 -2.5876  1.5307
  850MPD2    H212490   3.876   1.243  14.803  0.4752  1.3847 -0.5260
  850MPD2    H312491   4.083   1.168  14.790 -1.3654  0.0961 -0.4034
  850MPD2     N12492   4.239   1.423  15.132 -0.3993  0.8230  0.0224
  850MPD2    H512493   4.324   1.369  15.125 -0.0565  1.3942 -0.2383
  850MPD2    N112494   3.767   1.410  14.990  0.0162  0.2889  0.3053
  850MPD2    H712495   3.719   1.379  14.906  1.5280 -0.4010 -0.2886
  851MPD2     C12496   4.296   1.344  15.624 -0.5151 -0.3013  0.0644
  851MPD2    C112497   4.203   1.268  15.557 -0.4587 -0.4663 -0.0166
  851MPD2    C212498   4.234   1.135  15.530  0.1202  0.3132 -0.2458
  851MPD2    C312499   4.354   1.080  15.573 -0.2944  0.2949  1.3409
  851MPD2    C412500   4.440   1.157  15.648 -0.1089 -0.3520 -0.0557
  851MPD2    C512501   4.412   1.287  15.668  0.2652 -0.1152  0.0702
  851MPD2     H12502   4.159   1.070  15.485  0.7572  0.2213 -1.1773
  851MPD2    H112503   4.529   1.116  15.695  1.0736  1.0315 -1.0736
  851MPD2    H212504   4.263   1.442  15.658  1.9481  0.8097 -0.7450
  851MPD2    H312505   4.474   1.345  15.735  1.6167  1.0542 -2.1619
  851MPD2     N12506   4.366   0.944  15.553  0.2215  0.0141  0.1631
  851MPD2    H512507   4.282   0.902  15.514 -0.8472  1.4360  0.9076
  851MPD2    N112508   4.075   1.322  15.521  0.0768 -0.0827 -0.7410
  851MPD2    H712509   4.047   1.414  15.554  2.1520  0.3554 -0.2277
  852MPD2     C12510   3.955   3.256   9.775 -0.7389  0.3556  0.5278
  852MPD2    C112511   3.952   3.331   9.895  0.5918 -0.6610 -0.9384
  852MPD2    C212512   4.005   3.460   9.895  0.7904  0.2338 -0.5195
  852MPD2    C312513   4.067   3.512   9.778  0.0270  0.6033  0.5871
  852MPD2    C412514   4.061   3.439   9.661  0.3364 -0.1803 -0.6820
  852MPD2    C512515   4.001   3.317   9.664  0.4255 -0.1239  0.4227
  852MPD2     H12516   4.005   3.513   9.990  2.7045  1.7953 -1.3962
  852MPD2    H112517   4.098   3.479   9.568 -1.1049 -0.5963 -1.4263
  852MPD2    H212518   3.922   3.153   9.774 -0.1437  0.1461  1.9191
  852MPD2    H312519   4.004   3.263   9.570  1.6722 -0.1002  0.4447
  852MPD2     N12520   4.112   3.646   9.784  0.4551 -0.1952  0.1405
  852MPD2    H512521   4.107   3.694   9.873  0.1198 -1.3536  0.7419
  852MPD2    N112522   3.908   3.288  10.020  0.0922  0.1726 -0.4131
  852MPD2    H712523   3.916   3.354  10.097 -0.7950  1.7520 -1.6730
  853MPD2     C12524   0.638   3.675  12.354 -0.3303 -0.0328 -0.1065
  853MPD2    C112525   0.711   3.796  12.366 -0.0125 -0.0123  0.0855
  853MPD2    C212526   0.763   3.860  12.253  0.0652 -0.2232  0.3799
  853MPD2    C312527   0.738   3.807  12.130 -0.8555 -0.5427 -0.2202
  853MPD2    C412528   0.681   3.684  12.126  0.0074 -0.0643  0.3868
  853MPD2    C512529   0.622   3.620  12.229 -0.0123 -0.0363  0.3656
  853MPD2     H12530   0.808   3.958  12.265  0.5662 -0.1123 -2.6021
  853MPD2    H112531   0.663   3.632  12.033  2.2952 -0.8096  0.3475
  853MPD2    H212532   0.595   3.622  12.438 -0.4208 -1.8214 -1.2747
  853MPD2    H312533   0.570   3.527  12.208  0.1012 -0.5938  2.5831
  853MPD2     N12534   0.801   3.864  12.017  0.3784  0.1501  0.4964
  853MPD2    H512535   0.863   3.943  12.035 -0.6219  1.4009 -1.5991
  853MPD2    N112536   0.719   3.839  12.500 -0.3598 -0.6419 -0.4871
  853MPD2    H712537   0.685   3.773  12.570  0.0644  0.0346  0.3529
  854MPD2     C12538   2.344   3.829  12.725 -0.0999  0.3130 -0.5114
  854MPD2    C112539   2.463   3.896  12.734 -0.2135 -0.1381  0.1676
  854MPD2    C212540   2.573   3.838  12.794 -0.1369 -0.4147  0.4697
  854MPD2    C312541   2.566   3.720  12.852  1.2257  0.6255  0.5521
  854MPD2    C412542   2.448   3.663  12.865  0.4621 -0.0396 -0.0262
  854MPD2    C512543   2.342   3.711  12.790  0.9079  0.5653 -0.3879
  854MPD2     H12544   2.673   3.879  12.786 -0.7467  1.0227  0.1727
  854MPD2    H112545   2.430   3.569  12.916 -0.7906 -0.5476 -1.4149
  854MPD2    H212546   2.250   3.871  12.688 -1.3478 -2.6547 -0.6628
  854MPD2    H312547   2.249   3.656  12.785  1.0029  0.4690 -1.0526
  854MPD2     N12548   2.679   3.662  12.924 -0.5088  0.0077  0.6724
  854MPD2    H512549   2.661   3.568  12.958 -1.4016 -0.3740 -0.8832
  854MPD2    N112550   2.465   4.020  12.676  0.4728  0.4081  0.8708
  854MPD2    H712551   2.389   4.052  12.617  1.1700 -1.3508 -0.9644
  855MPD2     C12552   3.525   3.680  13.593  0.1204 -0.6333  0.7071
  855MPD2    C112553   3.424   3.591  13.626 -0.6644  0.4902 -0.8283
  855MPD2    C212554   3.330   3.571  13.530  0.5990 -0.1153 -0.0961
  855MPD2    C312555   3.334   3.629  13.407  0.0051 -0.2613  0.1864
  855MPD2    C412556   3.432   3.723  13.378  0.3928  0.4633 -0.0774
  855MPD2    C512557   3.515   3.756  13.483 -0.1411 -0.0859  0.3397
  855MPD2     H12558   3.251   3.499  13.549  0.0340  0.1217 -1.5106
  855MPD2    H112559   3.441   3.775  13.284  0.6728  1.9474  0.7698
  855MPD2    H212560   3.603   3.710  13.662  1.9104 -2.3195 -0.5949
  855MPD2    H312561   3.586   3.836  13.463 -0.4798 -0.2242 -1.3658
  855MPD2     N12562   3.231   3.597  13.317 -0.3374  0.2793 -0.5745
  855MPD2    H512563   3.165   3.528  13.352 -0.6653  0.9529  0.1442
  855MPD2    N112564   3.407   3.539  13.756 -0.8539 -0.1717  0.3904
  855MPD2    H712565   3.318   3.494  13.771 -2.0666  1.5942 -1.4881
  856MPD2     C12566   0.272   4.461  13.587  0.0536 -0.3373  0.7075
  856MPD2    C112567   0.388   4.511  13.646  0.2216 -0.2925  0.2518
  856MPD2    C212568   0.378   4.636  13.712 -0.7099  0.8838  0.2295
  856MPD2    C312569   0.253   4.701  13.716  0.3924  0.1849  0.8082
  856MPD2    C412570   0.142   4.654  13.648  0.4511  0.4034 -0.4259
  856MPD2    C512571   0.156   4.533  13.587  0.1029  0.5139  0.9337
  856MPD2     H12572   0.466   4.671  13.764  0.1909 -0.2474 -0.5314
  856MPD2    H112573   0.044   4.701  13.638  1.0454  1.7254 -0.1243
  856MPD2    H212574   0.252   4.358  13.560  1.2960 -0.4089  0.0769
  856MPD2    H312575   0.068   4.475  13.560  0.3363  1.2915 -1.5275
  856MPD2     N12576   0.240   0.101  13.784 -0.0692  0.1640 -0.5969
  856MPD2    H512577   0.148   0.146  13.785 -0.4729 -0.6265 -1.7161
  856MPD2    N112578   0.508   4.434  13.639 -0.5580 -0.3664  0.2804
  856MPD2    H712579   0.586   4.461  13.698  0.4458 -0.1520 -1.1480
  857MPD2     C12580   1.624   1.978  12.877  0.2540  0.5433 -0.1134
  857MPD2    C112581   1.736   1.994  12.950 -0.2698  0.2997  0.1362
  857MPD2    C212582   1.756   2.105  13.030 -0.1428 -0.1791 -0.5095
  857MPD2    C312583   1.669   2.209  13.018  0.5979 -0.0593 -0.1384
  857MPD2    C412584   1.556   2.201  12.935 -0.1601  0.7634  0.6914
  857MPD2    C512585   1.533   2.088  12.864  0.2042  0.9114 -0.5451
  857MPD2     H12586   1.842   2.108  13.095 -0.1555 -0.4342 -0.4796
  857MPD2    H112587   1.475   2.273  12.934 -1.1074 -0.2743  2.5338
  857MPD2    H212588   1.613   1.890  12.814  2.3428 -0.1936  0.5640
  857MPD2    H312589   1.440   2.073  12.810 -0.2847  0.9708  0.2849
  857MPD2     N12590   1.695   2.322  13.095 -0.4511 -0.4972  0.2084
  857MPD2    H512591   1.768   2.311  13.165 -0.0834 -2.0311 -0.4156
  857MPD2    N112592   1.826   1.883  12.937  0.2750  0.3976  0.7199
  857MPD2    H712593   1.807   1.805  12.875  2.1793 -0.2922  1.0122
  858MPD2     C12594   2.250   0.845  16.973 -0.8245 -0.3091 -0.2085
  858MPD2    C112595   2.347   0.931  16.930 -0.0090  0.0829  0.6345
  858MPD2    C212596   2.375   1.042  17.008  0.0175 -0.3444 -0.2108
  858MPD2    C312597   2.311   1.059  17.133  0.1454 -0.1258 -0.2155
  858MPD2    C412598   2.212   0.973  17.168  0.3836  0.5557 -0.6166
  858MPD2    C512599   2.184   0.864  17.089  0.1713  0.2264 -0.8688
  858MPD2     H12600   2.447   1.114  16.973 -0.7012 -0.1000 -1.1861
  858MPD2    H112601   2.169   0.984  17.267  3.1892  0.6786  0.5913
  858MPD2    H212602   2.209   0.766  16.911  0.1320  0.4548 -1.8380
  858MPD2    H312603   2.103   0.801  17.124 -0.2341  1.0199 -0.3587
  858MPD2     N12604   2.335   1.169  17.223  0.3514 -0.1312 -0.2146
  858MPD2    H512605   2.269   1.167  17.301 -0.4841 -1.2778 -0.9545
  858MPD2    N112606   2.408   0.904  16.806 -1.3942 -0.0471 -0.0817
  858MPD2    H712607   2.370   0.821  16.761  0.4874 -1.5059  1.0061
  859MPD2     C12608   1.192   2.930  15.558 -0.2315  0.2598  0.1594
  859MPD2    C112609   1.273   2.985  15.459  0.6617  0.2834 -0.3867
  859MPD2    C212610   1.333   2.898  15.366  0.2602  0.1465 -0.2970
  859MPD2    C312611   1.336   2.761  15.382 -0.3487 -0.0085  0.4428
  859MPD2    C412612   1.260   2.707  15.483  0.0205  0.1825 -0.2491
  859MPD2    C512613   1.192   2.791  15.569  0.0082 -0.4223 -0.0740
  859MPD2     H12614   1.389   2.946  15.286 -2.0416  0.9753 -1.3954
  859MPD2    H112615   1.267   2.599  15.491 -1.6214 -0.0931 -2.5511
  859MPD2    H212616   1.143   2.987  15.637 -0.7823 -2.3019  1.6599
  859MPD2    H312617   1.131   2.737  15.641  3.4121 -0.7152  2.5810
  859MPD2     N12618   1.410   2.675  15.301  0.5295 -0.0289 -0.2927
  859MPD2    H512619   1.404   2.574  15.311 -2.1667  0.2798  1.3087
  859MPD2    N112620   1.290   3.124  15.436 -0.3368  0.1575  0.0004
  859MPD2    H712621   1.364   3.154  15.374  1.4810 -3.2113  0.5559
  860MPD2     C12622   3.928   3.366  11.595  0.1408  0.3501  0.1275
  860MPD2    C112623   3.936   3.440  11.712  0.1099  0.1094 -0.1186
  860MPD2    C212624   3.832   3.444  11.805 -0.2166 -0.0699 -0.7907
  860MPD2    C312625   3.719   3.365  11.783 -0.0127  0.5284 -0.0870
  860MPD2    C412626   3.711   3.283  11.674  0.4891 -0.7025 -0.6743
  860MPD2    C512627   3.808   3.298  11.574 -0.5153  0.4283 -0.2103
  860MPD2     H12628   3.842   3.502  11.895 -0.9801 -0.6700 -0.3178
  860MPD2    H112629   3.631   3.216  11.644 -0.6747  0.2178  0.3593
  860MPD2    H212630   4.004   3.359  11.518 -0.0639 -0.0491 -0.0378
  860MPD2    H312631   3.796   3.245  11.481 -2.5347  0.8650 -0.1966
  860MPD2     N12632   3.626   3.372  11.888 -0.4763 -0.2286 -0.3576
  860MPD2    H512633   3.646   3.427  11.970  0.7547 -1.9831  0.5216
  860MPD2    N112634   4.044   3.517  11.750  0.4238  0.0118  0.1965
  860MPD2    H712635   4.050   3.533  11.850  0.6155 -1.8481  0.4839
  861MPD2     C12636   2.064   1.550  11.433 -0.4840  0.4918 -0.5028
  861MPD2    C112637   2.121   1.653  11.500 -0.7782 -0.0463  0.5602
  861MPD2    C212638   2.126   1.771  11.435  0.0055  0.1741  0.3199
  861MPD2    C312639   2.086   1.784  11.302  0.0356  0.4949 -1.7083
  861MPD2    C412640   2.033   1.672  11.239 -0.5855  0.0035 -0.2609
  861MPD2    C512641   2.022   1.556  11.306 -0.4495 -0.6947 -0.4165
  861MPD2     H12642   2.178   1.859  11.471 -0.2898  1.3259 -2.0323
  861MPD2    H112643   1.999   1.686  11.138 -2.8427 -0.3988  0.4424
  861MPD2    H212644   2.054   1.451  11.476  1.4467  1.6515  2.5818
  861MPD2    H312645   1.987   1.467  11.256 -0.4291  0.2496 -2.1036
  861MPD2     N12646   2.088   1.907  11.229  0.3110 -0.1549 -0.1218
  861MPD2    H512647   2.049   1.902  11.136 -1.3272 -0.5376  0.5711
  861MPD2    N112648   2.168   1.637  11.630  0.1110 -0.0789  0.1175
  861MPD2    H712649   2.162   1.546  11.674 -0.4116 -0.4524 -0.7402
  862MPD2     C12650   2.174   2.492  10.590  0.6660 -0.2397 -0.5521
  862MPD2    C112651   2.200   2.374  10.657  0.6741  0.0714  1.0187
  862MPD2    C212652   2.246   2.272  10.580 -0.0861 -0.3454  0.3972
  862MPD2    C312653   2.269   2.275  10.448  0.0516  0.4853 -0.6473
  862MPD2    C412654   2.237   2.396  10.381  0.4138  0.4415  0.6614
  862MPD2    C512655   2.195   2.501  10.456 -0.2080 -0.5370  0.0562
  862MPD2     H12656   2.248   2.172  10.623  0.4303  0.3688  2.0495
  862MPD2    H112657   2.245   2.405  10.273  1.0477  1.0504  0.7606
  862MPD2    H212658   2.136   2.577  10.646 -1.9196 -2.4429  1.0655
  862MPD2    H312659   2.181   2.595  10.404 -2.6488 -0.9289 -0.0168
  862MPD2     N12660   2.312   2.157  10.389  0.0778 -0.1143  0.3041
  862MPD2    H512661   2.334   2.074  10.444  1.0041  1.1962  1.9285
  862MPD2    N112662   2.175   2.368  10.793  0.3538 -0.1506 -0.1809
  862MPD2    H712663   2.136   2.453  10.834 -1.0099 -1.6810  1.7270
  863MPD2     C12664   0.635   4.551  17.258  0.0819 -0.1059 -0.5144
  863MPD2    C112665   0.730   4.576  17.160  0.0006 -0.4457  0.4265
  863MPD2    C212666   0.856   4.519  17.162 -0.1756  0.1569  0.6807
  863MPD2    C312667   0.887   4.434  17.265 -0.2523  0.3325 -0.0245
  863MPD2    C412668   0.793   4.404  17.360  0.0058  0.0829 -0.0447
  863MPD2    C512669   0.666   4.460  17.361  0.0392  0.0420  0.2218
  863MPD2     H12670   0.931   4.548  17.089 -0.7986  2.8662  1.1133
  863MPD2    H112671   0.823   4.333  17.436  0.2330  0.4167  0.1802
  863MPD2    H212672   0.542   4.605  17.271 -1.1946 -2.3644 -0.2486
  863MPD2    H312673   0.595   4.426  17.435  1.1278  1.3000  1.8429
  863MPD2     N12674   1.016   4.381  17.286  0.2103 -0.4073  0.1548
  863MPD2    H512675   1.030   4.326  17.370  0.1848 -0.3779  0.1786
  863MPD2    N112676   0.695   4.680  17.064 -0.1483  0.1107  0.2222
  863MPD2    H712677   0.601   4.715  17.081 -0.5599 -0.7071 -0.3760
  864MPD2     C12678   0.924   1.264  17.097  0.4251 -0.7889  0.6562
  864MPD2    C112679   1.015   1.249  17.201  0.0486 -0.1347  0.4943
  864MPD2    C212680   1.091   1.359  17.232 -0.2280  0.3720  0.0820
  864MPD2    C312681   1.065   1.485  17.192  0.6378 -0.2408 -0.1871
  864MPD2    C412682   0.966   1.502  17.096  0.8857 -0.5295  0.6240
  864MPD2    C512683   0.894   1.389  17.052  0.3466 -0.3422 -0.3124
  864MPD2     H12684   1.187   1.337  17.277 -0.0841 -2.1596 -1.4485
  864MPD2    H112685   0.940   1.597  17.050 -0.2818 -0.2628  1.8256
  864MPD2    H212686   0.874   1.179  17.052 -3.0759  1.4289  0.4060
  864MPD2    H312687   0.826   1.407  16.970  0.0037  1.5856  0.3995
  864MPD2     N12688   1.149   1.596  17.226  0.8080 -0.0743  0.8134
  864MPD2    H512689   1.138   1.682  17.173 -1.9695  0.3436  2.0534
  864MPD2    N112690   1.048   1.118  17.232  0.2319 -0.3519  0.0305
  864MPD2    H712691   1.000   1.040  17.187  0.9224 -0.4599 -0.5348
  865MPD2     C12692   1.508   1.803  16.508  0.0165 -0.4664  0.3051
  865MPD2    C112693   1.528   1.687  16.578  0.2099 -0.5231  0.4275
  865MPD2    C212694   1.538   1.697  16.717 -0.3737  0.6431  0.9766
  865MPD2    C312695   1.499   1.814  16.779 -0.0600 -0.1536  0.4552
  865MPD2    C412696   1.476   1.932  16.705 -0.4450  0.6552 -0.4996
  865MPD2    C512697   1.491   1.933  16.568 -0.8835  0.3223 -0.1175
  865MPD2     H12698   1.571   1.614  16.779 -0.2754 -1.2378 -1.6173
  865MPD2    H112699   1.428   2.014  16.756 -1.4760 -0.0507 -0.3412
  865MPD2    H212700   1.506   1.793  16.400 -2.2258  1.0944  0.1969
  865MPD2    H312701   1.472   2.021  16.508 -1.2293 -1.4371 -2.5943
  865MPD2     N12702   1.489   1.823  16.925 -0.1740  0.2096 -0.0102
  865MPD2    H512703   1.452   1.908  16.967 -2.6789 -0.7401 -0.2482
  865MPD2    N112704   1.562   1.567  16.509  0.3150  0.1978  0.3290
  865MPD2    H712705   1.575   1.576  16.409  0.8310  0.5349  0.4237
  866MPD2     C12706   2.724   1.659  11.395  0.4634 -0.0986  1.1818
  866MPD2    C112707   2.780   1.788  11.391  0.8147  0.4461  0.4220
  866MPD2    C212708   2.714   1.890  11.460  0.3581 -0.2001 -0.0872
  866MPD2    C312709   2.591   1.864  11.528 -0.0940 -0.4544 -0.5157
  866MPD2    C412710   2.539   1.739  11.522  0.2100  0.6260 -0.5608
  866MPD2    C512711   2.604   1.638  11.457  0.0123  0.4400 -0.6859
  866MPD2     H12712   2.761   1.988  11.462 -0.7477  0.3659 -2.0276
  866MPD2    H112713   2.441   1.733  11.566  0.4114 -3.2186 -0.6895
  866MPD2    H212714   2.775   1.574  11.352 -1.7278  0.4836 -2.6184
  866MPD2    H312715   2.565   1.538  11.469 -0.0130  0.5778  0.3689
  866MPD2     N12716   2.527   1.964  11.606 -0.5180 -0.0966  0.6209
  866MPD2    H512717   2.426   1.953  11.619  0.0173 -2.1173  3.1372
  866MPD2    N112718   2.903   1.812  11.318 -0.5303 -0.1164  0.2226
  866MPD2    H712719   2.951   1.723  11.305 -0.5464 -0.1606  0.4747
  867MPD2     C12720   4.714   1.049  16.862 -0.3522  0.1267  0.5514
  867MPD2    C112721   0.097   1.037  16.951 -0.0313 -0.3814  0.5252
  867MPD2    C212722   0.133   1.153  17.021  0.8354 -0.3940 -0.1295
  867MPD2    C312723   0.058   1.267  17.026 -0.0135  0.1393 -0.1691
  867MPD2    C412724   4.667   1.265  16.945  0.7386 -0.6442 -0.5700
  867MPD2    C512725   4.651   1.168  16.861 -0.0558  0.3000  0.4662
  867MPD2     H12726   0.223   1.154  17.082 -0.9504  0.6626  2.4778
  867MPD2    H112727   4.592   1.342  16.948  3.6420  2.1610 -0.0631
  867MPD2    H212728   4.682   0.964  16.804 -2.0834  0.0489  1.6263
  867MPD2    H312729   4.562   1.178  16.800 -0.1857 -0.9397  0.4592
  867MPD2     N12730   0.078   1.391  17.092 -0.1170  0.9327  1.4273
  867MPD2    H512731   0.018   1.468  17.065 -3.3929 -2.0318  0.2645
  867MPD2    N112732   0.163   0.912  16.961 -0.1596  0.3811  0.5846
  867MPD2    H712733   0.138   0.844  16.890 -1.5846  1.4005  0.1252
  868MPD2     C12734   2.454   0.295  12.789  0.5029 -0.2927  0.5597
  868MPD2    C112735   2.488   0.177  12.861  0.5486 -0.0028 -0.3862
  868MPD2    C212736   2.376   0.109  12.907  0.2760 -0.3910 -0.7547
  868MPD2    C312737   2.241   0.137  12.880  0.7693 -0.3949  0.9254
  868MPD2    C412738   2.220   0.257  12.815 -0.1773 -0.4248  0.1871
  868MPD2    C512739   2.324   0.332  12.770 -0.0829 -0.5598 -0.1251
  868MPD2     H12740   2.386   0.016  12.961  0.5174  0.6867  1.0580
  868MPD2    H112741   2.125   0.308  12.810 -0.2129 -0.4871  0.2320
  868MPD2    H212742   2.530   0.366  12.760  1.0929 -0.7077  1.1047
  868MPD2    H312743   2.316   0.422  12.711 -2.2177 -1.4546 -1.2292
  868MPD2     N12744   2.137   0.046  12.902  0.2797 -0.5058 -0.2456
  868MPD2    H512745   2.157   4.676  12.936  0.4812  0.1547  1.4192
  868MPD2    N112746   2.623   0.152  12.896  0.1916  0.7000 -0.3078
  868MPD2    H712747   2.684   0.232  12.881 -2.0030  2.0807 -1.8130
  869MPD2     C12748   3.502   2.967   1.924 -0.0264  0.4104  0.1520
  869MPD2    C112749   3.594   2.965   1.821 -0.3228  0.2231 -0.5356
  869MPD2    C212750   3.581   3.047   1.716  0.2347  0.0330  0.0367
  869MPD2    C312751   3.465   3.115   1.691 -0.1496  0.2216  0.6058
  869MPD2    C412752   3.380   3.133   1.795  0.2157 -0.6697 -0.6277
  869MPD2    C512753   3.396   3.053   1.911 -0.6893 -0.1332  0.2438
  869MPD2     H12754   3.653   3.032   1.637 -0.4641  1.0671 -0.7922
  869MPD2    H112755   3.304   3.209   1.780  0.0942 -0.6573  0.0319
  869MPD2    H212756   3.521   2.905   2.010  0.3995  2.5921  1.6212
  869MPD2    H312757   3.334   3.063   1.999 -1.1575  1.8595 -0.3142
  869MPD2     N12758   3.435   3.204   1.582 -0.0285 -0.0703 -0.1920
  869MPD2    H512759   3.355   3.267   1.582 -0.4781 -0.6455 -2.0395
  869MPD2    N112760   3.718   2.898   1.846  0.0974  1.2820 -0.2957
  869MPD2    H712761   3.710   2.818   1.908  0.5472  0.6534 -1.0444
  870MPD2     C12762   2.593   2.240   2.324  0.2059 -0.1609 -0.3480
  870MPD2    C112763   2.717   2.207   2.273 -0.1170  0.6679  0.2858
  870MPD2    C212764   2.777   2.278   2.172 -0.0285 -0.1451 -0.5674
  870MPD2    C312765   2.708   2.384   2.110  0.3692 -0.4892 -0.2151
  870MPD2    C412766   2.593   2.427   2.167  0.3228  0.1865  0.1120
  870MPD2    C512767   2.533   2.355   2.267 -0.5281 -0.0963 -0.6452
  870MPD2     H12768   2.868   2.238   2.129  0.0429 -1.5863  0.9477
  870MPD2    H112769   2.525   2.500   2.125 -2.2629 -0.6397  2.9649
  870MPD2    H212770   2.542   2.191   2.406 -0.0821  2.1437  0.8506
  870MPD2    H312771   2.436   2.390   2.299 -0.4324  1.8362 -2.4797
  870MPD2     N12772   2.771   2.448   1.997  0.3224 -0.1440  0.4275
  870MPD2    H512773   2.859   2.410   1.965 -0.0371 -1.5177  1.0489
  870MPD2    N112774   2.781   2.092   2.331 -0.2602  0.4682 -0.0206
  870MPD2    H712775   2.734   2.045   2.408  1.3172  0.2982  0.8399
  871MPD2     C12776   3.991   1.946  16.739 -0.2272  0.4478  0.2061
  871MPD2    C112777   3.935   1.871  16.834  0.3029 -1.3672 -0.4456
  871MPD2    C212778   3.923   1.734  16.818 -0.2731 -0.0197 -0.7757
  871MPD2    C312779   3.978   1.669  16.707 -0.3486 -0.1653  0.2692
  871MPD2    C412780   4.038   1.751  16.609 -1.2626 -0.0493 -0.2933
  871MPD2    C512781   4.045   1.887  16.632 -0.8564 -0.6801 -0.2690
  871MPD2     H12782   3.884   1.672  16.899  0.6738 -0.4715 -0.6727
  871MPD2    H112783   4.089   1.710  16.523 -0.6760  0.1025 -0.0207
  871MPD2    H212784   4.007   2.051  16.759  1.0601  0.0407  1.3310
  871MPD2    H312785   4.095   1.943  16.554 -0.4133 -1.8839 -0.8323
  871MPD2     N12786   3.972   1.533  16.700 -0.0433 -0.1789 -0.3475
  871MPD2    H512787   3.929   1.484  16.777 -0.0390 -1.6020 -1.2529
  871MPD2    N112788   3.880   1.936  16.941  0.1117 -0.1467 -0.0620
  871MPD2    H712789   3.909   2.034  16.948 -0.5070  0.1163 -1.2815
  872MPD2     C12790   0.044   4.171  13.815  0.3806 -0.6221 -0.0814
  872MPD2    C112791   0.093   4.058  13.881 -0.0357  0.2381 -1.0274
  872MPD2    C212792   0.002   3.991  13.961  0.2518 -0.4694  0.2003
  872MPD2    C312793   4.595   4.035  13.983 -0.0350 -0.2209 -0.1844
  872MPD2    C412794   4.554   4.148  13.911 -0.1249  0.2502 -0.2642
  872MPD2    C512795   4.638   4.215  13.832  0.4097  0.4240 -0.1235
  872MPD2     H12796   0.039   3.903  14.012  0.7672 -0.1909  0.3055
  872MPD2    H112797   4.449   4.175  13.914  0.5979  2.6818  3.2132
  872MPD2    H212798   0.110   4.229  13.752 -1.5345  0.9839 -0.6118
  872MPD2    H312799   4.596   4.298  13.774 -0.1587  1.0155  1.1432
  872MPD2     N12800   4.492   3.965  14.058  0.2896 -0.2442 -0.2052
  872MPD2    H512801   4.400   4.005  14.073 -0.5468 -1.4321 -2.0908
  872MPD2    N112802   0.229   4.008  13.877  0.2808  0.0672 -0.0280
  872MPD2    H712803   0.257   3.921  13.920 -1.9623 -0.2448  0.8255
  873MPD2     C12804   2.225   4.333   1.288  0.2646  0.3453 -0.5602
  873MPD2    C112805   2.098   4.341   1.322  0.3980  0.1326  0.1333
  873MPD2    C212806   2.008   4.245   1.267 -0.6052 -0.3683 -0.6937
  873MPD2    C312807   2.051   4.163   1.165  0.4821  0.1291 -0.0369
  873MPD2    C412808   2.178   4.178   1.119  0.6086  0.6057  0.0053
  873MPD2    C512809   2.268   4.257   1.182  0.6821 -0.1500  1.0057
  873MPD2     H12810   1.907   4.240   1.305  0.2463 -1.1306  1.5017
  873MPD2    H112811   2.220   4.098   1.059  0.6919  1.6152 -1.2802
  873MPD2    H212812   2.301   4.395   1.336  1.3577 -0.4662 -1.2331
  873MPD2    H312813   2.370   4.274   1.153  1.0617 -1.9794  1.2350
  873MPD2     N12814   1.976   4.049   1.131 -0.6385  0.5908 -1.0625
  873MPD2    H512815   2.011   3.991   1.055 -3.4943 -0.3169 -1.6724
  873MPD2    N112816   2.071   4.426   1.429 -0.3123 -0.0855 -0.0504
  873MPD2    H712817   2.145   4.477   1.476 -0.5949  0.0584  0.2400
  874MPD2     C12818   1.094   4.067  16.587 -0.7056  0.6682  0.3641
  874MPD2    C112819   1.190   3.969  16.614 -0.8384 -0.0300  0.9533
  874MPD2    C212820   1.318   4.007  16.624  0.6787  0.3077  0.0041
  874MPD2    C312821   1.363   4.137  16.633 -0.5718 -0.1920 -0.1538
  874MPD2    C412822   1.264   4.234  16.616 -0.5277  0.1823  0.5845
  874MPD2    C512823   1.136   4.195  16.588  0.1679  0.4640  0.2956
  874MPD2     H12824   1.392   3.931  16.646  2.6084  2.5479  1.3844
  874MPD2    H112825   1.283   4.340  16.631 -0.1407 -0.0266  1.5768
  874MPD2    H212826   0.986   4.052  16.582 -0.6557  0.3997  0.0166
  874MPD2    H312827   1.057   4.270  16.590  0.9871  1.3845 -2.3494
  874MPD2     N12828   1.499   4.160  16.657 -0.1849  0.9228  0.5914
  874MPD2    H512829   1.557   4.079  16.673  0.2991  0.9887 -0.8657
  874MPD2    N112830   1.167   3.833  16.636  0.3111  0.4247 -0.4455
  874MPD2    H712831   1.245   3.769  16.648 -0.3669 -0.3785 -0.3452
  875MPD2     C12832   2.834   2.210  14.974 -0.1327  0.5958  0.1759
  875MPD2    C112833   2.708   2.267  14.970  0.0817 -0.4709  1.0983
  875MPD2    C212834   2.678   2.365  15.062  0.1903  0.4880  0.1760
  875MPD2    C312835   2.768   2.397  15.165 -0.0866  0.3923  0.4401
  875MPD2    C412836   2.895   2.334  15.176  0.1568 -0.2690 -0.3791
  875MPD2    C512837   2.922   2.247  15.075 -0.1663  0.2905 -0.1824
  875MPD2     H12838   2.590   2.427  15.053  0.6094  1.0738  0.1848
  875MPD2    H112839   2.967   2.362  15.252 -1.4080 -1.9254  1.6821
  875MPD2    H212840   2.866   2.137  14.900 -1.6627  1.2358 -1.1238
  875MPD2    H312841   3.024   2.211  15.071  0.4629  1.8615  1.8650
  875MPD2     N12842   2.722   2.491  15.263  0.1963  0.0136  0.5102
  875MPD2    H512843   2.630   2.528  15.242 -0.8952 -3.2909 -0.4768
  875MPD2    N112844   2.608   2.257  14.875  0.1077 -0.2151 -0.3998
  875MPD2    H712845   2.548   2.337  14.864  1.2453  0.6167 -0.5984
  876MPD2     C12846   1.126   3.450  15.822 -0.1076 -0.1546 -0.0341
  876MPD2    C112847   1.261   3.451  15.853  0.2737  0.2559  0.5825
  876MPD2    C212848   1.305   3.375  15.957  0.0416 -0.8164  0.2976
  876MPD2    C312849   1.219   3.278  16.012  0.0774  0.3759 -0.1510
  876MPD2    C412850   1.086   3.274  15.979 -0.0711  0.0634 -0.5722
  876MPD2    C512851   1.044   3.361  15.881  0.4934  0.6333  0.6226
  876MPD2     H12852   1.409   3.378  15.985 -0.1977  2.8692  0.8055
  876MPD2    H112853   1.020   3.195  16.013 -0.1799  0.6561  0.5683
  876MPD2    H212854   1.076   3.514  15.751  0.8107  3.2569  2.3942
  876MPD2    H312855   0.940   3.354  15.853  0.6844 -0.2075  0.1168
  876MPD2     N12856   1.280   3.189  16.104 -0.0229 -0.6283  0.3698
  876MPD2    H512857   1.381   3.202  16.105 -0.0895 -0.1035 -1.0310
  876MPD2    N112858   1.351   3.536  15.784 -0.4734 -0.0314  0.1147
  876MPD2    H712859   1.311   3.597  15.714 -0.2073  0.1427  0.1137
  877MPD2     C12860   1.357   4.031  15.226 -0.2527  0.5441 -0.1360
  877MPD2    C112861   1.486   4.029  15.263 -0.1266 -0.3176  0.0128
  877MPD2    C212862   1.581   4.087  15.187  0.2820  0.0647 -0.4079
  877MPD2    C312863   1.545   4.131  15.060 -0.6841  0.0473 -0.0475
  877MPD2    C412864   1.411   4.132  15.020  0.0032  0.1096  1.0475
  877MPD2    C512865   1.319   4.091  15.110  0.1783  0.1978 -0.2767
  877MPD2     H12866   1.684   4.090  15.218  0.1730 -1.9390  0.1148
  877MPD2    H112867   1.383   4.166  14.920 -0.9115 -1.5225  0.7468
  877MPD2    H212868   1.276   3.989  15.285 -1.1987  0.1638 -1.6978
  877MPD2    H312869   1.214   4.079  15.088 -0.0134  1.5003 -0.0650
  877MPD2     N12870   1.648   4.149  14.963 -0.0432 -0.0081  0.3464
  877MPD2    H512871   1.608   4.170  14.872  1.5538 -1.0718 -0.6095
  877MPD2    N112872   1.530   3.957  15.372 -0.7837 -0.0050  0.5188
  877MPD2    H712873   1.630   3.953  15.386 -0.8479  2.4134  1.7591
  878MPD2     C12874   1.075   3.043  13.077  0.7509 -0.0508  0.0880
  878MPD2    C112875   1.152   3.159  13.067  0.4250  0.3604  0.0653
  878MPD2    C212876   1.197   3.214  13.188  0.0149 -0.2938  0.0434
  878MPD2    C312877   1.171   3.147  13.307 -0.0422 -0.4651 -0.3920
  878MPD2    C412878   1.088   3.034  13.310  0.0986 -0.3380  0.1204
  878MPD2    C512879   1.046   2.983  13.194 -0.0035  0.6850 -0.1517
  878MPD2     H12880   1.253   3.306  13.176 -0.8738  0.5706  2.7300
  878MPD2    H112881   1.058   2.989  13.404 -3.0853 -0.0598 -0.7638
  878MPD2    H212882   1.026   3.009  12.987 -1.0748  0.0506  1.0500
  878MPD2    H312883   0.988   2.891  13.193 -1.0312  1.3515 -1.7406
  878MPD2     N12884   1.238   3.199  13.425 -0.1180 -0.2452 -1.5942
  878MPD2    H512885   1.292   3.282  13.401 -2.6694  1.5993 -0.9941
  878MPD2    N112886   1.175   3.204  12.933  0.0966 -0.2267  0.1860
  878MPD2    H712887   1.136   3.142  12.863 -0.5560 -1.2622  1.4858
  879MPD2     C12888   1.781   4.555  17.040  0.7644 -0.7055  0.1221
  879MPD2    C112889   1.833   4.444  17.108 -0.7511  0.5539 -0.0162
  879MPD2    C212890   1.771   4.324  17.097  0.4109 -0.7857  0.4048
  879MPD2    C312891   1.658   4.317  17.028  0.2474  0.4050  0.3449
  879MPD2    C412892   1.609   4.427  16.960  0.5784  0.7713  0.7578
  879MPD2    C512893   1.675   4.547  16.958  0.7231  0.1942 -0.4479
  879MPD2     H12894   1.816   4.236  17.144  0.4307 -1.7040 -1.3107
  879MPD2    H112895   1.518   4.427  16.901  0.2485  1.1188  1.2580
  879MPD2    H212896   1.828   4.652  17.052 -0.9432  0.0112  1.0788
  879MPD2    H312897   1.630   4.630  16.904 -0.1822 -0.5045 -0.7696
  879MPD2     N12898   1.584   4.196  17.023 -0.3344  0.4598 -0.0849
  879MPD2    H512899   1.507   4.192  16.957  2.7020 -0.9827 -3.5404
  879MPD2    N112900   1.937   4.474  17.202  0.6889  0.2325 -0.2295
  879MPD2    H712901   1.959   4.572  17.214  2.1750 -0.0766 -0.4225
  880MPD2     C12902   3.493   1.558   0.711  0.1021  0.3392 -0.4325
  880MPD2    C112903   3.446   1.613   0.829  1.0181  0.8090  0.6167
  880MPD2    C212904   3.390   1.533   0.924  0.1712 -0.5634  0.1562
  880MPD2    C312905   3.378   1.394   0.897  0.2689 -0.0955 -0.0464
  880MPD2    C412906   3.406   1.343   0.775 -0.5187  0.0439  0.3484
  880MPD2    C512907   3.459   1.430   0.678  0.1138 -0.7127  1.4435
  880MPD2     H12908   3.357   1.568   1.021  1.6076  0.6488  0.2025
  880MPD2    H112909   3.414   1.237   0.754  0.2672  0.0876  0.4517
  880MPD2    H212910   3.537   1.617   0.631 -1.0365  1.2328 -0.4104
  880MPD2    H312911   3.490   1.393   0.581  1.9864  0.5447  1.5574
  880MPD2     N12912   3.317   1.316   1.000  0.4802  0.4686 -0.0767
  880MPD2    H512913   3.310   1.354   1.094 -0.0382 -1.2499  0.5799
  880MPD2    N112914   3.439   1.757   0.844 -0.1484  0.1885 -0.2441
  880MPD2    H712915   3.461   1.808   0.759  0.1856  0.5976  0.0927
  881MPD2     C12916   3.119   2.531   0.344 -0.0101  0.4103  0.3477
  881MPD2    C112917   3.149   2.402   0.325  0.2821 -1.2057 -0.8709
  881MPD2    C212918   3.170   2.326   0.439  0.6171  0.5947  0.7784
  881MPD2    C312919   3.132   2.375   0.562 -0.4429 -1.0361 -0.2991
  881MPD2    C412920   3.066   2.493   0.574 -0.0171  0.2542  0.1900
  881MPD2    C512921   3.068   2.579   0.464 -0.0510  0.4442 -0.3502
  881MPD2     H12922   3.223   2.232   0.425 -0.0633  0.0520  1.7954
  881MPD2    H112923   3.035   2.533   0.670 -2.0827  0.0992 -0.4077
  881MPD2    H212924   3.107   2.591   0.255  0.8053  1.0616  0.6738
  881MPD2    H312925   3.035   2.682   0.472  2.0436  1.1430 -0.6103
  881MPD2     N12926   3.148   2.297   0.686  0.3190 -0.2422 -0.0813
  881MPD2    H512927   3.126   2.341   0.775  0.3569 -0.5601  0.0819
  881MPD2    N112928   3.193   2.360   0.196 -0.2522  0.1482 -0.1244
  881MPD2    H712929   3.187   2.432   0.124 -0.7967 -1.5402 -1.7640
  882MPD2     C12930   1.651   3.871  14.203 -0.6233 -0.2922  0.4074
  882MPD2    C112931   1.617   3.923  14.322 -0.0563  0.0414 -0.3768
  882MPD2    C212932   1.477   3.934  14.353 -0.0824  0.7906  0.9606
  882MPD2    C312933   1.383   3.895  14.265 -0.6774 -0.5814 -0.3573
  882MPD2    C412934   1.417   3.851  14.138  0.1645 -0.2075 -0.5690
  882MPD2    C512935   1.555   3.838  14.112 -0.3218  0.6220  0.5964
  882MPD2     H12936   1.440   3.976  14.446  0.4871 -0.1727  1.6201
  882MPD2    H112937   1.347   3.821  14.061 -0.7382  0.4522 -0.0053
  882MPD2    H212938   1.746   3.859  14.152 -0.6612  0.8226  0.0797
  882MPD2    H312939   1.582   3.800  14.014 -2.7814 -1.8232  0.8685
  882MPD2     N12940   1.242   3.894  14.294  0.3386 -0.0404  0.4146
  882MPD2    H512941   1.178   3.847  14.232  0.0783 -0.6861  1.1771
  882MPD2    N112942   1.718   3.949  14.423  0.1122  0.4668  0.1154
  882MPD2    H712943   1.809   3.919  14.387  0.1850  2.1559 -1.0869
  883MPD2     C12944   2.825   4.362  15.973  0.4431 -0.1898  0.4120
  883MPD2    C112945   2.955   4.327  15.934 -0.1575  0.3088  0.1787
  883MPD2    C212946   3.061   4.363  16.016 -0.0908 -0.3070 -0.2372
  883MPD2    C312947   3.045   4.418  16.136 -0.2339  0.3773  0.4298
  883MPD2    C412948   2.915   4.462  16.169  0.0669 -0.2119  0.3235
  883MPD2    C512949   2.809   4.421  16.097  0.1733 -0.0070 -1.0314
  883MPD2     H12950   3.160   4.332  15.985  0.6155  1.9684 -0.2067
  883MPD2    H112951   2.912   4.516  16.264 -1.5480 -2.2963  1.4580
  883MPD2    H212952   2.742   4.341  15.907  1.1118  1.1948 -0.8872
  883MPD2    H312953   2.709   4.442  16.134  0.2689 -0.4670 -0.5029
  883MPD2     N12954   3.163   4.439  16.213 -0.4255  0.1612 -0.0035
  883MPD2    H512955   3.251   4.413  16.170 -1.8158 -0.1317 -2.6435
  883MPD2    N112956   2.983   4.266  15.812  0.2179 -0.2858  0.1159
  883MPD2    H712957   3.077   4.237  15.787  0.4892 -0.6934  1.6280
  884MPD2     C12958   0.351   4.524  15.888 -0.0477  0.4363 -0.2203
  884MPD2    C112959   0.377   4.512  15.751 -0.0197  0.0559  0.7131
  884MPD2    C212960   0.300   4.578  15.658 -0.0305  0.7130  0.5038
  884MPD2    C312961   0.191   4.639  15.703  1.0127 -0.0055 -0.2718
  884MPD2    C412962   0.160   4.647  15.843  0.4665  0.4026  0.4328
  884MPD2    C512963   0.239   4.585  15.934  0.7004 -0.4011  0.7149
  884MPD2     H12964   0.310   4.587  15.550  1.9015 -0.7239  0.5728
  884MPD2    H112965   0.072   4.697  15.883  0.3405  0.2341  0.3675
  884MPD2    H212966   0.420   4.487  15.963  0.5715  2.6588  0.2817
  884MPD2    H312967   0.220   4.590  16.040  2.0935  2.1665  0.8403
  884MPD2     N12968   0.103   4.696  15.605 -0.9271  0.0557  0.2393
  884MPD2    H512969   0.125   4.677  15.508  0.4488 -0.7541  0.7229
  884MPD2    N112970   0.492   4.453  15.695  0.2859 -0.1197  0.5824
  884MPD2    H712971   0.494   4.451  15.594 -2.7703  2.1806  0.4724
  885MPD2     C12972   3.180   0.213   0.248 -0.3235  0.5345 -0.7566
  885MPD2    C112973   3.286   0.184   0.162 -0.1743  0.3896  0.6016
  885MPD2    C212974   3.289   0.257   0.037  0.0579  0.2509  0.2156
  885MPD2    C312975   3.195   0.346   0.010 -0.9648 -0.1082  0.3209
  885MPD2    C412976   3.103   0.378   0.104  0.6094  0.1574  0.5524
  885MPD2    C512977   3.086   0.301   0.215  0.4510 -0.3968  0.4667
  885MPD2     H12978   3.366   0.227  17.663 -1.1216 -0.1374 -0.9049
  885MPD2    H112979   3.042   0.467   0.092  1.4932  0.5386 -1.1218
  885MPD2    H212980   3.176   0.173   0.349 -0.3088  1.5556 -0.3560
  885MPD2    H312981   3.006   0.315   0.287  0.4919 -0.4872  0.5296
  885MPD2     N12982   3.205   0.404  17.580  0.2392  0.2263  0.1201
  885MPD2    H512983   3.262   0.356  17.511  1.2790  0.6429  0.7016
  885MPD2    N112984   3.390   0.102   0.211 -0.1570  0.5369  0.1984
  885MPD2    H712985   3.374   0.068   0.305  2.7643  1.0234  0.8685
  886MPD2     C12986   4.582   3.309  15.546 -0.1565 -0.5125  0.9805
  886MPD2    C112987   4.676   3.339  15.641 -0.9639  1.1780 -0.7633
  886MPD2    C212988   0.020   3.457  15.618  0.5773 -0.2159  0.1806
  886MPD2    C312989   0.007   3.525  15.496  0.5877  0.3248 -0.5988
  886MPD2    C412990   4.644   3.478  15.398 -0.0636  0.2585 -0.1729
  886MPD2    C512991   4.572   3.375  15.427 -0.5596 -0.3525 -0.2092
  886MPD2     H12992   0.107   3.481  15.678 -0.1630 -2.8229  2.3362
  886MPD2    H112993   4.617   3.528  15.306 -2.3092  1.8415  1.3283
  886MPD2    H212994   4.535   3.212  15.532 -0.7001 -0.0412 -0.3843
  886MPD2    H312995   4.506   3.330  15.353 -1.1026  0.5028 -0.2374
  886MPD2     N12996   0.080   3.639  15.469 -0.1853 -0.0089  0.2860
  886MPD2    H512997   0.055   3.679  15.379 -2.7261 -1.7512  0.2076
  886MPD2    N112998   4.722   3.252  15.740  0.1052 -0.5647 -0.0098
  886MPD2    H712999   0.072   3.281  15.803 -0.6744 -1.0417  1.1274
  887MPD2     C13000   0.434   3.219  16.316 -0.7277  0.2847 -0.2960
  887MPD2    C113001   0.402   3.242  16.186  0.1246 -0.0944 -0.2142
  887MPD2    C213002   0.498   3.309  16.109 -0.0471  0.0082 -0.4387
  887MPD2    C313003   0.602   3.369  16.169  0.4672  0.3045  0.7533
  887MPD2    C413004   0.635   3.339  16.300 -0.7096  0.5713  0.0484
  887MPD2    C513005   0.554   3.259  16.378  0.6398  0.0101 -0.3884
  887MPD2     H13006   0.475   3.347  16.010 -2.7083 -0.7605 -0.1063
  887MPD2    H113007   0.715   3.387  16.356 -1.1975  0.5791  0.7415
  887MPD2    H213008   0.363   3.175  16.385  2.0460 -0.6186  2.0052
  887MPD2    H313009   0.574   3.255  16.484  1.3763 -0.6955 -0.5530
  887MPD2     N13010   0.671   3.478  16.101  0.3650 -0.1515  0.4955
  887MPD2    H513011   0.660   3.489  16.001  0.5765  2.2034  0.7239
  887MPD2    N113012   0.281   3.205  16.122 -0.0545 -0.0185  0.1342
  887MPD2    H713013   0.284   3.231  16.024  0.0248 -0.8853 -0.0954
  888MPD2     C13014   2.652   3.634  14.794  0.3367  0.1945  0.2018
  888MPD2    C113015   2.648   3.687  14.924  0.4903 -0.1569 -0.1418
  888MPD2    C213016   2.746   3.782  14.956  0.3522  0.4838  0.3654
  888MPD2    C313017   2.841   3.830  14.868  0.7547 -0.1635  0.0411
  888MPD2    C413018   2.844   3.770  14.744  0.2052 -0.0857 -0.1670
  888MPD2    C513019   2.746   3.683  14.706 -0.5823 -0.6384 -0.8480
  888MPD2     H13020   2.756   3.822  15.056  0.8717  1.4698 -0.0839
  888MPD2    H113021   2.899   3.808  14.659  1.9868 -0.1096  0.9786
  888MPD2    H213022   2.572   3.575  14.750 -0.1573  0.6967  0.4138
  888MPD2    H313023   2.749   3.659  14.600 -0.0467  0.8566 -1.1835
  888MPD2     N13024   2.936   3.925  14.912  0.0549 -0.6819 -0.2248
  888MPD2    H513025   2.935   3.958  15.008 -1.5211 -0.0442 -0.4608
  888MPD2    N113026   2.574   3.629  15.036  0.4552  0.1805 -0.2189
  888MPD2    H713027   2.596   3.668  15.127  0.6367 -0.3678 -0.0259
  889MPD2     C13028   1.903   3.108  12.974  0.9346  0.2156 -0.4591
  889MPD2    C113029   1.868   3.109  13.101  0.0514  0.1232  0.5913
  889MPD2    C213030   1.902   3.221  13.176 -0.6833 -0.2763  0.1489
  889MPD2    C313031   1.925   3.342  13.112 -0.5753 -0.4931 -0.0555
  889MPD2    C413032   1.944   3.342  12.974  0.2153 -0.0523 -0.2710
  889MPD2    C513033   1.931   3.226  12.909 -0.5056 -0.4478  0.5293
  889MPD2     H13034   1.881   3.222  13.282 -2.2303 -0.4465 -0.1525
  889MPD2    H113035   1.964   3.427  12.910 -1.9174  0.5559 -0.1409
  889MPD2    H213036   1.884   3.023  12.910  0.6235  0.3218 -0.5069
  889MPD2    H313037   1.948   3.228  12.802  0.2532 -0.4881  0.6479
  889MPD2     N13038   1.920   3.464  13.189  0.9692 -0.1951  0.4349
  889MPD2    H513039   1.925   3.460  13.290 -1.3920 -0.0742  0.5624
  889MPD2    N113040   1.830   2.989  13.163  0.2134  0.0593  0.3097
  889MPD2    H713041   1.829   2.986  13.265  0.4018 -3.5211  0.2297
  890MPD2     C13042   1.739   0.437  15.261 -0.0840  0.5667 -0.1063
  890MPD2    C113043   1.653   0.365  15.180 -0.1495 -0.6518  0.2869
  890MPD2    C213044   1.593   0.257  15.246  0.5842 -0.0526 -0.5674
  890MPD2    C313045   1.616   0.223  15.378 -0.5338  0.2970 -0.2936
  890MPD2    C413046   1.693   0.304  15.454 -0.4459 -0.3749  0.3445
  890MPD2    C513047   1.746   0.422  15.402  0.0503  0.2397 -0.0035
  890MPD2     H13048   1.525   0.190  15.194 -0.5548  0.4231  0.3125
  890MPD2    H113049   1.713   0.282  15.558 -2.2333 -1.4868  0.4617
  890MPD2    H213050   1.787   0.530  15.231 -0.4596  1.4112  1.8999
  890MPD2    H313051   1.811   0.480  15.467  1.4988 -1.2246 -0.1429
  890MPD2     N13052   1.556   0.108  15.430  0.4637  0.0324 -0.1111
  890MPD2    H513053   1.489   0.070  15.364 -1.5567  0.3489  1.7700
  890MPD2    N113054   1.636   0.404  15.047  0.9176 -0.0752  0.6459
  890MPD2    H713055   1.686   0.485  15.013  0.0293 -0.3435 -1.2780
  891MPD2     C13056   4.126   3.561  16.486  0.3427  0.4070 -0.1344
  891MPD2    C113057   4.060   3.549  16.602 -0.7012  0.3123  0.1931
  891MPD2    C213058   4.138   3.521  16.718  0.3649 -0.2075  1.0088
  891MPD2    C313059   4.278   3.518  16.713  0.0536  0.3580 -0.0579
  891MPD2    C413060   4.337   3.543  16.593  1.3174 -0.5040  0.3521
  891MPD2    C513061   4.260   3.556  16.482 -0.5545  0.3956 -0.1625
  891MPD2     H13062   4.084   3.506  16.811 -0.1117 -0.1961  0.7317
  891MPD2    H113063   4.442   3.537  16.571  0.9344 -1.2501 -1.2801
  891MPD2    H213064   4.078   3.576  16.390 -0.0046 -1.5821 -0.2551
  891MPD2    H313065   4.308   3.560  16.385 -1.8204 -2.6656 -0.9192
  891MPD2     N13066   4.352   3.492  16.832  0.1675  0.0095 -0.1072
  891MPD2    H513067   4.295   3.481  16.915  0.2715 -0.6015 -0.1132
  891MPD2    N113068   3.920   3.571  16.603  0.5816 -0.1967 -0.0440
  891MPD2    H713069   3.880   3.593  16.512  1.6260 -0.3661 -0.5395
  892MPD2     C13070   0.672   4.165  15.087  0.0539  0.4682  0.3658
  892MPD2    C113071   0.576   4.137  14.987 -0.3074  0.5190  0.5232
  892MPD2    C213072   0.623   4.110  14.863  0.3347 -0.1352 -0.3172
  892MPD2    C313073   0.758   4.083  14.844  0.5492 -0.5587 -0.7225
  892MPD2    C413074   0.850   4.102  14.945 -0.0028  0.1277 -0.3483
  892MPD2    C513075   0.807   4.145  15.068  0.7818 -0.1005 -0.2867
  892MPD2     H13076   0.565   4.137  14.776 -1.8313  0.0262  1.1935
  892MPD2    H113077   0.954   4.071  14.940  1.0980  4.0211 -1.6710
  892MPD2    H213078   0.642   4.191  15.188  0.3406 -0.4641  0.6909
  892MPD2    H313079   0.878   4.160  15.149  1.5252 -0.4701 -0.8725
  892MPD2     N13080   0.811   4.037  14.721 -0.3966 -0.1007  0.1763
  892MPD2    H513081   0.910   4.015  14.726 -0.4374 -0.5828 -1.0357
  892MPD2    N113082   0.446   4.184  15.001 -0.0190 -0.4964  0.1882
  892MPD2    H713083   0.390   4.174  14.917 -1.4987 -0.3602  1.1533
  893MPD2     C13084   3.004   1.934   2.840  0.1371  0.2667  0.1321
  893MPD2    C113085   2.952   2.020   2.744 -0.2585  0.4857 -0.6770
  893MPD2    C213086   2.811   2.011   2.712  0.5679 -0.4005  0.1599
  893MPD2    C313087   2.739   1.906   2.767  0.0585 -0.2339  0.2844
  893MPD2    C413088   2.798   1.823   2.860 -0.0767  0.3324 -0.0992
  893MPD2    C513089   2.926   1.841   2.900 -0.3930 -1.2200 -0.1199
  893MPD2     H13090   2.762   2.082   2.647 -0.5306 -2.7823 -1.6310
  893MPD2    H113091   2.752   1.733   2.899 -1.0469  0.5199 -0.8279
  893MPD2    H213092   3.111   1.938   2.856  0.0838  0.1566  0.5148
  893MPD2    H313093   2.967   1.778   2.977 -1.2249 -1.4139  0.1651
  893MPD2     N13094   2.605   1.886   2.745  0.3866  0.3116 -0.4093
  893MPD2    H513095   2.558   1.809   2.792  1.1886  0.2089  0.2094
  893MPD2    N113096   3.038   2.112   2.681  0.0494  0.0482 -0.1049
  893MPD2    H713097   3.136   2.105   2.702  0.2565  0.7494 -0.8216
  894MPD2     C13098   4.563   0.270   1.276  0.0047 -0.3405  0.6875
  894MPD2    C113099   4.633   0.188   1.363 -0.8979 -0.3137 -0.8555
  894MPD2    C213100   0.045   0.199   1.359  0.0956 -0.0942 -0.0696
  894MPD2    C313101   0.105   0.279   1.269  0.2294 -0.4258  0.2011
  894MPD2    C413102   0.035   0.346   1.176  0.4790 -0.6297  0.1457
  894MPD2    C513103   4.629   0.344   1.182  0.2237 -0.4790  0.0526
  894MPD2     H13104   0.094   0.139   1.434 -0.7900 -1.1373 -0.3326
  894MPD2    H113105   0.076   0.398   1.091 -0.8346  0.2244  0.0353
  894MPD2    H213106   4.455   0.269   1.270 -0.0153 -0.5093  1.0869
  894MPD2    H313107   4.574   0.399   1.106  0.0792 -1.1459 -0.3202
  894MPD2     N13108   0.246   0.275   1.271  1.0735 -0.6911 -0.1190
  894MPD2    H513109   0.286   0.210   1.338  1.7220  0.7309  0.8719
  894MPD2    N113110   4.578   0.088   1.441 -0.2419 -1.3471  0.3737
  894MPD2    H713111   4.638   0.014   1.476  0.1796 -0.2407  1.9718
  895MPD2     C13112   0.196   3.345  13.789  0.3333  1.0456 -0.3813
  895MPD2    C113113   0.073   3.366  13.733 -0.4944 -0.0710  0.1244
  895MPD2    C213114   0.014   3.259  13.676 -0.4237 -0.0903  0.6196
  895MPD2    C313115   0.074   3.139  13.668  0.3496  0.4213  0.1360
  895MPD2    C413116   0.192   3.120  13.734 -0.2429 -0.3778 -0.4628
  895MPD2    C513117   0.259   3.223  13.791 -0.0859 -0.6128 -0.4565
  895MPD2     H13118   4.637   3.272  13.639 -0.0353 -0.1484 -0.4414
  895MPD2    H113119   0.226   3.019  13.755 -0.4132 -0.1855  0.6882
  895MPD2    H213120   0.247   3.428  13.837  0.4037  0.8721 -0.1591
  895MPD2    H313121   0.349   3.214  13.851 -1.3567  0.6172  1.6611
  895MPD2     N13122   0.018   3.029  13.599 -0.1365 -0.3356  0.2493
  895MPD2    H513123   0.039   2.935  13.631  0.2005  0.2628  1.8062
  895MPD2    N113124   0.006   3.494  13.746  0.0879 -0.8125 -0.1311
  895MPD2    H713125   4.639   3.504  13.700 -0.0525  1.5053  0.6724
  896MPD2     C13126   1.780   1.073   2.207  0.3092  0.2474 -0.0292
  896MPD2    C113127   1.838   1.052   2.082  0.1203  0.0387 -0.3750
  896MPD2    C213128   1.767   0.972   1.993 -0.2728  0.2890  0.1770
  896MPD2    C313129   1.650   0.910   2.031  0.3219  0.3894 -0.7464
  896MPD2    C413130   1.594   0.929   2.157 -1.2017 -0.9259 -0.4934
  896MPD2    C513131   1.661   1.011   2.241  0.1030  0.1260  0.3405
  896MPD2     H13132   1.809   0.953   1.895  0.2355  0.3307  0.3878
  896MPD2    H113133   1.499   0.892   2.195 -0.1330  0.2032  3.2636
  896MPD2    H213134   1.827   1.144   2.274  0.1621  0.4207 -0.1079
  896MPD2    H313135   1.618   1.009   2.341  0.8719 -0.0100  0.6665
  896MPD2     N13136   1.584   0.841   1.931  0.1294  0.0744  0.1646
  896MPD2    H513137   1.646   0.802   1.860  1.7341  0.2928  1.4551
  896MPD2    N113138   1.960   1.127   2.048 -0.2260  0.1486  0.3845
  896MPD2    H713139   2.011   1.176   2.120 -0.6692 -0.1758  0.9212
  897MPD2     C13140   3.385   2.490  10.680  0.1031 -0.0491  0.5763
  897MPD2    C113141   3.321   2.608  10.701 -0.3480 -0.0240  0.4847
  897MPD2    C213142   3.198   2.610  10.767  0.0453  0.5195 -0.1287
  897MPD2    C313143   3.166   2.496  10.845 -0.0090 -0.1756 -0.3826
  897MPD2    C413144   3.243   2.382  10.832  1.1146  0.4052  0.2123
  897MPD2    C513145   3.351   2.377  10.747 -0.5083  0.2619 -0.0110
  897MPD2     H13146   3.145   2.702  10.786 -3.0047 -1.1283 -0.7528
  897MPD2    H113147   3.224   2.296  10.894  1.8015 -1.2979 -1.9459
  897MPD2    H213148   3.473   2.486  10.618  0.9526  1.5232  1.6944
  897MPD2    H313149   3.427   2.300  10.748 -1.2212 -0.4451  0.0001
  897MPD2     N13150   3.049   2.496  10.926  0.0475  0.3221  0.0100
  897MPD2    H513151   2.985   2.575  10.916  1.7374  1.6173 -0.5460
  897MPD2    N113152   3.377   2.715  10.640  0.0998  0.3175  0.3039
  897MPD2    H713153   3.468   2.716  10.595  0.5156 -1.1096  1.1191
  898MPD2     C13154   1.104   3.491  17.633 -0.2532 -0.0795  0.1780
  898MPD2    C113155   1.072   3.612  17.689  0.1157 -0.4613  0.7960
  898MPD2    C213156   0.978   3.692  17.624  0.0008 -0.5127  0.0408
  898MPD2    C313157   0.910   3.652  17.511  0.6597 -0.4096 -0.0900
  898MPD2    C413158   0.949   3.533  17.451  0.1101  0.2765 -0.5392
  898MPD2    C513159   1.044   3.454  17.512 -0.8346 -0.2407 -0.4784
  898MPD2     H13160   0.963   3.789  17.671  0.9895 -1.3746  2.1570
  898MPD2    H113161   0.909   3.507  17.354  0.5842 -2.3108 -0.0436
  898MPD2    H213162   1.183   3.427  17.670 -2.1945 -2.0427  0.9453
  898MPD2    H313163   1.081   3.368  17.456 -0.1295 -1.1256  1.3564
  898MPD2     N13164   0.815   3.738  17.453  0.0975  0.1228 -0.7399
  898MPD2    H513165   0.800   3.833  17.485  0.5564 -0.2482  0.5458
  898MPD2    N113166   1.126   3.657   0.114  0.0820  0.7196 -0.2870
  898MPD2    H713167   1.094   3.749   0.142 -1.0063  0.3728 -0.3926
  899MPD2     C13168   1.623   4.148   0.132  0.3787  0.1421 -0.2841
  899MPD2    C113169   1.495   4.205   0.103  0.4254 -0.1639  0.5860
  899MPD2    C213170   1.391   4.182   0.196 -0.0058 -0.1941 -0.6855
  899MPD2    C313171   1.415   4.117   0.316  0.1908  0.0293  0.3041
  899MPD2    C413172   1.542   4.064   0.338  0.2728 -0.4010  0.0159
  899MPD2    C513173   1.639   4.083   0.250 -0.1955  0.7547 -0.5189
  899MPD2     H13174   1.294   4.220   0.167  0.9692  4.4129  2.2283
  899MPD2    H113175   1.570   4.019   0.433 -0.0623  1.3411  0.9429
  899MPD2    H213176   1.712   4.154   0.070 -0.4158 -0.7982 -1.5026
  899MPD2    H313177   1.735   4.034   0.269 -0.3463 -0.1522 -2.0508
  899MPD2     N13178   1.313   4.111   0.415 -0.2748 -0.1639  0.0328
  899MPD2    H513179   1.340   4.093   0.511  0.9068  0.2160 -0.2289
  899MPD2    N113180   1.483   4.269  17.672  0.8647  0.0445  0.1480
  899MPD2    H713181   1.560   4.301  17.613 -0.2499 -0.7803 -1.7734
  900MPD2     C13182   1.173   1.406  13.017 -0.1098 -0.4424  0.5794
  900MPD2    C113183   1.094   1.304  12.988 -0.0655  0.2893 -0.0647
  900MPD2    C213184   0.955   1.339  12.975  0.8644 -0.0837 -0.2347
  900MPD2    C313185   0.904   1.462  13.001  0.3678  0.3665 -0.1102
  900MPD2    C413186   0.992   1.562  13.032  0.5308  0.7689  0.5527
  900MPD2    C513187   1.125   1.532  13.057  1.3513  0.8471  0.0713
  900MPD2     H13188   0.898   1.257  12.933  2.4242 -0.4738 -1.5664
  900MPD2    H113189   0.957   1.661  13.058 -0.5562  0.1070  1.5703
  900MPD2    H213190   1.280   1.392  13.029  0.3496 -0.6222 -3.7646
  900MPD2    H313191   1.193   1.615  13.074  1.8775 -0.1215  2.5674
  900MPD2     N13192   0.766   1.485  12.974 -0.7253 -0.0319  0.7335
  900MPD2    H513193   0.705   1.407  12.953 -1.4734 -0.0222  2.8790
  900MPD2    N113194   1.142   1.175  12.970  0.6212  0.8757 -0.5510
  900MPD2    H713195   1.244   1.173  12.963  0.7891  3.3062  1.0418
  901MPD2     C13196   0.615   0.335  12.704 -0.4256 -0.4477  1.1998
  901MPD2    C113197   0.747   0.294  12.715 -0.1941 -0.2099  0.1832
  901MPD2    C213198   0.845   0.380  12.750  0.2273 -0.0699  1.0342
  901MPD2    C313199   0.820   0.515  12.756 -0.3094 -0.4529 -0.3424
  901MPD2    C413200   0.693   0.563  12.739  0.9011  0.1663 -0.0896
  901MPD2    C513201   0.595   0.468  12.723  0.0314 -0.3207 -0.6688
  901MPD2     H13202   0.948   0.351  12.768 -0.3573 -2.1372  1.0544
  901MPD2    H113203   0.663   0.666  12.756  0.9708  0.1289  0.2547
  901MPD2    H213204   0.530   0.273  12.679 -0.0056 -0.6391  0.2246
  901MPD2    H313205   0.492   0.499  12.706  0.8283  2.8287  0.1369
  901MPD2     N13206   0.922   0.613  12.778  1.0425 -0.3935  0.3164
  901MPD2    H513207   0.892   0.710  12.768 -1.5452 -0.9781  2.3418
  901MPD2    N113208   0.773   0.155  12.675 -0.1040 -0.2855 -0.4232
  901MPD2    H713209   0.689   0.105  12.648 -0.5313 -1.0173  2.2577
  902MPD2     C13210   0.035   4.022  12.737 -0.2054  0.0761  0.0383
  902MPD2    C113211   4.630   4.006  12.692  0.0297  0.3324  0.1940
  902MPD2    C213212   4.598   3.888  12.630 -0.4402  0.3956 -0.7463
  902MPD2    C313213   4.685   3.785  12.635  0.3096  0.6241  0.1367
  902MPD2    C413214   0.094   3.804  12.682 -0.4186  0.0898  0.3860
  902MPD2    C513215   0.127   3.926  12.728 -0.5028 -0.2899 -0.3306
  902MPD2     H13216   4.496   3.884  12.592 -0.6717 -0.6389  0.0072
  902MPD2    H113217   0.173   3.730  12.686  0.2207  0.7726  0.4816
  902MPD2    H213218   0.064   4.111  12.792  2.3018 -0.6629 -0.1221
  902MPD2    H313219   0.227   3.938  12.768 -1.0267  1.1219  0.5641
  902MPD2     N13220   4.655   3.655  12.580  0.7538 -0.2400 -0.0051
  902MPD2    H513221   0.006   3.588  12.598  0.8630  0.1122  0.8780
  902MPD2    N113222   4.542   4.112  12.712 -0.0006 -0.5863  0.2482
  902MPD2    H713223   4.582   4.194  12.757 -1.1008 -0.3321  0.7561
  903MPD2     C13224   0.095   3.105  12.037  0.2853 -0.2698  0.1880
  903MPD2    C113225   0.073   3.199  12.132  0.3310 -0.3044  0.0908
  903MPD2    C213226   0.024   3.323  12.091 -0.2908 -0.1103  0.7110
  903MPD2    C313227   4.718   3.355  11.960 -0.2909  0.6093  0.1306
  903MPD2    C413228   0.023   3.259  11.867  0.1604 -0.2631 -0.2884
  903MPD2    C513229   0.075   3.138  11.909  0.7134  0.4947  0.5555
  903MPD2     H13230   0.000   3.404  12.159 -1.1341  1.2676 -1.2323
  903MPD2    H113231   0.005   3.266  11.760  0.4042 -1.0530 -0.3817
  903MPD2    H213232   0.126   3.003  12.059 -1.1182 -0.7706 -0.2000
  903MPD2    H313233   0.095   3.065  11.831  2.1688 -0.9371  2.2787
  903MPD2     N13234   4.628   3.460  11.936  0.5000 -0.0856 -0.3311
  903MPD2    H513235   4.603   3.521  12.013  0.5381 -0.9187  0.3370
  903MPD2    N113236   0.097   3.158  12.271 -0.1874  0.0087  0.3699
  903MPD2    H713237   0.160   3.080  12.284  0.5774  0.3301 -1.3114
  904MPD2     C13238   4.289   2.911  13.883  0.2032  0.4390  0.8135
  904MPD2    C113239   4.272   2.860  14.004 -0.1407  0.1117 -0.1678
  904MPD2    C213240   4.387   2.830  14.082  0.2970 -0.2779 -0.2565
  904MPD2    C313241   4.513   2.845  14.032 -0.7574  0.2835 -0.2976
  904MPD2    C413242   4.526   2.885  13.903 -0.2704 -0.5205 -0.1354
  904MPD2    C513243   4.413   2.918  13.834  0.3359 -0.2064  0.5949
  904MPD2     H13244   4.375   2.799  14.186 -0.5424  0.6607 -0.0753
  904MPD2    H113245   4.616   2.882  13.843  0.0345 -3.1091  0.4294
  904MPD2    H213246   4.206   2.956  13.829  0.1084 -0.4578  0.2236
  904MPD2    H313247   4.422   2.970  13.739  2.2702  1.2459  1.5619
  904MPD2     N13248   4.627   2.816  14.116  0.5691 -0.0026 -0.1143
  904MPD2    H513249   4.608   2.776  14.207  2.6916 -2.9825 -0.9446
  904MPD2    N113250   4.151   2.853  14.071  0.4652  0.0142  0.7348
  904MPD2    H713251   4.157   2.866  14.171  0.2194 -0.3697  0.7984
  905MPD2     C13252   3.889   3.252  13.608  0.1402  0.2741  0.5722
  905MPD2    C113253   3.916   3.128  13.663 -0.5372  0.4008 -0.7649
  905MPD2    C213254   4.012   3.049  13.600  0.1390  0.7269 -0.4634
  905MPD2    C313255   4.080   3.093  13.481  0.8161 -0.4147  0.5407
  905MPD2    C413256   4.048   3.219  13.432  1.1597  0.3028  0.2951
  905MPD2    C513257   3.957   3.299  13.497 -0.1856 -0.0291 -0.6208
  905MPD2     H13258   4.025   2.948  13.637 -0.3789 -0.2643 -2.9930
  905MPD2    H113259   4.101   3.251  13.342  0.1109 -1.2181 -0.8699
  905MPD2    H213260   3.828   3.323  13.663  0.6250 -0.0474  1.5325
  905MPD2    H313261   3.934   3.398  13.460  0.7134  0.9733  1.5033
  905MPD2     N13262   4.176   3.013  13.411  0.5532  0.5042 -0.0573
  905MPD2    H513263   4.231   3.060  13.340  1.6528  0.2994  0.6713
  905MPD2    N113264   3.862   3.081  13.786 -0.5208 -0.2892 -0.4213
  905MPD2    H713265   3.897   2.994  13.824 -0.6617 -0.3251 -0.3728
  906MPD2     C13266   1.916   3.287  11.547 -0.5287 -0.4258 -0.4242
  906MPD2    C113267   1.882   3.169  11.481  0.4748  0.3748 -0.2295
  906MPD2    C213268   1.851   3.057  11.555 -1.0741 -0.1383 -0.3061
  906MPD2    C313269   1.848   3.057  11.693 -0.2326 -0.4240 -0.8414
  906MPD2    C413270   1.854   3.176  11.755  0.1669  0.1886  0.1919
  906MPD2    C513271   1.896   3.281  11.680  0.0570 -0.2209 -0.5929
  906MPD2     H13272   1.819   2.970  11.500 -0.9068 -0.8042  0.6455
  906MPD2    H113273   1.834   3.192  11.860 -0.1579  0.1590  0.1341
  906MPD2    H213274   1.938   3.386  11.508 -0.2744  0.6915  2.5058
  906MPD2    H313275   1.912   3.372  11.736  0.5449 -0.5441 -0.2069
  906MPD2     N13276   1.809   2.946  11.769  0.5720  0.5847  0.2115
  906MPD2    H513277   1.773   2.975  11.860 -3.9000  0.4644 -1.5216
  906MPD2    N113278   1.865   3.161  11.338 -0.4615 -0.0885 -0.1543
  906MPD2    H713279   1.831   3.071  11.307 -1.4224 -0.0762  0.8553
  907MPD2     C13280   0.542   1.970  15.921  0.2560 -0.4346  0.1529
  907MPD2    C113281   0.568   1.837  15.947 -0.0910  0.0088 -0.0486
  907MPD2    C213282   0.610   1.795  16.075  0.4866  0.4647  0.4557
  907MPD2    C313283   0.624   1.890  16.171  0.7972 -0.2658  0.0138
  907MPD2    C413284   0.585   2.019  16.146 -0.4800 -0.0301  0.6826
  907MPD2    C513285   0.545   2.059  16.026  0.2993  0.0216  0.3193
  907MPD2     H13286   0.637   1.690  16.079  4.0016  1.3331  0.0676
  907MPD2    H113287   0.564   2.085  16.230  0.1403  0.0672  0.7629
  907MPD2    H213288   0.499   1.999  15.826 -0.3848 -0.8042  0.3307
  907MPD2    H313289   0.498   2.156  16.011  0.4138 -0.0645 -0.5562
  907MPD2     N13290   0.664   1.842  16.300  0.1271 -0.1462 -0.0670
  907MPD2    H513291   0.673   1.741  16.306 -1.7207 -0.2691  0.3541
  907MPD2    N113292   0.564   1.744  15.844 -0.1566 -0.8321 -0.2809
  907MPD2    H713293   0.597   1.651  15.869 -0.6835 -1.0125 -0.2535
  908MPD2     C13294   3.513   2.879   9.742  0.2120 -0.4615 -0.6192
  908MPD2    C113295   3.614   2.828   9.818 -0.8113 -0.5348 -0.4259
  908MPD2    C213296   3.621   2.853   9.951  0.4986  1.0519  0.5314
  908MPD2    C313297   3.516   2.921  10.012  0.1221 -0.4168  0.5684
  908MPD2    C413298   3.407   2.951   9.936  0.6426  0.6808 -0.3107
  908MPD2    C513299   3.407   2.941   9.800 -0.0335  0.3511 -0.9870
  908MPD2     H13300   3.712   2.824  10.002  0.9951  1.0811 -0.3356
  908MPD2    H113301   3.318   2.985   9.986 -0.8979  0.7601 -3.1115
  908MPD2    H213302   3.512   2.862   9.635  0.2263  1.3148 -0.8991
  908MPD2    H313303   3.323   2.978   9.743  1.0614  0.9147 -2.2136
  908MPD2     N13304   3.516   2.934  10.151 -0.0390 -0.2029 -0.5082
  908MPD2    H513305   3.594   2.891  10.201 -0.4042 -0.3449 -0.0576
  908MPD2    N113306   3.729   2.760   9.763  0.0364  0.4747 -0.0643
  908MPD2    H713307   3.812   2.738   9.817  2.5824  0.7956 -3.8548
  909MPD2     C13308   3.688   0.927  11.891 -0.0331 -0.8038 -0.5893
  909MPD2    C113309   3.602   1.024  11.843 -0.1346  0.1633  0.0087
  909MPD2    C213310   3.516   1.085  11.929  0.0222 -0.3259  0.3121
  909MPD2    C313311   3.507   1.043  12.062 -0.1285 -0.1389 -0.3143
  909MPD2    C413312   3.589   0.940  12.104 -0.2041 -0.5625 -0.2470
  909MPD2    C513313   3.681   0.886  12.021  0.2887  0.6332 -0.3058
  909MPD2     H13314   3.447   1.157  11.887  0.6610  1.0263  1.5789
  909MPD2    H113315   3.585   0.903  12.205 -1.7875 -0.0366 -0.1177
  909MPD2    H213316   3.762   0.880  11.828  1.2705  0.3925  0.0547
  909MPD2    H313317   3.740   0.802  12.056  0.0979  0.9143  0.6970
  909MPD2     N13318   3.424   1.121  12.141 -0.6652 -0.3206 -0.2352
  909MPD2    H513319   3.378   1.194  12.087  0.3850 -0.2912 -1.0880
  909MPD2    N113320   3.630   1.093  11.726 -0.2994 -0.1366  0.3960
  909MPD2    H713321   3.578   1.180  11.715 -1.1506 -1.2914 -4.4136
  910MPD2     C13322   4.681   2.391  15.858  0.0884  0.4135 -0.2621
  910MPD2    C113323   0.010   2.277  15.809 -0.5263 -0.0273 -0.0153
  910MPD2    C213324   4.714   2.243  15.674 -0.2541 -0.2895 -0.1600
  910MPD2    C313325   4.633   2.325  15.595 -0.4980 -0.5560  0.4362
  910MPD2    C413326   4.571   2.433  15.658 -0.3824  0.0727 -0.2774
  910MPD2    C513327   4.604   2.470  15.782 -0.2516 -0.4697  0.1856
  910MPD2     H13328   0.042   2.155  15.638  0.2370  0.3913 -1.1402
  910MPD2    H113329   4.513   2.501  15.597 -1.9649  0.1205  1.2873
  910MPD2    H213330   4.700   2.412  15.963  1.3298  1.4735 -0.7047
  910MPD2    H313331   4.555   2.556  15.827  0.0219 -0.5791  0.6866
  910MPD2     N13332   4.599   2.299  15.456 -0.8862 -0.4565  0.1133
  910MPD2    H513333   4.533   2.358  15.405  0.1258  2.0657  1.6777
  910MPD2    N113334   0.088   2.184  15.894 -0.4728 -0.3536  0.4412
  910MPD2    H713335   0.131   2.104  15.849  2.6137  0.4225  1.9657
  911MPD2     C13336   2.289   2.713  16.657  0.1427  0.0865  0.5009
  911MPD2    C113337   2.353   2.832  16.673 -0.0612 -0.5138 -0.6494
  911MPD2    C213338   2.277   2.953  16.656 -0.2997  0.5160 -0.1745
  911MPD2    C313339   2.141   2.944  16.625  0.0840  0.1650 -0.2346
  911MPD2    C413340   2.080   2.817  16.610  0.9151  0.7170  0.9743
  911MPD2    C513341   2.155   2.706  16.638  0.1441 -0.1816  0.0403
  911MPD2     H13342   2.329   3.046  16.672 -2.1189  1.4969  0.0484
  911MPD2    H113343   1.973   2.806  16.595  0.9512  1.1976  0.3665
  911MPD2    H213344   2.345   2.621  16.656  1.0367  0.5978  2.6489
  911MPD2    H313345   2.102   2.611  16.631 -0.3269 -0.0096  1.3709
  911MPD2     N13346   2.058   3.065  16.626  0.4845 -0.2633  0.2056
  911MPD2    H513347   1.959   3.054  16.609  0.2812 -2.2887  2.6650
  911MPD2    N113348   2.493   2.825  16.703  0.0588  0.3145  0.1583
  911MPD2    H713349   2.526   2.732  16.723 -0.1250  0.5813  1.7058
  912MPD2     C13350   2.118   2.882  16.145 -0.0557 -0.5645  0.7334
  912MPD2    C113351   2.013   2.901  16.229 -0.5375 -0.3001  0.1720
  912MPD2    C213352   1.947   2.794  16.283  0.1170 -0.0788 -0.4405
  912MPD2    C313353   2.002   2.667  16.269  0.5837  0.1436  0.1282
  912MPD2    C413354   2.096   2.645  16.176  0.0033 -0.3602  0.3412
  912MPD2    C513355   2.154   2.754  16.116  0.8083  0.3389  0.6548
  912MPD2     H13356   1.855   2.804  16.340  1.0602  1.5850  0.8205
  912MPD2    H113357   2.138   2.545  16.168 -1.2814 -0.8634 -0.2572
  912MPD2    H213358   2.163   2.963  16.089 -0.3134  0.0304  1.3849
  912MPD2    H313359   2.236   2.746  16.045 -0.9905 -2.8265 -1.0729
  912MPD2     N13360   1.932   2.569  16.337 -0.2988  0.2778 -0.2200
  912MPD2    H513361   1.844   2.600  16.376 -0.3848 -1.7793  1.2243
  912MPD2    N113362   1.959   3.035  16.244  0.2031 -0.0786  0.1488
  912MPD2    H713363   2.012   3.109  16.199  2.5513 -1.5092  0.5448
  913MPD2     C13364   3.099   3.746  11.339 -0.7784 -0.3179  0.0656
  913MPD2    C113365   3.087   3.877  11.307 -0.4092 -0.5101 -0.1611
  913MPD2    C213366   3.084   3.910  11.173  0.0822 -0.3803 -0.5760
  913MPD2    C313367   3.076   3.808  11.075 -0.0245 -0.6488  0.1369
  913MPD2    C413368   3.080   3.678  11.110 -0.2632 -0.2134  0.7981
  913MPD2    C513369   3.096   3.650  11.245  0.1169 -0.1568 -0.2143
  913MPD2     H13370   3.074   4.013  11.141 -1.3022 -0.7200 -1.2580
  913MPD2    H113371   3.073   3.602  11.033 -2.4425  0.1529  0.6572
  913MPD2    H213372   3.119   3.722  11.443 -1.0555  0.1084  0.2148
  913MPD2    H313373   3.120   3.548  11.274  1.2752 -0.1464 -1.0821
  913MPD2     N13374   3.079   3.836  10.936  0.6170 -0.4628 -0.9830
  913MPD2    H513375   3.083   3.764  10.865 -0.5753 -1.4240 -0.0884
  913MPD2    N113376   3.078   3.968  11.417 -0.6196 -0.3193  0.3127
  913MPD2    H713377   3.083   3.923  11.508 -0.0983  1.4111  1.1500
  914MPD2     C13378   0.408   4.524  12.025 -0.2640 -0.1665  0.0924
  914MPD2    C113379   0.486   4.639  12.045  0.2104  1.0493 -0.0789
  914MPD2    C213380   0.580   4.640  12.149 -0.2918 -0.5531  0.4947
  914MPD2    C313381   0.591   4.531  12.233  0.0042 -0.0177  0.7036
  914MPD2    C413382   0.497   4.437  12.227 -0.3222  0.6413 -0.0982
  914MPD2    C513383   0.414   4.423  12.122  0.4773  0.0140 -0.2852
  914MPD2     H13384   0.644   0.000  12.174  0.4971 -1.4512  1.5020
  914MPD2    H113385   0.492   4.365  12.308 -1.5164  0.8518  0.0156
  914MPD2    H213386   0.345   4.511  11.938 -0.8082 -1.1093  0.6226
  914MPD2    H313387   0.346   4.340  12.109 -0.3847  0.5116  1.0304
  914MPD2     N13388   0.684   4.536  12.331 -0.1975  0.2776 -0.3691
  914MPD2    H513389   0.750   4.612  12.322  0.2700 -0.3880 -2.8332
  914MPD2    N113390   0.478   0.018  11.946  0.2991  0.5939 -0.5091
  914MPD2    H713391   0.425   0.001  11.861  2.0764  1.7509 -1.8465
  915MPD2     C13392   4.081   0.178  16.007 -0.0476 -0.5301 -0.1416
  915MPD2    C113393   3.950   0.147  15.964  0.7024  0.5513  0.0777
  915MPD2    C213394   3.846   0.218  16.019 -0.2733 -0.5539 -0.1774
  915MPD2    C313395   3.869   0.317  16.116  0.6066  0.3957 -0.5616
  915MPD2    C413396   3.999   0.337  16.166 -0.5998  0.5838  0.2615
  915MPD2    C513397   4.104   0.270  16.110 -0.3594 -0.2004  0.0667
  915MPD2     H13398   3.744   0.199  15.988 -0.8210  2.5429 -0.2213
  915MPD2    H113399   4.034   0.412  16.235  0.7415  1.4109 -1.3376
  915MPD2    H213400   4.162   0.136  15.948 -0.4846 -0.3247 -0.8840
  915MPD2    H313401   4.201   0.304  16.145  0.1394 -0.2836 -1.2648
  915MPD2     N13402   3.758   0.381  16.173  0.6755 -0.2659  0.0760
  915MPD2    H513403   3.672   0.356  16.125  1.5135 -2.2264 -0.3815
  915MPD2    N113404   3.939   0.038  15.878 -0.4719 -0.0762  0.0983
  915MPD2    H713405   4.027   0.016  15.832 -0.9858 -0.3931 -0.7468
  916MPD2     C13406   1.828   3.053  15.900  0.2723  0.8764  0.3669
  916MPD2    C113407   1.781   2.939  15.969  0.4319  0.2125  0.5688
  916MPD2    C213408   1.832   2.816  15.934  0.2792 -0.7822 -0.2961
  916MPD2    C313409   1.926   2.797  15.835 -0.2312  0.7301  0.0676
  916MPD2    C413410   1.964   2.910  15.762 -0.3645 -0.2096 -0.1869
  916MPD2    C513411   1.909   3.032  15.794 -0.1587  0.9672  0.5668
  916MPD2     H13412   1.800   2.726  15.986  0.9260 -0.0046  1.4518
  916MPD2    H113413   2.037   2.913  15.682 -0.3214  0.4572 -0.1223
  916MPD2    H213414   1.793   3.151  15.931  0.2936  1.1812 -0.5967
  916MPD2    H313415   1.938   3.120  15.738  2.8041  0.4967  1.3714
  916MPD2     N13416   1.990   2.673  15.821 -0.3681  0.4019  0.2943
  916MPD2    H513417   1.960   2.600  15.886  0.1727 -0.3358 -0.2890
  916MPD2    N113418   1.680   2.952  16.064 -0.6535  0.3314 -0.2863
  916MPD2    H713419   1.655   3.048  16.083 -2.6880 -0.5219  1.2909
  917MPD2     C13420   2.226   0.806  11.159 -0.0309  0.2668 -0.0689
  917MPD2    C113421   2.309   0.835  11.274 -0.7722 -0.0872 -0.6753
  917MPD2    C213422   2.417   0.922  11.259 -0.0546  0.3554 -0.3456
  917MPD2    C313423   2.442   0.996  11.143  0.9473 -0.1864 -0.7892
  917MPD2    C413424   2.362   0.971  11.034  1.0615  0.7066  0.4146
  917MPD2    C513425   2.258   0.879  11.047 -0.2182  0.2746  0.8563
  917MPD2     H13426   2.481   0.942  11.345 -2.0676  2.4250  0.6912
  917MPD2    H113427   2.381   1.020  10.940 -0.4030  1.7605  0.6716
  917MPD2    H213428   2.136   0.745  11.159  0.3447 -0.2892 -1.7759
  917MPD2    H313429   2.196   0.852  10.962  0.5026  2.0075 -0.2211
  917MPD2     N13430   2.540   1.089  11.131  0.3809  0.2196  0.4674
  917MPD2    H513431   2.541   1.138  11.041  2.9329  1.8258  1.3727
  917MPD2    N113432   2.278   0.758  11.391  0.0127 -0.1432 -0.0802
  917MPD2    H713433   2.201   0.692  11.390 -1.1469  1.1694  1.8866
  918MPD2     C13434   2.542   0.984  12.347 -0.3769  0.1557 -0.1398
  918MPD2    C113435   2.617   0.894  12.270 -1.3007  0.3024  0.5929
  918MPD2    C213436   2.560   0.837  12.161 -0.3714  0.5223  0.1015
  918MPD2    C313437   2.430   0.852  12.123 -0.1305 -0.2335 -0.6743
  918MPD2    C413438   2.355   0.942  12.193  0.7042  0.3023 -0.6463
  918MPD2    C513439   2.415   1.007  12.299 -0.6207  0.3875 -1.0878
  918MPD2     H13440   2.624   0.781  12.093 -0.2605 -0.7399  1.2441
  918MPD2    H113441   2.253   0.967  12.166  1.7481  1.2621 -3.7486
  918MPD2    H213442   2.583   1.028  12.438 -0.4750  0.5811 -0.2998
  918MPD2    H313443   2.350   1.080  12.346  1.0139  1.6083 -0.7245
  918MPD2     N13444   2.396   0.792  12.003  0.0489 -0.3117 -0.3790
  918MPD2    H513445   2.459   0.736  11.946 -0.6851 -0.6380 -0.8706
  918MPD2    N113446   2.753   0.869  12.290  0.6256 -0.4178 -0.2303
  918MPD2    H713447   2.801   0.797  12.236  1.6527 -1.6492  2.3041
  919MPD2     C13448   3.091   4.429  12.034 -0.2433  0.2988  0.0406
  919MPD2    C113449   2.990   4.369  11.969 -0.2418  1.0404 -0.1171
  919MPD2    C213450   2.916   4.446  11.882  0.8159 -0.3217 -0.2326
  919MPD2    C313451   2.960   4.574  11.844 -0.0039 -0.3615 -0.0247
  919MPD2    C413452   3.064   4.632  11.911 -0.4625 -0.4254 -0.0920
  919MPD2    C513453   3.119   4.562  12.015  1.0427  0.0957 -0.3225
  919MPD2     H13454   2.831   4.405  11.828 -0.2683  2.4769 -0.6867
  919MPD2    H113455   3.109   0.003  11.883 -1.2567  0.6676  2.2957
  919MPD2    H213456   3.139   4.371  12.111  1.1572  0.0915 -0.9941
  919MPD2    H313457   3.199   4.618  12.063  1.2070 -0.2518 -0.1893
  919MPD2     N13458   2.906   4.656  11.743  0.6788  0.0053 -0.2120
  919MPD2    H513459   2.938   0.028  11.739  1.6946 -0.2700  0.9095
  919MPD2    N113460   2.954   4.234  12.002 -0.4776 -0.8178 -0.1031
  919MPD2    H713461   3.014   4.192  12.072 -1.6793  0.0666  1.4639
  920MPD2     C13462   2.828   0.466  10.868 -0.0359  0.4423 -0.8427
  920MPD2    C113463   2.722   0.376  10.863 -0.1035  0.2745 -0.3786
  920MPD2    C213464   2.699   0.286  10.963 -0.2621  0.5120  0.5562
  920MPD2    C313465   2.785   0.283  11.071  0.0945  0.3466  0.0157
  920MPD2    C413466   2.894   0.364  11.076  0.8734 -0.2083  0.1125
  920MPD2    C513467   2.907   0.460  10.981  0.3120  1.0969  0.5002
  920MPD2     H13468   2.609   0.226  10.965  1.5065 -2.1854 -1.4948
  920MPD2    H113469   2.954   0.368  11.167 -1.2444 -1.9306  1.5736
  920MPD2    H213470   2.851   0.534  10.787  0.5844  0.7718 -0.3854
  920MPD2    H313471   2.990   0.528  10.992  1.9764 -0.9427  0.4314
  920MPD2     N13472   2.728   0.205  11.181 -0.5245  0.4191 -0.5136
  920MPD2    H513473   2.643   0.152  11.167  0.0448 -0.0481 -2.2107
  920MPD2    N113474   2.631   0.377  10.752 -0.5306 -0.5554  0.6124
  920MPD2    H713475   2.577   0.291  10.747 -2.3045  0.6215 -0.3043
  921MPD2     C13476   3.067   3.582  16.879 -0.2650  0.3047 -0.0927
  921MPD2    C113477   3.153   3.481  16.834 -0.1761  0.0319  0.3382
  921MPD2    C213478   3.116   3.350  16.858  0.6642  0.3424 -0.2643
  921MPD2    C313479   2.994   3.322  16.912 -0.0287 -0.0983  0.4750
  921MPD2    C413480   2.922   3.422  16.979  0.4519  0.0862 -0.3790
  921MPD2    C513481   2.962   3.546  16.966 -0.0795 -0.0127 -0.3871
  921MPD2     H13482   3.182   3.268  16.832  0.3522  0.4175 -1.2696
  921MPD2    H113483   2.825   3.409  17.027  1.1698 -5.3589 -0.4104
  921MPD2    H213484   3.090   3.688  16.878 -0.2433  0.3197  1.8759
  921MPD2    H313485   2.911   3.628  17.015 -1.3278  0.0789 -1.8536
  921MPD2     N13486   2.943   3.192  16.927 -0.2115 -1.1609  0.0029
  921MPD2    H513487   2.853   3.172  16.971 -0.3113 -0.1947  0.2408
  921MPD2    N113488   3.278   3.515  16.776 -0.6596  0.0923 -0.0879
  921MPD2    H713489   3.282   3.615  16.755 -1.5956  0.4716  1.5243
  922MPD2     C13490   4.079   0.881  17.567  1.6540 -0.2131 -0.1247
  922MPD2    C113491   4.053   0.927  17.441 -0.2126  0.1632  0.1429
  922MPD2    C213492   3.920   0.963  17.410 -0.0178 -0.8440  0.4890
  922MPD2    C313493   3.824   0.958  17.505 -0.1348 -0.2916  0.3635
  922MPD2    C413494   3.852   0.911  17.631 -0.6680 -0.1513  1.0860
  922MPD2    C513495   3.978   0.870  17.657 -0.3279 -0.8028  0.3673
  922MPD2     H13496   3.891   0.993  17.310 -0.5797  1.0714  1.2140
  922MPD2    H113497   3.780   0.914   0.015  0.4375 -1.0306  2.1123
  922MPD2    H213498   4.178   0.859  17.607  0.6702 -2.1745  1.2487
  922MPD2    H313499   4.004   0.830   0.058 -0.3398 -3.5294 -0.7215
  922MPD2     N13500   3.694   0.997  17.466 -0.3312 -0.0008 -0.0627
  922MPD2    H513501   3.682   1.031  17.371 -3.3709  0.3830  0.4462
  922MPD2    N113502   4.156   0.954  17.345  0.4006  0.6206  0.3314
  922MPD2    H713503   4.131   1.002  17.260 -2.2158 -0.7969  0.3085
  923MPD2     C13504   1.185   2.075   9.240  0.3580  0.7363 -0.0223
  923MPD2    C113505   1.191   2.208   9.272  0.4254  1.0131 -0.3366
  923MPD2    C213506   1.270   2.257   9.379  0.7786 -0.3141 -0.4275
  923MPD2    C313507   1.360   2.166   9.437  0.0472  0.5031 -0.1558
  923MPD2    C413508   1.366   2.034   9.390  0.1544  0.3097  0.2364
  923MPD2    C513509   1.279   1.989   9.298 -0.4607 -0.0596 -0.5123
  923MPD2     H13510   1.299   2.361   9.395 -4.1183  0.7611  1.5117
  923MPD2    H113511   1.431   1.962   9.437  0.2439 -0.8110 -1.6076
  923MPD2    H213512   1.120   2.036   9.162 -0.5092  0.6464  0.7487
  923MPD2    H313513   1.278   1.883   9.275 -0.3220  0.4734 -2.9589
  923MPD2     N13514   1.462   2.209   9.527  0.0964  0.6950 -0.3052
  923MPD2    H513515   1.534   2.139   9.543  0.4959  1.1027 -0.3073
  923MPD2    N113516   1.101   2.289   9.195 -0.0415  0.0353 -0.5936
  923MPD2    H713517   1.029   2.245   9.139 -0.5761 -1.2368  1.0760
  924MPD2     C13518   0.900   1.022  16.550 -0.3477  0.5513 -0.0269
  924MPD2    C113519   0.830   1.073  16.659 -0.4870 -0.0853  0.2038
  924MPD2    C213520   0.804   1.211  16.662 -0.5337 -0.9215  0.6592
  924MPD2    C313521   0.851   1.297  16.566  0.8074 -0.1459  0.6462
  924MPD2    C413522   0.925   1.242  16.465  0.1775 -0.9153  0.2974
  924MPD2    C513523   0.943   1.110  16.455 -0.0978  0.4087 -0.2569
  924MPD2     H13524   0.751   1.243  16.752 -0.6357  3.0915 -0.8201
  924MPD2    H113525   0.961   1.307  16.386 -2.9634  1.4506  0.8547
  924MPD2    H213526   0.926   0.917  16.545  0.3007  0.6642  0.8243
  924MPD2    H313527   0.988   1.080  16.361  1.7345  3.4375 -0.3198
  924MPD2     N13528   0.830   1.431  16.563 -0.2284 -0.9305 -0.2211
  924MPD2    H513529   0.866   1.473  16.478 -1.6380  1.0184  0.1337
  924MPD2    N113530   0.798   0.987  16.768 -0.1839  0.9471 -0.1075
  924MPD2    H713531   0.850   0.901  16.775 -2.2816 -0.2757  0.3811
  925MPD2     C13532   4.489   3.697  14.851 -0.3222 -0.3705 -0.0447
  925MPD2    C113533   4.361   3.740  14.807 -0.9062 -0.4007 -0.2174
  925MPD2    C213534   4.263   3.777  14.901  0.6131 -0.2557  0.4474
  925MPD2    C313535   4.289   3.768  15.037  0.5147  0.6887  0.3652
  925MPD2    C413536   4.416   3.729  15.074 -0.0400 -0.3968  0.0625
  925MPD2    C513537   4.508   3.688  14.986 -0.1314  0.3635  0.3605
  925MPD2     H13538   4.167   3.817  14.872  0.3204 -0.9738  0.4301
  925MPD2    H113539   4.444   3.728  15.178 -1.3169 -0.8822  0.3995
  925MPD2    H213540   4.560   3.652  14.783 -0.5720  0.0095 -0.5517
  925MPD2    H313541   4.601   3.643  15.020 -0.0114  0.3364 -0.0039
  925MPD2     N13542   4.202   3.810  15.138  0.8521  0.9154  0.1613
  925MPD2    H513543   4.236   3.797  15.233 -0.5284 -3.9790 -0.0570
  925MPD2    N113544   4.342   3.757  14.668 -0.0541 -0.2484  0.1785
  925MPD2    H713545   4.257   3.808  14.647  0.1545 -0.3361 -0.8618
  926MPD2     C13546   2.816   2.175  13.637 -0.9208  0.5633  0.4480
  926MPD2    C113547   2.830   2.310  13.655 -0.0964  0.0312  0.2743
  926MPD2    C213548   2.909   2.391  13.575 -0.4061 -0.4146  0.5444
  926MPD2    C313549   2.974   2.330  13.467 -0.2435  0.4712  0.2211
  926MPD2    C413550   2.952   2.202  13.436  0.3289 -0.0004  0.3775
  926MPD2    C513551   2.884   2.124  13.527 -0.2929 -0.1860 -0.2210
  926MPD2     H13552   2.914   2.499  13.586 -2.6925 -0.3432  0.8908
  926MPD2    H113553   2.996   2.151  13.351 -0.5060 -0.2576  0.1022
  926MPD2    H213554   2.754   2.110  13.698 -2.1756 -0.7302 -2.2000
  926MPD2    H313555   2.874   2.022  13.493 -1.0384 -0.8706  2.1034
  926MPD2     N13556   3.080   2.396  13.400  0.4091  0.2282 -0.4363
  926MPD2    H513557   3.136   2.349  13.330  0.5671 -0.1783 -0.0325
  926MPD2    N113558   2.758   2.381  13.757  0.7147 -0.0456 -0.5218
  926MPD2    H713559   2.778   2.480  13.758 -1.7437  0.4534  0.5945
  927MPD2     C13560   3.002   4.517   0.517  0.3777 -0.1023 -0.5986
  927MPD2    C113561   2.966   4.648   0.493  0.1923  0.7051  0.0159
  927MPD2    C213562   2.974   4.692   0.363  0.2494 -0.6913 -0.3925
  927MPD2    C313563   3.026   4.618   0.257  0.3074  0.1900  0.1618
  927MPD2    C413564   3.076   4.492   0.287 -0.1622  0.1635 -0.2658
  927MPD2    C513565   3.063   4.442   0.416 -0.2125  0.1295  0.0620
  927MPD2     H13566   2.943   0.071   0.346 -1.6466 -0.7450  2.7432
  927MPD2    H113567   3.121   4.429   0.211  0.7326  1.4176 -0.7767
  927MPD2    H213568   2.996   4.481   0.619 -0.6334  0.0153 -0.6109
  927MPD2    H313569   3.106   4.344   0.435 -0.7938 -0.7295 -3.0612
  927MPD2     N13570   3.028   4.683   0.131 -0.0332  0.4054  0.0709
  927MPD2    H513571   2.969   0.041   0.119 -0.7609 -0.2861 -1.0754
  927MPD2    N113572   2.929   0.012   0.601  0.1198  0.5723 -0.7155
  927MPD2    H713573   2.936   4.706   0.698 -0.5136 -0.3060 -0.9359
  928MPD2     C13574   0.810   3.557   1.675 -0.3697  0.3551  0.1479
  928MPD2    C113575   0.797   3.453   1.593  0.5503  0.5049 -0.0739
  928MPD2    C213576   0.829   3.469   1.461  0.4148  0.0671  0.1894
  928MPD2    C313577   0.899   3.582   1.421  0.2699  0.1095  0.3256
  928MPD2    C413578   0.938   3.665   1.511  0.2895 -0.0921  0.1791
  928MPD2    C513579   0.890   3.657   1.639  0.4124 -0.9824  0.5492
  928MPD2     H13580   0.803   3.392   1.390 -0.0256 -1.9553  2.5418
  928MPD2    H113581   0.988   3.759   1.493 -0.7166  0.5215  0.5845
  928MPD2    H213582   0.761   3.567   1.771  0.1290  0.9734  0.3391
  928MPD2    H313583   0.903   3.745   1.701  1.7428 -1.0777  0.4004
  928MPD2     N13584   0.934   3.601   1.284  0.1069 -0.5105 -0.5564
  928MPD2    H513585   1.006   3.668   1.261 -2.5734  2.0192 -1.5064
  928MPD2    N113586   0.733   3.340   1.646  0.1612 -0.0476  0.2735
  928MPD2    H713587   0.671   3.358   1.724 -0.2316  0.4608 -0.1576
  929MPD2     C13588   1.470   2.928  10.668 -0.3708 -0.1524 -0.1569
  929MPD2    C113589   1.384   2.839  10.725  1.1506  0.4091 -0.1920
  929MPD2    C213590   1.291   2.775  10.645  0.7910  0.1141 -0.4531
  929MPD2    C313591   1.276   2.803  10.508  0.4530 -0.2902  0.5975
  929MPD2    C413592   1.366   2.891  10.453  0.5072  0.5384 -0.0500
  929MPD2    C513593   1.465   2.947  10.531  0.6965  0.1090  0.3827
  929MPD2     H13594   1.208   2.726  10.694  1.4462  0.6625  1.2059
  929MPD2    H113595   1.351   2.925  10.351  2.3468  1.3443 -0.0448
  929MPD2    H213596   1.545   2.977  10.729 -1.0968  0.2081  0.4377
  929MPD2    H313597   1.533   3.023  10.495 -1.4395  1.8074 -0.1373
  929MPD2     N13598   1.161   2.775  10.433  0.2021  0.3509  0.0509
  929MPD2    H513599   1.157   2.827  10.346 -1.7827  0.9402  0.5014
  929MPD2    N113600   1.403   2.826  10.867  0.2152  0.3555 -0.7614
  929MPD2    H713601   1.464   2.896  10.909  0.1605  0.3426 -0.6587
  930MPD2     C13602   2.989   0.729  14.123 -0.3283  0.2709 -0.5685
  930MPD2    C113603   3.052   0.828  14.050 -0.1149  0.0612 -0.0713
  930MPD2    C213604   3.044   0.823  13.910  0.2877 -0.2843  0.4906
  930MPD2    C313605   2.989   0.710  13.843 -0.1214 -0.2259 -0.1856
  930MPD2    C413606   2.936   0.604  13.915  0.1101 -0.3666  0.1308
  930MPD2    C513607   2.944   0.621  14.056  0.2069  0.4041 -0.4005
  930MPD2     H13608   3.090   0.899  13.848  1.2266 -0.7019  0.6831
  930MPD2    H113609   2.890   0.517  13.870  0.8974 -0.7373  0.0449
  930MPD2    H213610   2.992   0.733  14.231  0.8939  0.2189 -0.6017
  930MPD2    H313611   2.899   0.545  14.119  0.9877 -1.2189 -1.8118
  930MPD2     N13612   3.001   0.720  13.699  0.6561 -0.0208 -0.2469
  930MPD2    H513613   3.063   0.795  13.672 -0.1564  0.1681 -1.5622
  930MPD2    N113614   3.111   0.946  14.104 -0.5446  0.1209 -0.1085
  930MPD2    H713615   3.153   1.011  14.038 -0.9450  0.0491 -0.4359
  931MPD2     C13616   3.282   0.137   1.129  0.7388 -0.7971 -0.4901
  931MPD2    C113617   3.149   0.108   1.154 -0.1219 -0.3688  1.1924
  931MPD2    C213618   3.119   0.047   1.273 -0.0171 -0.0606 -0.0275
  931MPD2    C313619   3.217   4.711   1.357 -0.3770  0.1657 -0.6182
  931MPD2    C413620   3.350   0.019   1.331  0.4589 -0.3512  0.0439
  931MPD2    C513621   3.380   0.085   1.212 -0.0876  0.9090 -0.4848
  931MPD2     H13622   3.018   0.010   1.283  0.5827 -1.3214  1.2396
  931MPD2    H113623   3.434   4.712   1.391  0.1163 -3.0013 -0.8326
  931MPD2    H213624   3.311   0.201   1.046 -0.4709  0.8360  0.3474
  931MPD2    H313625   3.487   0.104   1.202  0.5130 -1.9118  0.7329
  931MPD2     N13626   3.185   4.634   1.462  0.2686  0.6505  0.3004
  931MPD2    H513627   3.266   4.586   1.499  1.3338  1.1786 -1.3341
  931MPD2    N113628   3.061   0.151   1.055  0.6560  0.2604  0.7430
  931MPD2    H713629   3.090   0.193   0.968 -2.8857  0.6224 -0.2587
  932MPD2     C13630   4.153   3.957  11.172  0.3990  0.7865 -0.1287
  932MPD2    C113631   4.285   3.948  11.145 -0.1407  0.1255  1.3576
  932MPD2    C213632   4.346   3.825  11.142 -0.3151  0.7712 -0.1165
  932MPD2    C313633   4.272   3.713  11.161 -0.0157  0.0526  0.3819
  932MPD2    C413634   4.135   3.722  11.164 -0.2132 -0.3576  0.0189
  932MPD2    C513635   4.077   3.843  11.174 -0.1140 -0.2638 -0.4926
  932MPD2     H13636   4.451   3.830  11.117 -0.0227 -1.1779  0.6915
  932MPD2    H113637   4.087   3.625  11.165 -0.9394  0.0084  0.2597
  932MPD2    H213638   4.107   4.055  11.173  1.3488  1.2412 -0.9606
  932MPD2    H313639   3.969   3.845  11.183 -0.0350  0.1782  0.4474
  932MPD2     N13640   4.316   3.575  11.165  0.1694 -0.1894 -0.3378
  932MPD2    H513641   4.247   3.503  11.186 -0.4379  0.7150  0.7880
  932MPD2    N113642   4.378   4.054  11.130 -0.4456 -0.5064 -0.2592
  932MPD2    H713643   4.473   4.025  11.111 -0.1754 -0.0663  0.3978
  933MPD2     C13644   4.656   3.094   1.599  0.2838  0.6495  0.0004
  933MPD2    C113645   0.038   3.182   1.596 -0.3853  0.2828 -0.9364
  933MPD2    C213646   0.017   3.319   1.595  0.2659  0.1087  0.2647
  933MPD2    C313647   4.611   3.364   1.598 -0.1951 -0.2104 -0.1322
  933MPD2    C413648   4.503   3.277   1.611 -0.1857 -0.4883 -0.6868
  933MPD2    C513649   4.533   3.144   1.606  0.0230  0.2175 -0.1465
  933MPD2     H13650   0.098   3.391   1.587  0.2600  0.2563  1.5620
  933MPD2    H113651   4.400   3.311   1.616  0.0826  0.3414 -0.8287
  933MPD2    H213652   4.661   2.986   1.604 -1.4014  0.6968  2.4012
  933MPD2    H313653   4.453   3.071   1.605  0.8980 -0.7343  1.0116
  933MPD2     N13654   4.595   3.500   1.579  0.0968 -0.0281  0.6083
  933MPD2    H513655   4.674   3.561   1.562 -0.8360  0.8499 -0.5334
  933MPD2    N113656   0.170   3.128   1.580  0.0103 -0.1869  0.5088
  933MPD2    H713657   0.168   3.032   1.547  1.2328 -0.3408  0.9045
  934MPD2     C13658   1.414   0.643   2.459 -0.2212 -0.1838 -0.9952
  934MPD2    C113659   1.534   0.664   2.390  0.1096  0.5443  0.3553
  934MPD2    C213660   1.550   0.602   2.268 -0.2142 -0.1802 -0.2642
  934MPD2    C313661   1.438   0.539   2.205 -0.9213 -0.3809  0.9582
  934MPD2    C413662   1.316   0.522   2.272 -0.1546  0.2221  0.3841
  934MPD2    C513663   1.303   0.572   2.401 -0.2204 -0.9404  0.4975
  934MPD2     H13664   1.646   0.618   2.220 -0.1316 -0.1564 -0.0914
  934MPD2    H113665   1.237   0.460   2.232  0.9861 -0.4905 -0.7738
  934MPD2    H213666   1.402   0.685   2.558  0.7536 -0.0923 -0.9190
  934MPD2    H313667   1.218   0.547   2.462 -1.5737  6.1149  1.4581
  934MPD2     N13668   1.450   0.464   2.079 -0.0901  0.1689  0.1582
  934MPD2    H513669   1.369   0.412   2.047 -1.0029 -0.1703  3.0104
  934MPD2    N113670   1.646   0.723   2.452 -0.2964 -0.8091  0.4044
  934MPD2    H713671   1.729   0.723   2.394  0.9386 -2.0020  2.1441
  935MPD2     C13672   2.197   0.090   1.465 -0.0714  0.4787  0.1657
  935MPD2    C113673   2.074   0.076   1.402 -0.3584  0.5538 -0.1564
  935MPD2    C213674   1.964   0.147   1.447 -0.1875  0.6964  0.3764
  935MPD2    C313675   1.969   0.215   1.562 -0.1648  0.4674  0.6272
  935MPD2    C413676   2.083   0.204   1.634 -0.6178  0.3569  0.0486
  935MPD2    C513677   2.199   0.152   1.582 -0.0670 -0.6927 -0.3150
  935MPD2     H13678   1.874   0.159   1.388  0.6015  2.9190 -0.3857
  935MPD2    H113679   2.089   0.246   1.734 -0.6863  0.8341 -0.1466
  935MPD2    H213680   2.288   0.039   1.434 -0.3823 -0.3516  0.6200
  935MPD2    H313681   2.286   0.156   1.646  1.1916  1.0320 -2.1537
  935MPD2     N13682   1.864   0.278   1.627  0.2987 -0.6850 -0.1436
  935MPD2    H513683   1.883   0.293   1.726  2.3409  1.3052 -0.8557
  935MPD2    N113684   2.058   0.009   1.278 -0.4336 -0.3017 -0.0077
  935MPD2    H713685   1.961   0.016   1.247 -0.4558  1.0922  0.3960
  936MPD2     C13686   4.701   2.799  12.608 -0.0004  0.1836 -0.0018
  936MPD2    C113687   0.024   2.676  12.645 -0.6147  0.4439  0.1503
  936MPD2    C213688   0.089   2.614  12.551  0.1842  0.8647 -0.7404
  936MPD2    C313689   0.113   2.659  12.424 -0.0585 -0.5987 -0.2733
  936MPD2    C413690   0.067   2.783  12.392 -0.2527 -0.4904  0.7579
  936MPD2    C513691   4.717   2.855  12.480  0.1417 -0.6173 -0.1143
  936MPD2     H13692   0.126   2.513  12.561  1.6358  1.2172 -2.6796
  936MPD2    H113693   0.070   2.819  12.290 -0.0964 -0.3007  0.8301
  936MPD2    H213694   4.636   2.862  12.667 -1.9117 -0.6399 -1.2273
  936MPD2    H313695   4.687   2.954  12.447 -0.6474 -1.1621 -1.0314
  936MPD2     N13696   0.191   2.580  12.337  0.2199  0.0323 -0.1199
  936MPD2    H513697   0.211   2.486  12.368 -2.8202 -0.4585  0.3568
  936MPD2    N113698   0.008   2.611  12.759  0.2820 -0.4781 -0.7674
  936MPD2    H713699   0.035   2.514  12.771  0.1502 -0.6687 -2.0435
  937MPD2     C13700   3.093   3.504  11.949 -0.4931  0.2293 -0.3061
  937MPD2    C113701   3.145   3.630  11.937  0.0533  0.0625 -0.2448
  937MPD2    C213702   3.227   3.666  11.829 -0.0174 -0.0640 -0.2202
  937MPD2    C313703   3.281   3.574  11.748 -0.0729  0.0175  0.1449
  937MPD2    C413704   3.223   3.451  11.751 -0.2492 -0.3212  0.3911
  937MPD2    C513705   3.126   3.419  11.851 -0.5228  0.8502 -0.3357
  937MPD2     H13706   3.268   3.766  11.827  2.8670 -1.2242  0.7176
  937MPD2    H113707   3.262   3.365  11.697  1.2061 -0.5343  1.7929
  937MPD2    H213708   3.022   3.468  12.022 -1.8645  1.1233 -1.1866
  937MPD2    H313709   3.102   3.314  11.865  0.8271  0.5899  0.0540
  937MPD2     N13710   3.390   3.616  11.666 -0.1750 -0.1226  0.0368
  937MPD2    H513711   3.417   3.714  11.674  1.7010 -0.8830  2.7894
  937MPD2    N113712   3.077   3.733  12.005  0.3483 -0.0235  0.2587
  937MPD2    H713713   3.097   3.826  11.971  0.1556  0.6631  2.0147
  938MPD2     C13714   0.446   0.026   1.003  0.1520 -0.5267  0.7683
  938MPD2    C113715   0.544   4.690   1.075 -0.2264 -0.4410  0.2422
  938MPD2    C213716   0.507   4.616   1.191 -0.0702 -0.4370 -0.0786
  938MPD2    C313717   0.372   4.615   1.235 -0.0119 -0.6269  0.0950
  938MPD2    C413718   0.283   4.676   1.160  0.6865 -0.1075 -0.4101
  938MPD2    C513719   0.316   0.006   1.032  0.6710 -0.5758  1.0926
  938MPD2     H13720   0.591   4.576   1.246  0.5009  0.5293 -0.2462
  938MPD2    H113721   0.179   4.667   1.189  0.0698  0.0127 -2.5413
  938MPD2    H213722   0.470   0.085   0.915 -1.9552  1.1018  1.2729
  938MPD2    H313723   0.236   0.051   0.973 -0.0142  0.9156  3.1625
  938MPD2     N13724   0.337   4.560   1.362 -0.0472 -0.0720 -0.4346
  938MPD2    H513725   0.420   4.519   1.404 -0.2454 -2.2912 -2.2449
  938MPD2    N113726   0.682   4.703   1.039  0.3442 -0.3671 -0.1761
  938MPD2    H713727   0.748   4.669   1.108  0.5332  0.7223  0.1731
  939MPD2     C13728   2.037   1.047   1.430  0.2917 -0.2459 -0.1448
  939MPD2    C113729   2.027   1.184   1.422 -0.7935  0.5106  0.0761
  939MPD2    C213730   2.097   1.253   1.328 -0.3562  0.2201 -0.2386
  939MPD2    C313731   2.165   1.185   1.233 -0.2597 -0.6786  0.4681
  939MPD2    C413732   2.161   1.042   1.232 -0.0899  0.0116  0.7438
  939MPD2    C513733   2.108   0.971   1.341  0.2410  0.6864 -0.6804
  939MPD2     H13734   2.100   1.361   1.319  2.4745  0.2963  1.7239
  939MPD2    H113735   2.212   0.977   1.162  0.9143 -0.3055  1.7704
  939MPD2    H213736   1.986   0.998   1.512 -1.1018  2.9377  0.8945
  939MPD2    H313737   2.118   0.863   1.345  0.5277  0.7325 -0.2330
  939MPD2     N13738   2.230   1.264   1.133  0.6121 -0.4887 -0.1854
  939MPD2    H513739   2.200   1.360   1.139 -1.4430 -0.9494 -3.0081
  939MPD2    N113740   1.938   1.238   1.516 -0.2235  0.1152 -0.9370
  939MPD2    H713741   1.897   1.175   1.585  1.2943 -1.5292 -1.5135
  940MPD2     C13742   0.778   2.238  13.130  0.2036 -0.3848 -0.0409
  940MPD2    C113743   0.794   2.109  13.187  0.3697  0.1624  0.4248
  940MPD2    C213744   0.798   2.003  13.099  0.2868 -0.2044 -0.0121
  940MPD2    C313745   0.780   2.022  12.961  0.3421  0.4468  0.0948
  940MPD2    C413746   0.781   2.143  12.911  0.1181 -0.3025  0.0446
  940MPD2    C513747   0.784   2.249  12.993  0.0175 -0.0630  0.1843
  940MPD2     H13748   0.807   1.902  13.140 -0.6095 -0.8983 -1.5611
  940MPD2    H113749   0.772   2.166  12.805 -0.1625  1.2434  0.3990
  940MPD2    H213750   0.780   2.325  13.193 -0.4901 -1.2573  1.1791
  940MPD2    H313751   0.783   2.344  12.941 -2.0417  0.1106  0.5418
  940MPD2     N13752   0.791   1.903  12.880  0.3300  0.0543 -0.3367
  940MPD2    H513753   0.786   1.814  12.929 -1.4860  0.6019  0.4493
  940MPD2    N113754   0.819   2.081  13.328  0.3760  0.1900  0.0101
  940MPD2    H713755   0.797   1.985  13.351 -0.1247  0.3016  0.0102
  941MPD2     C13756   1.567   0.612   9.771 -0.6601  0.0697  0.2116
  941MPD2    C113757   1.527   0.740   9.733 -0.3296  0.7465  0.5445
  941MPD2    C213758   1.391   0.775   9.746  0.2979 -0.8806  0.1582
  941MPD2    C313759   1.297   0.690   9.802 -0.2103  0.4634 -0.6912
  941MPD2    C413760   1.344   0.558   9.833  0.0928  0.1156  0.2249
  941MPD2    C513761   1.478   0.525   9.816  0.1861  0.0196 -1.0520
  941MPD2     H13762   1.356   0.875   9.727 -1.7719 -1.8606 -1.1501
  941MPD2    H113763   1.285   0.477   9.875 -0.7820  1.4312  1.5243
  941MPD2    H213764   1.670   0.581   9.767 -1.0221 -1.2052  0.7513
  941MPD2    H313765   1.510   0.425   9.842 -1.3004 -0.8980 -2.8103
  941MPD2     N13766   1.162   0.718   9.811  0.2965 -0.5600  0.0609
  941MPD2    H513767   1.100   0.649   9.852 -0.3828 -0.4043 -0.6933
  941MPD2    N113768   1.611   0.840   9.672 -0.7782 -0.7205  0.4738
  941MPD2    H713769   1.572   0.933   9.658  1.7048  0.4359  1.2677
  942MPD2     C13770   0.100   2.846   9.392 -0.1290 -0.1849  0.0825
  942MPD2    C113771   0.210   2.935   9.404 -0.0742  0.6286 -0.4988
  942MPD2    C213772   0.335   2.878   9.423 -0.0219 -0.2585  0.1622
  942MPD2    C313773   0.350   2.742   9.443 -0.6977  0.6850 -0.2231
  942MPD2    C413774   0.243   2.664   9.429 -0.4672  0.0866 -0.0031
  942MPD2    C513775   0.121   2.713   9.400  0.2430  0.2115  0.5225
  942MPD2     H13776   0.416   2.949   9.428 -0.3034  0.1499 -1.1320
  942MPD2    H113777   0.243   2.558   9.449 -3.0650 -0.0557 -0.8017
  942MPD2    H213778   0.001   2.881   9.363  0.2631  1.7860  1.1134
  942MPD2    H313779   0.039   2.642   9.388  2.2930 -2.0738 -0.0878
  942MPD2     N13780   0.477   2.687   9.463  0.1377 -0.0951 -0.0366
  942MPD2    H513781   0.489   2.586   9.465 -0.9490 -0.2174 -0.0425
  942MPD2    N113782   0.203   3.077   9.384 -0.2698 -0.0715  0.3752
  942MPD2    H713783   0.285   3.136   9.389 -1.2967  1.3686  0.0754
  943MPD2     C13784   3.001   4.366   9.557 -0.7830 -0.6228  0.2644
  943MPD2    C113785   3.038   4.501   9.560  0.4382  0.1555 -0.3859
  943MPD2    C213786   2.967   4.584   9.476 -0.2381  0.1618  0.3985
  943MPD2    C313787   2.870   4.536   9.387 -0.0182 -1.2096 -0.0914
  943MPD2    C413788   2.836   4.399   9.385  0.2017 -0.3991  0.2995
  943MPD2    C513789   2.907   4.315   9.467  0.9154  0.4042 -0.0433
  943MPD2     H13790   2.983   4.691   9.482 -0.4172  0.1369  1.4102
  943MPD2    H113791   2.754   4.356   9.329 -0.6499  0.1651  1.1232
  943MPD2    H213792   3.035   4.290   9.626  1.2599 -0.0525 -0.0985
  943MPD2    H313793   2.881   4.210   9.471 -2.5048  1.2444  0.2383
  943MPD2     N13794   2.791   4.621   9.302 -0.0936  0.2044 -0.0230
  943MPD2    H513795   2.712   4.581   9.252  1.3030  0.3387 -2.3090
  943MPD2    N113796   3.141   4.544   9.642 -0.5072 -0.0978 -0.2590
  943MPD2    H713797   3.203   4.471   9.675  0.3249 -0.4879 -2.6456
  944MPD2     C13798   3.766   4.593  11.269 -0.0385 -0.1575  0.3483
  944MPD2    C113799   3.823   4.698  11.196 -0.6084  0.0222  0.3493
  944MPD2    C213800   3.850   0.095  11.262 -0.6368 -0.3352  0.3699
  944MPD2    C313801   3.813   0.116  11.390 -0.7340 -0.5903 -0.4606
  944MPD2    C413802   3.747   0.015  11.456 -0.7041 -0.7070 -0.7853
  944MPD2    C513803   3.739   4.614  11.405  0.6100  0.3282 -0.6193
  944MPD2     H13804   3.878   0.182  11.203  1.2711 -0.1858  1.5073
  944MPD2    H113805   3.700   0.038  11.552 -2.0611  1.9244 -2.0867
  944MPD2    H213806   3.750   4.493  11.231 -0.7067 -0.1360  0.5795
  944MPD2    H313807   3.690   4.530  11.453  2.5047 -0.3452  0.1462
  944MPD2     N13808   3.833   0.245  11.454 -0.2133  0.2337 -0.1463
  944MPD2    H513809   3.862   0.320  11.392  2.5510 -2.1691 -1.7700
  944MPD2    N113810   3.847   4.678  11.059  0.1647  0.4098  0.2916
  944MPD2    H713811   3.816   4.587  11.029  0.2799  0.3833  0.2509
    1TCq1    O113812   1.375   1.481  13.744 -0.5653  0.8209 -0.3638
    1TCq1    C113813   1.331   1.350  13.732  0.3104  0.3569  0.2284
    1TCq1    O213814   1.339   1.283  13.632  0.3202 -0.3935 -0.0257
    1TCq1    C213815   1.286   1.283  13.863 -0.3946 -0.0239 -0.4010
    1TCq1    C313816   1.233   1.161  13.849  0.1094 -0.1202 -0.0252
    1TCq1    C413817   1.217   1.091  13.963 -0.7277  0.1069  0.1420
    1TCq1    C513818   1.253   1.142  14.085 -0.0526 -0.0236  0.0680
    1TCq1    C613819   1.303   1.270  14.098  0.1610 -0.6838  0.3847
    1TCq1    C713820   1.317   1.344  13.984 -0.3545  0.1168  0.5224
    1TCq1    C813821   1.359   1.306  14.231  0.3532  0.0155 -0.1799
    1TCq1    O413822   1.330   1.231  14.323  0.0589  0.3703  0.2823
    1TCq1    C913823   1.175   0.956  13.944  0.1150 -0.6054  0.4516
    1TCq1    O513824   1.154   0.910  13.828 -0.3784 -0.1128 -0.5815
    1TCq1    O613825   1.177   0.890  14.052  0.0137  0.3511 -0.4139
    1TCq1    H113826   1.349   1.511  13.833 -0.3477  0.5346 -0.2024
    1TCq1    H213827   1.204   1.129  13.750 -0.5509  1.8831 -0.4648
    1TCq1    H313828   1.240   1.072  14.168 -1.0130  0.9861  0.7673
    1TCq1    H413829   1.376   1.435  13.976  1.1349 -0.7720  1.4763
    2MPD2     C13830   1.659   1.588  14.544  0.0364  0.4584 -0.1271
    2MPD2    C113831   1.633   1.662  14.429  0.1133 -0.0587 -0.3586
    2MPD2    C213832   1.575   1.600  14.325 -0.2754 -0.3376 -0.5648
    2MPD2    C313833   1.527   1.468  14.335 -0.1406 -0.0175  0.4936
    2MPD2    C413834   1.554   1.397  14.444  0.2405  0.5078  0.8945
    2MPD2    C513835   1.621   1.453  14.546  0.5102  1.1559 -0.2791
    2MPD2     H13836   1.568   1.652  14.230 -0.2361  1.8572  0.6317
    2MPD2    H113837   1.521   1.298  14.470 -2.4335  0.9281 -0.9455
    2MPD2    H213838   1.703   1.625  14.636  0.3422  0.4663 -0.2764
    2MPD2    H313839   1.637   1.399  14.638 -1.4920  2.3274  0.7442
    2MPD2     N13840   1.443   1.422  14.229 -0.1506  0.4057  0.0776
    2MPD2    H513841   1.435   1.482  14.147  2.0214  1.1931  0.4408
    2MPD2    N113842   1.674   1.801  14.425 -0.2191  0.2949 -0.7232
    2MPD2    H713843   1.727   1.842  14.502  0.6714 -1.3321 -0.4789
    3TMC2    C113844   1.677   2.027  14.370 -0.1918  0.1313 -0.1283
    3TMC2    C213845   1.804   2.049  14.428  0.5296 -0.1490  0.0023
    3TMC2    C313846   1.856   2.176  14.423  0.4625 -0.1328 -0.2046
    3TMC2    C413847   1.601   2.129  14.319 -0.0508 -0.0522 -0.5309
    3TMC2    C513848   1.654   2.255  14.331 -0.7668 -0.1396  0.1831
    3TMC2    C613849   1.784   2.282  14.376  0.3254 -0.4891  0.4463
    3TMC2     C13850   1.618   1.896  14.351  0.1660  0.0123  0.5024
    3TMC2     O13851   1.530   1.888  14.265  0.1350 -0.1422  0.2398
    3TMC2     H13852   1.866   1.965  14.457  2.0065  0.2299 -2.0779
    3TMC2    H113853   1.502   2.105  14.281 -1.4329  3.2817  0.9678
    3TMC2    H213854   1.816   2.386  14.381 -0.3884 -0.2418 -0.1206
    3TMC2    C713855   1.583   2.366  14.270 -0.3498 -0.4150 -0.1626
    3TMC2    C813856   1.989   2.195  14.469 -0.3447 -0.4747 -1.0186
    3TMC2    O113857   1.658   2.446  14.218 -0.4532 -0.3645  0.3116
    3TMC2    O213858   2.026   2.121  14.559  0.0086 -0.7649  0.3340
    3TMC2    O513859   2.051   2.231  14.354  0.0650 -0.3650  0.1005
    3TMC2    H513860   1.980   2.246  14.288  1.4782  0.8558 -1.1475
    4MPD2     C13861   0.934   2.595  13.163  0.1734  0.6400  0.2565
    4MPD2    C113862   0.896   2.633  13.285  0.2708  0.5145 -0.4080
    4MPD2    C213863   0.996   2.682  13.374  0.1974 -0.2221 -1.0156
    4MPD2    C313864   1.131   2.687  13.325 -0.3034 -0.9050  0.6592
    4MPD2    C413865   1.163   2.621  13.208  0.4967 -0.0699  0.2398
    4MPD2    C513866   1.063   2.575  13.131 -0.1424  0.4932  0.3607
    4MPD2     H13867   0.968   2.726  13.469 -1.5934 -0.7341 -1.3101
    4MPD2    H113868   1.265   2.610  13.174  0.4344 -1.2938  0.4461
    4MPD2    H213869   0.853   2.553  13.104 -0.5505  0.9935  1.0029
    4MPD2    H313870   1.091   2.530  13.037 -1.4007  0.4367  0.0131
    4MPD2     N13871   1.224   2.746  13.410 -0.5207  0.3767 -0.3817
    4MPD2    H513872   1.191   2.760  13.505  3.5274  2.8800  0.6622
    4MPD2    N113873   0.756   2.627  13.315  0.3534  0.3937 -0.6948
    4MPD2    H713874   0.699   2.605  13.234 -0.2210  0.3725 -0.2867
    5TCq2    C113875   1.355   2.771  13.378  0.2369 -0.5368 -0.2932
    5TCq2    O213876   1.404   2.790  13.268 -0.0476  0.2128  0.0821
    5TCq2    C213877   1.444   2.801  13.490 -0.1013  0.8299 -0.4351
    5TCq2    C313878   1.565   2.861  13.467 -0.3139 -0.3310 -0.4179
    5TCq2    C413879   1.669   2.860  13.556 -0.9762  0.3419  0.1119
    5TCq2    C513880   1.641   2.785  13.671 -0.2085  0.0410  0.2356
    5TCq2    C613881   1.519   2.732  13.697  0.1921  0.9699 -0.2846
    5TCq2    C713882   1.415   2.744  13.609  0.4175  0.6194 -0.3402
    5TCq2    C813883   1.504   2.665  13.830  0.3372 -0.4903 -0.3942
    5TCq2    O413884   1.606   2.636  13.893  1.0997 -0.3985 -0.4610
    5TCq2    C913885   1.806   2.904  13.536  0.3467  0.1030 -0.7583
    5TCq2    O513886   1.831   2.988  13.445 -0.6679  0.1240  0.0233
    5TCq2    O613887   1.886   2.881  13.632 -0.1118  0.2613  0.4989
    5TCq2    H213888   1.590   2.904  13.371 -2.9665  2.1341 -0.0073
    5TCq2    H313889   1.724   2.772  13.740 -0.8752  2.2953  1.4780
    5TCq2    H413890   1.318   2.700  13.630  0.0040  1.5507 -0.3212
    6MPD1     C13891   0.290   3.568  12.029  0.2683 -0.5147 -0.2468
    6MPD1    C113892   0.272   3.639  12.146 -0.2439 -0.0726  0.8231
    6MPD1    C213893   0.301   3.572  12.262  0.7677 -0.2528 -0.5357
    6MPD1    C313894   0.350   3.440  12.270 -0.4369  0.0118  0.1441
    6MPD1    C413895   0.367   3.373  12.155  1.0135  0.2110  1.1353
    6MPD1    C513896   0.349   3.442  12.034  0.0880 -0.1292  0.8142
    6MPD1     H13897   0.277   3.626  12.353  2.1760 -0.9915  0.2661
    6MPD1    H113898   0.394   3.268  12.153 -2.7358 -0.7505  1.7216
    6MPD1    H213899   0.266   3.607  11.931  2.4452  2.4038  0.3882
    6MPD1    H313900   0.359   3.389  11.941  0.1094  0.3636  0.5331
    6MPD1     N13901   0.394   3.368  12.389  0.2796 -0.2607  0.2717
    6MPD1    H513902   0.438   3.278  12.375 -2.3822 -1.1787 -2.2687
    6MPD1    N113903   0.191   3.752  12.149 -0.4764  0.0425 -0.1603
    6MPD1    H613904   0.206   3.815  12.228  4.1580 -2.2200  0.7515
    6MPD1    H713905   0.192   3.802  12.060 -1.0774  2.7297  1.3363
    7MPD2     C13906   0.450   3.335  13.265 -0.2412  0.1888  0.0638
    7MPD2    C113907   0.381   3.234  13.197  0.1510  0.2925 -0.4337
    7MPD2    C213908   0.347   3.121  13.262  0.5439  0.8306 -0.0629
    7MPD2    C313909   0.377   3.108  13.397 -0.1490 -0.7807 -0.2821
    7MPD2    C413910   0.447   3.206  13.455  0.2430 -0.1441  0.2167
    7MPD2    C513911   0.491   3.316  13.394 -0.4808 -0.0402 -0.0393
    7MPD2     H13912   0.287   3.047  13.211  0.6557 -0.5374  1.7646
    7MPD2    H113913   0.475   3.190  13.559  0.4228 -0.1543  0.1660
    7MPD2    H213914   0.474   3.429  13.216  3.8127 -1.6963 -1.6006
    7MPD2    H313915   0.551   3.394  13.437  1.0774 -0.2392 -1.8537
    7MPD2     N13916   0.364   2.981  13.476 -0.3888  0.2615  0.6272
    7MPD2    H513917   0.430   2.960  13.550  2.0305  0.4008 -1.4668
    7MPD2    N113918   0.363   3.230  13.056  0.2653  0.6669 -0.3711
    7MPD2    H713919   0.313   3.147  13.026  0.4079  0.5667 -0.3321
    8TMC3    C113920   0.332   2.742  13.475  0.2334 -0.1221  0.0429
    8TMC3    C213921   0.465   2.742  13.500  0.1875 -0.1363 -0.6842
    8TMC3    C313922   0.549   2.651  13.427  0.6607 -1.5055  1.1689
    8TMC3    C413923   0.275   2.662  13.380 -0.0204  0.1161 -0.6739
    8TMC3    C513924   0.360   2.580  13.312 -0.3192 -0.3802 -1.3534
    8TMC3    C613925   0.496   2.569  13.325 -0.2616 -0.5000  0.4341
    8TMC3     C13926   0.283   2.876  13.446  0.0741  1.3481  0.5874
    8TMC3     O13927   0.185   2.876  13.371 -0.0022  0.0918  0.8835
    8TMC3     H13928   0.506   2.791  13.588 -0.7286 -2.0416  0.7773
    8TMC3    H113929   0.170   2.641  13.368  0.1413 -2.2268  1.9370
    8TMC3    H213930   0.548   2.491  13.271 -0.4498 -0.4455  0.1750
    8TMC3    C713931   0.317   2.591  13.178 -0.8375 -0.1253 -0.5921
    8TMC3    C813932   0.695   2.662  13.435  0.6580  1.0071  0.3667
    8TMC3    O113933   0.229   2.676  13.157 -0.1566 -0.6849 -0.2186
    8TMC3    O213934   0.742   2.709  13.541  0.1417  0.0742 -0.4445
    9TMC3    C113935   0.428   3.313  12.607  0.1592 -0.0757 -0.0625
    9TMC3    C213936   0.441   3.179  12.579 -0.4394  0.0594 -0.2962
    9TMC3    C313937   0.440   3.087  12.684 -0.3762  0.2031 -0.1609
    9TMC3    C413938   0.418   3.357  12.736 -0.6519  0.5816 -0.1332
    9TMC3    C513939   0.417   3.263  12.834 -0.2586 -0.5948 -0.0918
    9TMC3    C613940   0.422   3.128  12.810  0.5085 -0.6521  0.0002
    9TMC3     C13941   0.390   3.412  12.512 -0.6224 -0.7701 -0.9746
    9TMC3     O13942   0.348   3.521  12.551  0.1185 -0.4852  0.9335
    9TMC3     H13943   0.431   3.134  12.481 -0.1403  3.5383 -1.8993
    9TMC3    H113944   0.421   3.462  12.764 -0.4095  0.5844 -0.1634
    9TMC3    H213945   0.424   3.055  12.891 -0.3266 -2.2275 -1.4066
    9TMC3    C713946   0.406   3.323  12.966 -0.0094  0.1470 -0.4443
    9TMC3    C813947   0.433   2.944  12.650  0.2725 -0.2092  0.6293
    9TMC3    O113948   0.460   3.432  12.986  0.4687  0.2486 -0.1053
    9TMC3    O213949   0.477   2.907  12.542  0.0777  0.3581  0.1483
   10MPD2     C13950   0.454   2.463  12.861  0.1035 -0.1596 -0.2346
   10MPD2    C113951   0.401   2.555  12.949 -0.3887 -0.1504 -0.3590
   10MPD2    C213952   0.368   2.685  12.906  0.1034 -0.0498 -0.2632
   10MPD2    C313953   0.404   2.734  12.784  0.5806 -0.0485  0.2254
   10MPD2    C413954   0.465   2.646  12.698 -0.2221  0.0030  0.6408
   10MPD2    C513955   0.479   2.513  12.736 -1.2960 -1.0447 -0.1428
   10MPD2     H13956   0.314   2.753  12.971 -0.0382 -1.1303  0.7484
   10MPD2    H113957   0.495   2.679  12.599 -0.3642  1.0669  0.9562
   10MPD2    H213958   0.489   2.362  12.879 -0.0923  0.0948  1.6393
   10MPD2    H313959   0.520   2.447  12.660  1.6400 -2.0894  2.3254
   10MPD2     N13960   0.381   2.871  12.756  0.6022 -0.3926  0.5940
   10MPD2    H513961   0.337   2.921  12.833 -1.1862  0.8688 -1.2845
   10MPD2    N113962   0.386   2.516  13.087 -0.2512  1.0543  0.2269
   10MPD2    H713963   0.426   2.427  13.116 -0.8943  0.0692 -1.8764
   11MPD2     C13964   1.232   2.389  14.163 -0.3366 -0.2432 -0.1360
   11MPD2    C113965   1.366   2.407  14.152 -0.5817  0.2184  0.2929
   11MPD2    C213966   1.414   2.493  14.054 -0.0721  0.0511 -0.5506
   11MPD2    C313967   1.324   2.555  13.964 -1.2166 -0.8815  0.3947
   11MPD2    C413968   1.187   2.531  13.967  0.2208  0.3919  0.0177
   11MPD2    C513969   1.149   2.448  14.068  0.0683 -0.4037 -0.2590
   11MPD2     H13970   1.520   2.515  14.059 -0.2313  0.8621 -0.6898
   11MPD2    H113971   1.117   2.581  13.902  1.6934  0.9427 -1.1434
   11MPD2    H213972   1.197   2.325  14.244  0.4671  0.1050  0.4837
   11MPD2    H313973   1.043   2.432  14.081  0.3568 -1.5544  0.7499
   11MPD2     N13974   1.368   2.638  13.861 -0.5057  0.4201  0.1943
   11MPD2    H513975   1.307   2.685  13.794  1.7110 -0.0833 -2.1832
   11MPD2    N113976   1.449   2.341  14.247  0.0094 -0.6501 -0.1338
   11MPD2    H713977   1.402   2.278  14.310  1.3554 -2.4064 -0.9092
    1MPD1     C13978   3.137   4.251  16.552 -0.0998  0.7200 -0.2144
    1MPD1    C113979   3.247   4.231  16.634  0.0142  0.3306 -0.6854
    1MPD1    C213980   3.363   4.179  16.577  0.1049 -0.0994  0.2047
    1MPD1    C313981   3.374   4.160  16.443  0.1072 -0.0810 -0.1241
    1MPD1    C413982   3.264   4.177  16.363  0.1995  0.7435 -0.3683
    1MPD1    C513983   3.148   4.219  16.422  0.7276  0.6987 -0.1362
    1MPD1     H13984   3.444   4.148  16.642 -0.1077  0.8956  0.9583
    1MPD1    H113985   3.264   4.147  16.259 -0.6942  0.2680 -0.2241
    1MPD1    H213986   3.044   4.287  16.594 -1.1541 -1.3369 -0.8040
    1MPD1    H313987   3.059   4.230  16.361 -0.3573  0.6748  1.4202
    1MPD1     N13988   3.498   4.133  16.380 -0.1014  0.2579 -0.0043
    1MPD1    H513989   3.506   4.150  16.280 -2.4460 -3.2735 -0.7710
    1MPD1    N113990   3.234   4.232  16.773  0.3147  0.0362 -0.5963
    1MPD1    H613991   3.170   4.306  16.804  1.9797  0.9348  0.6682
    1MPD1    H713992   3.321   4.239  16.825 -0.0527  3.8065 -0.4493
    2MPD1     C13993   4.529   3.802  16.450 -0.8113 -0.0244 -0.0937
    2MPD1    C113994   4.474   3.774  16.329 -0.8340  0.5204 -0.0922
    2MPD1    C213995   4.354   3.837  16.293  0.2841  0.8180  0.6682
    2MPD1    C313996   4.279   3.912  16.375 -0.2439 -0.2121  0.5494
    2MPD1    C413997   4.325   3.926  16.503 -0.8005 -0.9129  0.2572
    2MPD1    C513998   4.453   3.878  16.540  0.0634  0.3246  0.4356
    2MPD1     H13999   4.315   3.820  16.193  0.1477  1.8900  0.5415
    2MPD1    H114000   4.275   3.979  16.584  1.0803  0.7854  0.3035
    2MPD1    H214001   4.614   3.749  16.488 -0.4565  0.2237 -0.5371
    2MPD1    H314002   4.473   3.886  16.646  1.6041  0.4363  0.1354
    2MPD1     N14003   4.167   3.978  16.328 -0.3743 -0.1799  0.0025
    2MPD1    H514004   4.146   3.966  16.230  1.4892 -1.0330 -0.2859
    2MPD1    N114005   4.540   3.703  16.225 -0.3310  0.1270  0.3974
    2MPD1    H614006   4.593   3.631  16.273 -0.2730  0.5362  0.9474
    2MPD1    H714007   4.470   3.657  16.167  1.5949 -0.4069 -1.4856
    3TMC3    C114008   3.967   4.098  16.345 -0.0822  0.1939  0.2646
    3TMC3    C214009   3.966   4.103  16.204 -0.0067  0.5659  0.2994
    3TMC3    C314010   3.841   4.111  16.151 -0.1906  0.6295 -0.0923
    3TMC3    C414011   3.858   4.088  16.421 -1.2749  0.2446  0.2898
    3TMC3    C514012   3.733   4.099  16.354  0.2317 -0.7063  0.1020
    3TMC3    C614013   3.724   4.116  16.219  0.2768  0.2557 -0.2767
    3TMC3     C14014   4.088   4.057  16.406 -0.0264  0.1221 -1.1939
    3TMC3     O14015   4.087   4.091  16.524  0.3356  0.2947  0.1016
    3TMC3     H14016   4.060   4.110  16.150  1.1498 -1.6400  2.0210
    3TMC3    H114017   3.863   4.075  16.529  0.8711 -1.3662 -0.0289
    3TMC3    H214018   3.634   4.140  16.164  0.7725 -2.0071 -2.0842
    3TMC3    C714019   3.612   4.094  16.439 -0.2407  0.1549  0.0510
    3TMC3    C814020   3.828   4.130  16.011 -0.3895 -0.2927 -0.1549
    3TMC3    O114021   3.631   4.057  16.554  0.1484  0.5905  0.2232
    3TMC3    O214022   3.723   4.181  15.973 -0.2003 -0.0771  0.3905
    4MPD1     C14023   4.054   4.204  15.552 -0.0459  0.4954 -0.5848
    4MPD1    C114024   4.153   4.170  15.648  0.0157 -0.2862  0.1966
    4MPD1    C214025   4.109   4.137  15.775  0.1363  0.1344 -0.1042
    4MPD1    C314026   3.971   4.153  15.812 -0.7151 -0.0047 -0.6444
    4MPD1    C414027   3.887   4.214  15.728  0.3357  0.2535  0.6269
    4MPD1    C514028   3.925   4.234  15.597 -0.2050 -0.5947 -0.6935
    4MPD1     H14029   4.179   4.096  15.846  0.0282  0.6883  0.3204
    4MPD1    H114030   3.782   4.221  15.757  0.6923  1.2220  1.7069
    4MPD1    H214031   4.086   4.223  15.450  1.7623  1.2357  0.1285
    4MPD1    H314032   3.859   4.272  15.520 -3.9158  1.2556  3.4317
    4MPD1     N14033   3.945   4.112  15.948 -0.6265  0.4439  0.1369
    4MPD1    H514034   4.011   4.056  16.002 -1.2070 -0.4965 -0.1442
    4MPD1    N114035   4.286   4.154  15.609 -0.1344 -0.3880  0.2084
    4MPD1    H614036   4.343   4.148  15.694 -1.0532  1.7203  0.9590
    4MPD1    H714037   4.317   4.237  15.559 -1.6727 -0.9995 -1.7526
    1TCq1    O114038   0.802   1.441  11.818 -0.4951  0.2444 -0.4773
    1TCq1    C114039   0.720   1.507  11.896 -0.4290 -0.1545  0.2190
    1TCq1    O214040   0.748   1.590  11.983 -0.3726  0.8670  0.6761
    1TCq1    C214041   0.597   1.506  11.817 -0.5978 -0.3611  0.1460
    1TCq1    C314042   0.557   1.388  11.759 -0.3244  0.0257  0.0991
    1TCq1    C414043   0.451   1.386  11.677 -0.4838  0.2264  0.0604
    1TCq1    C514044   0.379   1.497  11.658 -0.2708 -0.6469 -0.0280
    1TCq1    C614045   0.417   1.611  11.725  0.1300 -0.6333 -0.3220
    1TCq1    C714046   0.529   1.621  11.799  0.5526 -0.0544  0.7576
    1TCq1    C814047   0.340   1.731  11.701 -0.5527  0.0647 -0.3069
    1TCq1    O414048   0.395   1.835  11.738  0.4474 -0.4240  0.2763
    1TCq1    C914049   0.397   1.261  11.627 -0.3810  0.2923  0.0581
    1TCq1    O514050   0.474   1.165  11.599 -0.5988  0.5124  0.8793
    1TCq1    O614051   0.274   1.274  11.590  0.1979  0.5583  0.5571
    1TCq1    H114052   0.763   1.409  11.734 -1.6068  2.9331 -0.9982
    1TCq1    H214053   0.609   1.295  11.777 -0.3962 -0.1582 -0.6232
    1TCq1    H314054   0.292   1.498  11.593 -0.6630  1.2647  0.5304
    1TCq1    H414055   0.561   1.715  11.841  0.0475 -0.8389  2.8975
    2MPD1     C14056   4.635   1.997  11.590  0.0418  0.6945 -0.6492
    2MPD1    C114057   4.622   1.864  11.568  0.4253 -0.0199 -0.6663
    2MPD1    C214058   4.720   1.775  11.590 -0.4134 -0.0295  0.4646
    2MPD1    C314059   0.119   1.816  11.632  0.8052 -0.5043  0.0166
    2MPD1    C414060   0.133   1.951  11.655  0.3546 -0.5507 -0.0701
    2MPD1    C514061   0.033   2.039  11.630 -0.2194  0.2083  0.0273
    2MPD1     H14062   4.697   1.669  11.588 -0.6598  0.0591 -1.4398
    2MPD1    H114063   0.231   1.981  11.690 -0.2313  0.8048  0.4269
    2MPD1    H214064   4.560   2.072  11.565 -0.6655 -0.1195 -0.9748
    2MPD1    H314065   0.050   2.145  11.645  1.3526 -0.3245  2.0555
    2MPD1     N14066   0.214   1.714  11.655 -0.1437  0.5236 -0.0689
    2MPD1    H514067   0.186   1.618  11.639 -0.0559  0.2672  1.3242
    2MPD1    N114068   4.504   1.822  11.517  0.3319  0.2242 -0.0262
    2MPD1    H614069   4.489   1.721  11.509  0.3879  0.3342 -1.6057
    2MPD1    H714070   4.426   1.853  11.574  1.6557  2.2861  0.6386
    1TCq1    O114071   3.437   4.705   0.900 -0.3319 -0.5149 -0.4792
    1TCq1    C114072   3.337   4.666   0.825  0.5953 -0.7787 -0.0664
    1TCq1    O214073   3.281   0.013   0.742 -0.3263  0.1583 -0.8206
    1TCq1    C214074   3.275   4.559   0.892  0.0014 -0.0504  0.8522
    1TCq1    C314075   3.138   4.567   0.882  0.3345  0.1905  0.3750
    1TCq1    C414076   3.055   4.484   0.946  0.1632 -0.1136 -0.1910
    1TCq1    C514077   3.103   4.424   1.060  0.8062  0.2113 -0.3767
    1TCq1    C614078   3.240   4.424   1.082 -0.3277  0.3713  0.5957
    1TCq1    C714079   3.333   4.493   0.997 -0.4334  0.4672 -0.8030
    1TCq1    C814080   3.297   4.355   1.206 -0.7818 -0.0868  0.1284
    1TCq1    O414081   3.226   4.270   1.256 -0.8122  0.1205 -0.5311
    1TCq1    C914082   2.918   4.508   0.936  0.3166  0.6189  0.2598
    1TCq1    O514083   2.884   4.589   0.844 -0.8337 -0.2633  0.1898
    1TCq1    O614084   2.845   4.451   1.018  0.5165  1.0208  0.3441
    1TCq1    H114085   3.467   4.639   0.966  1.5900  0.7229 -0.1106
    1TCq1    H214086   3.105   4.614   0.790  0.8660 -2.7552 -1.3323
    1TCq1    H314087   3.031   4.374   1.125  1.6473 -0.0982  0.3087
    1TCq1    H414088   3.439   4.471   0.994 -0.3098  1.4409 -3.4417
    2MPD1     C14089   3.656   4.284   1.560  0.2467 -0.1612  0.5448
    2MPD1    C114090   3.699   4.391   1.487 -0.6157  1.0951 -0.1260
    2MPD1    C214091   3.613   4.435   1.389  0.0363  0.0520  0.0536
    2MPD1    C314092   3.495   4.367   1.357 -0.1435  0.6256 -0.5458
    2MPD1    C414093   3.469   4.246   1.423 -0.4876  0.0967 -0.1697
    2MPD1    C514094   3.551   4.206   1.522  0.0505 -0.7257 -0.0945
    2MPD1     H14095   3.639   4.519   1.327 -0.4514 -1.4126 -2.1094
    2MPD1    H114096   3.389   4.184   1.385 -0.8117  0.4598 -0.0786
    2MPD1    H214097   3.712   4.254   1.647 -1.1515 -0.9189  1.1925
    2MPD1    H314098   3.537   4.107   1.565  0.8243 -0.7700  0.0629
    2MPD1     N14099   3.411   4.423   1.255  0.4983 -0.7900  0.5445
    2MPD1    H514100   3.438   4.517   1.228  2.0232 -1.3883 -0.0352
    2MPD1    N114101   3.807   4.476   1.522  0.2370 -0.0137  0.0640
    2MPD1    H614102   3.844   4.527   1.442  0.0073 -1.7337 -1.1217
    2MPD1    H714103   3.881   4.417   1.561 -0.1182 -1.2564 -1.1293
    1MPD1     C14104   3.293   2.112  11.606 -0.0572  0.3978 -0.3764
    1MPD1    C114105   3.304   2.150  11.740  0.4347  0.1955  0.7370
    1MPD1    C214106   3.195   2.214  11.791 -0.3067  0.0682  0.3992
    1MPD1    C314107   3.072   2.189  11.725  0.5542  0.5882 -0.3293
    1MPD1    C414108   3.066   2.121  11.604 -0.2027 -0.3404 -0.7603
    1MPD1    C514109   3.178   2.092  11.545 -0.5905  0.1630 -0.6145
    1MPD1     H14110   3.195   2.267  11.886 -0.2285  0.3015  0.2672
    1MPD1    H114111   2.973   2.111  11.551 -1.9808  0.5341  2.2093
    1MPD1    H214112   3.380   2.083  11.549 -0.3319  0.5766 -0.8915
    1MPD1    H314113   3.180   2.049  11.446  0.7617 -1.2728  0.0456
    1MPD1     N14114   2.950   2.232  11.784  0.0179  0.4752 -0.8312
    1MPD1    H514115   2.868   2.203  11.733  0.4584 -2.6534  0.2615
    1MPD1    N114116   3.430   2.163  11.798 -0.1329  0.2374 -0.1100
    1MPD1    H614117   3.491   2.090  11.764  0.0535  0.9565 -1.3023
    1MPD1    H714118   3.423   2.155  11.900 -2.3717  1.3170 -0.1668
    2MPD1     C14119   1.570   4.572  11.510  0.6702 -0.2236 -0.4079
    2MPD1    C114120   1.494   4.458  11.522  0.2229  0.5031  0.0739
    2MPD1    C214121   1.559   4.341  11.563  0.7660  0.4553  0.3223
    2MPD1    C314122   1.690   4.351  11.599  0.6210 -0.2437 -0.5383
    2MPD1    C414123   1.763   4.467  11.579 -0.4814 -0.2552  0.3104
    2MPD1    C514124   1.699   4.575  11.540 -0.2219  0.5851 -0.0680
    2MPD1     H14125   1.510   4.246  11.580  3.5798 -1.1137 -0.3495
    2MPD1    H114126   1.867   4.478  11.609  0.2432 -3.0198 -1.1788
    2MPD1    H214127   1.535   4.661  11.459  0.2570  0.4037  0.9742
    2MPD1    H314128   1.752   4.668  11.523  1.7758 -0.6917 -0.7824
    2MPD1     N14129   1.758   4.232  11.642  0.2440 -0.2699 -0.2225
    2MPD1    H514130   1.859   4.227  11.648  0.2609 -0.8478 -1.0072
    2MPD1    N114131   1.375   4.439  11.457 -0.5195  0.2987 -0.8536
    2MPD1    H614132   1.318   4.369  11.504  0.1033 -0.1857 -0.8314
    2MPD1    H714133   1.309   4.517  11.454 -1.3548 -0.3381  1.2335
    3MPD1     C14134   2.206   3.750  10.903  0.0479  0.0506 -0.1283
    3MPD1    C114135   2.201   3.651  11.000 -0.1422 -0.3832  0.2050
    3MPD1    C214136   2.122   3.669  11.106  0.3629  0.3448 -0.1536
    3MPD1    C314137   2.074   3.794  11.138 -0.2799  0.4583  0.0758
    3MPD1    C414138   2.086   3.899  11.045 -0.3329 -0.1771  0.3275
    3MPD1    C514139   2.141   3.870  10.928  0.3774  0.4210 -0.4798
    3MPD1     H14140   2.095   3.589  11.175  0.3853 -0.5440 -1.1836
    3MPD1    H114141   2.052   4.001  11.059  0.2425  0.1045 -0.3396
    3MPD1    H214142   2.267   3.746  10.814  0.3603  0.9072  0.0455
    3MPD1    H314143   2.159   3.960  10.870  0.6562  0.2957 -0.5847
    3MPD1     N14144   2.009   3.800  11.261 -0.1177  0.4276  0.6507
    3MPD1    H514145   2.007   3.720  11.324  0.2837  1.6015  2.1606
    3MPD1    N114146   2.239   3.522  10.971  0.0364  0.1956  0.1798
    3MPD1    H614147   2.256   3.473  11.058 -1.4463  1.1099  0.9671
    3MPD1    H714148   2.323   3.522  10.913  0.2284 -0.2588  0.4594
    4MPD2     C14149   2.489   2.576  12.442 -0.3117  0.7876 -0.7640
    4MPD2    C114150   2.506   2.599  12.315  0.2664  0.0655  0.6652
    4MPD2    C214151   2.479   2.716  12.258  0.2589  0.2505 -0.5056
    4MPD2    C314152   2.442   2.825  12.333  0.3672 -1.1503 -0.1955
    4MPD2    C414153   2.437   2.809  12.472 -0.4630  0.0724 -0.4039
    4MPD2    C514154   2.456   2.679  12.522 -0.2051 -0.6186 -0.5167
    4MPD2     H14155   2.495   2.719  12.151  1.8788 -2.3874 -0.3341
    4MPD2    H114156   2.408   2.885  12.544 -1.2833  2.3440 -3.1487
    4MPD2    H214157   2.501   2.476  12.482 -2.3753 -0.7538 -4.0299
    4MPD2    H314158   2.440   2.663  12.628 -0.2892 -0.0720 -0.4467
    4MPD2     N14159   2.427   2.953  12.274  0.3724 -1.0613 -0.0470
    4MPD2    H514160   2.470   2.960  12.182  0.1176 -0.5093 -0.1246
    4MPD2    N114161   2.539   2.501  12.221 -0.6735  0.4063  0.6442
    4MPD2    H714162   2.547   2.538  12.127  3.3969  2.3574  1.7437
    5TMC3    C114163   2.634   2.336  12.095  0.6288 -0.2230  0.5729
    5TMC3    C214164   2.763   2.301  12.074  0.0707 -0.0350  0.3144
    5TMC3    C314165   2.805   2.309  11.945  0.3682 -0.2365 -0.0543
    5TMC3    C414166   2.556   2.373  11.988 -0.1612  0.3157 -0.2219
    5TMC3    C514167   2.603   2.401  11.867  0.4094  0.2926  0.4192
    5TMC3    C614168   2.734   2.368  11.843  0.1821 -0.9935 -0.0239
    5TMC3     C14169   2.600   2.379  12.233 -0.5216 -0.2665 -0.2233
    5TMC3     O14170   2.660   2.328  12.326 -0.5652 -0.6168 -0.8030
    5TMC3     H14171   2.831   2.274  12.154  0.3823 -0.5706 -0.1324
    5TMC3    H114172   2.451   2.395  12.001  0.0789  1.6574 -0.5568
    5TMC3    H214173   2.780   2.399  11.750 -1.1721  1.7441  0.2226
    5TMC3    C714174   2.588   2.546  11.860 -0.3027 -0.6094 -0.0591
    5TMC3    C814175   2.942   2.275  11.915 -0.2234 -0.0093  0.1087
    5TMC3    O114176   2.556   2.595  11.965 -0.2842 -0.2490  0.1135
    5TMC3    O214177   3.014   2.240  12.008  0.0186  0.1444  0.0482
    6TMC3    C114178   1.798   4.005  11.632  0.1706  0.1910  0.6969
    6TMC3    C214179   1.844   4.020  11.501 -0.4690 -0.9231 -0.0800
    6TMC3    C314180   1.900   3.906  11.456 -1.1129 -0.1345  0.3324
    6TMC3    C414181   1.782   3.889  11.698  0.3080 -0.6936 -0.3204
    6TMC3    C514182   1.836   3.774  11.641  0.8747  0.0939  0.3805
    6TMC3    C614183   1.904   3.783  11.520  0.2908  0.2866 -0.1193
    6TMC3     C14184   1.704   4.110  11.674  0.1664 -0.7042  0.4035
    6TMC3     O14185   1.588   4.080  11.699  0.3099 -0.0626  0.0777
    6TMC3     H14186   1.830   4.110  11.442 -0.9194  0.0489  1.5122
    6TMC3    H114187   1.728   3.890  11.792  1.8697 -0.4360  0.5753
    6TMC3    H214188   1.927   3.687  11.475  0.5353 -0.0763  0.7779
    6TMC3    C714189   1.870   3.664  11.722 -0.4429 -0.2331  0.2802
    6TMC3    C814190   1.952   3.912  11.319  0.5802  0.7141  0.0004
    6TMC3    O114191   1.971   3.602  11.687  0.1109 -0.4514  0.3811
    6TMC3    O214192   1.948   4.023  11.269 -0.4254  0.0501 -0.6272
    7MPD2     C14193   2.496   2.967  11.591 -0.4209 -0.2145  0.4268
    7MPD2    C114194   2.509   2.952  11.728 -0.4147 -0.3995  0.0202
    7MPD2    C214195   2.544   2.825  11.776  0.0395  0.4478 -0.3600
    7MPD2    C314196   2.535   2.716  11.690 -1.0308 -0.3840 -1.0148
    7MPD2    C414197   2.508   2.735  11.556 -0.3068 -0.2044  0.3196
    7MPD2    C514198   2.503   2.859  11.506  0.3122 -0.2772 -0.3998
    7MPD2     H14199   2.583   2.810  11.876 -0.6622 -2.2568 -0.4899
    7MPD2    H114200   2.510   2.656  11.482 -0.2487  2.0280 -2.0334
    7MPD2    H214201   2.479   3.064  11.548 -2.2248 -0.8862 -0.3658
    7MPD2    H314202   2.490   2.866  11.398 -1.4671  0.4485 -0.1171
    7MPD2     N14203   2.572   2.584  11.732 -0.5273 -0.3939  0.4577
    7MPD2    H514204   2.583   2.516  11.657  0.4153 -0.0357  0.2638
    7MPD2    N114205   2.504   3.068  11.802 -0.3104  0.5411 -0.1680
    7MPD2    H714206   2.473   3.153  11.757 -0.1558  1.4996  1.5247
    8TMC3    C114207   2.488   3.186  12.015  0.1569  0.3584 -0.0899
    8TMC3    C214208   2.374   3.245  11.976  0.5489  0.2201 -0.6848
    8TMC3    C314209   2.286   3.288  12.079 -0.1036 -0.1941 -0.4134
    8TMC3    C414210   2.496   3.153  12.147  0.4602  0.6036 -0.0419
    8TMC3    C514211   2.399   3.178  12.237  0.1343 -0.4663 -0.0163
    8TMC3    C614212   2.288   3.247  12.206 -0.0200 -0.3420  0.3586
    8TMC3     C14213   2.525   3.066  11.941 -0.4470 -0.4719 -0.5447
    8TMC3     O14214   2.524   2.968  12.019  0.3877  0.2574 -0.1189
    8TMC3     H14215   2.355   3.270  11.872  2.1806  0.8687 -0.8146
    8TMC3    H114216   2.589   3.112  12.186  0.1306  0.9351  1.0689
    8TMC3    H214217   2.221   3.289  12.280 -1.8792  0.4575 -1.7936
    8TMC3    C714218   2.378   3.072  12.330  0.5553 -0.2329 -0.1655
    8TMC3    C814219   2.180   3.364  12.026  0.2479  0.1460  0.5906
    8TMC3    O114220   2.303   3.103  12.422 -0.2209  0.4269  0.5547
    8TMC3    O214221   2.213   3.447  11.942  0.5509  0.2304  0.1968
    9MPD2     C14222   1.826   3.342  12.111 -0.1368  0.4808 -0.7745
    9MPD2    C114223   1.941   3.391  12.049  0.3851 -0.2570 -0.0501
    9MPD2    C214224   1.918   3.492  11.957  0.1467  0.2306  0.2776
    9MPD2    C314225   1.790   3.542  11.923 -0.1131 -0.3514  1.1492
    9MPD2    C414226   1.680   3.484  11.986 -0.0079 -0.2605  0.3987
    9MPD2    C514227   1.701   3.392  12.081 -0.4261  0.2216  0.7595
    9MPD2     H14228   2.006   3.519  11.900  0.1107 -0.8415 -0.2723
    9MPD2    H114229   1.580   3.518  11.963  0.2503  1.0270  1.1716
    9MPD2    H214230   1.829   3.257  12.179  0.8093  1.0786 -0.0701
    9MPD2    H314231   1.614   3.345  12.126  0.9737 -0.7582  2.4597
    9MPD2     N14232   1.774   3.635  11.821 -0.3113 -0.1164 -0.5046
    9MPD2    H514233   1.676   3.655  11.808 -0.2420  0.4647 -0.1226
    9MPD2    N114234   2.061   3.330  12.081  0.9563  0.4166  0.0102
    9MPD2    H714235   2.064   3.246  12.138 -1.1281  1.2679  1.3836
    1MPD1     C14236   0.869   2.428   0.106  0.0866 -0.1857  0.3780
    1MPD1    C114237   0.869   2.340   0.214  0.2755  0.2299 -0.0033
    1MPD1    C214238   0.921   2.384   0.330 -0.3313  0.0227  0.2198
    1MPD1    C314239   0.967   2.513   0.344  1.0159  0.7624 -0.9363
    1MPD1    C414240   0.966   2.602   0.240  0.4994  0.6962  0.4706
    1MPD1    C514241   0.913   2.557   0.123  0.6140  0.8566 -0.1506
    1MPD1     H14242   0.938   2.315   0.411 -0.1318  0.2820  0.3957
    1MPD1    H114243   1.013   2.700   0.241  0.9638  0.4674  0.8008
    1MPD1    H214244   0.828   2.403   0.009  0.4584  0.5272  0.0374
    1MPD1    H314245   0.912   2.636   0.049 -0.6613  2.7282  1.8716
    1MPD1     N14246   1.028   2.561   0.462  0.3612 -0.7515 -0.2146
    1MPD1    H514247   1.045   2.661   0.459  3.8453 -1.3500  0.5937
    1MPD1    N114248   0.826   2.206   0.199 -0.1044  0.5351 -0.0061
    1MPD1    H614249   0.786   2.170   0.285 -0.9596 -0.7894 -0.9579
    1MPD1    H714250   0.760   2.187   0.124  1.2431 -1.1201 -0.7900
    2MPD1     C14251   1.606   3.155   1.055  0.6139  0.1713 -0.5685
    2MPD1    C114252   1.526   3.095   1.151 -0.7535  0.0255  0.0546
    2MPD1    C214253   1.453   2.984   1.103  0.1080  0.8633  0.0877
    2MPD1    C314254   1.451   2.944   0.972 -0.6974  0.2657 -0.3828
    2MPD1    C414255   1.519   3.023   0.881  0.2604  0.2710  0.1566
    2MPD1    C514256   1.603   3.124   0.926 -0.5809  0.0905 -0.3756
    2MPD1     H14257   1.405   2.930   1.184 -0.5497 -0.4221 -1.1447
    2MPD1    H114258   1.508   3.014   0.774 -0.2456 -0.8932  0.3114
    2MPD1    H214259   1.671   3.241   1.073 -0.5335  1.2048 -1.3689
    2MPD1    H314260   1.655   3.181   0.850 -1.2515  1.4244  0.1686
    2MPD1     N14261   1.371   2.834   0.939 -0.5441 -0.3735 -0.3080
    2MPD1    H514262   1.327   2.784   1.016  1.8026 -0.9246  0.6948
    2MPD1    N114263   1.522   3.145   1.284  0.1555  0.2396 -0.0899
    2MPD1    H614264   1.441   3.110   1.335  0.9352  1.9879  2.3318
    2MPD1    H714265   1.539   3.245   1.290 -1.0607  0.3700  1.2668
    3TCq2    C114266   1.335   2.803   0.810 -0.4376 -0.5203  0.2033
    3TCq2    O214267   1.400   2.819   0.707 -0.1502  0.3487  0.1095
    3TCq2    C214268   1.206   2.721   0.803  0.7915  0.2859  0.3003
    3TCq2    C314269   1.113   2.729   0.915  0.3935  0.5917  0.3282
    3TCq2    C414270   0.995   2.665   0.908 -0.5283 -0.5235  0.0340
    3TCq2    C514271   0.967   2.596   0.796  0.7275  0.0549 -0.0552
    3TCq2    C614272   1.047   2.598   0.688 -0.3608  0.1826  0.2716
    3TCq2    C714273   1.169   2.660   0.687 -0.6548 -0.3840  0.2659
    3TCq2    C814274   1.013   2.505   0.585  0.1272  0.2025  0.4297
    3TCq2    O414275   0.960   2.398   0.618  0.2214  0.0692  0.3868
    3TCq2    C914276   0.900   2.670   1.014 -0.3264  0.2265 -0.7500
    3TCq2    O514277   0.909   2.772   1.087  0.3672 -0.5585 -0.4186
    3TCq2    O614278   0.816   2.572   1.026  0.3606  0.3393  0.8677
    3TCq2    H214279   1.133   2.789   1.003 -1.5140  1.4332  0.1928
    3TCq2    H314280   0.872   2.544   0.788  1.1517 -1.0525  1.9627
    3TCq2    H414281   1.237   2.662   0.603  0.6868  1.1933  1.3889
    1TCq1    O114282   0.345   1.978  13.226  0.0787 -0.4282  0.2635
    1TCq1    C114283   0.390   1.996  13.356 -0.5796 -0.4336  0.5359
    1TCq1    O214284   0.470   2.083  13.382  0.5331  0.1456  0.1258
    1TCq1    C214285   0.342   1.896  13.458 -0.8556 -0.0320  0.1949
    1TCq1    C314286   0.229   1.823  13.437 -0.0527  0.1109  0.2660
    1TCq1    C414287   0.194   1.737  13.533 -0.4503  0.0828 -0.5455
    1TCq1    C514288   0.252   1.740  13.660 -0.2427  0.2468  0.5097
    1TCq1    C614289   0.356   1.823  13.676 -0.1141  0.2641 -0.8314
    1TCq1    C714290   0.398   1.904  13.577  0.2887  0.6616  0.1768
    1TCq1    C814291   0.429   1.830  13.790  0.0173 -0.6408 -0.5522
    1TCq1    O414292   0.470   1.937  13.833 -0.6751 -0.0674 -0.1540
    1TCq1    C914293   0.105   1.627  13.496  0.1195 -0.1437 -0.2011
    1TCq1    O514294   0.120   1.528  13.573  0.2230 -0.4091 -1.2070
    1TCq1    O614295   0.031   1.637  13.393  0.0309 -0.3180  0.2578
    1TCq1    H114296   0.307   1.893  13.194 -0.5093 -1.4410  3.5496
    1TCq1    H214297   0.186   1.807  13.339 -2.3336  1.0822  1.1159
    1TCq1    H314298   0.206   1.671  13.730  0.9540 -0.0959  0.9584
    1TCq1    H414299   0.488   1.964  13.582  0.7835 -0.0591  0.0090
    2MPD2     C14300   0.597   1.732  14.014 -0.8544 -0.6618  0.3998
    2MPD2    C114301   0.541   1.652  13.922 -0.0973 -0.4152 -0.3833
    2MPD2    C214302   0.569   1.527  13.931 -0.2536 -0.5042 -0.4527
    2MPD2    C314303   0.648   1.464  14.028 -0.2633  0.0885 -0.3790
    2MPD2    C414304   0.694   1.546  14.129  0.1109  0.1785 -0.0457
    2MPD2    C514305   0.672   1.676  14.116  0.1089  0.1259 -0.3663
    2MPD2     H14306   0.515   1.463  13.861 -2.3312 -0.4454  1.0825
    2MPD2    H114307   0.748   1.512  14.217 -1.0268  0.7281  0.8624
    2MPD2    H214308   0.606   1.839  14.005  1.4846 -0.9621 -0.7067
    2MPD2    H314309   0.728   1.735  14.188  2.6543 -1.0055 -1.4448
    2MPD2     N14310   0.681   1.331  14.032  0.4894 -0.0409  0.1136
    2MPD2    H514311   0.671   1.268  13.953 -1.7333  0.3663  0.0788
    2MPD2    N114312   0.462   1.701  13.819 -0.9105 -0.1283 -0.3930
    2MPD2    H714313   0.433   1.629  13.753 -1.4072  1.5192 -1.9846
    3TCq1    O114314   1.004   0.766  14.219 -0.4442  0.4143 -0.0378
    3TCq1    C114315   0.894   0.825  14.263 -0.9099  0.1593 -0.2824
    3TCq1    O214316   0.811   0.790  14.346 -0.4035 -0.1266  0.1766
    3TCq1    C214317   0.850   0.914  14.159 -0.5149  0.5292  0.2830
    3TCq1    C314318   0.852   0.879  14.029  0.2938 -0.0673  0.0222
    3TCq1    C414319   0.824   0.971  13.933  0.0945 -0.0380 -0.0685
    3TCq1    C514320   0.787   1.101  13.964 -0.5722 -0.9248  0.6194
    3TCq1    C614321   0.768   1.131  14.093 -0.8170  0.4632 -0.5148
    3TCq1    C714322   0.798   1.035  14.190  0.3881  0.1763  0.5980
    3TCq1    C814323   0.724   1.263  14.136  0.8705  0.0769 -0.0409
    3TCq1    O414324   0.734   1.291  14.256 -0.2046 -0.4971  0.1337
    3TCq1    C914325   0.837   0.936  13.795 -0.4536  0.0138 -0.2716
    3TCq1    O514326   0.834   0.812  13.772  0.0317  0.5103 -0.4203
    3TCq1    O614327   0.848   1.029  13.706 -0.1118 -0.1597  0.0234
    3TCq1    H114328   1.054   0.832  14.166 -0.0135  0.9304  0.9988
    3TCq1    H214329   0.891   0.780  14.007  2.1781 -0.1517  3.6393
    3TCq1    H314330   0.787   1.176  13.885  0.4962 -1.2462  0.3160
    3TCq1    H414331   0.779   1.058  14.294 -1.3466  1.2315  0.0517
    1MPD2     C14332   0.390   2.348  14.807 -0.4901 -0.4839  0.2158
    1MPD2    C114333   0.271   2.286  14.829 -0.7089 -0.6798  0.0649
    1MPD2    C214334   0.260   2.201  14.936 -0.3534  0.6152  0.5304
    1MPD2    C314335   0.367   2.186  15.018 -0.2611 -0.5978  0.4757
    1MPD2    C414336   0.487   2.256  15.002  0.2490 -0.3905 -0.2488
    1MPD2    C514337   0.496   2.341  14.893  0.3396 -0.3825  0.3850
    1MPD2     H14338   0.163   2.153  14.949 -0.6114  0.2991 -2.5568
    1MPD2    H114339   0.570   2.243  15.070  1.7720 -2.4236 -2.4936
    1MPD2    H214340   0.393   2.405  14.715 -2.3844 -0.1429  0.3573
    1MPD2    H314341   0.585   2.395  14.862 -0.6382  0.2078 -1.3561
    1MPD2     N14342   0.369   2.106  15.130  0.1186  0.9213 -0.1957
    1MPD2    H514343   0.452   2.113  15.187 -1.1415  1.6111  1.5591
    1MPD2    N114344   0.162   2.311  14.737  0.9141  0.6087  0.5760
    1MPD2    H714345   0.179   2.394  14.681 -2.6049  1.3395  0.5863
    2TMC3    C114346   4.670   2.281  14.632 -0.1479  0.0385  0.1483
    2TMC3    C214347   4.576   2.175  14.622  0.0648  0.3378  0.2661
    2TMC3    C314348   4.446   2.202  14.643 -0.0265 -0.2479 -0.0917
    2TMC3    C414349   4.627   2.402  14.664 -0.5241  0.1108 -0.5210
    2TMC3    C514350   4.490   2.426  14.658 -0.8127 -0.1570  0.2326
    2TMC3    C614351   4.397   2.327  14.639  0.4820 -0.2087  0.5327
    2TMC3     C14352   0.050   2.232  14.718 -0.0004  0.1845 -0.0488
    2TMC3     O14353   0.033   2.122  14.760 -0.6323 -0.1951  0.6486
    2TMC3     H14354   4.619   2.076  14.612 -0.2516  0.2485 -0.2149
    2TMC3    H114355   4.694   2.485  14.645 -0.5590 -0.0655 -1.4147
    2TMC3    H214356   4.291   2.349  14.647  0.6492  0.6254  0.3867
    2TMC3    C714357   4.438   2.554  14.661  1.1010 -0.2074  0.4241
    2TMC3    C814358   4.381   2.111  14.738  0.1672 -0.0677 -0.5810
    2TMC3    O114359   4.326   2.566  14.611  0.0130  0.4939 -0.4577
    2TMC3    O214360   4.258   2.113  14.743  0.2025  0.2246  0.2998
    3TCq1    O114361   0.313   3.508  15.249  0.1860 -0.6322 -0.3533
    3TCq1    C114362   0.208   3.505  15.163  0.5611 -0.2285  0.4403
    3TCq1    O214363   0.113   3.583  15.164  0.1594  0.6452  0.3184
    3TCq1    C214364   0.211   3.386  15.082  0.0625  0.5970 -0.2253
    3TCq1    C314365   0.330   3.321  15.058  0.1580 -0.4679 -0.1950
    3TCq1    C414366   0.324   3.223  14.962  0.1933  0.5227  0.0998
    3TCq1    C514367   0.208   3.181  14.902  0.0128 -0.1117  0.3917
    3TCq1    C614368   0.092   3.254  14.934 -0.2526  0.3976 -0.0293
    3TCq1    C714369   0.101   3.364  15.015  0.8333 -0.4607  0.2993
    3TCq1    C814370   4.695   3.216  14.866  1.0338 -0.6798 -0.0258
    3TCq1    O414371   4.607   3.300  14.845  0.5498 -0.3650 -0.4210
    3TCq1    C914372   0.454   3.173  14.903 -0.5643 -0.3634 -0.1909
    3TCq1    O514373   0.445   3.092  14.810 -0.3486  0.2385  0.2018
    3TCq1    O614374   0.559   3.201  14.964 -0.3848  0.2685 -0.0885
    3TCq1    H114375   0.390   3.454  15.222 -1.2540 -2.4906 -0.7243
    3TCq1    H214376   0.427   3.348  15.098 -0.0974  1.3846 -0.8286
    3TCq1    H314377   0.213   3.105  14.825 -2.1809 -0.1628  0.3079
    3TCq1    H414378   0.010   3.421  15.030  1.1364 -0.1742  1.0406
    4MPD2     C14379   4.476   3.063  14.735 -0.4127 -0.2708  0.4036
    4MPD2    C114380   4.590   3.005  14.789  0.1638 -0.0148  0.5678
    4MPD2    C214381   4.590   2.867  14.791 -0.6274 -0.0404  0.8409
    4MPD2    C314382   4.494   2.786  14.724 -0.1684  0.3596 -0.1981
    4MPD2    C414383   4.392   2.850  14.663  0.5885 -0.6714 -0.2052
    4MPD2    C514384   4.384   2.988  14.667 -0.6364 -0.4421  0.1173
    4MPD2     H14385   4.666   2.804  14.835  0.8154  0.5908 -0.7696
    4MPD2    H114386   4.315   2.802  14.603 -1.2205 -0.0805  1.6418
    4MPD2    H214387   4.451   3.168  14.745 -2.1812 -0.4321 -2.3577
    4MPD2    H314388   4.297   3.036  14.625 -1.1273  1.5398  3.4426
    4MPD2     N14389   4.519   2.642  14.716  0.5340  0.2163  0.0660
    4MPD2    H514390   4.598   2.611  14.772 -0.2880  0.4352  1.3525
    4MPD2    N114391   4.693   3.079  14.854 -0.2859  0.0530 -0.4236
    4MPD2    H714392   0.042   3.033  14.908  1.1733  1.9494 -0.7758
    5TMC2    C114393   0.119   1.819  15.376  0.8277  0.9027 -0.6526
    5TMC2    C214394   0.146   1.881  15.493  0.4625 -0.7820  0.5868
    5TMC2    C314395   0.251   1.958  15.491  0.5444 -0.3742 -0.2438
    5TMC2    C414396   0.200   1.823  15.271  0.1459 -0.3275 -0.0979
    5TMC2    C514397   0.305   1.914  15.265  0.3437  0.2163 -0.2814
    5TMC2    C614398   0.326   1.984  15.378 -0.1823  0.3932 -0.0229
    5TMC2     C14399   4.698   1.840  15.339 -0.1439  0.6631  0.4074
    5TMC2     O14400   4.612   1.853  15.427 -0.1982  0.6318  0.0128
    5TMC2     H14401   0.072   1.872  15.572  0.4435 -0.9483  0.5507
    5TMC2    H114402   0.173   1.761  15.186 -0.2173 -0.6289  0.2332
    5TMC2    H214403   0.412   2.050  15.379 -0.6852  1.0453  0.9131
    5TMC2    C714404   0.279   2.003  15.152  0.2818  0.4870  0.0307
    5TMC2    C814405   0.271   2.045  15.609 -0.0343 -0.0765  0.4268
    5TMC2    O114406   0.181   1.974  15.086  0.3639  0.0504  0.3866
    5TMC2    O214407   0.295   2.161  15.599 -0.0486  0.3906 -0.8086
    5TMC2    O514408   0.218   1.982  15.716  0.0310  0.2622 -0.4479
    5TMC2    H514409   0.210   1.886  15.703 -1.8342  0.4617 -0.7291
    6MPD2     C14410   4.344   1.961  14.994 -0.3400  0.5493  0.3149
    6MPD2    C114411   4.463   2.001  14.950 -0.0060 -0.0927 -0.7686
    6MPD2    C214412   4.578   1.977  15.021  0.4204  0.1890  0.1016
    6MPD2    C314413   4.569   1.911  15.140 -0.2541  0.1528  0.0531
    6MPD2    C414414   4.451   1.864  15.185  0.5926 -0.0811 -0.0682
    6MPD2    C514415   4.341   1.885  15.110 -0.5825  0.1179 -0.5495
    6MPD2     H14416   4.678   1.995  14.985  0.2322 -0.6111 -0.8279
    6MPD2    H114417   4.445   1.801  15.273 -0.8293  0.4586  0.2097
    6MPD2    H214418   4.251   1.981  14.940  0.0463  0.5365 -0.3628
    6MPD2    H314419   4.245   1.841  15.136 -0.2837 -0.7457 -0.9074
    6MPD2     N14420   4.690   1.886  15.207  0.2853  0.0720  0.4194
    6MPD2    H514421   0.053   1.908  15.158  0.9404 -3.4759 -0.0347
    6MPD2    N114422   4.480   2.072  14.826  0.3403 -0.2900  0.0755
    6MPD2    H714423   4.576   2.096  14.804 -0.5166  3.2670  0.3166
  945NH3     N114424   1.912   1.719  16.544  0.3028 -0.0969 -0.0989
  945NH3     H214425   1.841   1.651  16.517  0.6517 -1.5208  2.5628
  945NH3     H314426   1.876   1.745  16.635 -1.4315 -1.4506 -0.3817
  945NH3     H414427   1.900   1.802  16.488  2.6839  0.5125  0.2998
  946SOD     NA14428   3.142   4.080   1.319 -0.3305 -0.0360  0.5823
  947SOD     NA14429   3.291   2.281  14.839 -0.2333 -0.1031  0.5581
  948SOD     NA14430   2.436   2.877   9.071  0.0308 -0.4871 -0.5862
  949SOD     NA14431   4.572   1.761  13.456  0.2996  0.6952  0.1946
  950SOD     NA14432   2.378   2.683   1.539  0.3612  0.1114 -0.3405
  951SOD     NA14433   4.471   0.063   8.384 -0.3145  0.0492  0.6423
  952SOD     NA14434   1.527   1.917   1.836  0.0055 -0.4195  0.2480
  953SOD     NA14435   0.824   2.690   1.270 -0.6093  0.2369  0.0904
  954SOD     NA14436   1.255   0.043  13.123  0.7299 -0.0813 -0.1414
  955SOD     NA14437   1.599   0.740  13.747 -0.1008 -0.1560 -0.1238
  956SOD     NA14438   2.445   4.622   0.704  0.3709  0.0839  0.2636
  957SOD     NA14439   3.672   0.243  10.118 -0.4326  0.0724 -0.4965
  958SOD     NA14440   0.828   0.983  13.145 -0.0942 -0.3480  0.1720
  959SOD     NA14441   1.785   2.037  15.243 -0.4052  0.0806  0.7040
  960SOD     NA14442   4.677   3.606  10.919 -0.3936 -0.1806  0.5095
  961SOD     NA14443   0.316   3.515   1.498  0.6474  0.2093 -0.4466
  962SOD     NA14444   3.564   2.281  11.146 -0.4020  0.3847 -0.0312
  963SOD     NA14445   3.882   4.639  10.155  0.8295  0.2712 -0.1888
  964SOD     NA14446   3.953   0.907  13.892 -0.4787  0.0287 -0.0024
  965SOD     NA14447   0.662   3.061  14.773 -0.1134 -0.0953 -0.1553
  966SOD     NA14448   1.756   2.067  14.901  0.0538  0.0180 -0.0673
  967SOD     NA14449   3.005   1.324  11.623 -0.2489  0.1043 -0.0292
  968SOD     NA14450   1.006   1.067   0.233  0.1301  0.2446  0.3300
  969SOD     NA14451   1.548   2.911  12.856  0.1918 -0.1891  0.5348
  970SOD     NA14452   3.385   2.335  11.367  0.1242  0.5276 -0.4245
  971SOD     NA14453   1.182   1.204  14.497 -0.0743 -0.2414  0.5449
  972SOD     NA14454   1.380   4.155  14.599  0.0735 -0.2451 -0.4988
  973SOD     NA14455   0.266   1.564   0.761  0.1845  0.3408 -0.0240
  974SOD     NA14456   4.645   1.636  12.900 -0.0963  0.1453 -0.3247
  975SOD     NA14457   0.710   1.443   4.504  0.9609  1.0105  0.1671
  976SOD     NA14458   2.535   1.886   4.911  0.3904 -0.0089 -0.5175
  977SOD     NA14459   3.161   4.264  10.142 -0.0159  0.5934  0.4164
  978SOD     NA14460   1.691   0.831   1.412  0.0379 -0.0772 -0.2496
  979SOD     NA14461   1.781   2.514  13.973 -0.1040  0.2604  0.1854
  980SOD     NA14462   2.876   4.379  13.322 -0.2929  0.1616 -0.4168
  981SOD     NA14463   0.362   1.099  11.423  0.4429  0.2354  0.3544
  982SOD     NA14464   2.264   1.010   5.573 -0.1190  0.1974 -0.0572
  983SOD     NA14465   1.151   0.386  14.105  0.2251  0.3957  0.2879
  984SOD     NA14466   4.348   1.409  11.599 -0.3890 -0.5281  0.3174
  985SOD     NA14467   4.357   4.532  10.444  0.2667  0.0965 -0.1302
  986SOD     NA14468   4.657   0.070   3.902  0.2016 -0.3608 -0.4894
  987SOD     NA14469   2.012   3.651   9.313 -0.0537  0.0613 -0.4040
  988SOD     NA14470   4.237   0.076  10.337  0.0109  0.2412  0.4493
  989SOD     NA14471   0.775   4.224  16.909  0.0174 -0.2397 -0.2340
  990SOD     NA14472   0.106   3.675   7.169  0.5223  0.4406  0.0990
  991SOD     NA14473   0.049   1.682  13.172  0.0908  0.1835  0.1284
  992SOD     NA14474   2.941   4.360   2.977 -0.3801  0.0732  0.1282
  993SOD     NA14475   0.790   3.356  11.814 -0.0302  0.6243  0.4868
  994SOD     NA14476   1.569   0.624  12.764  0.5233 -0.3292  0.0302
  995SOD     NA14477   4.248   1.922  15.673  0.4670 -0.3291  0.2872
  996SOD     NA14478   4.488   2.445   1.760  0.1487 -0.5534 -0.3544
  997SOD     NA14479   2.213   0.185   0.294 -0.0277 -0.0344 -0.5905
  998SOD     NA14480   2.317   3.425   4.380 -0.1164 -0.0255  0.1559
  999SOD     NA14481   3.734   0.830   9.399 -0.2015  0.3178  0.3219
 1000SOD     NA14482   1.642   2.548   7.777  0.2337  0.5805  0.0233
 1001SOD     NA14483   4.716   0.446   7.581 -0.1976 -0.0220 -0.1001
 1002SOD     NA14484   2.175   2.124  13.103 -0.4988  0.1901 -0.2924
 1003SOD     NA14485   4.567   1.479  13.392  0.1642 -0.5189 -0.1659
 1004SOD     NA14486   4.153   0.563  11.199 -0.0946  0.2841  0.4327
 1005SOD     NA14487   2.346   1.600  16.478 -0.6498 -0.3395  0.1728
 1006SOD     NA14488   4.379   2.575   1.438 -0.3814 -0.1695 -0.0407
 1007SOD     NA14489   0.183   1.405  10.401  0.2520  0.4770  0.0473
 1008SOD     NA14490   2.587   1.054   2.721  0.8978  0.4630  0.0126
 1009SOD     NA14491   4.693   3.804  16.074 -0.0699  0.5507 -0.0994
 1010SOD     NA14492   1.816   1.474   0.960  0.1056  0.5654 -0.1321
 1011SOD     NA14493   1.946   1.707  10.642 -0.4979 -0.7621  0.0075
 1012SOL     OW14494   0.255   1.724   4.776  0.2370  0.4677 -0.1180
 1012SOL    HW114495   0.347   1.741   4.754  0.1140  0.9933 -0.2351
 1012SOL    HW214496   0.216   1.811   4.777  1.0651  0.8596 -1.1583
 1013SOL     OW14497   4.521   4.529  11.469 -0.7997  0.2188  0.0643
 1013SOL    HW114498   4.557   4.549  11.383 -0.4704  1.0754  0.3955
 1013SOL    HW214499   4.445   4.472  11.457  0.4368 -1.7844  1.9104
 1014SOL     OW14500   3.419   2.558  15.719  0.2386 -0.0477  0.0245
 1014SOL    HW114501   3.334   2.596  15.698  0.0796  0.4992  1.5984
 1014SOL    HW214502   3.472   2.566  15.640  1.3124 -0.6610  0.6801
 1015SOL     OW14503   2.122   4.280  10.107 -0.5028 -0.1474  0.6029
 1015SOL    HW114504   2.108   4.375  10.099 -1.3240 -0.4898 -2.1609
 1015SOL    HW214505   2.213   4.285  10.077 -0.6882  1.0637  0.1985
 1016SOL     OW14506   1.505   0.919   3.591 -0.4744 -0.0165  0.4551
 1016SOL    HW114507   1.479   0.828   3.575  0.1653  0.3198 -2.3384
 1016SOL    HW214508   1.596   0.903   3.618 -0.5528  0.3983  0.9574
 1017SOL     OW14509   0.914   4.109   6.267  0.3348  0.0323  0.4627
 1017SOL    HW114510   0.890   4.115   6.359 -2.5632  0.8762 -0.3598
 1017SOL    HW214511   0.865   4.029   6.247 -1.9586  1.0488  2.0257
 1018SOL     OW14512   2.766   4.365   3.165  0.1677 -0.4844  0.2469
 1018SOL    HW114513   2.691   4.311   3.142 -0.6987  0.0956  1.6947
 1018SOL    HW214514   2.767   4.369   3.261 -0.8399 -0.2128  0.2398
 1019SOL     OW14515   2.338   3.380   1.826 -0.1887 -0.1526  0.2882
 1019SOL    HW114516   2.353   3.320   1.899 -0.6632  2.5831  2.6240
 1019SOL    HW214517   2.374   3.461   1.863  1.0140 -1.1418  1.2882
 1020SOL     OW14518   3.415   0.037  10.943 -0.5218  0.0613  0.1894
 1020SOL    HW114519   3.410   0.096  11.019 -1.7779  2.1402 -1.4861
 1020SOL    HW214520   3.492   0.072  10.897 -0.2785 -1.7202 -0.7513
 1021SOL     OW14521   0.141   0.854   5.573  0.2812 -0.1374 -0.7579
 1021SOL    HW114522   0.061   0.836   5.624  1.7087  1.2449  1.9613
 1021SOL    HW214523   0.116   0.919   5.507 -1.2154  1.1920  1.1116
 1022SOL     OW14524   1.286   1.929   6.848  0.0830  0.7182  0.0111
 1022SOL    HW114525   1.246   1.844   6.830  0.0457  0.4658  1.2529
 1022SOL    HW214526   1.204   1.978   6.842  1.8814  3.4470 -1.9177
 1023SOL     OW14527   2.755   3.788  17.076  0.2764  0.6129 -0.0496
 1023SOL    HW114528   2.723   3.810  16.988 -1.8218  0.2172  0.6157
 1023SOL    HW214529   2.708   3.706  17.088 -0.3112  1.2328  1.9290
 1024SOL     OW14530   0.102   2.987   2.260 -0.0652 -0.3039  0.8489
 1024SOL    HW114531   0.088   3.008   2.167  2.8964  0.7268  0.6462
 1024SOL    HW214532   0.192   2.957   2.247  0.0632 -0.7001  2.6724
 1025SOL     OW14533   0.992   3.838   3.284 -0.0909  0.0492 -0.2445
 1025SOL    HW114534   0.905   3.802   3.264  0.0866 -1.0223  0.8999
 1025SOL    HW214535   1.022   3.858   3.195  1.2583 -0.5056  0.0793
 1026SOL     OW14536   4.311   0.031   3.378 -0.1053  0.5038 -0.0573
 1026SOL    HW114537   4.309   4.664   3.349 -0.9937  1.3724 -2.7565
 1026SOL    HW214538   4.320   0.033   3.473 -1.9679  0.5720  0.1125
 1027SOL     OW14539   3.361   0.193   2.875 -0.4303 -0.0811 -0.7392
 1027SOL    HW114540   3.293   0.245   2.917  1.6054  1.7335  0.2769
 1027SOL    HW214541   3.327   0.105   2.893  0.1316 -0.3671 -1.0863
 1028SOL     OW14542   2.433   3.108  10.370  0.2427  0.0442 -0.3307
 1028SOL    HW114543   2.468   3.029  10.411  0.2896  1.3140  2.0657
 1028SOL    HW214544   2.394   3.147  10.448  2.9176 -0.3207  1.1614
 1029SOL     OW14545   2.030   3.261   4.751  0.1332  0.7810  0.0285
 1029SOL    HW114546   1.969   3.268   4.825 -1.0363  1.5387 -1.0075
 1029SOL    HW214547   1.975   3.224   4.682  0.5006  0.0012  0.1561
 1030SOL     OW14548   3.523   2.339   3.310  0.5160 -0.0998 -0.1007
 1030SOL    HW114549   3.484   2.424   3.331 -0.4523 -0.7819  0.8336
 1030SOL    HW214550   3.504   2.292   3.391  0.3759  0.9011  0.4424
 1031SOL     OW14551   2.924   3.521  12.669 -0.4254  0.4350  0.6821
 1031SOL    HW114552   2.829   3.515  12.656 -0.2169  0.4022 -0.8309
 1031SOL    HW214553   2.956   3.584  12.605 -1.7605  0.2601 -0.1660
 1032SOL     OW14554   4.270   1.715   7.701  0.3251  0.1920  0.9167
 1032SOL    HW114555   4.326   1.703   7.625  0.9392 -1.2277  1.5904
 1032SOL    HW214556   4.237   1.805   7.694 -1.8853 -0.6553  0.3491
 1033SOL     OW14557   1.585   1.724   3.829 -0.1561 -0.6260 -0.1312
 1033SOL    HW114558   1.585   1.752   3.737 -1.6122 -1.6058 -0.4223
 1033SOL    HW214559   1.660   1.664   3.825  0.2489 -0.2114  1.1668
 1034SOL     OW14560   3.058   3.872   1.435  0.3537 -0.5151 -0.3379
 1034SOL    HW114561   3.063   3.864   1.530 -0.0085  0.9661 -0.1996
 1034SOL    HW214562   3.019   3.789   1.408  0.3280 -1.6980  3.3604
 1035SOL     OW14563   0.873   2.834   5.823 -0.1151 -0.0296  0.0323
 1035SOL    HW114564   0.846   2.890   5.896 -0.1334 -2.2284  1.7004
 1035SOL    HW214565   0.967   2.847   5.816 -0.2220  0.4863 -0.4211
 1036SOL     OW14566   4.148   2.581   5.071 -0.3897  0.0736 -0.4489
 1036SOL    HW114567   4.206   2.634   5.016 -0.9900 -0.0096 -1.1602
 1036SOL    HW214568   4.065   2.581   5.024 -0.6378  0.6172 -0.0105
 1037SOL     OW14569   1.327   1.320  15.712 -0.0393  0.1788  0.0661
 1037SOL    HW114570   1.269   1.368  15.653 -0.2569  1.3817  1.2715
 1037SOL    HW214571   1.374   1.389  15.759 -0.6110 -0.5165  1.6562
 1038SOL     OW14572   1.364   3.792   3.926  0.4658 -0.3165 -0.3049
 1038SOL    HW114573   1.331   3.709   3.960  0.0571  0.2725  0.7484
 1038SOL    HW214574   1.454   3.764   3.908  0.9203  0.9123  0.0636
 1039SOL     OW14575   4.290   1.351   4.694  0.0754 -0.3315 -0.1708
 1039SOL    HW114576   4.359   1.413   4.671 -0.1489 -0.2080 -0.5258
 1039SOL    HW214577   4.234   1.362   4.617  1.2232  0.1350 -0.9337
 1040SOL     OW14578   0.341   2.388   3.029 -0.4691 -0.1820  0.1647
 1040SOL    HW114579   0.427   2.421   3.004 -0.5667  0.7241  1.0382
 1040SOL    HW214580   0.301   2.389   2.941  0.1753 -2.0518 -0.1536
 1041SOL     OW14581   0.987   0.405   7.961 -0.0159 -0.1041 -0.0779
 1041SOL    HW114582   1.072   0.388   7.920  0.3004  2.9559 -0.6662
 1041SOL    HW214583   1.014   0.453   8.039  0.5713 -0.0942 -0.2849
 1042SOL     OW14584   1.999   2.437   1.044  0.1396  0.0490  0.3475
 1042SOL    HW114585   2.012   2.441   1.139 -2.1163 -2.1752  0.7639
 1042SOL    HW214586   1.965   2.526   1.032 -3.4008 -1.6927 -2.4255
 1043SOL     OW14587   4.013   0.938  13.458  0.1202  0.6138 -0.4146
 1043SOL    HW114588   4.000   0.963  13.366 -1.4503 -0.5829 -0.5137
 1043SOL    HW214589   4.048   0.849  13.458 -0.1445  0.5252  2.1435
 1044SOL     OW14590   1.144   3.692   2.893  0.2998  0.4060 -0.2537
 1044SOL    HW114591   1.068   3.724   2.942 -0.5856 -0.8899 -0.7924
 1044SOL    HW214592   1.214   3.740   2.938  0.2739  2.3687 -2.3156
 1045SOL     OW14593   3.796   1.424   8.964  0.1893  0.4897 -0.8236
 1045SOL    HW114594   3.708   1.460   8.954  0.0921  0.8649  1.4708
 1045SOL    HW214595   3.786   1.342   8.917 -1.3530 -0.2023  0.7345
 1046SOL     OW14596   1.044   4.120  14.098 -0.0958 -0.3311  0.3661
 1046SOL    HW114597   0.956   4.156  14.107  0.9809  1.9076  2.1705
 1046SOL    HW214598   1.093   4.163  14.168 -0.4331 -0.9865  0.9977
 1047SOL     OW14599   0.525   4.425   3.088  0.3961  0.1631 -0.0727
 1047SOL    HW114600   0.519   4.468   3.173  0.6743  0.4949 -0.2216
 1047SOL    HW214601   0.544   4.494   3.024  1.4136 -1.4417 -1.5319
 1048SOL     OW14602   3.408   4.591   9.254 -0.0510 -0.2805 -0.0851
 1048SOL    HW114603   3.362   4.673   9.268  0.0080 -0.2509 -0.0603
 1048SOL    HW214604   3.456   4.598   9.171  1.3911 -0.1285  0.7566
 1049SOL     OW14605   1.041   1.388   2.894  0.3033 -0.1004 -0.0026
 1049SOL    HW114606   1.063   1.295   2.881  0.2077 -0.3856  1.8346
 1049SOL    HW214607   1.041   1.414   2.802 -0.0421  0.3880  0.1397
 1050SOL     OW14608   3.150   3.130   8.856  0.5496 -0.6459  0.1618
 1050SOL    HW114609   3.230   3.101   8.811  1.5134  0.7416  0.9602
 1050SOL    HW214610   3.143   3.063   8.924  0.3114 -1.0578 -0.2691
 1051SOL     OW14611   1.855   2.082  15.597  0.7274 -0.0605 -0.2339
 1051SOL    HW114612   1.869   2.090  15.502  2.1982 -0.1294 -0.0235
 1051SOL    HW214613   1.925   2.018  15.610  2.0532  1.5721  0.6565
 1052SOL     OW14614   1.655   2.728   1.063 -0.0249 -0.4831 -0.0396
 1052SOL    HW114615   1.642   2.682   0.980 -2.7922 -1.9980  1.2229
 1052SOL    HW214616   1.567   2.761   1.081  0.3406  0.7107 -0.4039
 1053SOL     OW14617   2.827   0.613   7.229  0.5320  0.2195 -0.1806
 1053SOL    HW114618   2.864   0.647   7.310 -0.9061 -0.9255  0.9532
 1053SOL    HW214619   2.871   0.528   7.220  2.4530  1.1939  0.1393
 1054SOL     OW14620   0.555   3.696   4.246  0.3430  0.0627 -0.3312
 1054SOL    HW114621   0.460   3.693   4.229 -0.0041  0.1285  1.5726
 1054SOL    HW214622   0.561   3.791   4.257  2.8309 -0.4349  2.4399
 1055SOL     OW14623   2.585   0.929   9.939 -0.0268 -0.2551  0.6072
 1055SOL    HW114624   2.562   0.980  10.017 -0.2160  0.6864 -0.0769
 1055SOL    HW214625   2.509   0.871   9.930  0.5926 -0.7045 -1.6716
 1056SOL     OW14626   3.210   0.375   8.693  0.3142 -0.3084 -0.6368
 1056SOL    HW114627   3.222   0.350   8.602 -1.3841 -4.1189  0.2066
 1056SOL    HW214628   3.284   0.327   8.732 -0.0064  0.4515  0.9298
 1057SOL     OW14629   1.139   4.356   8.564  0.2220  0.3359  0.6739
 1057SOL    HW114630   1.127   4.299   8.640  0.6552 -1.6506 -0.7399
 1057SOL    HW214631   1.049   4.372   8.537 -0.3018 -0.5320  1.8927
 1058SOL     OW14632   3.360   2.760   4.422 -0.1235 -0.2371  0.0945
 1058SOL    HW114633   3.283   2.757   4.365 -0.3249  0.8083  0.3004
 1058SOL    HW214634   3.324   2.751   4.510  1.5942  0.0607  0.8266
 1059SOL     OW14635   4.495   2.101   5.349  0.0163  0.4701 -0.4033
 1059SOL    HW114636   4.430   2.166   5.378 -0.1659 -0.3075  0.9133
 1059SOL    HW214637   4.452   2.018   5.369 -0.8682  0.1484 -3.5381
 1060SOL     OW14638   0.564   0.948  11.689 -0.6195  0.7853 -0.2540
 1060SOL    HW114639   0.510   1.023  11.666 -0.2277  0.8428 -0.9826
 1060SOL    HW214640   0.590   0.974  11.778 -1.1124 -2.1894  0.7630
 1061SOL     OW14641   0.130   1.930   4.967  0.1607  1.0706 -0.1410
 1061SOL    HW114642   0.052   1.972   4.933  0.2204  2.0187  0.8862
 1061SOL    HW214643   0.093   1.863   5.025  2.2287 -0.6268 -0.7931
 1062SOL     OW14644   2.149   2.947   1.904 -0.1025 -1.1438  0.5472
 1062SOL    HW114645   2.127   2.986   1.819  0.2927 -0.6164  0.6870
 1062SOL    HW214646   2.161   3.026   1.957 -0.3841  1.2104 -2.8845
 1063SOL     OW14647   2.717   0.355   2.269  0.1763  0.3196 -0.2893
 1063SOL    HW114648   2.676   0.351   2.183 -1.4244  1.5044  0.4022
 1063SOL    HW214649   2.662   0.424   2.305  1.1230  0.9466 -0.0460
 1064SOL     OW14650   4.091   2.946   6.629 -0.0918 -0.1729  0.1141
 1064SOL    HW114651   4.170   2.958   6.578  0.7587 -2.4473  0.9019
 1064SOL    HW214652   4.129   2.899   6.703  0.5870  0.4202  0.1442
 1065SOL     OW14653   3.364   1.073   8.922 -0.0027  0.2888 -0.5845
 1065SOL    HW114654   3.363   0.978   8.920 -2.1672  0.2930  0.3504
 1065SOL    HW214655   3.345   1.101   8.833  1.8042  0.0599 -1.0407
 1066SOL     OW14656   0.881   4.259   0.158  0.2590  0.1271  0.8207
 1066SOL    HW114657   0.825   4.218   0.224  0.7620 -2.3727 -0.3352
 1066SOL    HW214658   0.965   4.253   0.205  1.8331 -1.8640 -2.2717
 1067SOL     OW14659   3.017   0.700   2.044 -0.6285 -0.3349  0.0897
 1067SOL    HW114660   3.100   0.666   2.078 -0.0846  1.7026  0.7824
 1067SOL    HW214661   3.043   0.756   1.971  3.4432 -2.1178  0.1842
 1068SOL     OW14662   3.019   0.189   4.461 -0.2394 -0.0874 -0.0241
 1068SOL    HW114663   3.064   0.250   4.519  0.6054 -0.7783  0.0490
 1068SOL    HW214664   3.013   0.242   4.382  1.1608  0.8312  0.5047
 1069SOL     OW14665   3.719   2.760  11.358 -0.1141  0.0951  0.6396
 1069SOL    HW114666   3.782   2.726  11.421  0.6632  2.6925  1.2843
 1069SOL    HW214667   3.725   2.705  11.280 -0.8825 -0.0706  0.6907
 1070SOL     OW14668   2.170   3.400   2.711  0.0241 -0.2191 -0.1227
 1070SOL    HW114669   2.131   3.312   2.719 -2.6897  0.9989  0.1420
 1070SOL    HW214670   2.145   3.431   2.798  0.6908 -0.9050  0.3109
 1071SOL     OW14671   4.554   2.562  17.598  0.3951 -0.4822  0.5636
 1071SOL    HW114672   4.648   2.578  17.610  0.0290  1.9429  0.0425
 1071SOL    HW214673   4.562   2.480  17.648  1.7885 -1.8037 -1.8199
 1072SOL     OW14674   0.457   4.184   8.681 -0.6315 -0.3505  0.2575
 1072SOL    HW114675   0.397   4.117   8.714  0.1036  0.3302  2.9845
 1072SOL    HW214676   0.448   4.252   8.748 -1.8279 -0.2800  0.0269
 1073SOL     OW14677   4.106   3.671   3.528  0.4915  0.0564  0.0304
 1073SOL    HW114678   4.163   3.594   3.521 -0.4040 -0.6458  0.4310
 1073SOL    HW214679   4.141   3.718   3.603 -1.0184  1.0717  0.0889
 1074SOL     OW14680   0.894   1.003   6.523 -0.2778  0.3572  0.2204
 1074SOL    HW114681   0.900   1.073   6.588 -0.0053 -1.1244  1.7763
 1074SOL    HW214682   0.843   0.937   6.570 -2.5417 -0.4263 -3.2741
 1075SOL     OW14683   3.278   1.770  11.842  0.3788 -0.3020 -0.3896
 1075SOL    HW114684   3.360   1.770  11.793  0.4633  4.1777 -0.2431
 1075SOL    HW214685   3.298   1.830  11.915 -1.6860 -0.4256  0.2724
 1076SOL     OW14686   0.598   1.307   2.415 -0.0752  0.2253  0.1434
 1076SOL    HW114687   0.534   1.274   2.478  1.4827  0.2713  1.7488
 1076SOL    HW214688   0.678   1.329   2.464  0.0831 -1.6171  0.6945
 1077SOL     OW14689   2.589   2.991   0.465  0.2413 -0.0360  0.5452
 1077SOL    HW114690   2.624   2.902   0.457  0.3325 -0.0408  0.9824
 1077SOL    HW214691   2.650   3.042   0.412  0.6694 -0.8087  0.2906
 1078SOL     OW14692   3.340   2.360   8.847 -1.1320 -0.0484  0.0534
 1078SOL    HW114693   3.289   2.285   8.815 -2.4598 -0.0355  2.0870
 1078SOL    HW214694   3.416   2.323   8.892  1.6545  2.8689 -2.3315
 1079SOL     OW14695   1.326   2.240   6.522 -0.1723 -0.0413  0.4323
 1079SOL    HW114696   1.267   2.300   6.476  0.7378 -0.3743 -1.1406
 1079SOL    HW214697   1.301   2.154   6.490  0.2198  0.0703 -0.1751
 1080SOL     OW14698   2.275   2.217   2.487 -0.0863 -0.2320 -0.0405
 1080SOL    HW114699   2.221   2.161   2.543 -0.9419 -0.8498 -1.4773
 1080SOL    HW214700   2.358   2.174   2.506 -0.0232  0.9734  2.4856
 1081SOL     OW14701   2.154   4.676  15.947 -0.5354 -0.2971 -0.0722
 1081SOL    HW114702   2.090   4.710  16.010  1.1913 -1.9941  2.5746
 1081SOL    HW214703   2.227   0.013  15.959 -0.9956  0.5952 -1.8003
 1082SOL     OW14704   4.005   2.270   7.321  0.1270 -0.2066 -0.0497
 1082SOL    HW114705   3.963   2.318   7.250 -0.2379  0.9688  0.9785
 1082SOL    HW214706   4.006   2.342   7.384 -0.7650  1.8869 -2.4223
 1083SOL     OW14707   2.636   4.300   4.213  0.9111 -0.3482  0.2245
 1083SOL    HW114708   2.660   4.385   4.176  0.3383 -1.4149 -2.6559
 1083SOL    HW214709   2.681   4.312   4.296  1.1885  0.9392 -0.1088
 1084SOL     OW14710   4.676   1.091   6.203 -0.6875 -0.3869 -0.0558
 1084SOL    HW114711   4.685   1.024   6.135 -1.9029 -0.3321 -0.2694
 1084SOL    HW214712   0.043   1.121   6.205 -0.7520 -0.0100 -2.4607
 1085SOL     OW14713   0.488   4.235   5.462 -0.2875  1.0499  0.1765
 1085SOL    HW114714   0.463   4.265   5.549  0.7895  0.4816  0.6811
 1085SOL    HW214715   0.482   4.321   5.420  2.2958  1.7459  1.2909
 1086SOL     OW14716   2.989   4.224   3.588 -0.2456 -0.1089 -0.6421
 1086SOL    HW114717   2.907   4.206   3.635  0.7573 -1.7864  0.4784
 1086SOL    HW214718   3.005   4.135   3.559 -0.3606 -0.1966 -0.4420
 1087SOL     OW14719   4.668   1.578   4.188 -0.0273 -0.1517  0.1236
 1087SOL    HW114720   4.683   1.588   4.094 -0.5204  0.2362  0.0883
 1087SOL    HW214721   4.640   1.487   4.193  1.2869 -0.5222  0.8736
 1088SOL     OW14722   3.003   4.348   5.297 -0.3923  0.0171  0.1071
 1088SOL    HW114723   3.037   4.300   5.373 -0.2256 -1.3102 -0.8034
 1088SOL    HW214724   3.065   4.417   5.276 -0.8415  0.6787  0.9855
 1089SOL     OW14725   0.784   3.102   5.343  0.3959  0.1501  0.7925
 1089SOL    HW114726   0.730   3.023   5.342 -1.9979  1.7821 -1.0352
 1089SOL    HW214727   0.786   3.109   5.247  0.9047  2.2482  0.9550
 1090SOL     OW14728   1.646   2.814   2.868 -0.6208 -0.6725  0.2327
 1090SOL    HW114729   1.637   2.892   2.813 -1.6176  0.6056  2.2017
 1090SOL    HW214730   1.634   2.754   2.795  0.7003 -1.1964  0.4417
 1091SOL     OW14731   4.450   4.065  11.783 -0.2963  0.1081  0.0782
 1091SOL    HW114732   4.529   4.014  11.766  0.8066  1.5970  0.8098
 1091SOL    HW214733   4.424   4.081  11.692  0.6647  0.6657 -0.0977
 1092SOL     OW14734   0.311   1.198  17.511 -0.5201 -0.4975  0.4098
 1092SOL    HW114735   0.379   1.216  17.446  0.0621  0.6289  1.3324
 1092SOL    HW214736   0.257   1.132  17.468 -1.4506  1.4351 -1.3678
 1093SOL     OW14737   4.192   0.197   8.046 -0.0606 -0.0174  0.1249
 1093SOL    HW114738   4.128   0.127   8.037 -0.8798  0.6645  0.6369
 1093SOL    HW214739   4.257   0.168   7.982  1.1048 -0.1024  1.3303
 1094SOL     OW14740   4.598   2.624   6.161 -0.8292  0.1301 -0.6065
 1094SOL    HW114741   4.592   2.686   6.234 -0.5237  0.7437 -1.0903
 1094SOL    HW214742   4.669   2.665   6.110 -0.4104 -0.4562 -0.4948
 1095SOL     OW14743   3.881   1.375  17.342  0.2621  0.8883  0.4853
 1095SOL    HW114744   3.916   1.333  17.421 -0.6373 -0.3102  0.2434
 1095SOL    HW214745   3.959   1.382  17.288  0.2491 -2.6307  0.0435
 1096SOL     OW14746   0.359   1.673   8.138 -0.3369 -0.8208  0.4236
 1096SOL    HW114747   0.377   1.580   8.146 -0.6539 -0.9109  0.0911
 1096SOL    HW214748   0.420   1.720   8.196 -0.3582 -2.6582  1.9078
 1097SOL     OW14749   4.106   0.340  11.176 -0.1459 -0.0537  0.4488
 1097SOL    HW114750   4.129   0.264  11.230  0.0470 -0.9206 -0.8678
 1097SOL    HW214751   4.092   0.303  11.089 -3.4965  1.8482  0.1668
 1098SOL     OW14752   1.443   1.066   2.712 -0.6364 -0.0922  0.2991
 1098SOL    HW114753   1.492   0.991   2.680  0.9321  1.5956 -1.2835
 1098SOL    HW214754   1.450   1.111   2.628 -0.7570 -0.4807  0.0854
 1099SOL     OW14755   3.920   2.810   0.617  0.1244 -0.2686 -0.1264
 1099SOL    HW114756   3.940   2.902   0.598 -0.9592  0.0773  0.3802
 1099SOL    HW214757   3.866   2.828   0.695 -0.9753 -1.1779 -0.6858
 1100SOL     OW14758   1.437   0.429   5.548  0.2331  0.1786  0.1500
 1100SOL    HW114759   1.433   0.380   5.630 -1.3245 -1.0836 -0.6857
 1100SOL    HW214760   1.365   0.490   5.562  0.1449  0.6993 -2.6726
 1101SOL     OW14761   0.910   0.411   2.337 -0.3091 -0.5389 -0.3502
 1101SOL    HW114762   0.858   0.361   2.275 -1.5937  1.4656 -0.9058
 1101SOL    HW214763   0.937   0.486   2.284 -2.2621 -0.6345 -1.4607
 1102SOL     OW14764   1.394   2.090   2.559  0.0283  0.3930 -0.2511
 1102SOL    HW114765   1.301   2.068   2.559  0.1914 -0.3174 -0.7081
 1102SOL    HW214766   1.422   2.047   2.478 -3.6588 -2.0527 -0.2158
 1103SOL     OW14767   0.736   4.083   8.966 -0.0237 -0.2771  0.5872
 1103SOL    HW114768   0.647   4.077   9.002  0.1640 -0.3479  1.0517
 1103SOL    HW214769   0.781   4.147   9.021  0.4217  1.0942 -1.3874
 1104SOL     OW14770   4.290   3.313   3.283 -0.1971  0.2885 -0.1093
 1104SOL    HW114771   4.239   3.233   3.278 -0.1584  0.4033 -2.3013
 1104SOL    HW214772   4.308   3.326   3.190  1.3763  0.9119  0.2809
 1105SOL     OW14773   4.283   1.287  16.418  0.1432 -0.3777 -0.2389
 1105SOL    HW114774   4.214   1.349  16.442 -0.9945 -0.3619 -3.4680
 1105SOL    HW214775   4.237   1.205  16.402 -3.1115  0.3955  5.2809
 1106SOL     OW14776   3.770   0.078   1.208 -0.9049 -0.0287  0.1314
 1106SOL    HW114777   3.786   0.168   1.179  1.5842 -1.2205 -2.1422
 1106SOL    HW214778   3.803   0.080   1.298  4.4424  0.1394 -1.8357
 1107SOL     OW14779   3.178   3.468   3.171 -0.6546 -0.2444  0.4206
 1107SOL    HW114780   3.247   3.418   3.214  1.5236  2.2401 -0.1907
 1107SOL    HW214781   3.137   3.516   3.242 -0.8507  1.2919 -0.7406
 1108SOL     OW14782   4.196   2.219   3.482 -0.0017 -0.1177 -0.2993
 1108SOL    HW114783   4.130   2.263   3.429 -0.2261 -1.1472 -0.8766
 1108SOL    HW214784   4.142   2.166   3.541 -0.6945 -0.5749 -1.3588
 1109SOL     OW14785   2.938   3.230  16.308  0.1291  0.5488 -0.0230
 1109SOL    HW114786   2.998   3.293  16.347  1.5044 -1.2599  0.7333
 1109SOL    HW214787   2.988   3.150  16.296 -2.5530 -1.0036 -0.8119
 1110SOL     OW14788   0.854   0.840   8.610 -0.2031 -0.0715  1.0656
 1110SOL    HW114789   0.848   0.745   8.602  2.1096 -0.2346  1.3994
 1110SOL    HW214790   0.852   0.852   8.705  1.1899  0.5891  1.0088
 1111SOL     OW14791   3.193   3.059   4.645  0.1843 -0.0513 -0.1829
 1111SOL    HW114792   3.152   3.022   4.567 -3.0506  1.9042  0.5422
 1111SOL    HW214793   3.125   3.113   4.686  2.1566  2.5478 -0.3773
 1112SOL     OW14794   1.731   1.049   1.027 -0.3132  0.3408 -0.1340
 1112SOL    HW114795   1.769   0.981   0.972  1.6267 -0.7128  2.5742
 1112SOL    HW214796   1.638   1.033   1.009  0.0878 -1.9186 -0.1241
 1113SOL     OW14797   4.437   0.383   2.791 -1.1808 -0.3013 -0.3152
 1113SOL    HW114798   4.345   0.356   2.794 -1.3672  0.3011 -0.4814
 1113SOL    HW214799   4.476   0.299   2.815  0.5708  1.0466  1.6178
 1114SOL     OW14800   4.545   2.989   9.540 -0.5344 -0.0539  0.8633
 1114SOL    HW114801   4.564   3.065   9.595 -0.6469  1.2743 -0.9493
 1114SOL    HW214802   4.594   3.017   9.463  1.8646 -1.0441  2.0266
 1115SOL     OW14803   2.726   4.105   0.870 -0.2361  0.4041 -0.8426
 1115SOL    HW114804   2.653   4.165   0.882 -0.1354  0.0833  1.4014
 1115SOL    HW214805   2.675   4.027   0.847  0.5371 -0.0166 -1.1739
 1116SOL     OW14806   4.723   2.187   8.542  0.1199  0.9002  0.6250
 1116SOL    HW114807   0.044   2.271   8.558  1.2530  0.7164 -1.5807
 1116SOL    HW214808   0.059   2.128   8.588 -0.3575 -0.1772 -0.1331
 1117SOL     OW14809   2.010   2.958   8.675  0.3739 -0.0707  0.2540
 1117SOL    HW114810   2.105   2.958   8.679  0.2913 -0.5453  1.7806
 1117SOL    HW214811   1.995   2.871   8.711  1.6003 -1.2455 -2.0659
 1118SOL     OW14812   1.806   3.696   6.494  0.4513 -0.3937 -0.5605
 1118SOL    HW114813   1.889   3.679   6.539 -0.2027 -0.2708  0.7037
 1118SOL    HW214814   1.835   3.761   6.430 -0.3173 -0.6317 -1.1537
 1119SOL     OW14815   0.015   4.597   4.833 -0.1678 -0.3194 -0.0942
 1119SOL    HW114816   0.030   4.504   4.850 -2.9642 -0.6458  0.5886
 1119SOL    HW214817   4.650   4.600   4.868 -0.5616 -1.2378 -1.0166
 1120SOL     OW14818   2.373   1.146   0.065  0.1955  0.2254 -0.2988
 1120SOL    HW114819   2.378   1.237   0.096  0.3122 -0.8583  2.9594
 1120SOL    HW214820   2.304   1.143  17.696  0.4527  0.9254 -0.6000
 1121SOL     OW14821   3.796   1.041  13.963 -0.2122  0.0269 -0.1098
 1121SOL    HW114822   3.798   1.137  13.963  2.3595 -0.0234 -1.0887
 1121SOL    HW214823   3.722   1.023  14.021  2.2460 -1.4737  2.5255
 1122SOL     OW14824   4.057   3.417   4.613 -0.3899  0.1478 -0.0580
 1122SOL    HW114825   4.126   3.351   4.608  0.7618  1.3295  0.0752
 1122SOL    HW214826   4.096   3.499   4.583  0.1098  0.3549  1.1805
 1123SOL     OW14827   1.014   3.157   7.702  0.1557  0.5368  0.0679
 1123SOL    HW114828   1.092   3.109   7.674  0.0693  0.2763  0.2719
 1123SOL    HW214829   1.060   3.240   7.714  0.4507  0.3682  0.1035
 1124SOL     OW14830   3.698   4.004   9.393  0.1048  0.5339  0.1376
 1124SOL    HW114831   3.697   4.070   9.462  0.9962 -0.6155  1.2374
 1124SOL    HW214832   3.792   3.987   9.386  0.3167  2.1696 -1.1688
 1125SOL     OW14833   4.655   3.630  12.196  0.3964  1.0933 -0.5190
 1125SOL    HW114834   4.590   3.698  12.214 -0.0354  0.9447 -1.5101
 1125SOL    HW214835   0.013   3.679  12.194 -0.6102  2.8475  1.1289
 1126SOL     OW14836   3.143   0.279  14.054 -0.0215 -0.5298  0.6098
 1126SOL    HW114837   3.122   0.208  14.114 -2.2591 -0.9850 -0.7027
 1126SOL    HW214838   3.087   0.348  14.089 -0.0631 -0.9284  1.3241
 1127SOL     OW14839   2.779   2.370   9.173  0.2762 -0.1371  0.8380
 1127SOL    HW114840   2.786   2.319   9.254  2.3276 -0.5726  0.3852
 1127SOL    HW214841   2.685   2.384   9.162 -0.1850 -2.3147  1.8799
 1128SOL     OW14842   4.270   4.575   8.567 -0.0015  0.0540 -0.0878
 1128SOL    HW114843   4.192   4.522   8.583  0.0099 -0.2419 -1.0139
 1128SOL    HW214844   4.329   4.504   8.542  3.4938  2.4918  1.2046
 1129SOL     OW14845   2.334   2.370   7.181  0.4963  0.0165  0.0425
 1129SOL    HW114846   2.314   2.286   7.222 -2.4514  0.4568 -0.4963
 1129SOL    HW214847   2.327   2.344   7.089  1.8547  1.7016 -0.5474
 1130SOL     OW14848   3.319   3.964   1.244 -0.2603  0.4385 -0.5640
 1130SOL    HW114849   3.351   3.903   1.310 -0.1632  0.1245 -0.9041
 1130SOL    HW214850   3.390   3.957   1.181 -0.3983  1.1283 -0.7955
 1131SOL     OW14851   2.359   2.024   4.868 -0.8073 -0.0573  0.5943
 1131SOL    HW114852   2.276   2.016   4.915 -1.3587  0.3241 -0.3282
 1131SOL    HW214853   2.354   2.118   4.849  0.9470  0.2207  1.4419
 1132SOL     OW14854   3.206   1.036   3.069  0.0882  0.0218 -0.1104
 1132SOL    HW114855   3.193   1.093   2.993 -1.7502 -1.6869 -1.0803
 1132SOL    HW214856   3.124   1.054   3.115 -0.1638 -0.5062 -0.3508
 1133SOL     OW14857   1.498   4.352   6.010  0.0916  0.4142  0.3556
 1133SOL    HW114858   1.569   4.400   6.052  0.3664  0.3163  0.0018
 1133SOL    HW214859   1.430   4.420   6.010 -0.4436 -0.1449  3.3796
 1134SOL     OW14860   2.768   3.143   2.517 -0.2336 -0.1012 -0.2104
 1134SOL    HW114861   2.689   3.136   2.570 -1.3399  0.4449 -1.7793
 1134SOL    HW214862   2.764   3.063   2.464 -2.6452  0.4104 -0.7931
 1135SOL     OW14863   2.322   0.054   7.850  0.7841 -0.9886 -0.6459
 1135SOL    HW114864   2.284   0.141   7.862  0.4783 -0.9485 -1.9193
 1135SOL    HW214865   2.415   0.072   7.864  0.5189  0.2432 -0.4950
 1136SOL     OW14866   0.519   3.506   7.359 -0.2145 -0.1912  0.3839
 1136SOL    HW114867   0.564   3.464   7.431  1.1953  0.7429  0.0497
 1136SOL    HW214868   0.523   3.442   7.288  0.9058  0.8984 -0.5404
 1137SOL     OW14869   1.316   3.952  11.971  0.0313  0.1023 -0.1500
 1137SOL    HW114870   1.309   3.871  11.920 -3.6143 -0.3664  1.1064
 1137SOL    HW214871   1.410   3.958  11.985  0.3039  2.2519 -2.9450
 1138SOL     OW14872   1.620   0.974   9.177  0.7170 -0.5142  0.4608
 1138SOL    HW114873   1.604   1.029   9.254  0.6251  1.3442 -0.8995
 1138SOL    HW214874   1.651   0.901   9.231  0.3198  0.4708  2.0290
 1139SOL     OW14875   4.721   0.998   4.276  0.0994 -0.4248 -0.3436
 1139SOL    HW114876   4.662   1.053   4.328  1.2607  0.1757  0.3428
 1139SOL    HW214877   4.690   1.008   4.186 -2.3866  2.1822  0.8072
 1140SOL     OW14878   2.925   3.187   4.275  0.3989 -0.4872 -0.9177
 1140SOL    HW114879   2.998   3.249   4.279  1.1913 -1.3882 -1.4433
 1140SOL    HW214880   2.857   3.227   4.329 -0.6444  0.1201 -2.6558
 1141SOL     OW14881   1.859   3.799   8.965  0.6185 -0.0362 -0.0766
 1141SOL    HW114882   1.784   3.847   8.999  0.3066  0.7516 -1.9059
 1141SOL    HW214883   1.900   3.772   9.048 -0.8976 -3.0121 -0.2865
 1142SOL     OW14884   2.279   1.741  15.755 -0.1758 -0.5224 -0.0877
 1142SOL    HW114885   2.240   1.826  15.734  0.2853 -0.6386 -1.4082
 1142SOL    HW214886   2.200   1.688  15.763 -1.4248  1.2984 -0.2650
 1143SOL     OW14887   1.927   3.056   8.420  0.2654  0.2726 -0.2847
 1143SOL    HW114888   1.945   3.016   8.505  0.0782 -2.6544 -1.6231
 1143SOL    HW214889   1.921   2.981   8.361  1.4146  0.9142 -1.2180
 1144SOL     OW14890   2.436   0.416   5.955  0.0599 -0.6342  0.0235
 1144SOL    HW114891   2.468   0.433   6.043  1.9833 -1.0742 -0.5674
 1144SOL    HW214892   2.509   0.370   5.912  2.2553  3.0302 -0.1351
 1145SOL     OW14893   2.108   0.800   7.525 -0.1872 -0.5192 -0.7155
 1145SOL    HW114894   2.016   0.791   7.550  0.4947 -2.5573  1.0290
 1145SOL    HW214895   2.126   0.876   7.581 -0.3319 -0.0168 -1.3403
 1146SOL     OW14896   2.104   2.679  13.051  0.0075  0.1393 -0.2174
 1146SOL    HW114897   2.047   2.632  12.990 -0.7717  1.2015 -0.3089
 1146SOL    HW214898   2.181   2.622  13.055 -0.7050 -0.6679  1.9488
 1147SOL     OW14899   0.222   0.431   7.512  0.3248  0.2513  0.2549
 1147SOL    HW114900   0.306   0.475   7.524 -0.5250  1.9915 -0.2439
 1147SOL    HW214901   0.251   0.344   7.541 -2.0755  0.1490  2.3271
 1148SOL     OW14902   0.696   4.666   2.605 -0.2631  0.5688  0.1578
 1148SOL    HW114903   0.783   4.704   2.614  0.6500 -1.5065  0.2964
 1148SOL    HW214904   0.704   4.587   2.550  2.6541  0.6096  0.5341
 1149SOL     OW14905   1.518   1.311   6.244 -0.2329 -0.1811 -0.0562
 1149SOL    HW114906   1.423   1.304   6.245 -0.2372  0.1151  1.9104
 1149SOL    HW214907   1.547   1.226   6.277  0.3233  0.3305  0.7886
 1150SOL     OW14908   2.289   1.147   8.064  0.0733  0.4524 -0.5179
 1150SOL    HW114909   2.351   1.202   8.112 -0.0351  1.3397 -1.3824
 1150SOL    HW214910   2.354   1.085   8.031 -1.0418 -0.3003 -1.3050
 1151SOL     OW14911   0.599   3.564  16.631 -0.5341  0.2075 -0.7062
 1151SOL    HW114912   0.639   3.483  16.600 -0.4490  0.5417 -1.4692
 1151SOL    HW214913   0.525   3.580  16.572  0.3086 -0.3166 -1.8975
 1152SOL     OW14914   3.853   4.283   0.931  0.2435  0.6196 -0.3565
 1152SOL    HW114915   3.947   4.295   0.917  0.4629 -0.1454  0.4217
 1152SOL    HW214916   3.836   4.239   0.848 -0.9459 -2.6211  1.5868
 1153SOL     OW14917   2.713   0.849   6.753  0.1110 -0.0763  0.1842
 1153SOL    HW114918   2.793   0.895   6.727  0.5153 -0.1535  1.3141
 1153SOL    HW214919   2.644   0.915   6.756  0.3680  0.1833  0.3609
 1154SOL     OW14920   1.519   2.752   7.150  0.1063  0.6029 -0.6233
 1154SOL    HW114921   1.531   2.847   7.160  0.4874  0.3385  1.3696
 1154SOL    HW214922   1.576   2.715   7.217 -0.5957 -0.2477 -0.5032
 1155SOL     OW14923   1.989   1.371   9.190 -0.2275 -0.2101  0.0253
 1155SOL    HW114924   1.950   1.311   9.126 -4.5726  1.8278  0.7610
 1155SOL    HW214925   2.014   1.444   9.132  1.3880 -1.3331 -0.6593
 1156SOL     OW14926   3.395   1.047   5.024  0.2922 -0.1510  0.4555
 1156SOL    HW114927   3.304   1.026   5.004  0.3241  0.0973  0.0451
 1156SOL    HW214928   3.397   1.131   4.979 -0.1106 -0.9882 -1.0938
 1157SOL     OW14929   0.767   1.229   6.153  0.0918 -0.2735 -0.4795
 1157SOL    HW114930   0.829   1.177   6.204  0.8321  1.8630  0.7852
 1157SOL    HW214931   0.696   1.254   6.212 -0.0409  0.3114 -0.8862
 1158SOL     OW14932   2.818   3.324  13.404  0.0070  0.5708 -0.6945
 1158SOL    HW114933   2.820   3.379  13.483 -0.2040  1.3123 -1.1988
 1158SOL    HW214934   2.908   3.294  13.390 -0.0408 -0.0227  0.3431
 1159SOL     OW14935   3.165   1.555   2.171  0.0865 -0.3803 -0.2085
 1159SOL    HW114936   3.226   1.485   2.192 -0.8163 -0.7527  1.1925
 1159SOL    HW214937   3.086   1.502   2.161  1.2319 -1.9996 -0.5239
 1160SOL     OW14938   1.785   1.214   6.144  0.5413  0.0275  0.1388
 1160SOL    HW114939   1.803   1.188   6.234 -1.1628 -1.2351  0.1156
 1160SOL    HW214940   1.779   1.308   6.160  1.4660  0.3245 -1.2470
 1161SOL     OW14941   3.905   3.572   0.334  0.7082  0.1759  0.0390
 1161SOL    HW114942   3.913   3.481   0.363  2.3158 -0.0912 -1.2088
 1161SOL    HW214943   3.837   3.571   0.267  0.6465  0.7013  0.0992
 1162SOL     OW14944   2.406   2.854   8.835  0.2055 -0.1277  0.6033
 1162SOL    HW114945   2.341   2.834   8.768 -0.0270 -1.2148  1.1566
 1162SOL    HW214946   2.483   2.818   8.791  1.1643  1.4930  0.9627
 1163SOL     OW14947   1.212   3.536   8.857 -0.0326  0.0989 -0.2531
 1163SOL    HW114948   1.295   3.550   8.903  0.2481 -1.5434 -0.2586
 1163SOL    HW214949   1.162   3.517   8.937 -0.4114 -0.1372 -0.5468
 1164SOL     OW14950   2.889   2.885   8.263 -0.4748  0.3730 -0.8128
 1164SOL    HW114951   2.890   2.815   8.198  0.9690 -1.5871  1.2982
 1164SOL    HW214952   2.939   2.951   8.214  1.6473 -0.7359 -0.1255
 1165SOL     OW14953   1.010   1.718   6.278 -0.5875 -0.4550 -0.2137
 1165SOL    HW114954   0.947   1.676   6.220 -1.2653  0.3184 -0.0414
 1165SOL    HW214955   1.085   1.729   6.220  0.3364 -1.0496  0.8706
 1166SOL     OW14956   0.520   4.604  11.446 -0.4982 -0.3089 -0.4775
 1166SOL    HW114957   0.575   4.628  11.372 -1.3518  0.1387 -0.9667
 1166SOL    HW214958   0.534   4.688  11.491 -0.7544 -0.4792 -0.0771
 1167SOL     OW14959   3.671   3.819  11.893 -0.3741 -0.3153 -0.4704
 1167SOL    HW114960   3.595   3.878  11.894 -0.7736 -0.8371 -0.1761
 1167SOL    HW214961   3.694   3.839  11.802 -0.8529 -1.8599 -0.9267
 1168SOL     OW14962   3.928   2.605   1.026 -0.0290  0.3427  0.6681
 1168SOL    HW114963   4.003   2.591   0.968  0.0594 -0.0931  0.8913
 1168SOL    HW214964   3.894   2.687   0.990  0.7601 -0.0349 -0.9584
 1169SOL     OW14965   2.124   3.204  16.007 -0.4430 -0.1173  0.1113
 1169SOL    HW114966   2.104   3.124  15.958  0.4908  0.3228 -1.0009
 1169SOL    HW214967   2.219   3.203  16.018 -0.5351 -0.9757  0.8017
 1170SOL     OW14968   1.349   1.375   5.284 -0.3708 -0.3602 -0.1356
 1170SOL    HW114969   1.352   1.416   5.197  0.6228 -2.8498 -1.2885
 1170SOL    HW214970   1.282   1.430   5.324  1.5993  0.5689  1.8327
 1171SOL     OW14971   0.599   2.584  15.379 -0.0143 -0.3666  0.9474
 1171SOL    HW114972   0.583   2.494  15.406 -1.1227 -0.4782 -0.0648
 1171SOL    HW214973   0.619   2.574  15.286 -0.5075 -0.0356  0.8007
 1172SOL     OW14974   0.433   1.983   5.464  0.2857  0.0681  0.8224
 1172SOL    HW114975   0.383   2.039   5.404  4.4687 -1.6927 -4.2874
 1172SOL    HW214976   0.441   1.902   5.413  1.5641  0.0896  1.0059
 1173SOL     OW14977   3.178   3.767  16.645  0.6869 -0.0618  0.2001
 1173SOL    HW114978   3.157   3.860  16.657  0.6516 -0.0757  0.2456
 1173SOL    HW214979   3.095   3.740  16.607 -0.0645  1.5092  0.7407
 1174SOL     OW14980   1.283   2.073   4.135  0.3683  0.1184  0.5222
 1174SOL    HW114981   1.310   2.100   4.223  1.1917  0.5188  0.1438
 1174SOL    HW214982   1.366   2.034   4.107  0.3340  1.5542 -1.5798
 1175SOL     OW14983   2.878   0.646  12.090  0.0816  0.1152  0.1805
 1175SOL    HW114984   2.899   0.642  11.996  0.2492  1.9072  0.1329
 1175SOL    HW214985   2.814   0.575  12.097  1.7215 -1.3182  0.4913
 1176SOL     OW14986   0.832   3.585   0.367  0.4038  0.7431 -0.6208
 1176SOL    HW114987   0.814   3.536   0.287  4.3869  0.2007 -1.1756
 1176SOL    HW214988   0.754   3.561   0.416 -0.1144  1.4224 -1.1243
 1177SOL     OW14989   3.064   3.442   2.532 -0.0565  0.6958  0.2174
 1177SOL    HW114990   3.134   3.497   2.496  1.7084 -0.3847  1.9680
 1177SOL    HW214991   3.005   3.495   2.586 -2.1496 -0.9553 -0.4442
 1178SOL     OW14992   3.387   3.747   8.804  0.3464 -0.4438  0.3592
 1178SOL    HW114993   3.474   3.766   8.772 -0.4356 -1.0159 -2.0772
 1178SOL    HW214994   3.376   3.812   8.874  1.2436 -0.1751  0.2468
 1179SOL     OW14995   3.917   0.756  17.052 -0.1874  0.1085  0.5249
 1179SOL    HW114996   3.856   0.744  16.979  1.0994  1.6360 -0.7807
 1179SOL    HW214997   3.848   0.787  17.110  2.3357  2.6424  2.1645
 1180SOL     OW14998   0.897   3.228   6.696  0.1187  0.1772  0.1413
 1180SOL    HW114999   0.803   3.217   6.689  0.6362 -3.0739 -1.3407
 1180SOL    HW215000   0.919   3.304   6.641  2.5554  0.4550  1.4662
 1181SOL     OW15001   4.505   3.255   6.633  0.2903 -0.0343 -0.5165
 1181SOL    HW115002   4.430   3.292   6.587 -0.3606  0.2968  0.8020
 1181SOL    HW215003   4.484   3.288   6.721  0.1047 -0.0713 -0.5470
 1182SOL     OW15004   2.975   3.418   1.234  0.0590  0.6117 -0.3156
 1182SOL    HW115005   2.987   3.324   1.218 -1.0578  0.1102  1.8027
 1182SOL    HW215006   3.038   3.429   1.305  0.5314 -0.3004 -0.5831
 1183SOL     OW15007   1.860   4.387   9.890  0.5307 -0.3990  0.2423
 1183SOL    HW115008   1.874   4.456   9.955 -0.8418 -2.6607  2.9173
 1183SOL    HW215009   1.801   4.429   9.828 -1.2387 -1.1008  1.4588
 1184SOL     OW15010   2.818   2.841  15.796 -0.3313 -0.1409  0.1977
 1184SOL    HW115011   2.817   2.854  15.891  0.2817 -0.0433  0.1933
 1184SOL    HW215012   2.834   2.748  15.780  0.0258 -0.0655  0.1073
 1185SOL     OW15013   0.450   2.750   2.524 -0.6340  0.2547 -0.2127
 1185SOL    HW115014   0.536   2.719   2.495  0.3899  0.5358  2.4842
 1185SOL    HW215015   0.475   2.782   2.611  0.7161 -2.0628  0.2554
 1186SOL     OW15016   1.921   3.836   5.423 -0.2382  0.1550 -0.4240
 1186SOL    HW115017   1.982   3.872   5.358  0.3218 -1.0373 -0.5441
 1186SOL    HW215018   1.882   3.764   5.373 -0.0040  0.4869 -1.0976
 1187SOL     OW15019   1.556   3.967   3.129 -0.2401 -0.1870 -0.0427
 1187SOL    HW115020   1.550   3.879   3.166 -0.4111 -0.5664 -0.9715
 1187SOL    HW215021   1.610   4.009   3.196 -0.3641 -0.4231  0.2072
 1188SOL     OW15022   4.685   3.062   4.560  0.2138 -0.5819 -0.2430
 1188SOL    HW115023   4.671   3.110   4.642 -3.3843 -2.7744  0.4176
 1188SOL    HW215024   0.024   3.115   4.512  0.3285 -0.2840  0.2364
 1189SOL     OW15025   0.114   4.362   8.103 -0.6089 -0.1119 -0.1248
 1189SOL    HW115026   0.052   4.376   8.175 -2.5032 -0.6805 -1.6618
 1189SOL    HW215027   0.088   4.271   8.094 -2.0574  0.1164  1.7167
 1190SOL     OW15028   1.650   2.010   3.374 -0.1636  0.0273 -0.2411
 1190SOL    HW115029   1.716   1.955   3.332 -1.5186 -1.3916 -0.5195
 1190SOL    HW215030   1.569   2.007   3.322 -0.6272 -0.0488  0.4949
 1191SOL     OW15031   1.066   2.075  14.000 -0.5082  0.2064  0.2934
 1191SOL    HW115032   1.102   2.089  14.088 -1.5967  0.2684  0.7325
 1191SOL    HW215033   1.121   2.137  13.953  1.1454 -1.2422  0.2789
 1192SOL     OW15034   1.234   3.029  16.948 -0.2595 -0.3555  0.1526
 1192SOL    HW115035   1.260   3.005  16.858 -1.9567 -3.2354  0.4136
 1192SOL    HW215036   1.319   3.039  16.991 -0.9092 -2.1613  1.8660
 1193SOL     OW15037   0.735   2.923  14.927  0.1135  0.2758  0.2171
 1193SOL    HW115038   0.732   2.828  14.916 -2.1622  0.1277  2.0721
 1193SOL    HW215039   0.736   2.939  15.022 -1.6156  0.3142  0.2419
 1194SOL     OW15040   1.061   3.374   3.659 -0.3714 -0.2879  1.0370
 1194SOL    HW115041   1.038   3.395   3.569  1.9332 -0.1396  0.4804
 1194SOL    HW215042   1.012   3.433   3.716  0.2750  1.3741 -0.1420
 1195SOL     OW15043   0.628   2.230   6.602  0.3764  0.0567 -0.4103
 1195SOL    HW115044   0.683   2.280   6.662  0.3274 -1.6383  1.0278
 1195SOL    HW215045   0.544   2.224   6.648 -0.3037  1.6182 -1.4176
 1196SOL     OW15046   3.665   4.047   7.294 -0.2015  0.2026 -0.8637
 1196SOL    HW115047   3.715   4.063   7.375 -2.3196  2.6055 -0.0228
 1196SOL    HW215048   3.577   4.037   7.329  1.1991 -0.9385  2.3563
 1197SOL     OW15049   1.087   3.025   6.685 -0.2274 -0.4194  0.1534
 1197SOL    HW115050   1.029   3.102   6.688  0.7783  0.3152  0.5960
 1197SOL    HW215051   1.061   2.977   6.606 -0.1031 -0.9996  0.4654
 1198SOL     OW15052   4.699   3.434  12.791  0.1984 -0.0978  0.3188
 1198SOL    HW115053   4.629   3.382  12.753 -0.2642  0.9952 -0.2967
 1198SOL    HW215054   0.033   3.360  12.809  1.6899  1.1099  0.5102
 1199SOL     OW15055   1.022   1.131  15.032  0.3453  0.1628 -0.5183
 1199SOL    HW115056   1.103   1.179  15.047  0.5985 -0.4593  0.1006
 1199SOL    HW215057   0.959   1.196  15.062 -0.3350 -0.8356  0.1784
 1200SOL     OW15058   0.318   3.015  15.233  0.3545 -0.3201 -0.2234
 1200SOL    HW115059   0.285   2.960  15.304 -1.9682 -2.2078 -2.7444
 1200SOL    HW215060   0.272   2.984  15.155  0.5066 -0.6061 -0.2008
 1201SOL     OW15061   4.182   2.315   1.628  0.2943  0.3096  0.1619
 1201SOL    HW115062   4.190   2.270   1.712  1.3838 -1.0476 -0.6680
 1201SOL    HW215063   4.226   2.398   1.648  2.8473 -0.4287 -2.3972
 1202SOL     OW15064   0.213   3.583   7.717 -0.5957  0.1211 -0.2141
 1202SOL    HW115065   0.296   3.607   7.676 -1.2395  1.1270 -0.9409
 1202SOL    HW215066   0.250   3.530   7.787 -0.2905  0.7767  0.1266
 1203SOL     OW15067   1.192   0.289  17.198 -0.2732  0.1306  0.0845
 1203SOL    HW115068   1.179   0.274  17.105 -1.9785  1.2160  0.1432
 1203SOL    HW215069   1.266   0.349  17.193 -0.2535  0.0262 -0.8639
 1204SOL     OW15070   3.198   1.165   7.803  0.4114  0.2065 -0.1039
 1204SOL    HW115071   3.158   1.165   7.890 -0.9863 -1.6316 -0.7457
 1204SOL    HW215072   3.233   1.076   7.802  2.2353  0.9271  0.4275
 1205SOL     OW15073   4.527   4.690  12.392 -0.2065 -0.2252  0.1482
 1205SOL    HW115074   4.562   4.638  12.319 -1.8785 -1.0197 -0.1006
 1205SOL    HW215075   4.577   4.667  12.470 -0.1954  0.6156  0.3798
 1206SOL     OW15076   3.081   3.297   1.951 -0.5396 -0.0846 -0.6982
 1206SOL    HW115077   3.046   3.258   1.870  0.0868 -0.3293 -0.8550
 1206SOL    HW215078   3.123   3.225   1.999  2.1581  1.2652 -1.0363
 1207SOL     OW15079   2.500   2.661  14.908 -0.2720  0.2080 -0.5547
 1207SOL    HW115080   2.577   2.713  14.934 -0.9479  1.0744 -0.2844
 1207SOL    HW215081   2.443   2.676  14.983  2.4882  0.2801  1.5076
 1208SOL     OW15082   2.713   0.026   4.321  0.2988 -0.5536 -0.8074
 1208SOL    HW115083   2.744   0.109   4.286  0.1871  0.3664  1.3387
 1208SOL    HW215084   2.691   0.066   4.405  0.2999 -0.3698 -0.8946
 1209SOL     OW15085   0.292   0.840  12.317 -0.2343  0.2277  0.0647
 1209SOL    HW115086   0.294   0.936  12.317 -0.2385  0.2219 -1.4177
 1209SOL    HW215087   0.372   0.832  12.369 -0.5216  0.7149  0.5866
 1210SOL     OW15088   0.295   3.154   6.395 -0.2105  0.6589  0.0163
 1210SOL    HW115089   0.229   3.177   6.461  1.1951  1.3491  1.1769
 1210SOL    HW215090   0.358   3.104   6.448 -1.3349 -1.8900 -1.0520
 1211SOL     OW15091   0.706   2.369  15.788  0.2006  0.0595  0.2882
 1211SOL    HW115092   0.692   2.460  15.811 -0.1309  0.5531 -1.8189
 1211SOL    HW215093   0.618   2.336  15.770  0.6673 -0.2454 -1.4462
 1212SOL     OW15094   2.813   1.354   7.703 -0.0031  0.0043  0.1400
 1212SOL    HW115095   2.743   1.316   7.756  0.6180 -0.7182  0.4448
 1212SOL    HW215096   2.889   1.357   7.762  0.1886 -3.6884  0.0670
 1213SOL     OW15097   0.492   4.406   4.471 -0.5978 -0.2695  0.1947
 1213SOL    HW115098   0.495   4.339   4.403  1.1081  1.8209 -1.8106
 1213SOL    HW215099   0.581   4.442   4.465 -0.1627 -1.5254 -0.6852
 1214SOL     OW15100   1.368   2.823   7.825  0.4072 -0.0591 -0.5335
 1214SOL    HW115101   1.345   2.914   7.840  1.1157 -0.0951  0.6973
 1214SOL    HW215102   1.418   2.809   7.745  1.6483  0.1083  0.2273
 1215SOL     OW15103   0.070   2.425  11.600  0.5090  0.1028  0.0915
 1215SOL    HW115104   0.078   2.416  11.695 -0.1519  1.6056  0.2933
 1215SOL    HW215105   0.148   2.375  11.578 -0.5029 -0.6950 -1.6463
 1216SOL     OW15106   1.197   3.700   4.630  0.0146 -0.0861 -0.2892
 1216SOL    HW115107   1.239   3.674   4.548  0.9703 -0.7628  0.4188
 1216SOL    HW215108   1.192   3.795   4.619  1.7439  0.1245  0.6462
 1217SOL     OW15109   2.417   0.349   6.322 -0.3254  0.8770  0.3792
 1217SOL    HW115110   2.493   0.376   6.270 -0.3155 -2.9855 -1.5837
 1217SOL    HW215111   2.353   0.338   6.252  0.8551 -0.2143 -0.5424
 1218SOL     OW15112   1.758   3.117   6.571  0.1677 -0.3502  0.0717
 1218SOL    HW115113   1.785   3.209   6.570 -3.7215  0.8401  2.2605
 1218SOL    HW215114   1.824   3.094   6.506 -0.7727 -1.0282 -0.6309
 1219SOL     OW15115   2.976   1.487   7.004  0.1112 -0.0839  0.1447
 1219SOL    HW115116   2.921   1.426   7.053 -1.1534  0.5752 -0.4579
 1219SOL    HW215117   3.058   1.494   7.053  0.4958  0.9291 -0.6223
 1220SOL     OW15118   3.230   1.622   8.515  0.7148  0.2067  0.3317
 1220SOL    HW115119   3.252   1.592   8.428 -0.3055  1.4085 -0.3435
 1220SOL    HW215120   3.210   1.715   8.508 -0.9266 -0.2982 -1.4244
 1221SOL     OW15121   4.412   3.196   0.449  0.1700 -0.5105 -0.0721
 1221SOL    HW115122   4.446   3.155   0.528  2.6188 -0.4948 -1.1146
 1221SOL    HW215123   4.353   3.126   0.420 -0.4915  0.0894 -0.1639
 1222SOL     OW15124   3.955   3.077   2.567 -0.1331 -0.0120  0.4192
 1222SOL    HW115125   4.034   3.036   2.531 -0.1264 -0.0717  0.5023
 1222SOL    HW215126   3.934   3.027   2.646 -0.9653  0.2293  0.3485
 1223SOL     OW15127   0.136   3.616   0.726 -0.0499  0.0866  0.0349
 1223SOL    HW115128   0.040   3.620   0.726 -0.0159  1.3612 -1.8823
 1223SOL    HW215129   0.144   3.550   0.658 -0.1304  1.9378 -1.7764
 1224SOL     OW15130   4.686   2.834   0.569 -0.0784 -0.0838  0.1604
 1224SOL    HW115131   0.010   2.754   0.552  0.2093 -0.0025  0.5757
 1224SOL    HW215132   4.620   2.806   0.633 -0.9619 -1.6277 -1.4157
 1225SOL     OW15133   3.531   4.224   5.905 -0.3375 -0.1446 -0.1231
 1225SOL    HW115134   3.560   4.268   5.984  2.4537 -0.6888 -0.8250
 1225SOL    HW215135   3.477   4.283   5.852  0.8923  1.1234  0.0486
 1226SOL     OW15136   2.690   0.008   9.585 -0.0875  0.1522  0.0245
 1226SOL    HW115137   2.716   0.098   9.562  1.5170 -0.2600  0.2024
 1226SOL    HW215138   2.746   0.006   9.663  0.7551 -2.7820 -0.6598
 1227SOL     OW15139   1.851   3.434   7.475  0.6358 -0.3524  0.3559
 1227SOL    HW115140   1.835   3.471   7.562 -0.6409  1.8708 -0.8238
 1227SOL    HW215141   1.766   3.398   7.452  0.9746 -2.1942  1.9302
 1228SOL     OW15142   2.164   4.114  13.425  0.1878  0.4425  0.2565
 1228SOL    HW115143   2.213   4.195  13.437  2.1171 -0.7074 -0.0284
 1228SOL    HW215144   2.236   4.058  13.397  0.6907  2.3744 -2.2782
 1229SOL     OW15145   2.575   0.976   4.355  0.3229  0.1439 -0.5271
 1229SOL    HW115146   2.607   0.993   4.266  2.3880  1.9665  0.5722
 1229SOL    HW215147   2.658   0.943   4.390 -0.2490 -0.9358 -0.1688
 1230SOL     OW15148   2.989   4.149  14.043 -0.4144 -0.3298 -0.3799
 1230SOL    HW115149   3.082   4.163  14.023 -0.3583 -1.0025 -0.6008
 1230SOL    HW215150   2.943   4.214  13.989 -0.6990 -1.0719 -1.0280
 1231SOL     OW15151   3.793   0.641   9.293  0.2851 -0.7646  0.3204
 1231SOL    HW115152   3.721   0.579   9.282 -1.4714  1.1259  0.9778
 1231SOL    HW215153   3.817   0.640   9.200  0.1284 -1.1418  0.2860
 1232SOL     OW15154   0.067   4.581   3.070 -0.0968 -0.2264  0.0069
 1232SOL    HW115155   0.155   4.584   3.033 -0.3468 -0.2373 -0.5925
 1232SOL    HW215156   0.088   4.620   3.155 -0.5446  2.1932 -0.9895
 1233SOL     OW15157   4.266   0.410  12.961 -0.2485 -0.0079  0.3871
 1233SOL    HW115158   4.257   0.401  12.866  1.5406  1.7602  0.0600
 1233SOL    HW215159   4.274   0.317  12.981  1.3752  0.0168 -0.2004
 1234SOL     OW15160   2.828   4.474   2.800 -0.5971 -0.3957 -0.0138
 1234SOL    HW115161   2.773   4.533   2.852  2.5264  0.9723  1.7380
 1234SOL    HW215162   2.789   4.470   2.713 -2.4136  2.0166  0.6980
 1235SOL     OW15163   4.634   1.145   7.283 -0.7651 -0.7248 -0.2997
 1235SOL    HW115164   4.587   1.075   7.237 -2.0066  0.1920 -0.4439
 1235SOL    HW215165   4.683   1.099   7.351 -1.7104 -2.9482 -1.1349
 1236SOL     OW15166   3.685   4.676   6.216  0.5799 -0.5628  0.4605
 1236SOL    HW115167   3.686   4.628   6.299 -1.5444 -0.1249  0.7280
 1236SOL    HW215168   3.759   0.012   6.223  0.6308 -0.4791 -0.7806
 1237SOL     OW15169   0.385   3.614  17.407  0.1598  0.3680  0.1617
 1237SOL    HW115170   0.358   3.558  17.334 -2.4616  2.2589 -0.3050
 1237SOL    HW215171   0.356   3.701  17.380 -2.0153 -0.0884  1.0277
 1238SOL     OW15172   1.970   0.554  17.278  0.1719 -0.7473 -0.0519
 1238SOL    HW115173   2.054   0.518  17.252  0.9320  0.3457  0.9312
 1238SOL    HW215174   1.919   0.548  17.196 -0.6804 -0.9512  0.4911
 1239SOL     OW15175   1.338   1.662  13.977 -0.0107  0.3217  0.2255
 1239SOL    HW115176   1.378   1.734  14.026 -2.7425  1.5074  0.7151
 1239SOL    HW215177   1.247   1.679  14.001 -0.3404  0.7314 -1.3141
 1240SOL     OW15178   0.204   1.443  10.185  0.2016 -0.0198  0.0603
 1240SOL    HW115179   0.230   1.528  10.150 -1.9276  0.8799  0.6242
 1240SOL    HW215180   0.132   1.419  10.126  1.0465 -0.7357 -0.6723
 1241SOL     OW15181   0.996   0.972  15.759  0.3764 -0.5176  0.7279
 1241SOL    HW115182   1.077   0.977  15.810  0.8529 -1.1182  0.0209
 1241SOL    HW215183   0.929   0.969  15.828 -0.5361  0.0414 -0.1285
 1242SOL     OW15184   3.951   0.448   3.210 -0.0700 -0.5236  0.3094
 1242SOL    HW115185   4.004   0.527   3.200 -0.8599  0.1756  1.6174
 1242SOL    HW215186   3.994   0.408   3.286 -2.4112  0.5243  2.1975
 1243SOL     OW15187   3.272   4.529   4.796 -0.2152  0.3942 -0.4448
 1243SOL    HW115188   3.354   4.531   4.748 -0.1394  1.3533 -0.2729
 1243SOL    HW215189   3.302   4.541   4.886 -1.0828  2.0071 -0.3701
 1244SOL     OW15190   4.403   4.467   4.476 -0.1577  0.0468 -0.1148
 1244SOL    HW115191   4.386   4.399   4.541 -1.8932 -0.2927 -0.9223
 1244SOL    HW215192   4.427   4.540   4.533 -1.1248 -0.6710  1.2121
 1245SOL     OW15193   4.247   4.079   4.821 -0.1812 -0.1731 -0.0428
 1245SOL    HW115194   4.266   4.006   4.879  0.3800 -1.7469 -2.2098
 1245SOL    HW215195   4.238   4.150   4.884  1.2115 -1.5343  1.7086
 1246SOL     OW15196   1.947   1.674  10.220  0.5098  0.1922  0.8473
 1246SOL    HW115197   2.024   1.667  10.163  0.7110 -0.1231  1.1537
 1246SOL    HW215198   1.937   1.580  10.236  1.0252 -0.1796 -0.9260
 1247SOL     OW15199   0.036   4.535  10.199 -0.7491  0.2004  0.3888
 1247SOL    HW115200   0.108   4.546  10.261 -0.1995 -0.4223 -0.1495
 1247SOL    HW215201   0.033   4.620  10.155 -1.1297  0.1864  0.3875
 1248SOL     OW15202   4.039   4.514  10.273  0.1984  0.3228  0.5889
 1248SOL    HW115203   4.090   4.433  10.270 -0.7583 -0.1933 -1.7317
 1248SOL    HW215204   4.095   4.576  10.320  1.2338 -0.2327  0.0816
 1249SOL     OW15205   1.193   1.585   4.193 -0.1717 -0.3897 -0.5048
 1249SOL    HW115206   1.193   1.493   4.165  0.4228 -0.8732  1.0643
 1249SOL    HW215207   1.271   1.622   4.150  0.1904 -0.0171  0.4788
 1250SOL     OW15208   0.579   0.750   2.950 -0.4027 -0.2685 -0.3718
 1250SOL    HW115209   0.515   0.813   2.916 -0.5605  0.2016  0.7805
 1250SOL    HW215210   0.654   0.773   2.896  2.2304  1.5712  4.0979
 1251SOL     OW15211   1.129   2.519   4.265 -0.0718  0.4071 -0.0144
 1251SOL    HW115212   1.094   2.430   4.261  2.0473 -0.5297  2.6595
 1251SOL    HW215213   1.065   2.557   4.324 -0.7571  0.4295 -0.7694
 1252SOL     OW15214   4.703   1.307   9.162 -0.0301  0.4537  0.5357
 1252SOL    HW115215   4.640   1.311   9.090  1.1863 -0.8456 -0.6077
 1252SOL    HW215216   4.648   1.270   9.231  0.6828  0.3227  1.0342
 1253SOL     OW15217   3.484   0.115   5.101 -0.3865  0.1007 -0.6830
 1253SOL    HW115218   3.550   0.171   5.140  0.9354  0.1224 -2.9594
 1253SOL    HW215219   3.411   0.171   5.075  0.1485  1.4636  0.7705
 1254SOL     OW15220   3.317   3.632   4.259 -0.0657 -0.2919 -0.4419
 1254SOL    HW115221   3.299   3.726   4.252 -2.4216 -0.7091 -0.1204
 1254SOL    HW215222   3.229   3.595   4.270 -0.6809  1.2445 -0.2340
 1255SOL     OW15223   0.566   4.283   2.670 -1.0658  0.3667  0.0010
 1255SOL    HW115224   0.643   4.307   2.619  0.5337 -1.3914  1.6296
 1255SOL    HW215225   0.547   4.358   2.727  0.2047  0.1493  0.7129
 1256SOL     OW15226   3.660   1.230   8.815  0.3668  0.1036  0.6877
 1256SOL    HW115227   3.645   1.136   8.813 -2.1737  0.5471 -0.4421
 1256SOL    HW215228   3.623   1.254   8.730  1.5191  0.2207  0.2203
 1257SOL     OW15229   1.453   3.362  16.661 -0.7880 -0.1040  0.4252
 1257SOL    HW115230   1.463   3.361  16.566  1.2249 -0.3784  0.6357
 1257SOL    HW215231   1.403   3.284  16.686  0.8900 -1.3648 -0.2187
 1258SOL     OW15232   4.352   2.725  11.069 -0.4564  0.0820 -0.8717
 1258SOL    HW115233   4.354   2.700  11.161 -0.4406  1.6018 -0.4669
 1258SOL    HW215234   4.258   2.726  11.049 -0.7117  0.5717  0.4024
 1259SOL     OW15235   3.376   0.130   0.501 -0.0181  0.3911 -0.1398
 1259SOL    HW115236   3.351   0.102   0.589  1.2384  0.5394  0.2650
 1259SOL    HW215237   3.362   0.224   0.510 -0.2509  0.3131  0.3429
 1260SOL     OW15238   2.319   1.039   4.689 -0.1313 -0.8601  0.5548
 1260SOL    HW115239   2.234   1.010   4.720 -1.6024  1.7238 -1.0529
 1260SOL    HW215240   2.345   0.968   4.630 -0.0640  0.2393 -0.7501
 1261SOL     OW15241   3.952   3.813   5.317 -0.1769  0.3879 -0.5540
 1261SOL    HW115242   3.864   3.804   5.282 -0.3466 -3.2803  0.8724
 1261SOL    HW215243   3.985   3.727   5.291  0.5614  1.9787 -4.8664
 1262SOL     OW15244   2.981   0.162   9.848 -0.1974  0.1996 -0.8674
 1262SOL    HW115245   3.029   0.227   9.899  0.9990 -0.5294 -1.0502
 1262SOL    HW215246   3.002   0.186   9.758 -0.7839  0.2184 -1.0015
 1263SOL     OW15247   1.484   2.538   6.244 -0.8507 -0.2190  0.3100
 1263SOL    HW115248   1.538   2.568   6.317 -2.2051 -2.1594  2.1209
 1263SOL    HW215249   1.542   2.564   6.172  0.0253 -1.6016  0.5314
 1264SOL     OW15250   0.475   2.184  13.708 -0.1704 -0.0375 -0.1398
 1264SOL    HW115251   0.510   2.223  13.788  0.2017  1.0020 -0.8153
 1264SOL    HW215252   0.468   2.094  13.740  0.7545  0.4501  1.4452
 1265SOL     OW15253   2.499   2.787   4.976  0.7665 -0.1020 -0.1780
 1265SOL    HW115254   2.408   2.776   5.003  0.7929  0.2119  0.0333
 1265SOL    HW215255   2.532   2.705   5.012  3.0692 -0.2268 -2.5557
 1266SOL     OW15256   0.287   4.487   6.010 -0.0917 -0.0579  0.0494
 1266SOL    HW115257   0.209   4.460   6.059 -1.6623  0.2328 -2.2765
 1266SOL    HW215258   0.272   4.452   5.922 -0.4607  0.9254 -0.2878
 1267SOL     OW15259   2.008   0.314   2.693  0.2648 -0.0399 -0.2600
 1267SOL    HW115260   2.076   0.313   2.626  0.0557  1.8961 -0.4940
 1267SOL    HW215261   1.966   0.400   2.682  0.6692  0.0198 -1.2609
 1268SOL     OW15262   2.999   3.034  14.257 -0.7940 -0.1906  0.1756
 1268SOL    HW115263   3.053   3.020  14.179 -1.0846  1.1641 -0.2854
 1268SOL    HW215264   2.983   3.129  14.263 -1.2542 -0.2864  0.4421
 1269SOL     OW15265   0.509   3.818  14.750  0.3306  0.1203  0.1229
 1269SOL    HW115266   0.470   3.757  14.687  1.5349  1.4909 -1.9365
 1269SOL    HW215267   0.543   3.886  14.692 -0.2887 -0.0093 -0.3955
 1270SOL     OW15268   0.026   1.284   5.837 -0.2852  0.5413  1.0471
 1270SOL    HW115269   4.654   1.285   5.843 -0.3653 -0.3029 -0.0820
 1270SOL    HW215270   0.031   1.369   5.794  0.0833 -0.1152 -0.2103
 1271SOL     OW15271   4.267   0.987   8.038  0.7399 -0.3751 -0.5995
 1271SOL    HW115272   4.294   1.010   7.949  1.4883 -0.3165 -0.3556
 1271SOL    HW215273   4.333   1.033   8.089 -0.1622  1.2954 -0.9435
 1272SOL     OW15274   3.514   3.219   5.290 -0.1487  0.3195 -0.2577
 1272SOL    HW115275   3.459   3.292   5.320  0.4964  1.2722 -1.3730
 1272SOL    HW215276   3.476   3.148   5.342  0.9035  0.4656  0.7255
 1273SOL     OW15277   3.856   1.796   0.370  0.3494 -0.7776  0.1368
 1273SOL    HW115278   3.821   1.727   0.426  0.2099 -0.4385  0.4610
 1273SOL    HW215279   3.923   1.830   0.430  0.1691 -1.7729  0.8990
 1274SOL     OW15280   0.674   2.383   0.582 -0.9464 -0.5300  0.7461
 1274SOL    HW115281   0.764   2.365   0.612 -0.4142  1.0544  0.0760
 1274SOL    HW215282   0.673   2.474   0.553 -2.5343 -0.9515 -0.4467
 1275SOL     OW15283   2.255   2.489  15.066 -0.2790  0.1977  0.2193
 1275SOL    HW115284   2.211   2.494  14.981 -0.9778 -1.0555  0.5062
 1275SOL    HW215285   2.184   2.475  15.129 -0.2637  0.3394  0.2677
 1276SOL     OW15286   2.061   2.753  14.127  0.1919  0.3243 -0.4905
 1276SOL    HW115287   2.053   2.767  14.032 -1.5188  0.4729 -0.3266
 1276SOL    HW215288   2.047   2.659  14.131 -0.6835  0.5762  2.6111
 1277SOL     OW15289   4.146   3.139  15.001  0.1767 -0.0411 -0.5056
 1277SOL    HW115290   4.158   3.170  14.911  1.8415  1.4424  0.2274
 1277SOL    HW215291   4.230   3.156  15.044 -0.2611  0.8227 -0.0025
 1278SOL     OW15292   1.106   1.392   5.464 -0.4746 -0.3801  0.2025
 1278SOL    HW115293   1.026   1.434   5.432 -1.2727 -2.2044 -0.2114
 1278SOL    HW215294   1.090   1.393   5.558  0.6236 -0.4065  0.3806
 1279SOL     OW15295   3.685   1.624   6.100 -0.5729 -0.1324  0.0399
 1279SOL    HW115296   3.630   1.663   6.032 -0.8693  0.7403  0.7887
 1279SOL    HW215297   3.635   1.557   6.146 -1.2409  0.2583 -0.1216
 1280SOL     OW15298   3.069   4.093   8.270  0.4047  0.1289 -0.1415
 1280SOL    HW115299   3.112   4.147   8.204 -0.8680 -0.2384 -1.2547
 1280SOL    HW215300   3.020   4.160   8.318 -0.2234 -0.0695 -0.5064
 1281SOL     OW15301   2.457   2.232   5.944 -1.2160 -0.6476 -0.7087
 1281SOL    HW115302   2.427   2.215   6.033 -1.3499  3.1308 -0.0310
 1281SOL    HW215303   2.538   2.274   5.974 -0.9627 -2.2237  0.7906
 1282SOL     OW15304   1.316   0.493   6.964  0.4410 -0.4956  0.0661
 1282SOL    HW115305   1.319   0.588   6.974  0.2418 -0.4092 -0.7280
 1282SOL    HW215306   1.246   0.464   6.906 -0.0855  1.5755 -0.3338
 1283SOL     OW15307   3.765   1.906   6.424 -0.0681 -0.2230  0.3150
 1283SOL    HW115308   3.815   1.863   6.493 -0.7916 -0.5386  0.6438
 1283SOL    HW215309   3.791   1.853   6.349  0.5389 -1.0447  1.1083
 1284SOL     OW15310   1.032   2.567  15.904  0.7269  0.2685  0.2766
 1284SOL    HW115311   0.970   2.513  15.952  0.0538  1.3847  0.6617
 1284SOL    HW215312   0.997   2.656  15.909 -0.5248 -0.2650  0.8698
 1285SOL     OW15313   4.072   0.768   8.678 -0.4253 -0.3702  0.2213
 1285SOL    HW115314   4.116   0.736   8.600  1.2892  0.2007  0.9574
 1285SOL    HW215315   4.053   0.685   8.722  0.0847 -1.1867 -1.1095
 1286SOL     OW15316   0.114   3.028  11.575 -0.5269  0.1669  0.1784
 1286SOL    HW115317   0.209   3.016  11.585 -0.2929  0.8750 -1.1490
 1286SOL    HW215318   0.116   3.114  11.534  0.4617  0.0850  0.0520
 1287SOL     OW15319   1.463   4.633   8.702  0.1402 -0.1364 -0.5520
 1287SOL    HW115320   1.438   4.541   8.709  2.7406 -0.8402 -0.2249
 1287SOL    HW215321   1.464   4.639   8.607 -1.0855  0.5639 -0.5098
 1288SOL     OW15322   3.533   1.368  11.786  0.4454 -0.1528 -0.2902
 1288SOL    HW115323   3.593   1.442  11.776 -0.0749  0.1873 -0.9543
 1288SOL    HW215324   3.496   1.397  11.870 -2.8636  0.4087 -1.9342
 1289SOL     OW15325   3.459   3.887  11.249 -1.0155 -0.1755 -0.3512
 1289SOL    HW115326   3.448   3.978  11.222  0.1580  0.9103  2.8500
 1289SOL    HW215327   3.373   3.850  11.229 -1.2177  0.7467 -1.2288
 1290SOL     OW15328   4.533   2.196   3.702 -0.3347 -0.2082  0.3235
 1290SOL    HW115329   4.581   2.136   3.759 -2.3855  0.5016  2.8099
 1290SOL    HW215330   4.564   2.279   3.737 -0.4624 -0.0477  0.0609
 1291SOL     OW15331   3.742   0.816  15.439  0.0940 -0.2250  0.2385
 1291SOL    HW115332   3.675   0.781  15.382  0.2563  1.9273 -1.2553
 1291SOL    HW215333   3.758   0.744  15.501  1.0688  1.3048  1.7822
 1292SOL     OW15334   1.383   0.615   4.733  0.4365 -0.2148 -0.0065
 1292SOL    HW115335   1.450   0.684   4.731  1.7293 -1.4159  1.7713
 1292SOL    HW215336   1.395   0.578   4.821  0.6375 -1.2985 -0.5000
 1293SOL     OW15337   1.509   1.602  12.973 -0.2090  0.0187 -0.3992
 1293SOL    HW115338   1.593   1.606  12.927  0.3307  1.1950  0.7111
 1293SOL    HW215339   1.445   1.642  12.914  1.4104  2.8271 -0.2435
 1294SOL     OW15340   2.176   1.003   4.191  0.5827 -0.3459  0.5861
 1294SOL    HW115341   2.160   0.947   4.267 -0.5705  0.6051  1.0531
 1294SOL    HW215342   2.232   0.947   4.138 -0.5991 -1.1351  0.1579
 1295SOL     OW15343   0.905   3.991   2.791  0.3567 -0.3514  0.0627
 1295SOL    HW115344   0.954   3.998   2.709 -2.4009 -2.9177 -1.7864
 1295SOL    HW215345   0.814   3.992   2.763  0.0145  1.0851  1.2110
 1296SOL     OW15346   0.338   0.244   2.131 -0.0567  0.1997  1.0470
 1296SOL    HW115347   0.323   0.176   2.196  0.3896  0.2985  1.2507
 1296SOL    HW215348   0.372   0.314   2.186 -1.4265  0.4652  1.5480
 1297SOL     OW15349   2.817   3.286   3.499 -0.2865  0.0861 -0.3800
 1297SOL    HW115350   2.729   3.300   3.535 -0.6764 -2.1525 -0.4519
 1297SOL    HW215351   2.856   3.213   3.547  0.6670  1.2786  0.6301
 1298SOL     OW15352   3.835   1.812  17.644 -0.1593  0.0616 -0.1770
 1298SOL    HW115353   3.822   1.738  17.584 -1.1054 -0.7411  1.0091
 1298SOL    HW215354   3.857   1.875  17.576  0.5860 -0.2947 -0.2581
 1299SOL     OW15355   3.488   3.680   3.551  0.6371  0.0605  0.2250
 1299SOL    HW115356   3.437   3.615   3.598 -2.5552  2.2342 -0.2134
 1299SOL    HW215357   3.567   3.627   3.540  0.5485  0.0398 -0.3200
 1300SOL     OW15358   4.177   2.325  11.130 -0.4380 -0.7432 -0.2397
 1300SOL    HW115359   4.194   2.416  11.154  0.0172 -0.6400 -0.9387
 1300SOL    HW215360   4.257   2.281  11.160 -0.1127 -0.2618 -0.4044
 1301SOL     OW15361   0.738   0.511   8.014  0.1591  0.3666 -0.1575
 1301SOL    HW115362   0.677   0.437   8.009  0.7964 -0.1326 -0.6226
 1301SOL    HW215363   0.823   0.469   8.000 -0.2556 -0.1282 -1.2127
 1302SOL     OW15364   1.473   1.059  10.833 -0.0617  0.6148 -0.6172
 1302SOL    HW115365   1.382   1.084  10.847 -0.6390 -2.8885  1.8973
 1302SOL    HW215366   1.511   1.135  10.876  1.4226 -0.9054  0.7706
 1303SOL     OW15367   1.578   4.131   4.990  0.3943 -0.0941  0.0979
 1303SOL    HW115368   1.639   4.148   4.918  1.5105  0.6755  1.2345
 1303SOL    HW215369   1.599   4.040   5.012  0.8672  0.4129  1.7112
 1304SOL     OW15370   4.075   2.875   3.892  0.2464  0.0099  0.0057
 1304SOL    HW115371   4.096   2.936   3.963  1.0939 -1.1598  0.7549
 1304SOL    HW215372   4.108   2.918   3.813 -0.7564  0.7302 -0.0202
 1305SOL     OW15373   2.188   2.171  16.647  0.3119  0.7516  0.2143
 1305SOL    HW115374   2.139   2.096  16.613  0.4772  0.0751  1.4821
 1305SOL    HW215375   2.276   2.135  16.650  0.2404  0.5604  0.0629
 1306SOL     OW15376   2.528   0.496  13.079  0.5930 -0.3910 -0.3754
 1306SOL    HW115377   2.607   0.548  13.093 -0.2343  0.6892  0.3832
 1306SOL    HW215378   2.560   0.406  13.080 -0.3297 -0.7229  0.2059
 1307SOL     OW15379   2.137   0.521   9.783 -0.5685 -0.0384 -0.6344
 1307SOL    HW115380   2.155   0.607   9.820  2.8615 -0.5365 -1.2305
 1307SOL    HW215381   2.084   0.484   9.854  1.2415 -1.0032  0.1977
 1308SOL     OW15382   0.365   0.046   2.306 -0.6228  0.1684 -0.5826
 1308SOL    HW115383   0.297   4.703   2.295  1.6266 -1.9861 -1.3760
 1308SOL    HW215384   0.438   4.722   2.267 -0.5026 -2.1064  2.4029
 1309SOL     OW15385   0.284   1.255   1.789 -0.1319  0.6634  0.5243
 1309SOL    HW115386   0.191   1.234   1.780  0.2484 -1.0925  0.5594
 1309SOL    HW215387   0.310   1.281   1.700  3.2893  2.2049  1.9997
 1310SOL     OW15388   4.081   4.263   0.786 -0.3398  0.6738 -0.4645
 1310SOL    HW115389   4.083   4.282   0.692 -0.5608 -2.4091 -1.0927
 1310SOL    HW215390   4.176   4.267   0.797  0.1093 -1.6459 -3.3223
 1311SOL     OW15391   2.891   1.591   7.555 -0.1378  0.5274  0.1044
 1311SOL    HW115392   2.854   1.512   7.595 -1.1636  1.8830  1.8330
 1311SOL    HW215393   2.975   1.603   7.598  1.1471 -3.0136 -1.4028
 1312SOL     OW15394   3.585   1.519   7.673  0.1718  0.1363  0.2876
 1312SOL    HW115395   3.667   1.507   7.722  0.0710  2.1218  0.9283
 1312SOL    HW215396   3.524   1.467   7.726 -0.5321  1.1141  0.4383
 1313SOL     OW15397   1.851   4.457  15.038  0.2949  0.5387 -0.8261
 1313SOL    HW115398   1.838   4.419  15.125  0.2818 -0.9046 -1.4620
 1313SOL    HW215399   1.946   4.470  15.036  0.3525  0.0131 -1.4013
 1314SOL     OW15400   4.209   2.159   3.123  1.0037 -0.0628 -0.4400
 1314SOL    HW115401   4.208   2.241   3.172 -1.8543 -0.8563  0.8152
 1314SOL    HW215402   4.238   2.178   3.034  1.4775  1.5909  0.0677
 1315SOL     OW15403   0.760   1.183  15.311 -0.2093 -0.2611 -0.3001
 1315SOL    HW115404   0.855   1.184  15.322 -0.0455 -0.3045 -1.8015
 1315SOL    HW215405   0.760   1.231  15.228 -0.0895  0.3711  0.0626
 1316SOL     OW15406   2.711   0.803   3.097 -0.0632  0.0183  0.2185
 1316SOL    HW115407   2.665   0.833   3.018  0.9238 -0.3911 -0.5159
 1316SOL    HW215408   2.741   0.888   3.128 -1.0457 -0.6291  2.8848
 1317SOL     OW15409   1.284   0.180   6.637  0.2857  0.1610 -0.6415
 1317SOL    HW115410   1.343   0.250   6.665  1.3805 -1.0795  0.1401
 1317SOL    HW215411   1.317   0.115   6.699  0.0297  0.7035  0.0666
 1318SOL     OW15412   1.316   4.679   8.411 -0.1974 -0.1710  0.3721
 1318SOL    HW115413   1.365   4.604   8.376  0.1073 -0.3445  1.1713
 1318SOL    HW215414   1.223   4.658   8.401  0.1857 -0.4289 -2.8322
 1319SOL     OW15415   0.164   3.192   5.215 -0.0661 -0.1581 -0.0714
 1319SOL    HW115416   0.146   3.280   5.248  0.2916 -0.5490  1.1618
 1319SOL    HW215417   0.244   3.198   5.163  0.4725 -1.5794  0.5833
 1320SOL     OW15418   4.252   0.649  17.672  0.1427  0.0856 -0.0201
 1320SOL    HW115419   4.287   0.694  17.594 -0.3688  2.5714  1.1726
 1320SOL    HW215420   4.327   0.604   0.012 -0.1452  0.2682  0.7967
 1321SOL     OW15421   3.840   2.885   9.009 -0.5072  0.0034  0.0513
 1321SOL    HW115422   3.832   2.852   8.919 -2.8785  1.2918 -0.2235
 1321SOL    HW215423   3.747   2.880   9.033 -0.5148 -0.1218 -0.0065
 1322SOL     OW15424   1.560   0.074   2.892 -0.2485  0.0239 -0.5433
 1322SOL    HW115425   1.507   0.040   2.819  0.8556 -3.5347  0.3302
 1322SOL    HW215426   1.648   0.088   2.857 -0.5718  3.0967 -0.1269
 1323SOL     OW15427   1.302   0.398  14.293 -0.4670 -0.1665  0.7774
 1323SOL    HW115428   1.384   0.375  14.336  0.8244  2.8051 -0.0903
 1323SOL    HW215429   1.252   0.361  14.366  1.0262 -1.3016  1.2126
 1324SOL     OW15430   0.365   0.498   4.126 -0.2552 -0.2355  0.0263
 1324SOL    HW115431   0.424   0.518   4.198 -0.0993 -1.0002  0.1134
 1324SOL    HW215432   0.420   0.499   4.047  0.7408  1.6428  0.7558
 1325SOL     OW15433   2.970   4.264   6.275  0.2919 -0.3156 -0.0954
 1325SOL    HW115434   3.047   4.296   6.322 -0.1898  2.0056 -0.8814
 1325SOL    HW215435   2.932   4.192   6.325  0.6807 -1.0293 -0.8108
 1326SOL     OW15436   0.048   0.949   5.994 -0.3199  0.2924  0.0367
 1326SOL    HW115437   0.090   0.868   6.023 -1.3441 -0.5131 -0.7175
 1326SOL    HW215438   0.121   0.988   5.946 -0.0189 -2.0449 -1.3917
 1327SOL     OW15439   2.686   3.103   6.210  0.3782 -0.0369 -0.4714
 1327SOL    HW115440   2.760   3.148   6.251 -0.1075 -1.0789  1.5253
 1327SOL    HW215441   2.687   3.163   6.135  1.0342 -1.6332 -1.7364
 1328SOL     OW15442   1.916   1.811   3.308  0.0479 -0.1183  0.4657
 1328SOL    HW115443   1.970   1.744   3.351  2.0453  0.7199 -0.7103
 1328SOL    HW215444   1.843   1.753   3.287  1.5227 -1.7254 -0.2526
 1329SOL     OW15445   2.921   2.897   4.864 -0.1771 -0.1264 -0.0805
 1329SOL    HW115446   2.915   2.854   4.778 -0.7466 -2.1406  0.9841
 1329SOL    HW215447   2.936   2.985   4.828  0.9191 -0.5874 -0.7533
 1330SOL     OW15448   3.018   1.072   3.829 -0.8347 -0.2326 -0.3116
 1330SOL    HW115449   3.053   0.990   3.794  0.5183  1.4078 -2.7137
 1330SOL    HW215450   3.046   1.127   3.757  0.9501 -1.6122 -0.6602
 1331SOL     OW15451   4.236   0.601   9.400 -0.4055  0.3261 -0.1839
 1331SOL    HW115452   4.205   0.692   9.401  0.7940  0.7370 -1.3864
 1331SOL    HW215453   4.146   0.572   9.382  0.1741 -1.3722 -0.3324
 1332SOL     OW15454   1.818   4.641  14.585  0.5948 -0.3438  0.0435
 1332SOL    HW115455   1.787   0.008  14.586  1.7351  0.0497  0.7032
 1332SOL    HW215456   1.884   4.645  14.516  1.2712 -3.0567  0.5466
 1333SOL     OW15457   0.238   2.529   6.066 -0.3674  0.8206 -0.1777
 1333SOL    HW115458   0.218   2.499   6.155  2.5377  0.8353  0.4894
 1333SOL    HW215459   0.170   2.591   6.041 -2.2806 -2.3262 -2.7836
 1334SOL     OW15460   1.519   1.433   7.348 -0.3031 -0.3285  0.1283
 1334SOL    HW115461   1.489   1.453   7.259  2.4845 -0.2771 -0.7915
 1334SOL    HW215462   1.497   1.513   7.397  1.3152  0.2944 -0.1598
 1335SOL     OW15463   1.747   1.775   7.402  0.1666  0.4725  0.3674
 1335SOL    HW115464   1.815   1.726   7.356  0.2967  0.6855  0.3308
 1335SOL    HW215465   1.764   1.863   7.369  2.2653 -0.1514 -0.2321
 1336SOL     OW15466   3.814   3.415  14.995  0.2139 -0.1154 -0.2264
 1336SOL    HW115467   3.824   3.455  15.081 -1.8786 -0.9037  0.3777
 1336SOL    HW215468   3.900   3.442  14.963  1.1038  0.9369  3.1546
 1337SOL     OW15469   0.015   0.741  10.417 -0.3383 -0.4084 -0.1574
 1337SOL    HW115470   0.019   0.767  10.325  2.8629 -0.9322 -0.1695
 1337SOL    HW215471   0.040   0.822  10.462 -0.7739  0.3202 -1.2310
 1338SOL     OW15472   0.097   2.095   3.353  0.0532 -1.2340  0.0934
 1338SOL    HW115473   0.128   2.185   3.340 -0.8630 -0.8938  0.2694
 1338SOL    HW215474   0.059   2.077   3.267 -3.1136  0.5992  1.1266
 1339SOL     OW15475   1.783   0.653  16.201 -0.0424  0.1991 -0.1981
 1339SOL    HW115476   1.745   0.650  16.113 -0.5016 -0.6381  0.0325
 1339SOL    HW215477   1.823   0.739  16.195 -1.0373  0.7760  1.3369
 1340SOL     OW15478   1.798   3.674   6.766  0.0529  0.1728 -0.6413
 1340SOL    HW115479   1.806   3.763   6.800 -1.6708 -0.5702  1.6491
 1340SOL    HW215480   1.885   3.661   6.728  0.4977  0.2813  0.3577
 1341SOL     OW15481   0.413   0.942   2.872  0.5273  0.5187 -0.4636
 1341SOL    HW115482   0.384   0.983   2.953  2.1561  0.5980  0.0813
 1341SOL    HW215483   0.348   0.968   2.807  0.0108 -0.1588 -0.2095
 1342SOL     OW15484   1.740   3.918   1.721 -0.1042 -0.0391 -0.2036
 1342SOL    HW115485   1.688   3.886   1.647 -0.4276 -1.5400  0.6713
 1342SOL    HW215486   1.800   3.846   1.736  0.6971  0.8921  1.0656
 1343SOL     OW15487   2.031   1.438   6.603  0.0910 -0.7117 -0.1434
 1343SOL    HW115488   1.987   1.488   6.534 -2.7027 -0.3061  1.9329
 1343SOL    HW215489   2.120   1.461   6.579 -0.5447  3.6028  1.7300
 1344SOL     OW15490   1.131   1.200   3.211 -0.0119  0.0090 -0.0612
 1344SOL    HW115491   1.118   1.132   3.145 -1.1422  0.6443 -0.5024
 1344SOL    HW215492   1.114   1.278   3.159  4.0520 -0.1509 -1.5929
 1345SOL     OW15493   2.712   2.953   3.633  0.3663  0.1770  0.2370
 1345SOL    HW115494   2.735   2.962   3.725  1.2134 -0.0220  0.0386
 1345SOL    HW215495   2.794   2.982   3.595  0.0729  0.7553  0.0484
 1346SOL     OW15496   1.516   4.273   7.981  0.3672 -0.0319 -0.2075
 1346SOL    HW115497   1.471   4.339   7.928 -0.3338 -0.8880 -0.6573
 1346SOL    HW215498   1.438   4.242   8.027  0.5013 -0.3921 -0.2293
 1347SOL     OW15499   4.378   3.906   2.538 -0.0846  0.1217  0.2073
 1347SOL    HW115500   4.327   3.987   2.533 -0.3823 -0.0408  0.7553
 1347SOL    HW215501   4.304   3.846   2.531 -1.4579  1.3594  4.3450
 1348SOL     OW15502   0.166   1.867   6.709 -0.0654 -0.0900 -0.1223
 1348SOL    HW115503   0.116   1.935   6.664 -0.8164  0.4373  1.4908
 1348SOL    HW215504   0.245   1.916   6.732 -0.3862  1.3765 -2.1417
 1349SOL     OW15505   0.077   2.036  11.105 -0.1524 -0.0658  0.2695
 1349SOL    HW115506   0.163   2.072  11.084  0.3972 -1.9425 -0.6788
 1349SOL    HW215507   0.061   1.971  11.037 -0.7955  1.2470 -0.8210
 1350SOL     OW15508   2.745   3.583   0.540 -0.1458 -0.0160  0.2683
 1350SOL    HW115509   2.735   3.677   0.551  0.3783 -0.2000  2.3545
 1350SOL    HW215510   2.815   3.559   0.602 -0.1797 -1.7663 -0.3703
 1351SOL     OW15511   4.618   4.185   7.387 -0.0268 -0.1863 -0.8036
 1351SOL    HW115512   4.665   4.211   7.308 -1.1898 -2.9853 -2.3979
 1351SOL    HW215513   4.553   4.255   7.391  1.5407  1.2929 -1.2704
 1352SOL     OW15514   2.734   3.899  11.112  0.0636  0.3672  0.6340
 1352SOL    HW115515   2.797   3.972  11.118  0.2792  0.2705 -0.4759
 1352SOL    HW215516   2.768   3.832  11.171  1.0471  0.6753  0.4257
 1353SOL     OW15517   0.072   3.709   4.211  0.5741 -0.2770  0.1763
 1353SOL    HW115518   0.110   3.624   4.193 -0.4009 -0.7846  0.4907
 1353SOL    HW215519   0.145   3.765   4.185 -0.3994  1.7047  1.6335
 1354SOL     OW15520   0.749   1.694   7.033 -0.1172  0.4052  0.0652
 1354SOL    HW115521   0.832   1.733   7.007 -1.7407  3.3016 -0.7528
 1354SOL    HW215522   0.742   1.710   7.127  2.0861 -2.2708  0.6836
 1355SOL     OW15523   0.684   0.435   8.309  0.2417 -0.1037  0.5571
 1355SOL    HW115524   0.766   0.396   8.277  0.7234  1.6352 -0.2852
 1355SOL    HW215525   0.652   0.357   8.355  1.0509  0.4554  2.0789
 1356SOL     OW15526   1.845   0.836   9.265  0.0041 -0.1133  0.5804
 1356SOL    HW115527   1.937   0.851   9.246  0.1914 -1.9696  0.0202
 1356SOL    HW215528   1.844   0.742   9.244 -1.4036 -0.1695  0.8438
 1357SOL     OW15529   0.204   4.263   6.681 -0.4313 -0.5434 -0.3552
 1357SOL    HW115530   0.232   4.344   6.637 -1.2588 -1.2084 -2.0896
 1357SOL    HW215531   0.208   4.301   6.769 -0.9148  0.9264 -0.9708
 1358SOL     OW15532   0.311   2.593   3.553  0.1196 -0.3295 -0.0512
 1358SOL    HW115533   0.325   2.503   3.582  2.0716 -0.4752 -1.4667
 1358SOL    HW215534   0.333   2.642   3.633 -1.8307  0.3552  0.0579
 1359SOL     OW15535   4.127   2.510  15.255  0.6946 -0.0630  0.7241
 1359SOL    HW115536   4.162   2.423  15.237  3.3168  0.8262  1.4995
 1359SOL    HW215537   4.170   2.559  15.185  2.7508 -0.5728  1.6291
 1360SOL     OW15538   2.382   3.007   0.648 -0.3324 -0.4572 -0.5976
 1360SOL    HW115539   2.368   2.914   0.668  0.0889 -0.5585 -0.7501
 1360SOL    HW215540   2.457   3.001   0.589  0.2247  1.1425 -0.0434
 1361SOL     OW15541   2.966   3.946   9.477 -0.3310 -0.1646 -0.4219
 1361SOL    HW115542   3.055   3.979   9.474 -0.2262 -0.1895  2.0460
 1361SOL    HW215543   2.943   3.936   9.385 -0.3212  1.9710 -0.6550
 1362SOL     OW15544   2.387   0.929   2.614  0.2678 -0.1045  0.2051
 1362SOL    HW115545   2.309   0.952   2.563  1.3198  0.6389 -1.0784
 1362SOL    HW215546   2.349   0.944   2.701  0.8668 -1.5029  0.7039
 1363SOL     OW15547   1.761   2.487   7.282 -0.2024 -0.6436  0.2917
 1363SOL    HW115548   1.759   2.408   7.336 -1.0256 -0.0146  1.2034
 1363SOL    HW215549   1.671   2.488   7.250  1.0154 -0.7508 -3.0691
 1364SOL     OW15550   1.955   3.727   1.782 -0.5120  0.1910  0.0343
 1364SOL    HW115551   1.960   3.648   1.836  0.3413 -0.1617 -0.5476
 1364SOL    HW215552   2.017   3.780   1.832 -0.4655  0.0144  0.1635
 1365SOL     OW15553   0.493   3.616  11.386  0.0998  0.1427  0.4931
 1365SOL    HW115554   0.470   3.527  11.361 -0.8709  0.4132  0.4458
 1365SOL    HW215555   0.525   3.652  11.303  0.5516 -2.3584 -0.4060
 1366SOL     OW15556   0.844   0.782   7.815  0.4281  0.8853  0.2287
 1366SOL    HW115557   0.913   0.807   7.754  1.0810  1.2055  1.1009
 1366SOL    HW215558   0.862   0.833   7.893  3.7494  1.4366 -0.9222
 1367SOL     OW15559   2.195   4.602   9.196  0.3695 -0.4237 -0.4955
 1367SOL    HW115560   2.189   4.638   9.107 -1.5258 -1.7412 -0.8990
 1367SOL    HW215561   2.233   4.675   9.244 -0.7148 -1.5067  2.0209
 1368SOL     OW15562   2.001   4.048  13.923 -0.2842 -0.3476  0.6037
 1368SOL    HW115563   1.945   4.090  13.987 -1.0637 -1.4492  0.6358
 1368SOL    HW215564   1.976   4.086  13.838  0.9828  1.0355  0.8496
 1369SOL     OW15565   2.728   2.416   1.244  0.3898 -0.3707 -0.0942
 1369SOL    HW115566   2.746   2.478   1.174  0.1156  1.6553  1.6302
 1369SOL    HW215567   2.657   2.372   1.197  0.1210  1.2792 -1.2330
 1370SOL     OW15568   4.152   3.544  17.133  0.2077 -0.2376 -0.5668
 1370SOL    HW115569   4.174   3.454  17.110  0.7047 -0.3077  0.1675
 1370SOL    HW215570   4.056   3.539  17.139 -0.1478  3.2336 -3.3342
 1371SOL     OW15571   3.428   2.345   4.078 -0.3960  0.0945  0.1750
 1371SOL    HW115572   3.455   2.283   4.010  0.1512 -0.1598  0.6215
 1371SOL    HW215573   3.349   2.306   4.114 -0.7924  0.8449  0.1268
 1372SOL     OW15574   4.548   1.476  11.473 -0.4030 -0.1045  0.0452
 1372SOL    HW115575   4.574   1.506  11.386  0.3698 -1.0154 -0.0440
 1372SOL    HW215576   4.631   1.469  11.520 -0.2069 -4.2169 -0.8572
 1373SOL     OW15577   1.685   1.298   9.003 -0.2625 -0.1302 -0.2825
 1373SOL    HW115578   1.704   1.377   8.952  0.5426  0.1289  0.4229
 1373SOL    HW215579   1.614   1.336   9.055  0.5926  0.0760  0.7444
 1374SOL     OW15580   4.255   3.334   3.770 -0.0160 -0.1746 -0.3048
 1374SOL    HW115581   4.349   3.313   3.773 -0.1639 -0.6528  1.4671
 1374SOL    HW215582   4.240   3.386   3.849 -0.9871  1.3527 -1.5223
 1375SOL     OW15583   0.318   1.705  10.107  0.3635  0.0827  0.2488
 1375SOL    HW115584   0.252   1.773  10.114  0.6710  0.4997 -0.9493
 1375SOL    HW215585   0.386   1.722  10.173 -0.3432  2.5715  0.3152
 1376SOL     OW15586   2.780   3.721  16.301  0.0975  0.4881 -0.0819
 1376SOL    HW115587   2.691   3.712  16.267 -0.0296  1.0574  0.1069
 1376SOL    HW215588   2.817   3.642  16.260  2.6043  0.6350  1.9158
 1377SOL     OW15589   1.149   1.455   4.560 -0.1262  0.4977 -0.2270
 1377SOL    HW115590   1.135   1.523   4.626  0.0689  0.1139  0.2066
 1377SOL    HW215591   1.244   1.448   4.552 -0.1590 -0.3136  0.1033
 1378SOL     OW15592   3.227   3.150  17.622  0.0763  0.4374  0.2026
 1378SOL    HW115593   3.291   3.188  17.562  1.0207  0.4641  1.2245
 1378SOL    HW215594   3.244   3.205   0.002 -0.4045  0.5178  0.2526
 1379SOL     OW15595   1.714   0.893   6.335  0.4219 -0.6228  0.0730
 1379SOL    HW115596   1.702   0.804   6.303  1.1131 -0.8280  0.3913
 1379SOL    HW215597   1.798   0.883   6.381 -0.0123  0.4145  1.0926
 1380SOL     OW15598   1.659   4.558   3.084  0.2608  0.0803 -0.2193
 1380SOL    HW115599   1.575   4.548   3.130  0.3990  0.3976  0.1039
 1380SOL    HW215600   1.646   4.636   3.030  1.3463 -0.4006 -1.1788
 1381SOL     OW15601   3.170   3.115   2.887 -1.0392 -0.0983  0.1559
 1381SOL    HW115602   3.179   3.115   2.792  1.1064  0.6648  0.3666
 1381SOL    HW215603   3.259   3.143   2.907 -0.3621 -1.9516 -0.2540
 1382SOL     OW15604   3.497   2.575  10.128  0.3950 -0.2662  0.3512
 1382SOL    HW115605   3.462   2.566  10.217  1.1661 -0.5455  0.6206
 1382SOL    HW215606   3.430   2.624  10.081 -0.4812 -0.5699  1.2754
 1383SOL     OW15607   1.693   0.849   7.306  0.3662  0.2848 -0.4335
 1383SOL    HW115608   1.781   0.838   7.271 -0.3847 -0.9684 -1.9159
 1383SOL    HW215609   1.710   0.924   7.362 -1.8801  0.6840 -0.2562
 1384SOL     OW15610   1.718   0.329   8.046  0.1305 -0.0878 -0.2286
 1384SOL    HW115611   1.639   0.302   8.000  0.6095  1.6988 -2.0875
 1384SOL    HW215612   1.706   0.424   8.056  0.3620  0.0681 -1.4190
 1385SOL     OW15613   1.223   1.834   2.576  0.0387 -0.2644  0.4376
 1385SOL    HW115614   1.182   1.905   2.625  1.7833  0.1893  1.2352
 1385SOL    HW215615   1.177   1.840   2.493 -0.5620  0.6612  0.8307
 1386SOL     OW15616   3.589   0.341   2.184 -0.1254  0.6226 -0.4236
 1386SOL    HW115617   3.554   0.379   2.264 -1.5257  0.4944 -0.9787
 1386SOL    HW215618   3.662   0.291   2.221  0.7236 -0.5148 -3.5674
 1387SOL     OW15619   2.627   2.808   6.869  0.4887 -0.2042 -0.7863
 1387SOL    HW115620   2.672   2.728   6.843 -0.6098 -0.9013 -0.5417
 1387SOL    HW215621   2.549   2.779   6.822  0.3785  1.6353 -1.7581
 1388SOL     OW15622   4.629   3.284   8.376  0.0542  0.4100  0.0968
 1388SOL    HW115623   4.557   3.330   8.418  0.8294  0.3683  1.4551
 1388SOL    HW215624   4.582   3.233   8.309  0.6502  1.4578 -1.1304
 1389SOL     OW15625   2.789   4.452  17.620  0.6999  0.5574 -0.3581
 1389SOL    HW115626   2.781   4.356  17.617  2.1848  0.3663  1.5889
 1389SOL    HW215627   2.766   4.472   0.015 -0.9946  0.3241 -0.7454
 1390SOL     OW15628   0.885   0.898   9.157  0.1432  0.1098  0.1194
 1390SOL    HW115629   0.970   0.865   9.187  0.1968  1.1853  1.1605
 1390SOL    HW215630   0.856   0.919   9.245  1.1957 -0.2239  0.5453
 1391SOL     OW15631   3.849   1.750  16.125 -0.4202 -0.1635 -1.0358
 1391SOL    HW115632   3.883   1.684  16.065 -1.8997 -1.0898 -0.8709
 1391SOL    HW215633   3.790   1.800  16.067 -0.3469 -1.3290 -2.1318
 1392SOL     OW15634   2.605   0.114  10.472  0.0475  0.4208 -0.0789
 1392SOL    HW115635   2.635   0.044  10.530  2.9650  0.6880 -1.2785
 1392SOL    HW215636   2.681   0.166  10.448  0.7736 -0.4993  0.1992
 1393SOL     OW15637   2.582   4.085  11.435 -0.2616 -0.5480  0.1756
 1393SOL    HW115638   2.585   4.171  11.392 -0.9622 -0.5368  0.1408
 1393SOL    HW215639   2.617   4.118  11.517 -0.0090 -2.7035  0.9197
 1394SOL     OW15640   3.241   3.645   6.703 -0.2812 -0.3398  0.1200
 1394SOL    HW115641   3.196   3.714   6.654 -1.6004 -1.4042 -0.1332
 1394SOL    HW215642   3.314   3.699   6.735 -1.4051  1.0819  0.2997
 1395SOL     OW15643   0.969   0.214   2.913 -0.1129 -0.2074 -0.1317
 1395SOL    HW115644   0.896   0.183   2.859  0.6347 -2.8235  0.3407
 1395SOL    HW215645   1.042   0.201   2.854  0.4427 -1.4541  0.8208
 1396SOL     OW15646   2.900   2.084   3.135  0.4820  0.1023  0.2250
 1396SOL    HW115647   2.886   2.168   3.092  0.2821  1.2803  2.6361
 1396SOL    HW215648   2.995   2.076   3.140  0.3013  0.3100  4.1014
 1397SOL     OW15649   2.528   3.433   1.493 -0.1124 -0.5459 -0.1384
 1397SOL    HW115650   2.440   3.398   1.509  0.5168 -2.0486  0.1268
 1397SOL    HW215651   2.522   3.410   1.400  1.7086 -2.2324  0.1529
 1398SOL     OW15652   4.055   2.281   9.899 -0.0225 -0.0516  0.1819
 1398SOL    HW115653   4.023   2.269   9.988 -0.2141 -4.0209 -0.4315
 1398SOL    HW215654   3.982   2.243   9.850 -1.7511  3.7889 -0.1974
 1399SOL     OW15655   2.720   1.602   2.101 -0.8839 -0.0713 -0.2029
 1399SOL    HW115656   2.643   1.545   2.102 -0.7595 -0.1714  2.6932
 1399SOL    HW215657   2.673   1.685   2.098  0.5019  0.7881  2.0705
 1400SOL     OW15658   0.132   4.054  13.024  0.2091 -0.1480  0.2087
 1400SOL    HW115659   0.175   3.969  13.035 -0.2187 -0.4357 -0.3484
 1400SOL    HW215660   0.211   4.107  13.021  0.9466 -1.3852 -2.6970
 1401SOL     OW15661   3.565   1.168   5.355  0.2139  0.0893  0.1027
 1401SOL    HW115662   3.568   1.239   5.291 -3.3526  1.1758  1.1455
 1401SOL    HW215663   3.557   1.213   5.439 -0.6272  0.5945 -0.2497
 1402SOL     OW15664   3.817   2.396   7.154  0.3340 -0.4409  0.5947
 1402SOL    HW115665   3.735   2.390   7.203 -0.6165 -1.1700 -1.1046
 1402SOL    HW215666   3.798   2.435   7.069  2.5422 -2.6128 -0.8905
 1403SOL     OW15667   3.409   4.308   4.347  0.2040  0.2396  0.0763
 1403SOL    HW115668   3.359   4.390   4.357 -1.4998 -0.7098 -0.6787
 1403SOL    HW215669   3.386   4.271   4.433 -0.9127 -0.0486 -0.3433
 1404SOL     OW15670   3.103   1.801   3.202  0.2057 -0.4905  0.4909
 1404SOL    HW115671   3.165   1.728   3.190  1.4320  0.2438  2.4245
 1404SOL    HW215672   3.153   1.878   3.177  1.1163 -1.8138 -1.7279
 1405SOL     OW15673   4.216   0.704   8.428  0.3945  0.5051  0.2032
 1405SOL    HW115674   4.153   0.745   8.370  1.4440 -0.6307 -1.7390
 1405SOL    HW215675   4.295   0.746   8.394  0.3957  1.4258  1.3508
 1406SOL     OW15676   3.866   3.743   3.422 -0.0504 -0.6995 -0.1218
 1406SOL    HW115677   3.954   3.723   3.454 -0.0867 -0.5639  0.0586
 1406SOL    HW215678   3.823   3.770   3.503 -0.6400 -0.6097 -0.4682
 1407SOL     OW15679   2.196   2.444   3.998  0.2089 -0.1834  0.4309
 1407SOL    HW115680   2.187   2.502   4.074  0.4321  1.5308 -0.8663
 1407SOL    HW215681   2.232   2.361   4.030 -0.5856 -0.2804  1.0653
 1408SOL     OW15682   1.345   0.610   4.282 -0.0890  0.5147  0.9183
 1408SOL    HW115683   1.313   0.675   4.345  1.7437  1.3252  1.0185
 1408SOL    HW215684   1.261   0.580   4.247 -0.1938  0.3137  1.3452
 1409SOL     OW15685   0.332   3.595   5.613  0.0497 -0.2888  0.2388
 1409SOL    HW115686   0.251   3.546   5.608  0.3277 -0.6887 -0.2948
 1409SOL    HW215687   0.310   3.688   5.622 -1.2418 -0.4498 -1.3998
 1410SOL     OW15688   2.291   3.480   2.284 -0.1738  0.5022 -0.1419
 1410SOL    HW115689   2.257   3.565   2.312  0.9072  0.6849  0.6105
 1410SOL    HW215690   2.325   3.452   2.369  1.8098 -1.7579 -1.6919
 1411SOL     OW15691   3.206   2.716  15.689 -0.2263 -0.3405  0.0869
 1411SOL    HW115692   3.153   2.770  15.748  0.4754 -2.0266  2.2508
 1411SOL    HW215693   3.205   2.778  15.616 -2.6152 -1.9399 -1.2207
 1412SOL     OW15694   2.621   1.288   6.164  0.1028  0.3001 -0.1514
 1412SOL    HW115695   2.672   1.270   6.243 -0.2873 -0.1242  0.0039
 1412SOL    HW215696   2.576   1.367   6.194  0.6935 -0.2402  2.1323
 1413SOL     OW15697   1.586   0.805  13.968 -0.0782  0.1035  0.3414
 1413SOL    HW115698   1.667   0.801  14.018  0.3584  0.6274 -0.3365
 1413SOL    HW215699   1.529   0.836  14.039  2.1294  1.2466  1.5962
 1414SOL     OW15700   2.219   0.931   5.114  0.0547 -0.0731 -0.9144
 1414SOL    HW115701   2.250   0.866   5.052  0.8296  1.5607 -2.2163
 1414SOL    HW215702   2.134   0.952   5.076 -0.1634  0.3964 -0.1800
 1415SOL     OW15703   1.565   2.913   7.447  0.3339  0.1396  0.0127
 1415SOL    HW115704   1.610   2.995   7.425 -1.1409  1.0103  0.2717
 1415SOL    HW215705   1.624   2.852   7.403 -2.4613 -2.2359 -0.3919
 1416SOL     OW15706   2.167   1.474   5.959 -0.0983 -0.4442 -0.3633
 1416SOL    HW115707   2.164   1.495   6.053  0.8039 -0.1556 -0.3977
 1416SOL    HW215708   2.223   1.397   5.947 -0.2803 -0.6851  0.3061
 1417SOL     OW15709   4.664   3.922  11.711 -0.2463 -0.2872 -0.4026
 1417SOL    HW115710   4.651   3.847  11.654  2.0694 -1.5668  0.7535
 1417SOL    HW215711   0.020   3.897  11.757 -0.4012 -0.0120  0.0273
 1418SOL     OW15712   0.869   3.284   5.641  0.3121 -0.3757 -0.0995
 1418SOL    HW115713   0.839   3.375   5.634  1.2630 -0.0872 -0.3617
 1418SOL    HW215714   0.878   3.267   5.547 -1.7949 -1.0684 -0.1656
 1419SOL     OW15715   2.965   1.686   8.085  0.2780 -0.2015  0.2505
 1419SOL    HW115716   2.918   1.718   8.161 -0.0330  0.8773 -0.3893
 1419SOL    HW215717   3.032   1.754   8.080 -0.0584 -0.0257 -2.3095
 1420SOL     OW15718   1.831   0.475   0.502 -0.8182  0.2744  0.4856
 1420SOL    HW115719   1.809   0.385   0.479 -0.8679  0.2911  0.4667
 1420SOL    HW215720   1.845   0.513   0.415 -0.3723  1.1821  0.9612
 1421SOL     OW15721   2.641   3.571  13.252 -0.5492  0.0475  0.1682
 1421SOL    HW115722   2.713   3.632  13.265 -1.2657  0.7811  0.6903
 1421SOL    HW215723   2.675   3.486  13.281  0.2379  0.3934  0.2684
 1422SOL     OW15724   0.899   4.462  16.593  0.8637 -0.0272  0.4309
 1422SOL    HW115725   0.860   4.449  16.507 -0.2356 -1.0811  1.1017
 1422SOL    HW215726   0.853   4.407  16.656  0.1714  0.7880  0.6310
 1423SOL     OW15727   1.544   3.630  13.240 -0.2889  0.0017  0.2881
 1423SOL    HW115728   1.624   3.652  13.288  1.8997 -2.9820 -1.9495
 1423SOL    HW215729   1.491   3.706  13.263  0.1926 -0.0435  1.5793
 1424SOL     OW15730   3.166   0.490   2.692  0.4476 -0.3349 -0.3507
 1424SOL    HW115731   3.261   0.479   2.697  0.6678  1.4973 -0.3020
 1424SOL    HW215732   3.129   0.478   2.779 -2.1921  0.7327 -1.3078
 1425SOL     OW15733   0.941   0.670  17.240  0.2978 -0.0515 -0.5580
 1425SOL    HW115734   0.860   0.619  17.239  0.6675 -0.6438 -0.5870
 1425SOL    HW215735   0.905   0.754  17.214  1.1105  0.0694 -1.2709
 1426SOL     OW15736   3.576   3.643   4.328  0.5773 -0.1655 -1.1146
 1426SOL    HW115737   3.581   3.734   4.297 -0.5337  0.3224  0.1523
 1426SOL    HW215738   3.481   3.632   4.326  0.3785  1.3633  0.0878
 1427SOL     OW15739   4.045   0.456   5.548  0.0092  0.2882  0.1353
 1427SOL    HW115740   3.956   0.428   5.527 -0.3098  1.5498 -0.1936
 1427SOL    HW215741   4.030   0.534   5.602 -0.6065 -0.6409  1.3113
 1428SOL     OW15742   3.343   3.549   8.458 -0.2344  0.5377  0.1348
 1428SOL    HW115743   3.281   3.600   8.511 -1.0883 -0.4515  0.0687
 1428SOL    HW215744   3.345   3.466   8.506 -0.2718  1.1682  1.2300
 1429SOL     OW15745   1.457   4.370   8.785  0.0568  0.0975 -0.2384
 1429SOL    HW115746   1.388   4.315   8.748  0.6319 -0.6370 -0.2201
 1429SOL    HW215747   1.443   4.362   8.880  2.4821 -0.0501  0.1090
 1430SOL     OW15748   2.315   0.299  13.735  0.3352 -0.0747  0.9096
 1430SOL    HW115749   2.356   0.300  13.822  1.3512 -1.1136  0.4454
 1430SOL    HW215750   2.297   0.392  13.721  0.1185 -0.0698  1.2395
 1431SOL     OW15751   2.122   0.628  14.592 -0.6984 -0.1348 -0.1158
 1431SOL    HW115752   2.038   0.610  14.550 -2.1794  4.1190  1.0915
 1431SOL    HW215753   2.153   0.698  14.534  1.5925 -0.4392  0.7398
 1432SOL     OW15754   0.742   0.036   8.806  0.0812  0.0403 -0.1778
 1432SOL    HW115755   0.774   0.087   8.880 -0.5553  0.5560 -0.2518
 1432SOL    HW215756   0.804   4.688   8.817 -0.4985 -0.3932  0.2422
 1433SOL     OW15757   2.137   1.290   3.848  0.1128 -0.2824  0.2039
 1433SOL    HW115758   2.103   1.236   3.919 -2.2784 -0.6144 -1.1574
 1433SOL    HW215759   2.150   1.218   3.787 -0.5240  0.1696 -0.4689
 1434SOL     OW15760   2.931   1.659  16.107  0.0799 -0.1951  0.1924
 1434SOL    HW115761   2.926   1.753  16.124  0.8795 -0.2584  0.7612
 1434SOL    HW215762   3.025   1.646  16.094 -0.4826 -1.7300 -2.4490
 1435SOL     OW15763   4.704   0.355   2.963  0.0719  0.0834 -1.1726
 1435SOL    HW115764   4.679   0.423   2.901 -2.8574 -0.4755 -0.5924
 1435SOL    HW215765   0.054   0.396   3.008  1.6912 -0.5170 -3.2636
 1436SOL     OW15766   4.309   4.193   2.518  0.2335 -0.1297  0.0220
 1436SOL    HW115767   4.377   4.251   2.553 -0.2741  0.1727  0.5114
 1436SOL    HW215768   4.330   4.201   2.425 -0.0585 -0.4225 -0.0693
 1437SOL     OW15769   3.775   1.921   2.684 -0.0830 -0.1369  0.2493
 1437SOL    HW115770   3.828   1.963   2.617 -0.1335 -0.1109  0.2249
 1437SOL    HW215771   3.683   1.935   2.661  0.0346  1.5942  0.8302
 1438SOL     OW15772   0.638   0.114   5.474 -0.1303  0.5243  0.0966
 1438SOL    HW115773   0.730   0.140   5.476  0.4600 -1.6055  0.5619
 1438SOL    HW215774   0.619   0.101   5.381  0.8775  1.0302 -0.1839
 1439SOL     OW15775   1.278   2.057   8.350  0.6025 -0.3726 -0.3377
 1439SOL    HW115776   1.274   1.995   8.278  0.8462 -0.3194 -0.3957
 1439SOL    HW215777   1.247   2.139   8.312 -2.1358 -1.0774  0.3844
 1440SOL     OW15778   3.298   3.241   8.152  0.1882 -0.2052  0.3574
 1440SOL    HW115779   3.275   3.181   8.223  1.9809 -1.2459  0.0379
 1440SOL    HW215780   3.210   3.261   8.120  0.4298  0.0152 -0.1659
 1441SOL     OW15781   3.390   2.705   7.160 -0.2783  0.4169 -0.1739
 1441SOL    HW115782   3.479   2.702   7.194 -0.1164  0.5863 -0.5810
 1441SOL    HW215783   3.333   2.719   7.235 -1.6707 -2.5244 -0.6652
 1442SOL     OW15784   0.154   0.698   9.379  0.0102 -0.3121 -0.0297
 1442SOL    HW115785   0.231   0.755   9.381 -0.3233  0.0903  1.2820
 1442SOL    HW215786   0.100   0.764   9.422  0.2705 -1.2007  1.6597
 1443SOL     OW15787   3.661   3.513   2.857 -0.4900 -0.4790 -0.1218
 1443SOL    HW115788   3.651   3.591   2.802  2.6444 -0.5293 -0.7673
 1443SOL    HW215789   3.746   3.531   2.896 -0.4134 -2.2764  0.5284
 1444SOL     OW15790   0.936   3.772   3.019 -0.3060  0.3722 -0.1890
 1444SOL    HW115791   0.891   3.689   3.031 -0.9695  1.2224  3.3040
 1444SOL    HW215792   0.873   3.811   2.959  1.0176  2.2056 -0.3951
 1445SOL     OW15793   3.860   2.311   3.515  0.3288  0.4446 -0.2380
 1445SOL    HW115794   3.891   2.382   3.571 -2.2802 -0.7526  2.7167
 1445SOL    HW215795   3.882   2.344   3.429  0.8553  0.2279 -0.1872
 1446SOL     OW15796   1.184   3.707   1.868 -0.1187 -0.4358  0.7536
 1446SOL    HW115797   1.223   3.688   1.953 -0.2453 -0.2780  0.8464
 1446SOL    HW215798   1.182   3.802   1.872 -0.2537 -0.4226  0.4028
 1447SOL     OW15799   3.986   2.818  14.890  0.1406 -0.4858  0.3835
 1447SOL    HW115800   3.909   2.807  14.835 -0.5458  0.6472  1.1136
 1447SOL    HW215801   4.047   2.757  14.850  1.5886  2.6741 -2.2111
 1448SOL     OW15802   2.830   2.532   2.831 -0.2894  0.0516  0.4869
 1448SOL    HW115803   2.785   2.507   2.750 -1.3515  1.1529  0.7323
 1448SOL    HW215804   2.803   2.623   2.847  2.6336  1.5681 -3.2514
 1449SOL     OW15805   1.582   3.221   0.597  0.2185 -0.1976 -0.5832
 1449SOL    HW115806   1.640   3.287   0.634  0.4771  0.4423 -2.1435
 1449SOL    HW215807   1.644   3.166   0.550  1.4150  0.6250  0.0499
 1450SOL     OW15808   2.246   1.655   4.555  0.2493  0.1335  0.5500
 1450SOL    HW115809   2.328   1.684   4.515 -2.0588  1.9059 -2.8927
 1450SOL    HW215810   2.244   1.564   4.525 -0.9004  0.6146 -0.8999
 1451SOL     OW15811   3.795   3.519   7.001  0.7682 -0.2601  0.0734
 1451SOL    HW115812   3.776   3.485   7.089 -0.8864 -1.1075 -0.6050
 1451SOL    HW215813   3.849   3.445   6.975  1.3395 -0.3529  1.5235
 1452SOL     OW15814   1.520   3.195  13.226  0.0496 -0.0070  0.3479
 1452SOL    HW115815   1.606   3.180  13.266  0.0814 -0.1410  0.2303
 1452SOL    HW215816   1.476   3.249  13.291 -2.1914  0.1584 -1.3016
 1453SOL     OW15817   1.981   2.926   6.793 -0.5673  0.2389 -0.4822
 1453SOL    HW115818   2.052   2.878   6.752 -1.1362 -0.0166 -1.1594
 1453SOL    HW215819   1.946   2.864   6.857 -1.4722  1.6461  0.4040
 1454SOL     OW15820   1.141   3.923  10.316 -0.0039 -0.2303 -0.3473
 1454SOL    HW115821   1.202   3.855  10.289 -2.6505 -2.5278 -0.5530
 1454SOL    HW215822   1.202   3.968  10.375 -0.7602 -1.3706  1.3147
 1455SOL     OW15823   0.441   1.570   8.956  0.0012  0.6805 -0.3412
 1455SOL    HW115824   0.530   1.579   8.989 -0.3840  0.8515  0.6649
 1455SOL    HW215825   0.430   1.659   8.921  0.3735  0.3914 -1.1835
 1456SOL     OW15826   2.834   3.595   6.886  0.2786 -0.0088  0.8293
 1456SOL    HW115827   2.781   3.555   6.819  1.6837 -0.7985  0.1828
 1456SOL    HW215828   2.787   3.678   6.887 -0.9191 -0.6969  1.1910
 1457SOL     OW15829   4.028   4.050   4.520 -0.1980 -0.1207 -0.0418
 1457SOL    HW115830   4.054   3.979   4.578 -0.9465 -0.2849  0.0884
 1457SOL    HW215831   4.105   4.051   4.464 -0.5217  0.7182 -0.4768
 1458SOL     OW15832   2.621   1.188   2.513  0.7008 -0.2726 -0.4810
 1458SOL    HW115833   2.625   1.278   2.481  0.3002 -0.6394 -1.5631
 1458SOL    HW215834   2.563   1.150   2.447  1.1527 -1.8456  0.0118
 1459SOL     OW15835   0.701   2.732   5.634  0.2638  0.2002  0.2234
 1459SOL    HW115836   0.632   2.793   5.659  0.8053  0.3440  1.3938
 1459SOL    HW215837   0.774   2.753   5.693 -1.5350  0.3884  2.3387
 1460SOL     OW15838   2.880   3.284   0.788  0.2255 -0.0239  0.0307
 1460SOL    HW115839   2.825   3.239   0.852  1.3886 -0.4380  0.7566
 1460SOL    HW215840   2.883   3.367   0.837 -2.0830  1.3481 -2.1945
 1461SOL     OW15841   1.428   2.331  12.194 -0.0046  0.2397  0.3861
 1461SOL    HW115842   1.440   2.251  12.142  0.8608  0.1950  0.6552
 1461SOL    HW215843   1.336   2.347  12.176  0.0632  1.1342  0.8416
 1462SOL     OW15844   4.584   2.224  10.717 -0.5145  0.4127 -0.0927
 1462SOL    HW115845   4.539   2.183  10.792  1.2969 -2.7242 -0.7074
 1462SOL    HW215846   4.606   2.309  10.754 -0.2715  1.0196 -1.6670
 1463SOL     OW15847   2.828   3.891   6.311 -0.1380 -0.6035  0.3162
 1463SOL    HW115848   2.915   3.887   6.271 -0.2346  1.3496 -0.0624
 1463SOL    HW215849   2.843   3.834   6.386 -1.0087  0.9390  1.6420
 1464SOL     OW15850   2.996   4.469   8.619 -0.3329  0.0687 -0.0830
 1464SOL    HW115851   3.074   4.524   8.615 -0.0560 -0.2319  1.1844
 1464SOL    HW215852   2.940   4.503   8.688  1.9026  0.5014  1.5119
 1465SOL     OW15853   2.029   2.207   4.259  0.4152 -0.7022 -0.2058
 1465SOL    HW115854   2.036   2.175   4.169 -1.2478  0.6968 -0.8280
 1465SOL    HW215855   1.944   2.170   4.282 -0.1325  0.6019 -0.1513
 1466SOL     OW15856   2.496   1.013   1.554  0.1229 -0.1343 -0.0014
 1466SOL    HW115857   2.439   1.090   1.548 -0.9449 -0.8576  1.0529
 1466SOL    HW215858   2.439   0.958   1.607  0.0081 -1.1834 -1.2170
 1467SOL     OW15859   3.394   1.358  10.272  0.1652 -0.2409 -0.1415
 1467SOL    HW115860   3.337   1.287  10.241  0.5332  0.4646 -2.4194
 1467SOL    HW215861   3.475   1.342  10.224  0.3863  3.6114 -1.0456
 1468SOL     OW15862   4.046   1.244   4.804 -0.1966 -0.0138 -0.3539
 1468SOL    HW115863   4.130   1.282   4.779  1.3041 -1.9069  1.7699
 1468SOL    HW215864   3.992   1.263   4.727  1.1227  1.6631 -0.8720
 1469SOL     OW15865   0.251   3.176   4.857  0.5775 -0.4203 -0.2113
 1469SOL    HW115866   0.327   3.229   4.834 -0.4411  0.2641 -1.9761
 1469SOL    HW215867   0.197   3.246   4.894  0.2665  0.1754 -1.7817
 1470SOL     OW15868   3.494   2.394  14.910 -0.5512  0.5740 -0.2512
 1470SOL    HW115869   3.544   2.443  14.845 -0.1235  0.1841 -0.2122
 1470SOL    HW215870   3.563   2.391  14.976 -0.4022  2.4749 -0.3109
 1471SOL     OW15871   3.237   4.057   9.145 -0.3786  0.0900  0.1005
 1471SOL    HW115872   3.250   3.962   9.145  2.7358  0.5249  1.5437
 1471SOL    HW215873   3.254   4.072   9.238 -1.0799 -1.7755  0.5301
 1472SOL     OW15874   0.170   1.430   0.285  0.0885 -0.2352  0.4731
 1472SOL    HW115875   0.157   1.337   0.302 -1.3550 -0.3761 -1.4173
 1472SOL    HW215876   0.126   1.474   0.357  0.6198  1.1008 -0.0186
 1473SOL     OW15877   3.666   4.259  11.653 -0.5133  0.2306 -0.4045
 1473SOL    HW115878   3.666   4.172  11.614  0.8371 -0.7435  1.8009
 1473SOL    HW215879   3.660   4.311  11.573 -0.5582 -0.5117 -0.8798
 1474SOL     OW15880   4.361   3.274  10.994  0.8503 -0.3596  0.1923
 1474SOL    HW115881   4.283   3.322  11.020  2.4621  2.4459 -0.1043
 1474SOL    HW215882   4.327   3.204  10.938 -2.2918  0.4445  1.0964
 1475SOL     OW15883   2.797   2.750   7.863 -0.1949 -0.4117  0.5371
 1475SOL    HW115884   2.794   2.727   7.956 -1.0858 -0.5546  0.4682
 1475SOL    HW215885   2.716   2.798   7.845 -1.3350 -1.2401  3.4951
 1476SOL     OW15886   2.836   1.675   5.160 -0.3358  0.0779  0.4287
 1476SOL    HW115887   2.865   1.730   5.234 -0.0581  0.2395  0.2012
 1476SOL    HW215888   2.898   1.704   5.093 -1.7735 -1.2298 -1.4281
 1477SOL     OW15889   1.468   4.618   4.809 -0.0677  0.6651 -0.2006
 1477SOL    HW115890   1.420   4.536   4.808  1.1962 -0.0816  0.3317
 1477SOL    HW215891   1.487   4.616   4.902 -1.2835 -0.8086  0.0156
 1478SOL     OW15892   4.299   2.552   3.488  0.5462  0.3274 -0.3242
 1478SOL    HW115893   4.387   2.543   3.525  0.2320 -1.0326  0.0759
 1478SOL    HW215894   4.250   2.496   3.548 -1.1767 -0.3661 -2.4001
 1479SOL     OW15895   1.850   0.554   1.056 -0.0993  0.6273  0.0238
 1479SOL    HW115896   1.828   0.533   1.146  1.8705 -0.8955  0.1314
 1479SOL    HW215897   1.849   0.468   1.015  0.8276  1.3885 -1.6177
 1480SOL     OW15898   4.471   3.493   0.914 -0.1668 -0.5495 -0.9198
 1480SOL    HW115899   4.393   3.437   0.915  0.7237 -1.7516  1.6275
 1480SOL    HW215900   4.534   3.439   0.963  1.4885  1.2361 -1.0890
 1481SOL     OW15901   2.313   2.502   8.318  0.4124 -0.3527  0.1467
 1481SOL    HW115902   2.235   2.552   8.344  0.0639 -0.4865 -0.6312
 1481SOL    HW215903   2.316   2.443   8.393 -1.2777 -0.8816 -0.1868
 1482SOL     OW15904   1.505   4.603   5.601  0.1178 -0.1576  0.0511
 1482SOL    HW115905   1.452   4.602   5.521  1.0688  0.6085 -0.5973
 1482SOL    HW215906   1.527   4.511   5.587 -1.3867 -0.6139  0.7261
 1483SOL     OW15907   3.073   3.079   3.342  0.6456  0.3587 -0.0542
 1483SOL    HW115908   3.167   3.066   3.327  0.0129 -2.9576 -1.1933
 1483SOL    HW215909   3.048   3.133   3.267 -1.4040 -0.1720  0.2538
 1484SOL     OW15910   2.688   1.174   7.057  0.5226 -0.5611 -0.3060
 1484SOL    HW115911   2.645   1.093   7.030 -0.2807 -0.3569  0.3690
 1484SOL    HW215912   2.613   1.234   7.055  1.9225  1.2220  0.5586
 1485SOL     OW15913   3.433   3.129   8.803  0.8831 -0.0268  0.1951
 1485SOL    HW115914   3.461   3.045   8.764  2.2348  0.7241 -0.4493
 1485SOL    HW215915   3.519   3.164   8.828 -0.2722  0.8562  2.8479
 1486SOL     OW15916   0.421   4.274   0.568  0.5449 -0.2958 -0.4342
 1486SOL    HW115917   0.404   4.218   0.644  0.6784  1.8538  1.1790
 1486SOL    HW215918   0.511   4.250   0.542  0.1876 -2.5570  0.3591
 1487SOL     OW15919   1.546   2.181   6.159 -0.2461  0.9045 -0.1377
 1487SOL    HW115920   1.472   2.235   6.133 -2.5780 -1.3125  1.9595
 1487SOL    HW215921   1.577   2.161   6.070 -2.9511  1.1532 -1.1337
 1488SOL     OW15922   2.839   4.176  11.170 -0.1651  0.3883 -0.1684
 1488SOL    HW115923   2.929   4.196  11.193 -0.3171  1.9740 -0.9621
 1488SOL    HW215924   2.795   4.206  11.250 -0.6210 -1.0242  0.1139
 1489SOL     OW15925   1.290   3.557   3.137  0.2562 -0.0916 -0.7974
 1489SOL    HW115926   1.379   3.571   3.103  0.8290  0.5896  1.0256
 1489SOL    HW215927   1.287   3.629   3.200  1.4459 -0.1592 -0.6515
 1490SOL     OW15928   1.491   0.590  14.174  0.0471 -0.5134 -0.4391
 1490SOL    HW115929   1.496   0.670  14.122 -0.0883  0.2479  0.7112
 1490SOL    HW215930   1.395   0.589  14.178  0.0042  0.8438 -1.3065
 1491SOL     OW15931   3.903   1.079   2.702 -0.6305  0.1826 -0.3757
 1491SOL    HW115932   3.932   0.988   2.712 -1.1611  0.1667  1.0125
 1491SOL    HW215933   3.812   1.078   2.731 -0.3617  0.0157  0.4770
 1492SOL     OW15934   1.133   0.827   2.595  0.2712 -0.1450 -0.1437
 1492SOL    HW115935   1.072   0.827   2.668  0.1437 -1.4076 -0.2476
 1492SOL    HW215936   1.215   0.860   2.632 -1.2268  0.6108  2.4422
 1493SOL     OW15937   0.741   0.816  12.411  0.0238  0.1285 -0.2712
 1493SOL    HW115938   0.792   0.867  12.473 -1.7134  0.5676  0.7852
 1493SOL    HW215939   0.652   0.847  12.427  0.3422  1.2461 -0.6404
 1494SOL     OW15940   2.413   1.150   5.425  0.6045  0.1413 -0.1452
 1494SOL    HW115941   2.386   1.161   5.334 -0.5840 -1.0937  0.0557
 1494SOL    HW215942   2.473   1.223   5.441 -1.6064  2.3310 -1.6575
 1495SOL     OW15943   1.770   2.265   1.612  0.7533  0.3008 -0.0737
 1495SOL    HW115944   1.791   2.240   1.522  0.0261  2.4413 -0.8335
 1495SOL    HW215945   1.743   2.180   1.645  2.3798 -0.4503 -0.6791
 1496SOL     OW15946   2.202   4.338  13.884  0.6821  0.6202 -0.0613
 1496SOL    HW115947   2.137   4.303  13.822  0.0151 -2.9114  2.6215
 1496SOL    HW215948   2.204   4.430  13.857  0.3926 -0.0184 -2.2563
 1497SOL     OW15949   2.148   2.515   5.259 -0.1934  0.1761 -0.1954
 1497SOL    HW115950   2.201   2.439   5.234 -0.5733 -0.0056 -0.4588
 1497SOL    HW215951   2.166   2.524   5.352 -0.6334 -1.7467  0.0748
 1498SOL     OW15952   4.456   3.225   8.845 -0.5796 -0.1737 -0.1399
 1498SOL    HW115953   4.428   3.169   8.918  1.3795  0.6538  1.2411
 1498SOL    HW215954   4.486   3.304   8.889 -2.1602  0.3614 -0.0210
 1499SOL     OW15955   3.242   3.418  10.297 -0.3326 -0.2527  0.3691
 1499SOL    HW115956   3.243   3.328  10.264 -1.8989 -0.3089  0.4358
 1499SOL    HW215957   3.322   3.416  10.350  0.1027  0.7200 -0.2719
 1500SOL     OW15958   2.478   2.035   7.045  0.5565 -0.5372  0.2664
 1500SOL    HW115959   2.562   2.003   7.076  2.6983  2.6219 -2.3450
 1500SOL    HW215960   2.439   2.048   7.132  1.7236 -1.5521  0.9374
 1501SOL     OW15961   0.438   0.420   5.138 -0.6994  0.2720 -1.0600
 1501SOL    HW115962   0.418   0.479   5.065 -1.0837 -0.7802 -1.8036
 1501SOL    HW215963   0.354   0.431   5.183  0.8398 -0.6376  2.0875
 1502SOL     OW15964   3.916   0.119   5.370  0.4067 -0.0007 -0.6292
 1502SOL    HW115965   4.007   0.147   5.383  0.8048 -1.3550 -0.4965
 1502SOL    HW215966   3.856   0.194   5.364  1.5961  1.1165  1.7420
 1503SOL     OW15967   3.374   1.047   6.668  0.5387 -0.4902 -0.2856
 1503SOL    HW115968   3.417   1.126   6.635  0.7253 -1.2326 -1.8288
 1503SOL    HW215969   3.309   1.074   6.733  0.8190  0.6072 -0.4709
 1504SOL     OW15970   4.136   1.070   5.310 -0.2370 -0.3414 -0.3022
 1504SOL    HW115971   4.199   1.123   5.261  0.6008 -1.4014 -0.3722
 1504SOL    HW215972   4.167   0.986   5.343  2.6182  1.9169  2.6992
 1505SOL     OW15973   1.984   4.548   6.305  0.2540 -0.0458 -0.2607
 1505SOL    HW115974   1.914   4.495   6.344  0.9271 -0.4407  0.4035
 1505SOL    HW215975   1.960   4.630   6.349 -0.0205 -0.0540 -0.3979
 1506SOL     OW15976   3.543   1.853   3.737 -0.6497  0.4300  0.3875
 1506SOL    HW115977   3.490   1.889   3.808 -1.7100  2.1632 -1.2829
 1506SOL    HW215978   3.514   1.763   3.719  1.0226  0.0333 -0.3136
 1507SOL     OW15979   0.148   2.656   0.533 -0.7225 -0.2678 -0.2704
 1507SOL    HW115980   0.202   2.632   0.458  0.6379  0.8736  0.3412
 1507SOL    HW215981   0.200   2.612   0.601 -2.3656  0.1113  1.2495
 1508SOL     OW15982   4.178   0.006   3.952 -0.3059  0.3528 -0.3760
 1508SOL    HW115983   4.120   4.686   4.015 -0.3517  0.2022 -0.5231
 1508SOL    HW215984   4.150   4.671   3.883 -1.3305  1.5547 -0.9857
 1509SOL     OW15985   1.574   2.426   5.676 -0.1343  0.3299  0.0518
 1509SOL    HW115986   1.540   2.394   5.592  0.6768  2.1081 -0.9477
 1509SOL    HW215987   1.534   2.513   5.673 -3.7496 -1.2816  0.7190
 1510SOL     OW15988   0.878   1.730   4.643  0.3312  0.1007 -0.5490
 1510SOL    HW115989   0.873   1.636   4.660 -1.9865  0.0506 -1.5047
 1510SOL    HW215990   0.972   1.735   4.657 -0.0532 -1.4155  2.5210
 1511SOL     OW15991   4.301   0.102   6.376 -0.0316 -0.0580  0.0878
 1511SOL    HW115992   4.288   0.023   6.324  1.0376 -0.6882  0.7740
 1511SOL    HW215993   4.392   0.086   6.399  0.2352  1.4599  0.0520
 1512SOL     OW15994   0.074   0.142   9.201 -0.1960  0.6704 -0.0900
 1512SOL    HW115995   0.112   0.061   9.167  0.1089  1.1013 -0.7670
 1512SOL    HW215996   0.080   0.141   9.297 -1.1019 -2.1142 -0.0580
 1513SOL     OW15997   2.720   3.188   0.293  0.4594  0.0122 -0.3950
 1513SOL    HW115998   2.768   3.240   0.229  0.3811  0.9183  0.2844
 1513SOL    HW215999   2.779   3.215   0.363 -1.2761  0.1044  1.0000
 1514SOL     OW16000   0.878   0.883  11.660 -0.0870 -0.4131 -1.0247
 1514SOL    HW116001   0.812   0.942  11.621 -0.8106 -1.0022 -0.6760
 1514SOL    HW216002   0.962   0.926  11.643  1.5744 -3.6389 -0.9267
 1515SOL     OW16003   0.841   1.633   3.301 -0.2671 -0.3162 -0.4230
 1515SOL    HW116004   0.883   1.568   3.246  0.0226 -0.3062 -0.2109
 1515SOL    HW216005   0.794   1.679   3.231 -1.4149  0.4994  0.8736
 1516SOL     OW16006   0.092   0.193   4.553  0.1359  0.1184 -0.0193
 1516SOL    HW116007   0.135   0.276   4.575  1.1030 -0.1121 -1.0238
 1516SOL    HW216008   0.108   0.149   4.637 -1.6739  1.1756  0.8768
 1517SOL     OW16009   4.346   4.620  16.166  0.0510 -0.4549  0.0623
 1517SOL    HW116010   4.369   4.703  16.207 -1.3787 -0.0406  0.0116
 1517SOL    HW216011   4.272   4.589  16.217 -1.4250  2.1806 -0.4902
 1518SOL     OW16012   3.155   2.196   9.128  0.2396  0.3767 -0.2276
 1518SOL    HW116013   3.135   2.106   9.155 -1.5234  0.7040 -0.4579
 1518SOL    HW216014   3.130   2.209   9.036  3.8307 -0.5414 -1.3250
 1519SOL     OW16015   0.944   2.279  15.674 -0.0377  0.4735  0.1258
 1519SOL    HW116016   0.970   2.339  15.604  0.6754  1.2607  1.0610
 1519SOL    HW216017   0.866   2.323  15.707  0.0141 -0.3331  1.3023
 1520SOL     OW16018   1.093   1.702   5.238  0.2668 -0.0471 -0.0408
 1520SOL    HW116019   1.031   1.669   5.303 -0.0358 -2.9077 -1.7804
 1520SOL    HW216020   1.167   1.719   5.297  0.9239  1.4225 -1.2904
 1521SOL     OW16021   1.969   4.080   7.297  0.0893 -0.0141  0.0677
 1521SOL    HW116022   1.931   4.039   7.374 -3.6750 -0.8213 -2.2397
 1521SOL    HW216023   1.946   4.173   7.291 -0.5308 -0.3100 -2.2403
 1522SOL     OW16024   1.991   3.152   9.724 -0.1879 -0.3417 -0.2667
 1522SOL    HW116025   1.928   3.082   9.744  1.3837 -1.8246 -0.4596
 1522SOL    HW216026   1.939   3.195   9.656 -3.6878 -1.4611  1.6703
 1523SOL     OW16027   4.062   1.423   1.005  0.4969 -0.1218  0.0564
 1523SOL    HW116028   4.112   1.398   1.083  1.8704  2.2162 -0.0795
 1523SOL    HW216029   3.972   1.409   1.036  0.4758 -0.2261 -0.0533
 1524SOL     OW16030   0.018   2.088   4.217  0.1372  0.0889  0.0716
 1524SOL    HW116031   4.668   2.041   4.177  0.7713 -0.3932 -0.5414
 1524SOL    HW216032   0.051   2.013   4.267  1.4987  0.7558  0.1762
 1525SOL     OW16033   2.306   3.556  10.230 -0.1774 -0.2700  0.5578
 1525SOL    HW116034   2.398   3.579  10.218 -0.4435 -0.1332 -1.2022
 1525SOL    HW216035   2.315   3.463  10.207  0.3147 -0.9326  3.3251
 1526SOL     OW16036   4.485   3.432   9.030 -0.2673  0.1673  0.1361
 1526SOL    HW116037   4.465   3.361   9.091  1.7025  0.3448  1.0060
 1526SOL    HW216038   4.424   3.502   9.052  1.3050  1.5901 -0.0065
 1527SOL     OW16039   3.094   3.398   5.510 -0.5737 -0.1294 -0.4620
 1527SOL    HW116040   3.149   3.385   5.587  0.5170 -1.1262 -1.4150
 1527SOL    HW216041   3.132   3.480   5.480 -0.2411  0.3608  1.2622
 1528SOL     OW16042   3.524   2.590   4.799 -0.1478  0.0170  0.2776
 1528SOL    HW116043   3.592   2.529   4.826 -1.3625 -0.1946  2.8486
 1528SOL    HW216044   3.555   2.597   4.709 -1.1873 -0.6136 -0.1273
 1529SOL     OW16045   1.960   3.758  16.071 -0.1463 -0.1738  0.0620
 1529SOL    HW116046   1.956   3.799  15.984  0.1225 -0.7535 -0.2279
 1529SOL    HW216047   1.921   3.673  16.048 -1.5723  0.2837  0.8179
 1530SOL     OW16048   1.290   3.865   8.508 -0.0792 -0.3086 -0.0106
 1530SOL    HW116049   1.288   3.835   8.599 -0.7578 -1.0982 -0.2797
 1530SOL    HW216050   1.239   3.797   8.465  0.4914 -1.4235  1.0841
 1531SOL     OW16051   0.617   0.363   3.519 -0.5967  0.0000  0.5093
 1531SOL    HW116052   0.692   0.352   3.577  0.0488  0.4352 -0.2326
 1531SOL    HW216053   0.657   0.350   3.433 -1.6359  0.2405 -0.0138
 1532SOL     OW16054   3.944   3.674   9.400 -0.2276 -0.2230  0.1930
 1532SOL    HW116055   4.014   3.658   9.463 -1.3487  0.1984  1.5544
 1532SOL    HW216056   3.929   3.584   9.370  0.9643 -0.6592  0.9288
 1533SOL     OW16057   1.007   0.040   6.303  0.0576 -0.4307 -0.1357
 1533SOL    HW116058   0.955   0.120   6.300  1.2511  0.2801 -1.4848
 1533SOL    HW216059   0.978   0.007   6.218  2.8655  0.2834 -1.3588
 1534SOL     OW16060   2.284   0.717   7.325 -0.3747 -0.0714 -0.3222
 1534SOL    HW116061   2.239   0.723   7.410 -0.1513 -0.2444 -0.1895
 1534SOL    HW216062   2.359   0.660   7.344  0.5832  1.4823  0.6101
 1535SOL     OW16063   2.861   2.134   6.599 -0.0682 -0.4940  0.2213
 1535SOL    HW116064   2.792   2.128   6.533 -0.6341  3.3727  0.4382
 1535SOL    HW216065   2.926   2.192   6.557  1.4567 -2.2519  0.1495
 1536SOL     OW16066   4.063   1.154  13.037  0.4345  0.7041  0.7379
 1536SOL    HW116067   4.015   1.127  13.116 -0.7664  1.6245  0.3235
 1536SOL    HW216068   4.146   1.114  13.061  1.0921  1.9209  0.4690
 1537SOL     OW16069   4.482   1.079  16.519 -0.5248 -0.6751  0.1594
 1537SOL    HW116070   4.436   1.155  16.482  0.0552 -0.3539  0.0904
 1537SOL    HW216071   4.421   1.043  16.583 -2.3991  0.2589 -1.1051
 1538SOL     OW16072   2.382   4.662   4.313  0.3874 -0.2320  0.1329
 1538SOL    HW116073   2.319   4.676   4.384  2.2682 -0.7732  1.9301
 1538SOL    HW216074   2.390   0.032   4.292 -1.3351  0.4062  2.2695
 1539SOL     OW16075   3.133   2.508   6.693  0.1135  0.0707  0.8756
 1539SOL    HW116076   3.194   2.548   6.755  0.5651  1.0536 -0.2059
 1539SOL    HW216077   3.124   2.422   6.733  1.4148 -0.2119  0.5460
 1540SOL     OW16078   0.226   2.317   9.584  0.1487  0.0627 -0.6397
 1540SOL    HW116079   0.217   2.223   9.599  0.0541  0.2221  0.2975
 1540SOL    HW216080   0.142   2.353   9.610  0.5008 -1.0819  2.0237
 1541SOL     OW16081   0.239   2.618   4.154  0.1238 -0.1325 -0.0249
 1541SOL    HW116082   0.169   2.613   4.219  0.4161  2.6069  0.5210
 1541SOL    HW216083   0.208   2.550   4.095  0.9498 -1.2853  0.8750
 1542SOL     OW16084   3.416   2.948   6.946  0.3821  0.0298  0.2728
 1542SOL    HW116085   3.390   2.869   6.993  0.5424 -2.1792 -3.3601
 1542SOL    HW216086   3.421   3.011   7.018 -0.1786  1.9692 -1.3823
 1543SOL     OW16087   2.201   0.941   0.233 -0.0045 -0.1768  0.2531
 1543SOL    HW116088   2.144   1.006   0.275  1.7487  0.1895  2.0326
 1543SOL    HW216089   2.263   0.988   0.176  1.2948 -0.9022  1.0886
 1544SOL     OW16090   1.387   4.278   8.442  0.6278  0.9738 -0.3458
 1544SOL    HW116091   1.304   4.305   8.481  0.7693 -0.8727  1.1715
 1544SOL    HW216092   1.444   4.352   8.465  1.1026 -0.2659  2.4635
 1545SOL     OW16093   2.787   2.640   3.534  0.0088 -0.1973  1.1546
 1545SOL    HW116094   2.786   2.544   3.532  0.8885 -0.1966  0.4078
 1545SOL    HW216095   2.754   2.665   3.619 -2.1742 -3.0963  1.1661
 1546SOL     OW16096   1.766   1.756  15.352 -0.4901 -0.7906  0.3803
 1546SOL    HW116097   1.828   1.800  15.294 -0.7786  1.8255  2.0432
 1546SOL    HW216098   1.733   1.678  15.307 -3.1402  0.3131  0.4130
 1547SOL     OW16099   3.478   0.790   9.693  0.5861 -0.0063 -0.3169
 1547SOL    HW116100   3.494   0.696   9.700  0.8405  0.0875  0.3622
 1547SOL    HW216101   3.565   0.815   9.663  0.6079  0.0910 -0.1707
 1548SOL     OW16102   1.103   0.488   7.376 -0.2824 -0.2377  0.0449
 1548SOL    HW116103   1.090   0.443   7.292  2.0103 -1.3611  0.2828
 1548SOL    HW216104   1.199   0.484   7.378 -0.3390 -1.6975 -0.1540
 1549SOL     OW16105   2.899   0.709   6.114  0.0726 -0.0067  0.1147
 1549SOL    HW116106   2.991   0.714   6.139  0.0634 -0.8717  0.3407
 1549SOL    HW216107   2.904   0.637   6.051 -0.7728 -1.5288  1.7804
 1550SOL     OW16108   0.853   1.453   4.676 -0.4684 -0.2217  0.2858
 1550SOL    HW116109   0.829   1.466   4.768  2.1422 -0.1226  0.9733
 1550SOL    HW216110   0.918   1.383   4.679 -0.5441 -0.2783  0.6588
 1551SOL     OW16111   0.563   1.251  13.690  0.6185 -0.3504  0.2154
 1551SOL    HW116112   0.492   1.314  13.681  2.0191  1.6247  2.8728
 1551SOL    HW216113   0.642   1.291  13.654 -1.1732  1.8421 -1.2438
 1552SOL     OW16114   1.895   3.612   5.254  0.7439 -0.1122  0.5376
 1552SOL    HW116115   1.963   3.546   5.271  0.3190 -0.7268 -0.1521
 1552SOL    HW216116   1.918   3.639   5.166  0.3778 -1.2483  0.0946
 1553SOL     OW16117   3.410   4.088   7.379 -0.6581 -0.1999 -1.2264
 1553SOL    HW116118   3.388   4.075   7.472 -1.4595 -1.4932 -1.5908
 1553SOL    HW216119   3.374   4.009   7.338 -0.7605 -0.9211  0.2311
 1554SOL     OW16120   1.369   4.698   4.069 -0.1455  0.5613  0.3135
 1554SOL    HW116121   1.290   4.677   4.020  1.7514 -2.1491 -1.5393
 1554SOL    HW216122   1.396   0.051   4.019 -0.1973 -0.5646 -1.4488
 1555SOL     OW16123   2.199   1.047   6.113  0.1146 -0.4154  0.9086
 1555SOL    HW116124   2.273   1.098   6.080 -0.4675 -0.3331 -0.2783
 1555SOL    HW216125   2.233   0.986   6.178 -0.0613  0.7677  2.1060
 1556SOL     OW16126   3.246   4.146  15.768 -0.3246 -0.7585  0.2577
 1556SOL    HW116127   3.280   4.162  15.681 -2.1979 -2.0689 -0.7250
 1556SOL    HW216128   3.323   4.105  15.808 -1.2654 -0.7401  2.1293
 1557SOL     OW16129   4.198   0.540   0.933  0.6569 -0.1866 -0.5120
 1557SOL    HW116130   4.244   0.525   1.016  0.6066  1.1700 -0.2406
 1557SOL    HW216131   4.203   0.636   0.935  1.3104 -0.2460  0.7940
 1558SOL     OW16132   0.080   1.158   9.389 -0.1843  0.1630 -0.0853
 1558SOL    HW116133   0.123   1.185   9.470  2.1171 -0.6053 -1.0459
 1558SOL    HW216134   0.102   1.232   9.333  0.8351 -1.6911 -2.1662
 1559SOL     OW16135   1.631   1.771   5.690  0.0112 -0.3659 -0.1082
 1559SOL    HW116136   1.627   1.687   5.646  0.4636  1.3132 -3.3966
 1559SOL    HW216137   1.720   1.767   5.724  0.4507  0.6145 -1.1392
 1560SOL     OW16138   2.715   2.296   7.898 -0.0415 -0.0111  0.1788
 1560SOL    HW116139   2.761   2.371   7.862 -1.1773  1.1651  1.1851
 1560SOL    HW216140   2.628   2.335   7.909 -1.0012 -1.6803 -1.4267
 1561SOL     OW16141   1.758   3.736   4.183 -0.2565 -0.1918  0.4254
 1561SOL    HW116142   1.715   3.654   4.207  0.0048 -0.2947  0.5465
 1561SOL    HW216143   1.769   3.733   4.088 -4.6746 -1.9656 -0.0489
 1562SOL     OW16144   4.390   0.535  10.283 -0.4000  0.1638  1.0512
 1562SOL    HW116145   4.305   0.522  10.325 -0.6769  2.1658  1.1235
 1562SOL    HW216146   4.389   0.630  10.274  0.4205  0.0123 -0.5340
 1563SOL     OW16147   3.697   4.138   2.144 -0.5612  0.6074  0.2630
 1563SOL    HW116148   3.637   4.160   2.074  0.8733 -0.3330 -1.2752
 1563SOL    HW216149   3.658   4.069   2.198 -0.6541  1.5586  1.4060
 1564SOL     OW16150   3.444   0.128   6.957 -0.2214 -0.0651 -0.3546
 1564SOL    HW116151   3.499   0.050   6.961  0.2779  0.2433 -1.1339
 1564SOL    HW216152   3.449   0.149   7.050 -0.3877  2.8925 -1.0145
 1565SOL     OW16153   2.822   4.021  16.754  0.2836  0.0214 -0.0548
 1565SOL    HW116154   2.771   3.952  16.795  1.1221 -0.8439 -0.4734
 1565SOL    HW216155   2.756   4.076  16.712 -0.0633 -1.0051 -0.8262
 1566SOL     OW16156   4.579   0.811  10.035  0.1302 -0.1388 -0.6033
 1566SOL    HW116157   4.613   0.729   9.999  1.1860  0.4380 -0.9167
 1566SOL    HW216158   4.660   0.861  10.048  0.7882 -1.4900  0.4393
 1567SOL     OW16159   0.307   1.252   3.451  0.1204  0.2232  0.5171
 1567SOL    HW116160   0.397   1.233   3.423 -0.2664 -0.7354 -0.0619
 1567SOL    HW216161   0.313   1.217   3.540 -0.4025  0.9335  0.8281
 1568SOL     OW16162   2.772   2.156   8.999 -0.0639 -0.1492 -0.4110
 1568SOL    HW116163   2.706   2.202   8.947  0.9263  1.2393 -0.4662
 1568SOL    HW216164   2.792   2.224   9.063 -1.7990  0.4364 -0.4925
 1569SOL     OW16165   4.134   2.175   4.493 -0.2824  0.0371  0.7131
 1569SOL    HW116166   4.131   2.173   4.397  0.6343 -1.4658  0.7141
 1569SOL    HW216167   4.057   2.121   4.511 -0.4292 -0.0841 -0.2717
 1570SOL     OW16168   0.805   2.206  15.331 -0.6706  0.3071 -0.1452
 1570SOL    HW116169   0.875   2.194  15.268 -0.2116  0.0800  0.4053
 1570SOL    HW216170   0.838   2.282  15.379  0.7752  0.6132 -1.6530
 1571SOL     OW16171   3.147   3.685  12.768  0.5366  0.1359 -0.0325
 1571SOL    HW116172   3.137   3.677  12.673  1.1172 -2.9150  0.1589
 1571SOL    HW216173   3.055   3.665  12.787  0.5119  1.4565  1.2255
 1572SOL     OW16174   1.155   0.350   2.045 -0.2498  0.0085 -0.0299
 1572SOL    HW116175   1.087   0.416   2.053  3.6281  3.7778  1.6152
 1572SOL    HW216176   1.107   0.268   2.060  1.0122 -0.2657  2.6523
 1573SOL     OW16177   1.823   0.075  14.976 -0.3857 -0.2128 -0.7292
 1573SOL    HW116178   1.845   4.712  15.009  0.8925  0.1173 -0.6835
 1573SOL    HW216179   1.755   0.106  15.036  1.5398  0.3878  1.1549
 1574SOL     OW16180   4.401   2.037  10.515 -0.1447  0.3463  0.3149
 1574SOL    HW116181   4.310   2.061  10.534 -0.4032  0.1873 -0.7415
 1574SOL    HW216182   4.447   2.065  10.594  0.1796  1.9115 -0.4489
 1575SOL     OW16183   2.526   3.558   5.640  0.5120 -0.1259 -0.2454
 1575SOL    HW116184   2.431   3.564   5.626  0.6601  0.3368 -1.0983
 1575SOL    HW216185   2.525   3.476   5.689 -2.9348 -1.1174 -1.9245
 1576SOL     OW16186   1.759   2.503  15.898 -0.8297  0.3467  0.4357
 1576SOL    HW116187   1.693   2.554  15.851 -1.7469 -2.7083 -1.5558
 1576SOL    HW216188   1.707   2.486  15.977 -3.0159  2.5334 -0.5402
 1577SOL     OW16189   2.228   0.303   2.524  0.2811 -0.5602  0.0052
 1577SOL    HW116190   2.196   0.298   2.434  0.2892 -2.4728  0.1185
 1577SOL    HW216191   2.296   0.236   2.534 -0.2596 -1.2541 -1.0116
 1578SOL     OW16192   0.904   2.731   3.525  0.2361  0.5172  0.6847
 1578SOL    HW116193   0.812   2.757   3.519 -0.2454 -1.2816  0.1315
 1578SOL    HW216194   0.909   2.711   3.619  2.1494 -1.7312  0.1031
 1579SOL     OW16195   1.854   0.008   4.059 -0.5747 -0.3161  0.9046
 1579SOL    HW116196   1.791   0.049   3.999 -1.4176 -0.5371  1.6519
 1579SOL    HW216197   1.924   0.073   4.066 -0.4528 -0.4757  1.1556
 1580SOL     OW16198   2.809   3.023   5.891 -0.4526  0.4192  0.0941
 1580SOL    HW116199   2.747   2.952   5.907  0.9937 -0.7331  0.5724
 1580SOL    HW216200   2.782   3.097   5.945 -0.0720  0.7785 -0.2093
 1581SOL     OW16201   2.910   0.653   3.756 -0.1369 -0.0884 -0.1611
 1581SOL    HW116202   2.831   0.660   3.702 -0.2840 -1.4895 -0.1126
 1581SOL    HW216203   2.870   0.665   3.842  2.0806  2.8506  0.4711
 1582SOL     OW16204   0.126   4.192   4.582 -0.1313  0.6950  0.3161
 1582SOL    HW116205   0.166   4.242   4.653 -1.6423  1.5725  0.5407
 1582SOL    HW216206   0.073   4.258   4.537 -0.9599  0.1483  0.4949
 1583SOL     OW16207   0.336   1.081   8.806  0.1415 -0.2350  0.4329
 1583SOL    HW116208   0.363   1.173   8.807 -0.2807 -0.1043 -0.9296
 1583SOL    HW216209   0.249   1.084   8.846 -0.0859  1.7081 -0.2033
 1584SOL     OW16210   2.519   1.371   7.642 -0.6474  0.4681 -0.8086
 1584SOL    HW116211   2.436   1.354   7.597  0.8785 -3.7125 -2.0329
 1584SOL    HW216212   2.544   1.291   7.688  2.7765  1.8815 -0.2099
 1585SOL     OW16213   3.677   1.292   2.487 -0.5262  0.5710  0.1703
 1585SOL    HW116214   3.582   1.280   2.481  0.2138 -4.0201 -2.2685
 1585SOL    HW216215   3.698   1.269   2.397 -0.2239  0.8759  0.1640
 1586SOL     OW16216   0.637   1.965   2.455 -0.6335 -0.5066  0.2857
 1586SOL    HW116217   0.544   1.970   2.434 -0.1351  1.6456 -1.5384
 1586SOL    HW216218   0.647   1.876   2.488 -1.6367 -0.0914  1.6951
 1587SOL     OW16219   3.320   4.139   2.534  0.1278 -0.2217  0.4432
 1587SOL    HW116220   3.305   4.149   2.629  1.2462  3.4185  0.2381
 1587SOL    HW216221   3.414   4.152   2.539  0.4982 -2.4900 -0.6398
 1588SOL     OW16222   4.416   4.405   5.843 -0.6421  0.0993  0.3584
 1588SOL    HW116223   4.505   4.439   5.852 -0.5696 -0.1460  0.5542
 1588SOL    HW216224   4.363   4.474   5.884  2.7154  1.7539  1.9527
 1589SOL     OW16225   2.837   1.657  16.738  0.3020  0.6049  0.1205
 1589SOL    HW116226   2.866   1.701  16.818  1.3653  0.8499 -0.4065
 1589SOL    HW216227   2.915   1.645  16.684 -0.0461  0.7433 -0.4144
 1590SOL     OW16228   3.348   0.898   8.109  0.2593  0.2559  0.3058
 1590SOL    HW116229   3.415   0.959   8.076 -0.1814 -0.0173 -1.0908
 1590SOL    HW216230   3.388   0.833   8.167  2.9643  1.1279 -0.5730
 1591SOL     OW16231   4.199   0.808   5.372 -0.5811 -0.1563  0.1193
 1591SOL    HW116232   4.286   0.787   5.405  0.0947  1.7158 -0.5106
 1591SOL    HW216233   4.177   0.725   5.329 -0.8260  0.4674 -0.9580
 1592SOL     OW16234   4.529   4.163   5.136 -0.2524  0.1286  0.3383
 1592SOL    HW116235   4.477   4.083   5.150  0.9724 -1.0261 -1.6536
 1592SOL    HW216236   4.600   4.137   5.195  0.0215 -2.6087 -1.1790
 1593SOL     OW16237   3.736   2.826   5.057 -0.4229  0.0711  0.4205
 1593SOL    HW116238   3.775   2.758   5.002  0.1926  0.6626  0.1143
 1593SOL    HW216239   3.644   2.804   5.047 -0.5436 -0.1243  2.0345
 1594SOL     OW16240   0.239   1.548   9.134  0.4271  0.3892  0.1115
 1594SOL    HW116241   0.293   1.575   9.209 -0.5672  1.9631  0.2585
 1594SOL    HW216242   0.314   1.538   9.076 -0.7733  0.5719 -1.4572
 1595SOL     OW16243   3.555   4.200   6.354 -1.0152  0.0455 -0.2227
 1595SOL    HW116244   3.596   4.274   6.400 -1.9177 -0.4604  1.3741
 1595SOL    HW216245   3.467   4.230   6.329 -1.0030  1.0278  0.9086
 1596SOL     OW16246   1.526   3.486   2.976  0.3372 -0.5757  0.2964
 1596SOL    HW116247   1.619   3.506   2.969  0.2390 -0.1431  0.2826
 1596SOL    HW216248   1.491   3.542   2.908 -0.2626 -0.6136  0.5724
 1597SOL     OW16249   1.314   1.724  16.013 -0.5032 -0.0476  0.4294
 1597SOL    HW116250   1.250   1.660  16.045 -1.9227  1.2190  0.1290
 1597SOL    HW216251   1.344   1.679  15.934  1.5339  2.0018  0.0217
 1598SOL     OW16252   4.404   0.159   3.918 -0.4663  0.2624 -0.1326
 1598SOL    HW116253   4.414   0.179   4.011 -2.3121  0.7956 -0.0505
 1598SOL    HW216254   4.340   0.091   3.938  0.4636 -0.6346 -0.2150
 1599SOL     OW16255   4.615   1.454  14.793 -0.1398 -0.7921 -0.3593
 1599SOL    HW116256   4.594   1.525  14.852  0.0205 -1.7507  0.8527
 1599SOL    HW216257   4.638   1.501  14.713  2.6586  1.2930  1.7043
 1600SOL     OW16258   2.863   1.409   8.024  0.1987  0.6513 -0.1512
 1600SOL    HW116259   2.876   1.502   8.045  0.9136  0.2462  1.1910
 1600SOL    HW216260   2.773   1.405   7.992  0.1492 -2.1951  0.3831
 1601SOL     OW16261   3.150   3.885  17.589  0.3145  0.3994 -0.2451
 1601SOL    HW116262   3.123   3.929  17.670  0.4968  1.4752 -0.7691
 1601SOL    HW216263   3.168   3.962  17.535 -0.8970  2.1158  1.7933
 1602SOL     OW16264   1.459   3.166   2.003 -0.0578 -0.0318 -0.0956
 1602SOL    HW116265   1.533   3.189   1.948  0.6108 -2.0944 -0.0207
 1602SOL    HW216266   1.388   3.150   1.941  0.2516 -0.1857 -0.4080
 1603SOL     OW16267   4.074   0.195   1.579  0.1649 -0.0028  0.1664
 1603SOL    HW116268   4.150   0.187   1.522  1.6986  1.0026  2.0803
 1603SOL    HW216269   4.018   0.249   1.522 -1.6705 -2.5946 -0.4858
 1604SOL     OW16270   4.162   2.761  17.388  0.6754  0.4365 -0.0741
 1604SOL    HW116271   4.159   2.675  17.432  0.7851 -0.5260 -1.9389
 1604SOL    HW216272   4.222   2.808  17.445  0.8020 -2.5086  2.2230
 1605SOL     OW16273   1.248   3.539  14.498  0.6567 -0.2107  0.4977
 1605SOL    HW116274   1.310   3.543  14.425  2.0270  3.1293  1.8315
 1605SOL    HW216275   1.208   3.453  14.485 -0.4911  0.4355 -0.2906
 1606SOL     OW16276   0.091   2.011  10.386 -0.2195 -0.2022  0.1073
 1606SOL    HW116277   0.163   2.066  10.419 -2.3201  2.1738  0.7603
 1606SOL    HW216278   0.061   2.050  10.304 -0.6094  2.0518  1.3231
 1607SOL     OW16279   3.914   0.889   4.489  0.1386 -0.0976  0.0181
 1607SOL    HW116280   3.963   0.929   4.561  0.4233 -0.7376  0.1847
 1607SOL    HW216281   3.984   0.886   4.424  0.4290 -1.9201  0.4056
 1608SOL     OW16282   4.141   1.864  11.706  0.0799 -0.2653  0.2045
 1608SOL    HW116283   4.078   1.793  11.708  0.4760 -0.6595 -1.1778
 1608SOL    HW216284   4.203   1.824  11.766 -0.5277 -0.7632  0.4980
 1609SOL     OW16285   0.514   1.800   4.669  0.0674 -0.0695  0.3527
 1609SOL    HW116286   0.465   1.832   4.593  0.8136 -0.4185 -0.2690
 1609SOL    HW216287   0.565   1.880   4.683 -0.3609 -0.3472  3.5838
 1610SOL     OW16288   3.975   0.550   8.150  0.1333  0.2799  0.3339
 1610SOL    HW116289   4.051   0.591   8.109  1.5677 -1.5157  1.2158
 1610SOL    HW216290   3.921   0.539   8.072  0.8656  0.7510 -0.2478
 1611SOL     OW16291   0.628   3.835  17.684 -0.0544  0.2147  0.1124
 1611SOL    HW116292   0.605   3.747  17.655  3.1469 -0.1831 -1.2751
 1611SOL    HW216293   0.608   3.838   0.081 -0.3788 -1.4012  0.0971
 1612SOL     OW16294   4.604   2.057   7.590  0.3151 -0.2103  0.1037
 1612SOL    HW116295   4.574   2.028   7.677 -0.2818  0.4300  0.1141
 1612SOL    HW216296   4.538   2.126   7.583  0.4670 -0.1151 -0.3453
 1613SOL     OW16297   3.019   0.791   6.557  0.0016  0.8258  0.3918
 1613SOL    HW116298   3.003   0.874   6.601 -1.8895  0.1427  0.9835
 1613SOL    HW216299   2.932   0.787   6.518  0.9048 -0.0691 -1.5612
 1614SOL     OW16300   2.898   2.207  16.249 -0.0599  0.1414 -0.0942
 1614SOL    HW116301   2.882   2.249  16.333  0.6035  1.0551 -0.4222
 1614SOL    HW216302   2.867   2.280  16.195 -0.2356 -0.7201 -1.1762
 1615SOL     OW16303   1.308   4.216   8.174 -0.2981 -0.1774 -0.3748
 1615SOL    HW116304   1.338   4.243   8.261  0.3631 -0.9311 -0.3695
 1615SOL    HW216305   1.243   4.147   8.188  0.8712 -1.2129 -0.0794
 1616SOL     OW16306   0.542   3.942   3.140  0.7448 -0.1729  0.0498
 1616SOL    HW116307   0.473   3.933   3.074  1.5114 -0.3554 -0.7196
 1616SOL    HW216308   0.570   4.034   3.140  0.8183 -0.1863  1.5688
 1617SOL     OW16309   3.652   0.493   4.801 -0.8469 -0.7447  0.0328
 1617SOL    HW116310   3.699   0.572   4.829 -2.9371  1.1367 -1.7673
 1617SOL    HW216311   3.717   0.453   4.743 -1.7331 -1.5885 -0.3831
 1618SOL     OW16312   1.359   1.365   5.850  0.1767  0.2031 -0.4044
 1618SOL    HW116313   1.366   1.307   5.926  1.3549 -0.8584 -1.3131
 1618SOL    HW216314   1.340   1.295   5.789  1.3698 -0.8966  0.4757
 1619SOL     OW16315   3.040   2.851   6.219  0.5872 -0.3874 -0.0941
 1619SOL    HW116316   3.114   2.790   6.219  1.2332  0.3813 -0.6937
 1619SOL    HW216317   3.066   2.927   6.166  1.0501  0.0372  0.7350
 1620SOL     OW16318   1.553   2.094   4.657 -0.3007  0.3149  0.9679
 1620SOL    HW116319   1.497   2.017   4.667  1.9355 -1.2016  1.7495
 1620SOL    HW216320   1.582   2.094   4.748  0.3713 -1.8441  0.7301
 1621SOL     OW16321   0.384   0.705   6.444  0.3803 -0.2990  0.0092
 1621SOL    HW116322   0.325   0.758   6.498  1.4740  0.9822 -0.0444
 1621SOL    HW216323   0.408   0.635   6.504  0.7222 -0.3978 -0.2417
 1622SOL     OW16324   2.716   4.485   2.564  0.1530  0.0953  0.0403
 1622SOL    HW116325   2.634   4.438   2.550  0.2034  0.6335 -2.0950
 1622SOL    HW216326   2.705   4.557   2.502 -0.7214  0.9502  1.1973
 1623SOL     OW16327   4.394   4.256   3.672 -0.5589  0.2316 -0.1189
 1623SOL    HW116328   4.304   4.286   3.660 -0.3990  0.3644 -0.9677
 1623SOL    HW216329   4.419   4.244   3.580  0.0251 -1.3100  0.2292
 1624SOL     OW16330   2.098   1.766   3.966 -0.3028  0.4056  0.1967
 1624SOL    HW116331   2.129   1.796   3.881 -1.2077  1.0424  0.0923
 1624SOL    HW216332   2.170   1.709   3.992  0.0126  1.0253  0.7100
 1625SOL     OW16333   2.371   3.082   1.280  0.2951 -0.0721 -0.0970
 1625SOL    HW116334   2.350   3.114   1.192 -0.6088  1.8930  0.8398
 1625SOL    HW216335   2.434   3.152   1.295 -0.0195  0.1562  0.1383
 1626SOL     OW16336   3.710   2.682   3.064 -0.4418  0.1551  0.1360
 1626SOL    HW116337   3.676   2.595   3.044  1.8286 -0.8142  0.4515
 1626SOL    HW216338   3.662   2.703   3.144  0.6676 -0.5148  0.9810
 1627SOL     OW16339   1.316   3.343   5.741  0.1197 -0.7502 -0.0654
 1627SOL    HW116340   1.259   3.301   5.805  0.3158 -2.0565 -0.7485
 1627SOL    HW216341   1.257   3.414   5.716  1.1543 -0.4541 -1.6238
 1628SOL     OW16342   2.862   2.145  17.585  0.2926  0.4191 -0.3511
 1628SOL    HW116343   2.889   2.227  17.626  1.0257  0.1487 -0.3013
 1628SOL    HW216344   2.775   2.172  17.555 -0.3188  1.8232  2.6775
 1629SOL     OW16345   0.580   2.090   4.686  0.0680  0.2327 -0.0191
 1629SOL    HW116346   0.604   2.183   4.687 -0.2064  0.3109 -2.3075
 1629SOL    HW216347   0.508   2.104   4.625  0.8898 -1.2211 -1.3115
 1630SOL     OW16348   3.040   3.684   9.625  0.5330 -0.1062 -0.1196
 1630SOL    HW116349   3.032   3.703   9.532 -0.7138  1.3818  0.2778
 1630SOL    HW216350   2.953   3.715   9.650 -0.4511 -2.1219 -1.0441
 1631SOL     OW16351   1.125   3.935  12.155 -0.5156  0.0240  0.0722
 1631SOL    HW116352   1.175   3.924  12.073  1.8347  0.5280  1.4206
 1631SOL    HW216353   1.197   3.983  12.197 -1.7803  1.3769  0.7182
 1632SOL     OW16354   2.074   3.947  10.438 -0.2302  0.3470  0.4782
 1632SOL    HW116355   2.160   3.957  10.477 -0.2323 -0.6398  0.7515
 1632SOL    HW216356   2.093   3.889  10.364 -0.7757  0.2177  0.4400
 1633SOL     OW16357   2.194   3.064   7.244  0.2847 -0.1965  1.1521
 1633SOL    HW116358   2.254   3.013   7.298 -0.9482 -1.6128  1.2107
 1633SOL    HW216359   2.213   3.151   7.277  1.9686 -0.5272  1.0372
 1634SOL     OW16360   0.027   2.341   7.474 -0.4415  0.2486  0.0173
 1634SOL    HW116361   0.094   2.384   7.528  1.7060 -1.1790 -1.5150
 1634SOL    HW216362   4.680   2.341   7.539  0.9401 -0.4941  1.5293
 1635SOL     OW16363   1.058   4.104  15.440  0.3537 -0.2664 -0.7804
 1635SOL    HW116364   0.992   4.041  15.411 -2.4910  1.2259  2.3794
 1635SOL    HW216365   1.054   4.175  15.376  1.0697  0.4165 -0.0681
 1636SOL     OW16366   2.132   3.867   8.014 -0.4546  0.5620 -0.5682
 1636SOL    HW116367   2.092   3.929   8.074 -0.2337 -0.3641  0.5371
 1636SOL    HW216368   2.141   3.785   8.063  1.6247  1.2887  0.2558
 1637SOL     OW16369   2.862   3.504   1.748 -0.1351 -0.1801 -0.3213
 1637SOL    HW116370   2.824   3.558   1.679 -1.2935 -2.6016 -1.5957
 1637SOL    HW216371   2.834   3.414   1.729  0.7633 -0.0590 -2.2062
 1638SOL     OW16372   2.521   1.814   3.022 -0.4108  0.0793 -0.3762
 1638SOL    HW116373   2.476   1.898   3.011  0.0105  0.1538 -1.5599
 1638SOL    HW216374   2.584   1.845   3.087 -0.2623 -1.1481  0.0652
 1639SOL     OW16375   0.901   1.628  15.727  0.4030  0.4168  0.2942
 1639SOL    HW116376   0.932   1.615  15.638 -1.5544 -2.0672 -0.0371
 1639SOL    HW216377   0.926   1.550  15.776 -0.5130  0.0181  0.1344
 1640SOL     OW16378   0.285   3.864   2.616 -0.1868  0.4511 -0.2862
 1640SOL    HW116379   0.304   3.956   2.632  0.4095 -0.1733  2.6561
 1640SOL    HW216380   0.208   3.851   2.562  0.3030  0.7707 -1.0508
 1641SOL     OW16381   1.755   2.031   3.769  0.0236 -0.0988 -0.0237
 1641SOL    HW116382   1.673   2.021   3.721 -1.8397  3.2765  2.3857
 1641SOL    HW216383   1.774   2.124   3.781 -0.9684 -0.0262  0.9966
 1642SOL     OW16384   1.878   0.576   4.016 -0.2109 -0.0001  0.7810
 1642SOL    HW116385   1.904   0.577   3.924  1.3629 -0.7177  1.2097
 1642SOL    HW216386   1.884   0.671   4.031 -2.5904  0.2004  0.4379
 1643SOL     OW16387   3.409   1.589  12.234 -0.5828  0.7253  0.9466
 1643SOL    HW116388   3.470   1.526  12.273 -0.5931  0.4994  0.6025
 1643SOL    HW216389   3.333   1.589  12.291 -2.0059 -0.9331 -0.9660
 1644SOL     OW16390   2.806   2.936   8.742 -0.4736  0.0108 -0.1875
 1644SOL    HW116391   2.751   2.861   8.762 -0.6928  0.5593  1.3500
 1644SOL    HW216392   2.850   2.946   8.827 -1.6511 -1.1611  0.5492
 1645SOL     OW16393   0.170   3.321   2.464 -0.4781  0.1085 -0.1736
 1645SOL    HW116394   0.092   3.281   2.424 -1.8482  0.9414  1.6728
 1645SOL    HW216395   0.203   3.371   2.389  1.0196 -1.3358 -0.4771
 1646SOL     OW16396   0.637   2.036   4.040 -0.2731 -0.2427  0.0243
 1646SOL    HW116397   0.721   2.078   4.019  0.4873 -2.0576 -0.5029
 1646SOL    HW216398   0.668   1.948   4.060  0.0593 -0.0879  0.1966
 1647SOL     OW16399   1.748   1.258   3.745  0.4169 -0.0833 -0.6915
 1647SOL    HW116400   1.836   1.246   3.710  0.4892  2.4320 -1.3834
 1647SOL    HW216401   1.699   1.287   3.668  1.0940  2.5916 -0.1161
 1648SOL     OW16402   3.254   2.474   8.606  0.3428  0.8025  0.2808
 1648SOL    HW116403   3.170   2.517   8.621  1.2338  2.7998 -0.4743
 1648SOL    HW216404   3.294   2.452   8.690  1.6059 -2.4293 -1.1779
 1649SOL     OW16405   1.338   4.388  13.422 -0.3311 -0.8633 -0.1711
 1649SOL    HW116406   1.256   4.405  13.469 -0.4215  1.5882 -1.2091
 1649SOL    HW216407   1.396   4.427  13.486 -0.3194 -0.0459 -0.6764
 1650SOL     OW16408   1.032   4.065   5.126  0.2381 -0.0921 -0.0966
 1650SOL    HW116409   0.943   4.052   5.093  0.0461 -1.4731  0.9756
 1650SOL    HW216410   1.052   3.978   5.163  0.9733 -0.3782 -1.1511
 1651SOL     OW16411   1.645   0.495   6.939 -0.3250  0.0567 -0.5239
 1651SOL    HW116412   1.624   0.426   6.876 -2.1295 -2.1957  2.5322
 1651SOL    HW216413   1.683   0.557   6.877 -1.5778 -0.3456 -1.7069
 1652SOL     OW16414   4.314   3.032  17.083 -0.0289  0.2234 -0.4193
 1652SOL    HW116415   4.382   3.029  17.150 -1.0494 -2.7950  0.5041
 1652SOL    HW216416   4.266   2.955  17.114 -1.6274  0.8512 -1.3591
 1653SOL     OW16417   0.802   1.943   7.681 -0.1996 -0.3709  0.5423
 1653SOL    HW116418   0.745   2.019   7.674 -0.0175 -0.3389 -0.6098
 1653SOL    HW216419   0.834   1.945   7.590 -2.5732 -1.2610 -0.3069
 1654SOL     OW16420   0.716   2.467   4.437  0.4407 -0.1368 -0.0819
 1654SOL    HW116421   0.802   2.455   4.478  0.4669  1.3670  0.2809
 1654SOL    HW216422   0.661   2.430   4.506  1.1312  0.3682  0.7321
 1655SOL     OW16423   2.007   3.880   7.115 -0.1657 -0.0492  0.0453
 1655SOL    HW116424   1.988   3.938   7.189 -0.0261  2.6096 -1.9732
 1655SOL    HW216425   2.100   3.904   7.110  0.0012 -0.7177 -0.0323
 1656SOL     OW16426   0.690   0.176   5.960 -1.1082  0.0410 -0.1855
 1656SOL    HW116427   0.642   0.120   5.898  0.8511  1.4241 -2.9389
 1656SOL    HW216428   0.619   0.182   6.024  0.1598  0.4819  1.1918
 1657SOL     OW16429   2.737   0.819  13.237 -0.1261 -0.3240 -0.6252
 1657SOL    HW116430   2.661   0.818  13.295  0.2651 -0.5181 -0.1092
 1657SOL    HW216431   2.723   0.904  13.194  0.5524  0.0202 -0.1761
 1658SOL     OW16432   3.672   1.693   9.574  0.0318 -0.6528 -0.2175
 1658SOL    HW116433   3.724   1.632   9.625  0.7873 -1.2765 -1.7132
 1658SOL    HW216434   3.631   1.638   9.507  0.8342 -2.1413  0.5172
 1659SOL     OW16435   4.553   0.469   8.426  0.1853  0.0358  0.0536
 1659SOL    HW116436   4.627   0.529   8.439 -0.3395  0.5775  0.4957
 1659SOL    HW216437   4.505   0.496   8.504 -2.5413 -1.3051 -1.1599
 1660SOL     OW16438   0.192   1.165  10.380 -0.3812  0.1137 -0.5517
 1660SOL    HW116439   0.124   1.117  10.428 -1.1706  1.7953  0.0457
 1660SOL    HW216440   0.213   1.098  10.317  2.5195  1.4316 -0.9677
 1661SOL     OW16441   2.443   1.236   8.666  0.3343 -0.6268  0.4955
 1661SOL    HW116442   2.372   1.188   8.625  0.7451 -0.2892 -0.6116
 1661SOL    HW216443   2.516   1.176   8.649  0.5811 -0.5751  1.3739
 1662SOL     OW16444   0.678   3.835   3.678  0.0781 -0.3746  0.0275
 1662SOL    HW116445   0.731   3.776   3.625 -1.2905 -0.6977 -0.9805
 1662SOL    HW216446   0.687   3.912   3.622 -0.3265  0.2527  0.8258
 1663SOL     OW16447   3.484   4.142  11.199 -0.1184  0.2306  0.7819
 1663SOL    HW116448   3.565   4.153  11.247  0.6728 -0.5501 -0.3758
 1663SOL    HW216449   3.423   4.212  11.224 -0.8019 -0.6799  1.6748
 1664SOL     OW16450   3.165   1.153   6.899  0.3407  0.2629 -0.1841
 1664SOL    HW116451   3.222   1.165   6.974  0.7092  3.5680 -0.9589
 1664SOL    HW216452   3.091   1.111   6.941  1.3255  0.0753  1.3396
 1665SOL     OW16453   1.940   4.489   4.129 -0.1048  0.0825  0.3323
 1665SOL    HW116454   1.858   4.445   4.151 -1.1027  2.1499  0.7185
 1665SOL    HW216455   1.905   4.576   4.109  0.3674  0.0354 -0.7256
 1666SOL     OW16456   2.182   0.801  10.661 -0.5534 -0.2187 -0.1726
 1666SOL    HW116457   2.239   0.730  10.692  2.7149  0.9742 -3.4315
 1666SOL    HW216458   2.101   0.751  10.654 -1.1508  0.4882  1.8391
 1667SOL     OW16459   3.682   2.513   3.663 -0.3731  0.0335  0.1662
 1667SOL    HW116460   3.679   2.510   3.759 -2.2993 -0.7672  0.0924
 1667SOL    HW216461   3.763   2.559   3.641 -0.9613  1.9338  1.9131
 1668SOL     OW16462   2.305   2.344  17.650  0.2896  0.5434  0.8085
 1668SOL    HW116463   2.284   2.286   0.026  1.3426 -1.9248 -0.8644
 1668SOL    HW216464   2.307   2.423   0.008 -1.2089  2.6281 -2.1370
 1669SOL     OW16465   4.707   0.446   0.665 -0.6270  0.0969  0.9364
 1669SOL    HW116466   0.042   0.434   0.739 -0.2263  0.2341  0.6392
 1669SOL    HW216467   4.705   0.359   0.625  1.4143 -0.0886  1.2419
 1670SOL     OW16468   2.386   3.644   4.417 -0.5299  0.0883 -0.0798
 1670SOL    HW116469   2.330   3.717   4.391 -2.4530 -0.6189  2.0686
 1670SOL    HW216470   2.466   3.695   4.433 -0.5030  0.2115 -0.6021
 1671SOL     OW16471   3.727   4.489   2.732  0.0299  1.0114  0.2471
 1671SOL    HW116472   3.816   4.503   2.765  0.4646  0.4551 -0.6938
 1671SOL    HW216473   3.745   4.471   2.640  0.4845 -0.4156  0.6213
 1672SOL     OW16474   1.289   0.309  12.804  0.0891  0.9540  0.4784
 1672SOL    HW116475   1.255   0.398  12.793  1.0735  1.0629 -1.7632
 1672SOL    HW216476   1.337   0.290  12.723 -1.2089  1.3753 -0.3774
 1673SOL     OW16477   2.398   0.662   4.278  0.2948 -0.2798  0.1674
 1673SOL    HW116478   2.445   0.597   4.225  0.3397 -1.3321  1.4710
 1673SOL    HW216479   2.361   0.719   4.211  3.4591  1.5144 -0.0611
 1674SOL     OW16480   1.718   2.836   0.052 -0.3471  0.2127  0.5960
 1674SOL    HW116481   1.717   2.841   0.148  1.1541 -0.8676  0.6711
 1674SOL    HW216482   1.679   2.750   0.037  0.7608  0.0453 -1.2409
 1675SOL     OW16483   0.994   3.122  10.373  0.6122  0.5686  0.6226
 1675SOL    HW116484   0.934   3.190  10.404 -0.3744 -0.4184  0.9086
 1675SOL    HW216485   1.009   3.074  10.455 -0.7131 -0.5445  0.2315
 1676SOL     OW16486   1.670   3.086   5.820  0.2269 -0.6843 -0.2434
 1676SOL    HW116487   1.714   3.004   5.840 -0.7468 -0.9559  0.7891
 1676SOL    HW216488   1.678   3.141   5.898 -0.4141  1.9831 -2.0262
 1677SOL     OW16489   2.115   0.947   3.171  0.3589  0.2160  0.0352
 1677SOL    HW116490   2.151   1.032   3.197  0.1937  0.8985 -1.9997
 1677SOL    HW216491   2.072   0.974   3.090  0.9926 -2.0812 -1.0593
 1678SOL     OW16492   3.506   0.313   3.615 -0.6450  0.3929 -0.4464
 1678SOL    HW116493   3.430   0.284   3.563 -0.3318 -1.0388 -0.0923
 1678SOL    HW216494   3.524   0.405   3.600  0.6573  0.1472 -0.3683
 1679SOL     OW16495   1.586   4.534  15.117  0.3180  0.5281  0.5181
 1679SOL    HW116496   1.564   4.476  15.189 -0.3942  1.6187  1.1817
 1679SOL    HW216497   1.600   4.463  15.054  1.8303  0.9529  0.3694
 1680SOL     OW16498   2.398   2.028   1.501  0.2467 -0.0944  0.3029
 1680SOL    HW116499   2.490   2.017   1.524 -0.3255  0.3781  2.7777
 1680SOL    HW216500   2.356   2.036   1.587  0.1115 -3.3748  0.5617
 1681SOL     OW16501   0.770   0.812   2.104  0.8159  0.2734  0.6580
 1681SOL    HW116502   0.755   0.903   2.130 -2.2159 -0.6735  2.1907
 1681SOL    HW216503   0.702   0.779   2.163  0.5689  1.9283  1.3196
 1682SOL     OW16504   0.310   1.366   8.504 -0.9757 -0.0167  0.3652
 1682SOL    HW116505   0.315   1.380   8.598 -2.6705 -0.1839  0.4745
 1682SOL    HW216506   0.391   1.316   8.488 -1.8903 -0.0750 -4.2031
 1683SOL     OW16507   0.865   1.002   4.272 -0.2329  0.3559  0.2581
 1683SOL    HW116508   0.923   0.932   4.302 -0.2581  0.3952  0.3969
 1683SOL    HW216509   0.796   0.991   4.337 -0.7487 -1.1167 -0.5232
 1684SOL     OW16510   0.857   3.508   8.192  1.1446 -0.0751  0.1667
 1684SOL    HW116511   0.789   3.571   8.216 -0.4170 -1.6720 -0.0153
 1684SOL    HW216512   0.937   3.555   8.217  2.0628 -1.7356  0.3740
 1685SOL     OW16513   0.816   2.027   4.574  0.2616 -0.1969  0.2959
 1685SOL    HW116514   0.734   2.048   4.619 -0.8689  0.2350 -1.9573
 1685SOL    HW216515   0.797   1.946   4.527 -1.2219  0.4558 -0.2021
 1686SOL     OW16516   4.299   3.514   7.759 -0.3320 -0.2275 -0.0618
 1686SOL    HW116517   4.355   3.591   7.759  0.3910 -0.7565  0.0627
 1686SOL    HW216518   4.214   3.556   7.771 -0.5647 -0.5566 -0.5804
 1687SOL     OW16519   0.970   1.799  15.962 -0.2679 -0.0800 -0.4691
 1687SOL    HW116520   1.043   1.857  15.938 -1.2928  1.7895  0.9192
 1687SOL    HW216521   0.934   1.795  15.874 -1.1993  0.3975 -0.1053
 1688SOL     OW16522   1.295   1.025   7.713 -0.7879 -0.1841 -0.2786
 1688SOL    HW116523   1.211   1.061   7.741 -0.6813  0.1589 -0.4055
 1688SOL    HW216524   1.323   0.995   7.800 -2.8038 -0.1320  0.3902
 1689SOL     OW16525   1.648   3.488  12.465  0.0930  0.5111 -0.4872
 1689SOL    HW116526   1.556   3.504  12.441  0.4399  0.5217 -1.8140
 1689SOL    HW216527   1.638   3.467  12.558  1.1741  0.0311 -0.4852
 1690SOL     OW16528   3.831   2.859  17.101 -0.0882  0.0615  0.2431
 1690SOL    HW116529   3.853   2.952  17.091  2.0695 -0.2679  2.1839
 1690SOL    HW216530   3.818   2.832  17.010  1.8169  0.1814 -0.0743
 1691SOL     OW16531   1.773   1.152   4.475  0.2297  0.3082 -0.1216
 1691SOL    HW116532   1.789   1.129   4.567  1.8799 -1.5408 -0.8828
 1691SOL    HW216533   1.701   1.215   4.485  0.2808  0.2828  0.4377
 1692SOL     OW16534   3.696   4.551   8.000  0.3502 -0.4339 -0.2501
 1692SOL    HW116535   3.631   4.533   8.067  1.9252  2.5166  2.0846
 1692SOL    HW216536   3.763   4.501   8.046  0.2856  0.0146  0.3236
 1693SOL     OW16537   2.043   2.144   4.009  0.1104 -0.2088 -0.1940
 1693SOL    HW116538   2.028   2.053   3.984 -0.9832  0.2544 -1.2375
 1693SOL    HW216539   2.114   2.165   3.948 -0.2123 -0.3786 -0.6253
 1694SOL     OW16540   0.286   2.882   7.114 -0.2406 -0.1555  0.2649
 1694SOL    HW116541   0.341   2.803   7.111 -1.4326 -0.9994  0.3480
 1694SOL    HW216542   0.319   2.923   7.193  0.0635 -2.6065  1.4296
 1695SOL     OW16543   2.370   3.079   8.467  0.1178  0.6722 -0.5192
 1695SOL    HW116544   2.453   3.032   8.466  0.1291  0.6755  0.5943
 1695SOL    HW216545   2.319   3.027   8.529 -1.0965  0.4978 -1.6743
 1696SOL     OW16546   2.152   4.242  16.149 -0.0785 -0.0356  0.4791
 1696SOL    HW116547   2.248   4.247  16.146 -0.0254 -0.7254  1.0777
 1696SOL    HW216548   2.135   4.149  16.137  0.7795 -0.2252  0.7645
 1697SOL     OW16549   0.900   0.110   8.596 -0.1348  0.3812 -0.2020
 1697SOL    HW116550   0.990   0.115   8.627 -0.6273  0.3322  1.2477
 1697SOL    HW216551   0.855   0.064   8.667  0.9191  1.3776  1.1186
 1698SOL     OW16552   3.613   4.570   3.532 -0.0190 -0.1834 -0.0576
 1698SOL    HW116553   3.609   4.649   3.586 -1.2225  0.2235 -0.7393
 1698SOL    HW216554   3.584   4.616   3.453  0.7478 -0.7542 -0.6663
 1699SOL     OW16555   1.949   2.163  14.815  0.2599 -0.6293  0.3017
 1699SOL    HW116556   2.023   2.222  14.833  0.9895 -1.3390 -0.3928
 1699SOL    HW216557   1.953   2.151  14.720  1.4189  2.2110 -0.0076
 1700SOL     OW16558   2.149   2.899  13.621 -0.1530 -0.2226 -0.2097
 1700SOL    HW116559   2.174   2.825  13.677  1.9371  1.9052  1.6561
 1700SOL    HW216560   2.061   2.868  13.602 -0.7478 -0.1378  2.3652
 1701SOL     OW16561   0.079   2.084  12.377  0.0924  0.3645  0.4986
 1701SOL    HW116562   0.128   2.030  12.316 -0.7780  0.6043 -0.4226
 1701SOL    HW216563   0.156   2.105  12.430  1.1982  0.4342 -1.1159
 1702SOL     OW16564   3.078   1.331   5.903 -0.3373 -0.5359  0.0371
 1702SOL    HW116565   3.026   1.313   5.825  0.6762 -1.4758 -0.4308
 1702SOL    HW216566   3.028   1.400   5.947 -1.0236 -0.7771 -0.3767
 1703SOL     OW16567   0.384   2.070  10.358  1.1518 -0.0886 -0.3261
 1703SOL    HW116568   0.418   2.146  10.310 -0.8938  1.2308  0.2961
 1703SOL    HW216569   0.439   2.004  10.317 -1.2735 -1.5870 -1.1299
 1704SOL     OW16570   0.177   0.133   5.660  0.1069 -0.0357  0.3027
 1704SOL    HW116571   0.181   0.046   5.621 -2.2170  0.7061 -1.5575
 1704SOL    HW216572   0.263   0.165   5.629  0.7486  0.9738  3.1175
 1705SOL     OW16573   3.272   4.487  14.202  0.1283 -0.5860 -0.7672
 1705SOL    HW116574   3.331   4.419  14.236  1.9005  1.1924 -0.2620
 1705SOL    HW216575   3.331   4.555  14.170  2.1999 -1.8004  0.4516
 1706SOL     OW16576   0.535   3.237   5.415 -0.1437  0.2174 -0.3712
 1706SOL    HW116577   0.606   3.174   5.427 -1.0637 -0.4545  1.6056
 1706SOL    HW216578   0.520   3.221   5.322 -1.0539 -0.4241 -0.1173
 1707SOL     OW16579   4.412   2.637   5.516 -0.0292 -0.1191  0.0814
 1707SOL    HW116580   4.335   2.690   5.498 -1.2244 -1.8371  0.1609
 1707SOL    HW216581   4.416   2.603   5.426  0.3913  1.5809 -0.5605
 1708SOL     OW16582   3.832   3.395   7.668 -0.0286 -0.3377  0.2380
 1708SOL    HW116583   3.855   3.331   7.736 -1.6670  1.2976  2.3239
 1708SOL    HW216584   3.736   3.388   7.669 -0.0508 -0.0895 -0.2999
 1709SOL     OW16585   2.023   4.238  11.122 -0.1414 -0.1954 -0.2596
 1709SOL    HW116586   1.966   4.168  11.155  0.3979  0.2805  1.6909
 1709SOL    HW216587   1.973   4.267  11.046 -0.9462  0.2170  0.4190
 1710SOL     OW16588   3.379   2.995   7.701  0.0577 -0.3865 -0.2577
 1710SOL    HW116589   3.310   3.055   7.730 -0.0247 -0.5612 -0.0981
 1710SOL    HW216590   3.370   2.923   7.764 -1.2407 -2.0059 -2.2784
 1711SOL     OW16591   2.323   0.049  14.887  0.0338 -0.0126  0.1398
 1711SOL    HW116592   2.382   4.698  14.875  0.2003  0.4550 -2.0815
 1711SOL    HW216593   2.268   0.029  14.962  0.2679  0.7025  0.5069
 1712SOL     OW16594   1.581   3.648   8.733  0.3330 -0.0485  0.2127
 1712SOL    HW116595   1.568   3.742   8.720 -1.6791 -0.5120 -1.2188
 1712SOL    HW216596   1.677   3.647   8.736  0.2743 -0.5942  1.7059
 1713SOL     OW16597   0.420   4.592   7.548 -0.1091 -0.5325 -1.0202
 1713SOL    HW116598   0.461   4.554   7.471 -0.4441  0.7613 -1.8471
 1713SOL    HW216599   0.367   4.522   7.585 -0.9295 -0.2764 -1.6897
 1714SOL     OW16600   1.921   2.749   7.013  0.0344  0.1487 -0.7028
 1714SOL    HW116601   1.963   2.686   7.072  0.3845 -1.0977 -2.2962
 1714SOL    HW216602   1.832   2.718   6.996 -0.9011  2.4868 -0.0648
 1715SOL     OW16603   2.815   4.217   1.108 -0.0789 -0.2143  0.6954
 1715SOL    HW116604   2.818   4.298   1.058 -0.7175 -1.6096 -1.6091
 1715SOL    HW216605   2.804   4.149   1.041  1.3377  0.1441  0.0801
 1716SOL     OW16606   2.801   1.431   4.891 -0.2357  0.3096  0.2280
 1716SOL    HW116607   2.875   1.420   4.831  0.5013  0.3459  1.1201
 1716SOL    HW216608   2.814   1.364   4.958  0.0525 -1.5217 -1.6799
 1717SOL     OW16609   3.699   4.495   2.469 -0.4235  0.6781  0.1977
 1717SOL    HW116610   3.773   4.528   2.417  0.1445  0.0068  0.5727
 1717SOL    HW216611   3.635   4.464   2.405 -0.4678 -0.5033  0.8132
 1718SOL     OW16612   1.052   0.601   4.206 -0.4227 -0.2847 -0.1735
 1718SOL    HW116613   0.995   0.543   4.257  1.5431  0.5937  2.9951
 1718SOL    HW216614   1.012   0.612   4.120 -0.1596  1.1093 -0.1248
 1719SOL     OW16615   3.823   2.168   9.818 -0.2617 -0.1390  0.6037
 1719SOL    HW116616   3.800   2.123   9.737 -1.5768  2.6176 -0.5381
 1719SOL    HW216617   3.743   2.207   9.853  0.6049 -0.0771  2.5173
 1720SOL     OW16618   4.476   2.902  16.786 -0.6707  0.7513 -0.5236
 1720SOL    HW116619   4.480   2.807  16.772  0.7084  0.8099 -0.5788
 1720SOL    HW216620   4.551   2.898  16.846 -0.6986 -1.5008 -0.6141
 1721SOL     OW16621   1.446   2.313  15.862 -0.3370 -0.4957  0.0113
 1721SOL    HW116622   1.405   2.270  15.938  0.9104  0.3115  1.1282
 1721SOL    HW216623   1.494   2.236  15.832 -1.1518 -1.8213  2.1103
 1722SOL     OW16624   4.371   4.564   1.965 -0.0630  0.1990 -0.3148
 1722SOL    HW116625   4.429   4.621   1.915 -1.6298  1.2949 -0.8866
 1722SOL    HW216626   4.308   4.625   2.004  0.1790  0.0881  0.2540
 1723SOL     OW16627   1.386   1.436  17.044  0.0523 -0.1415  0.3486
 1723SOL    HW116628   1.472   1.457  17.006 -0.1154 -0.3868 -0.1639
 1723SOL    HW216629   1.317   1.488  17.003  1.5263  0.0457 -1.9189
 1724SOL     OW16630   3.333   2.042   4.389  0.2376 -0.2871 -0.2760
 1724SOL    HW116631   3.311   2.073   4.477 -0.1114 -0.2969 -0.3591
 1724SOL    HW216632   3.346   2.123   4.340  2.5665  1.3720  3.0790
 1725SOL     OW16633   0.376   4.335  16.984  0.0126  0.4672  0.1578
 1725SOL    HW116634   0.309   4.341  17.052 -0.6643  0.8507 -0.5412
 1725SOL    HW216635   0.326   4.365  16.908  0.9127  1.4648 -0.0532
 1726SOL     OW16636   2.027   3.073   9.098 -0.1699  0.3880  0.1343
 1726SOL    HW116637   1.940   3.081   9.137 -0.5267 -1.7805 -0.2358
 1726SOL    HW216638   1.999   3.085   9.007 -1.9820  0.9315  0.7525
 1727SOL     OW16639   1.286   0.813  13.210  0.0917  0.3603  0.5271
 1727SOL    HW116640   1.257   0.901  13.234 -0.9701 -0.0283  0.6657
 1727SOL    HW216641   1.380   0.828  13.197  0.3368 -0.3142  1.5573
 1728SOL     OW16642   4.386   1.581   5.840 -0.2555  0.2075  0.9917
 1728SOL    HW116643   4.348   1.610   5.757  1.9752 -2.3774 -0.9267
 1728SOL    HW216644   4.465   1.635   5.851  0.2361 -0.5183  1.0247
 1729SOL     OW16645   1.579   2.323   2.124  0.0682  0.0156  0.1868
 1729SOL    HW116646   1.589   2.397   2.184  2.2755 -0.3723  0.2927
 1729SOL    HW216647   1.637   2.261   2.167 -1.9213 -0.7144  1.7979
 1730SOL     OW16648   0.001   0.997  13.005 -0.0144 -0.1103 -0.0797
 1730SOL    HW116649   0.088   0.959  12.999 -1.5283 -3.4006 -0.8131
 1730SOL    HW216650   0.013   1.086  12.970 -0.5955 -1.0034 -2.5508
 1731SOL     OW16651   3.856   1.984   7.992 -0.0921  0.2114  0.7659
 1731SOL    HW116652   3.856   2.027   7.906  3.3222 -0.0643  0.6163
 1731SOL    HW216653   3.941   2.017   8.022 -1.9674  2.6107  3.4265
 1732SOL     OW16654   3.292   4.255  13.073 -0.2003  0.2389 -0.9091
 1732SOL    HW116655   3.228   4.185  13.083 -1.4180  1.5453  0.5847
 1732SOL    HW216656   3.376   4.212  13.090 -1.1345  0.0474  3.1682
 1733SOL     OW16657   1.090   3.000  11.268 -0.5399 -0.5937  0.0044
 1733SOL    HW116658   1.175   3.031  11.299  0.4684 -1.6921 -1.6818
 1733SOL    HW216659   1.037   2.988  11.347 -1.3309 -0.6450 -0.5344
 1734SOL     OW16660   0.261   1.057   3.693  0.1245  0.3317  0.0199
 1734SOL    HW116661   0.173   1.042   3.658 -0.2634 -1.3510  1.6958
 1734SOL    HW216662   0.271   0.976   3.743 -0.0551  0.2790 -0.0301
 1735SOL     OW16663   1.723   0.536   8.804 -0.3499 -0.7193  0.1341
 1735SOL    HW116664   1.735   0.488   8.886  3.2319 -0.9346 -0.5294
 1735SOL    HW216665   1.652   0.490   8.761  0.5315 -1.4059 -0.5717
 1736SOL     OW16666   2.403   2.024  16.729 -0.4217 -0.1618 -0.1334
 1736SOL    HW116667   2.494   2.049  16.713 -0.0428 -0.9171  0.7835
 1736SOL    HW216668   2.420   1.958  16.796 -0.0337 -0.5168 -0.5912
 1737SOL     OW16669   0.630   3.201  12.282 -0.7001  0.0458 -0.6458
 1737SOL    HW116670   0.714   3.190  12.327  0.7135  0.0462 -3.2565
 1737SOL    HW216671   0.594   3.113  12.291  0.6653 -0.3203  1.2703
 1738SOL     OW16672   2.221   0.192   2.032 -0.0334  0.4875  0.4071
 1738SOL    HW116673   2.302   0.194   1.980  0.1062 -0.9575  0.5818
 1738SOL    HW216674   2.187   0.103   2.024  3.9438 -0.8516 -1.7804
 1739SOL     OW16675   1.274   3.206   3.631 -0.5909  0.1447 -0.1113
 1739SOL    HW116676   1.183   3.232   3.649 -1.0670 -2.3486  1.0299
 1739SOL    HW216677   1.269   3.177   3.540  0.4110 -2.4980  0.6978
 1740SOL     OW16678   4.500   1.126   7.760 -0.0481  0.2205 -0.2837
 1740SOL    HW116679   4.571   1.152   7.701 -0.5129 -1.5298 -1.6182
 1740SOL    HW216680   4.498   1.194   7.827 -1.5215  0.7619 -0.8651
 1741SOL     OW16681   0.385   2.839   5.852  0.0189  0.3609  0.4440
 1741SOL    HW116682   0.411   2.747   5.863 -2.4557 -0.2157  1.3918
 1741SOL    HW216683   0.306   2.838   5.797  0.1564  2.4529  0.2330
 1742SOL     OW16684   3.071   0.139   9.117  0.0706 -0.6991 -0.3440
 1742SOL    HW116685   3.022   0.058   9.106  1.3222 -1.7143  1.5191
 1742SOL    HW216686   3.062   0.143   9.212  0.4579 -0.8019 -0.3012
 1743SOL     OW16687   2.537   1.569   6.237 -0.1881  0.1067 -0.5312
 1743SOL    HW116688   2.515   1.606   6.322 -1.7613 -1.7351 -0.1308
 1743SOL    HW216689   2.621   1.600   6.204 -0.0311  0.8417  0.5702
 1744SOL     OW16690   3.013   0.075   8.783  0.5768  0.3314 -0.6781
 1744SOL    HW116691   2.958   0.153   8.793  1.8060  1.2174 -0.7442
 1744SOL    HW216692   2.994   0.036   8.868 -0.0440 -1.0722 -1.4681
 1745SOL     OW16693   4.114   1.754   5.418  0.1698 -0.0523 -0.0271
 1745SOL    HW116694   4.074   1.820   5.361  1.6936 -0.8349 -2.0181
 1745SOL    HW216695   4.119   1.681   5.356  0.4170  1.1846 -1.4500
 1746SOL     OW16696   3.157   3.223   8.398  0.3480  0.0115 -0.6615
 1746SOL    HW116697   3.217   3.284   8.442  0.0204  0.5754 -0.9839
 1746SOL    HW216698   3.132   3.169   8.472  0.5835  1.0863  0.2161
 1747SOL     OW16699   2.493   1.621  10.847 -0.3473 -0.0675 -0.5378
 1747SOL    HW116700   2.498   1.532  10.882  1.1116  0.2432  0.0404
 1747SOL    HW216701   2.466   1.609  10.756 -0.1389  0.4359 -0.6694
 1748SOL     OW16702   4.351   2.892   9.415  0.3450  0.3282  0.3839
 1748SOL    HW116703   4.285   2.898   9.484 -0.7138 -1.9177 -0.4376
 1748SOL    HW216704   4.438   2.915   9.448 -0.5109  0.7842  2.3799
 1749SOL     OW16705   0.846   4.663  13.297 -0.5888 -0.0799 -0.4678
 1749SOL    HW116706   0.754   4.637  13.308 -0.3952 -0.5922 -0.0192
 1749SOL    HW216707   0.849   0.027  13.334  0.5887 -0.0364 -0.6823
 1750SOL     OW16708   0.303   3.049  15.548 -0.5870  0.5876 -0.7387
 1750SOL    HW116709   0.265   3.136  15.536  0.0545  0.1691 -5.8440
 1750SOL    HW216710   0.229   2.991  15.529 -0.4201  0.0457  0.2532
 1751SOL     OW16711   3.740   2.401   6.635 -0.3058 -0.3793 -0.1936
 1751SOL    HW116712   3.745   2.328   6.696  0.4612  0.9231  1.2985
 1751SOL    HW216713   3.650   2.432   6.648  0.2944  0.6553  1.5490
 1752SOL     OW16714   3.739   3.036   7.554  0.2126 -0.1121 -0.3560
 1752SOL    HW116715   3.776   2.960   7.509  0.9494  0.4766 -0.7515
 1752SOL    HW216716   3.817   3.046   7.609 -1.7479 -1.0173  2.5661
 1753SOL     OW16717   0.079   4.613  11.422  0.1943  0.0208  0.6998
 1753SOL    HW116718   0.056   4.523  11.446 -2.0721  0.4218  0.0033
 1753SOL    HW216719   0.049   4.609  11.331  1.4963  1.2122  0.2166
 1754SOL     OW16720   3.403   0.109   5.438 -0.2518  0.2477  0.0345
 1754SOL    HW116721   3.348   0.040   5.475 -0.6597  0.6494  0.1804
 1754SOL    HW216722   3.482   0.055   5.430  0.1320  0.5017  2.1186
 1755SOL     OW16723   2.352   4.676   3.652  0.4805  0.4998  0.0947
 1755SOL    HW116724   2.279   0.007   3.682  0.4772  0.2371  0.5628
 1755SOL    HW216725   2.306   4.600   3.616  0.4372  0.5598  0.0248
 1756SOL     OW16726   3.182   4.697  15.286 -0.3682 -0.4243  0.2134
 1756SOL    HW116727   3.123   4.637  15.240 -1.8954  1.4885 -0.3219
 1756SOL    HW216728   3.120   0.016  15.344  0.5127  1.8511 -0.5076
 1757SOL     OW16729   0.438   1.151  17.241  0.1924  0.1809 -0.1698
 1757SOL    HW116730   0.350   1.185  17.260 -0.5801 -0.9431 -1.7579
 1757SOL    HW216731   0.418   1.072  17.192 -3.4042 -0.0654  1.6517
 1758SOL     OW16732   3.484   2.163  15.268  0.9495  0.2823  0.4564
 1758SOL    HW116733   3.525   2.114  15.197 -0.5217  1.9206 -1.5233
 1758SOL    HW216734   3.512   2.112  15.344 -4.6514  0.5143  2.7009
 1759SOL     OW16735   0.305   0.876   1.654  0.0686 -0.5359  0.3202
 1759SOL    HW116736   0.347   0.960   1.635 -0.6113 -0.5869 -1.3927
 1759SOL    HW216737   0.374   0.829   1.701 -2.5695 -2.0339  2.7199
 1760SOL     OW16738   3.532   0.340   4.440 -0.3436 -0.1129  0.6206
 1760SOL    HW116739   3.469   0.351   4.511 -1.0105 -1.0391  0.1712
 1760SOL    HW216740   3.616   0.334   4.485  0.6122 -0.0631 -1.1571
 1761SOL     OW16741   1.964   3.459   1.914  0.1904  0.4857  0.3831
 1761SOL    HW116742   1.934   3.511   1.988 -1.9296  2.0365 -1.5544
 1761SOL    HW216743   1.929   3.372   1.934 -1.3722  1.3897  1.5051
 1762SOL     OW16744   2.321   2.959   2.568  0.2317 -0.1197  0.0469
 1762SOL    HW116745   2.416   2.966   2.567  0.1388  1.1947  0.5881
 1762SOL    HW216746   2.303   3.010   2.646 -0.7912  0.3683 -0.4986
 1763SOL     OW16747   3.659   4.233  17.634 -0.6512 -0.1611 -0.0172
 1763SOL    HW116748   3.611   4.247  17.552  2.2129 -0.7688 -1.7886
 1763SOL    HW216749   3.635   4.141  17.644 -0.2663 -0.2776 -0.1938
 1764SOL     OW16750   4.032   2.713   6.944 -0.6902 -0.5034  0.3748
 1764SOL    HW116751   4.030   2.709   6.848 -2.0161  1.1103  0.3326
 1764SOL    HW216752   4.018   2.620   6.962 -3.1127 -0.3929 -0.9186
 1765SOL     OW16753   4.084   4.468   8.042  0.1071 -0.2833 -0.4061
 1765SOL    HW116754   4.075   4.456   8.137 -1.9418  0.9463 -0.4473
 1765SOL    HW216755   4.147   4.399   8.023  1.5477  1.0038 -0.2623
 1766SOL     OW16756   3.515   1.470   8.936 -0.3453 -0.0566  0.1496
 1766SOL    HW116757   3.462   1.467   8.856 -1.2204  3.1441  0.6108
 1766SOL    HW216758   3.491   1.558   8.966  1.8573  0.1090  1.4196
 1767SOL     OW16759   0.359   0.334   6.555  0.0551 -0.0657  0.4780
 1767SOL    HW116760   0.273   0.356   6.588 -0.7655 -0.9706 -1.0213
 1767SOL    HW216761   0.375   0.243   6.580  0.3213 -0.3929 -0.8541
 1768SOL     OW16762   3.348   1.867   2.998  0.1171  0.1051  0.1602
 1768SOL    HW116763   3.361   1.784   3.044 -1.0844  0.0086  0.3151
 1768SOL    HW216764   3.371   1.847   2.907 -0.4523  1.0339 -0.1904
 1769SOL     OW16765   0.870   2.553  17.379 -0.0492  0.5404 -0.0460
 1769SOL    HW116766   0.851   2.641  17.409  2.3269  0.5611  1.3422
 1769SOL    HW216767   0.950   2.527  17.424 -1.0684 -0.5134  1.1739
 1770SOL     OW16768   1.637   0.989   7.991 -0.4678  0.3285  0.1299
 1770SOL    HW116769   1.684   0.906   7.987 -0.8179  0.0571  1.8696
 1770SOL    HW216770   1.655   1.007   8.083  1.1183  1.2141 -0.3580
 1771SOL     OW16771   0.898   4.507   6.673 -0.0792 -0.1853 -0.1320
 1771SOL    HW116772   0.916   4.598   6.647 -2.1875 -0.1611 -1.5096
 1771SOL    HW216773   0.977   4.461   6.646 -0.0113 -0.6257  0.8160
 1772SOL     OW16774   3.756   1.886  14.665 -0.1404  0.3398  0.0685
 1772SOL    HW116775   3.719   1.903  14.752 -0.3456 -2.2448  0.4810
 1772SOL    HW216776   3.845   1.912  14.688 -0.1013 -0.4743  0.8055
 1773SOL     OW16777   1.687   2.619   5.475 -0.0759  0.3070  0.3798
 1773SOL    HW116778   1.618   2.570   5.430  0.5835 -2.2231  2.1282
 1773SOL    HW216779   1.734   2.662   5.403  2.0238  0.2375  1.7201
 1774SOL     OW16780   3.593   4.360   7.278 -0.4524 -0.4911 -0.1301
 1774SOL    HW116781   3.563   4.270   7.289 -2.3196  0.6717  4.2281
 1774SOL    HW216782   3.550   4.374   7.194 -0.3678  0.7910  0.0448
 1775SOL     OW16783   4.585   0.493   1.628  0.2801 -0.1760  0.0499
 1775SOL    HW116784   4.563   0.570   1.681  0.0609 -0.0357 -0.2481
 1775SOL    HW216785   4.496   0.472   1.599  0.9593 -1.7427 -0.8530
 1776SOL     OW16786   3.871   1.383   8.278  0.1289  0.2753 -0.4433
 1776SOL    HW116787   3.944   1.444   8.266 -0.0221  0.5614  0.0659
 1776SOL    HW216788   3.916   1.301   8.300 -1.5035 -1.1113 -2.3495
 1777SOL     OW16789   1.285   1.613   7.190 -0.0819 -0.8124 -0.0141
 1777SOL    HW116790   1.377   1.593   7.177 -0.1198 -1.3678  0.5414
 1777SOL    HW216791   1.293   1.706   7.168 -1.1612 -0.9163 -0.8639
 1778SOL     OW16792   3.199   3.988  14.473  0.0078  0.1365 -0.2817
 1778SOL    HW116793   3.207   4.075  14.434  0.5402  0.3321  0.2702
 1778SOL    HW216794   3.135   3.993  14.545  0.0929  1.4074 -0.2920
 1779SOL     OW16795   1.562   0.647   7.738  0.5093 -0.2881 -0.2558
 1779SOL    HW116796   1.582   0.700   7.815 -1.0500 -0.3941  0.2276
 1779SOL    HW216797   1.521   0.712   7.680 -1.4634  0.6954  2.2569
 1780SOL     OW16798   2.737   2.691   4.877  0.5003  0.3007  0.1141
 1780SOL    HW116799   2.648   2.722   4.891  1.3178  1.3491  3.0165
 1780SOL    HW216800   2.789   2.771   4.877 -0.4111  0.8930  2.3877
 1781SOL     OW16801   0.207   1.786  16.794  0.5265 -0.6570  0.0484
 1781SOL    HW116802   0.197   1.801  16.888  4.4825  1.3278  0.1732
 1781SOL    HW216803   0.301   1.786  16.776  0.7762  1.3103  1.3132
 1782SOL     OW16804   2.186   1.806   8.619 -0.0562  0.3451 -0.7439
 1782SOL    HW116805   2.256   1.763   8.668 -0.0235  2.2071  0.8493
 1782SOL    HW216806   2.114   1.745   8.639 -1.8988  3.0775  0.8765
 1783SOL     OW16807   0.204   0.291   2.590  0.1611  0.1518  0.0758
 1783SOL    HW116808   0.199   0.254   2.678 -1.6325  1.4064  0.5023
 1783SOL    HW216809   0.266   0.236   2.543 -2.7765 -1.2702 -2.0955
 1784SOL     OW16810   1.251   3.126   1.766  0.2846  0.1009 -0.2429
 1784SOL    HW116811   1.324   3.127   1.705  0.0001  0.3143 -0.5843
 1784SOL    HW216812   1.180   3.111   1.703 -1.2595  2.1450  1.0154
 1785SOL     OW16813   4.284   4.623  16.527  0.6032  0.4689 -0.3188
 1785SOL    HW116814   4.234   4.704  16.520  0.2849  0.2611 -0.4547
 1785SOL    HW216815   4.233   4.560  16.579  0.0630  2.2815  1.3373
 1786SOL     OW16816   2.741   3.497  13.608 -0.1833  0.3057  0.1885
 1786SOL    HW116817   2.669   3.509  13.547 -0.4117 -0.6859  0.2682
 1786SOL    HW216818   2.698   3.484  13.692 -0.5359  0.1312 -0.0176
 1787SOL     OW16819   4.269   3.957   7.350  0.1587 -0.2121 -0.2965
 1787SOL    HW116820   4.238   3.975   7.261 -1.4627 -0.1425  0.2678
 1787SOL    HW216821   4.252   3.863   7.356 -2.0526  0.3462  2.5316
 1788SOL     OW16822   2.253   1.403  10.390  0.4500  0.3275  0.2047
 1788SOL    HW116823   2.210   1.319  10.405 -0.2495  0.8108  0.9520
 1788SOL    HW216824   2.308   1.375  10.318 -0.7500  0.9242 -0.9393
 1789SOL     OW16825   2.744   3.887  11.638 -0.6651  0.4154  0.0772
 1789SOL    HW116826   2.716   3.970  11.598  0.5072  0.7608 -0.0439
 1789SOL    HW216827   2.682   3.881  11.711  0.0322 -1.4449  0.5183
 1790SOL     OW16828   0.626   1.434   1.836 -0.2917  0.0289 -0.2905
 1790SOL    HW116829   0.644   1.341   1.851  1.5226  0.2305 -1.2806
 1790SOL    HW216830   0.536   1.453   1.865 -0.1920  1.0644 -0.6592
 1791SOL     OW16831   3.822   4.297   5.626 -0.1931 -0.0222 -0.3372
 1791SOL    HW116832   3.851   4.224   5.681  0.5149 -1.8991 -3.2221
 1791SOL    HW216833   3.786   4.361   5.688  1.9293 -1.3318  2.2447
 1792SOL     OW16834   0.962   3.656   6.941  0.2069  0.0730  0.1468
 1792SOL    HW116835   0.951   3.562   6.933 -0.3891  0.2542 -1.2509
 1792SOL    HW216836   1.056   3.670   6.930  0.2099  0.5152  0.7243
 1793SOL     OW16837   2.542   2.889   8.226  0.3142  0.2908  0.0084
 1793SOL    HW116838   2.612   2.831   8.195 -0.9264 -0.5821 -1.1345
 1793SOL    HW216839   2.554   2.957   8.159 -0.4814 -0.1207 -0.5382
 1794SOL     OW16840   3.610   3.827   6.981  0.7482 -0.1701 -0.1680
 1794SOL    HW116841   3.517   3.844   6.968  0.6563  0.6660  1.5359
 1794SOL    HW216842   3.627   3.745   6.935 -1.1837 -0.3328 -0.5755
 1795SOL     OW16843   3.430   2.902  12.077  0.7129 -0.7266  0.6167
 1795SOL    HW116844   3.417   2.807  12.074  0.7721 -0.5808 -3.7700
 1795SOL    HW216845   3.382   2.933  12.153  0.1154 -0.5623  0.1726
 1796SOL     OW16846   0.531   0.224   8.665 -0.2188 -0.2182 -0.0756
 1796SOL    HW116847   0.585   0.194   8.739 -0.6503 -0.6089  0.0802
 1796SOL    HW216848   0.448   0.232   8.711  0.4917  2.1162  0.7999
 1797SOL     OW16849   1.524   1.270   2.119  0.5761 -0.6063  0.2294
 1797SOL    HW116850   1.583   1.327   2.168 -0.3436  3.0500 -2.9081
 1797SOL    HW216851   1.546   1.182   2.150  0.5900 -0.8216 -0.4109
 1798SOL     OW16852   1.866   0.706   3.752 -0.2165 -0.1813 -1.1008
 1798SOL    HW116853   1.888   0.793   3.784 -0.6461  0.2955 -2.0846
 1798SOL    HW216854   1.932   0.682   3.686 -0.9071 -0.9895 -1.4985
 1799SOL     OW16855   4.114   3.422   4.013  0.1154  0.2347 -0.0818
 1799SOL    HW116856   4.020   3.433   4.026  0.2491  0.6682  0.5239
 1799SOL    HW216857   4.150   3.474   4.084 -0.1569  2.2815 -1.4291
 1800SOL     OW16858   3.221   0.481   3.733  0.3179 -0.0313 -0.1609
 1800SOL    HW116859   3.185   0.516   3.652  0.1585 -0.3560 -0.2297
 1800SOL    HW216860   3.140   0.466   3.782  0.7261  1.5861  1.0072
 1801SOL     OW16861   2.246   4.078  15.384  0.3130  0.1609 -0.0738
 1801SOL    HW116862   2.280   4.073  15.294 -3.5136 -3.9270 -1.3211
 1801SOL    HW216863   2.189   4.150  15.358  0.6128  0.6937  0.7435
 1802SOL     OW16864   0.658   4.342   6.172  0.0679 -0.2770  0.5019
 1802SOL    HW116865   0.725   4.366   6.108 -1.4099 -1.1962 -1.3943
 1802SOL    HW216866   0.593   4.409   6.154 -0.1791 -0.7258 -0.2802
 1803SOL     OW16867   0.941   4.295   7.486  0.4785 -0.3814  0.3604
 1803SOL    HW116868   0.868   4.324   7.540 -1.5606  0.3433 -2.7382
 1803SOL    HW216869   1.001   4.260   7.551 -0.1309  1.1325  1.7059
 1804SOL     OW16870   4.576   1.226  11.360 -0.0869 -0.2186 -0.3078
 1804SOL    HW116871   4.560   1.312  11.399  0.0713 -0.4782  0.3247
 1804SOL    HW216872   4.494   1.210  11.313 -0.5540 -0.5386  0.6073
 1805SOL     OW16873   2.935   0.982   2.023  0.3312 -0.0486  0.9700
 1805SOL    HW116874   2.945   0.931   2.104 -0.8453 -0.8312  0.6224
 1805SOL    HW216875   2.888   0.917   1.971  3.0498 -2.3682  1.4485
 1806SOL     OW16876   4.380   2.067  14.028 -0.1735 -0.2402  0.1566
 1806SOL    HW116877   4.437   2.009  14.078 -2.7612 -1.9926  1.0691
 1806SOL    HW216878   4.390   2.138  14.092 -0.8347 -0.4345  0.4742
 1807SOL     OW16879   3.397   4.424  17.525  0.2646 -0.5994  0.2026
 1807SOL    HW116880   3.329   4.371  17.567  0.5966 -0.2867  1.1457
 1807SOL    HW216881   3.445   4.448  17.605 -0.7518  0.1122  0.5931
 1808SOL     OW16882   1.729   0.020  10.889  0.4083  0.0392 -0.5215
 1808SOL    HW116883   1.637   4.717  10.888  0.0805  1.2700 -2.1759
 1808SOL    HW216884   1.726   0.115  10.900 -0.5629  0.1370 -1.5103
 1809SOL     OW16885   3.990   0.752   9.059  0.2003 -0.4871 -0.5723
 1809SOL    HW116886   3.930   0.817   9.023 -0.5048 -0.4529  0.6711
 1809SOL    HW216887   4.014   0.702   8.980 -0.9210 -0.2993 -1.0296
 1810SOL     OW16888   0.182   0.630   0.197 -0.1630  0.3612  0.0342
 1810SOL    HW116889   0.269   0.606   0.164 -0.3494 -0.0930 -0.1218
 1810SOL    HW216890   0.131   0.592   0.125  1.7066 -0.3683 -0.9037
 1811SOL     OW16891   2.838   3.218   5.133 -0.1909 -0.0550  0.3019
 1811SOL    HW116892   2.913   3.199   5.078 -0.7782 -1.7721  0.0997
 1811SOL    HW216893   2.857   3.157   5.205  0.2051 -0.0568  0.1953
 1812SOL     OW16894   1.152   4.331   3.037  0.0369 -0.0251 -0.1309
 1812SOL    HW116895   1.227   4.316   3.094  0.1027  2.2713  0.3907
 1812SOL    HW216896   1.187   4.303   2.952  3.6069  2.4438  0.5156
 1813SOL     OW16897   0.124   1.138   0.208 -0.0934 -0.8207 -0.0590
 1813SOL    HW116898   0.045   1.143   0.155  0.0710  0.5963 -0.1896
 1813SOL    HW216899   0.103   1.057   0.255 -0.2694 -0.6505  0.1583
 1814SOL     OW16900   1.808   1.369   4.836 -0.1848  0.4471 -0.0956
 1814SOL    HW116901   1.895   1.399   4.810 -0.8954  0.8862 -2.0058
 1814SOL    HW216902   1.763   1.447   4.865 -1.9168 -1.0284  1.1893
 1815SOL     OW16903   4.029   2.136   4.209 -0.0934  0.0461  0.4328
 1815SOL    HW116904   3.947   2.178   4.234 -0.0758  0.7532 -0.7353
 1815SOL    HW216905   3.999   2.055   4.168 -0.7807  0.2140  0.6025
 1816SOL     OW16906   1.480   4.178   6.283  0.1073  0.0638  0.2617
 1816SOL    HW116907   1.511   4.209   6.199 -2.8280  0.3026 -0.7402
 1816SOL    HW216908   1.516   4.090   6.281 -1.5646 -0.5534 -3.2517
 1817SOL     OW16909   4.067   1.234   6.967  0.2766  0.5800  0.0527
 1817SOL    HW116910   4.042   1.258   7.057  1.1670 -1.8138  0.9284
 1817SOL    HW216911   4.007   1.161   6.953 -0.1513  0.8695  0.3468
 1818SOL     OW16912   4.717   1.604   9.534  0.1382 -0.4878 -0.2551
 1818SOL    HW116913   4.699   1.669   9.602  0.1016 -1.1407  0.3591
 1818SOL    HW216914   0.087   1.617   9.519  0.0067  0.9405  0.1412
 1819SOL     OW16915   2.069   3.349  10.302 -0.7739 -0.5545  0.0377
 1819SOL    HW116916   2.019   3.271  10.328 -0.1794 -0.1963  2.3280
 1819SOL    HW216917   2.149   3.306  10.272  0.1545  1.3577 -0.2369
 1820SOL     OW16918   2.014   0.166   0.436 -0.0859  0.4715  0.7912
 1820SOL    HW116919   1.981   0.135   0.520  0.4242 -1.7491  0.1889
 1820SOL    HW216920   1.945   0.227   0.410 -1.1233 -0.6029  0.9832
 1821SOL     OW16921   2.742   4.132   9.959  0.4893 -0.0663  0.0379
 1821SOL    HW116922   2.660   4.083   9.971 -0.0663  1.1118  1.0313
 1821SOL    HW216923   2.721   4.199   9.894 -1.3474 -1.8158 -1.1874
 1822SOL     OW16924   4.329   4.222   6.356  0.2970 -0.1740  0.1154
 1822SOL    HW116925   4.321   4.280   6.432 -1.3971 -0.9657  0.5316
 1822SOL    HW216926   4.372   4.143   6.388 -2.6344 -1.0098  1.8958
 1823SOL     OW16927   1.820   1.145  11.850 -0.1568 -0.0157 -0.3354
 1823SOL    HW116928   1.874   1.159  11.928 -0.5921  1.2573 -0.2787
 1823SOL    HW216929   1.801   1.051  11.854 -3.5013  0.6925  1.2585
 1824SOL     OW16930   3.734   2.173   6.780  0.4331 -0.1406 -0.1188
 1824SOL    HW116931   3.774   2.092   6.813 -0.3171 -1.2580 -1.9743
 1824SOL    HW216932   3.672   2.133   6.720  0.2512  0.4974 -0.3512
 1825SOL     OW16933   3.733   0.946   4.958 -0.2381 -0.1445 -0.4348
 1825SOL    HW116934   3.771   1.017   5.009 -1.0075  0.1183 -0.2290
 1825SOL    HW216935   3.718   0.992   4.875  0.0208  0.7535  0.0167
 1826SOL     OW16936   2.525   0.552   7.083 -0.6836  0.4340  0.0109
 1826SOL    HW116937   2.581   0.531   7.008  1.6101 -1.5879  2.3276
 1826SOL    HW216938   2.509   0.464   7.117  0.3873  0.5736  0.8640
 1827SOL     OW16939   0.521   2.364   9.069 -0.1656  0.2211 -0.5205
 1827SOL    HW116940   0.454   2.387   9.133 -1.5562  0.0473 -1.9124
 1827SOL    HW216941   0.600   2.353   9.122  0.1840 -0.6564 -1.2260
 1828SOL     OW16942   4.199   2.947  12.191 -0.3208  0.1632  0.6878
 1828SOL    HW116943   4.192   2.909  12.104  0.7786  3.3204 -0.7677
 1828SOL    HW216944   4.108   2.970  12.207 -0.4861  1.0353 -1.5535
 1829SOL     OW16945   0.201   4.374   3.357 -0.4222  0.0735 -0.3514
 1829SOL    HW116946   0.126   4.322   3.329 -1.6488  1.2451  0.7586
 1829SOL    HW216947   0.271   4.312   3.333 -0.0883  0.1590  0.4140
 1830SOL     OW16948   0.348   0.980   7.842 -0.6665 -0.2434 -0.5909
 1830SOL    HW116949   0.424   0.933   7.877  1.0497  1.4008 -2.0649
 1830SOL    HW216950   0.287   0.938   7.903 -1.6213 -0.2132 -1.5321
 1831SOL     OW16951   4.209   0.359   6.403 -0.5556  0.0156  0.6652
 1831SOL    HW116952   4.223   0.265   6.395  0.1033  0.1639  0.0573
 1831SOL    HW216953   4.235   0.379   6.493 -1.1653 -0.8597  1.0427
 1832SOL     OW16954   0.587   0.115   6.819 -0.3089  0.3922 -0.3659
 1832SOL    HW116955   0.659   0.059   6.849  1.4106  1.8055 -1.8609
 1832SOL    HW216956   0.545   0.125   6.904  1.2803 -1.5136  0.6561
 1833SOL     OW16957   2.974   0.826   2.309  0.3820  0.3835 -0.1166
 1833SOL    HW116958   2.914   0.765   2.352  1.4751 -0.0904  0.7667
 1833SOL    HW216959   3.055   0.777   2.293  0.9478  1.1285  0.4081
 1834SOL     OW16960   2.252   2.592  17.232 -0.0038  0.2195 -0.1727
 1834SOL    HW116961   2.289   2.651  17.298  3.6496 -0.2098 -1.8757
 1834SOL    HW216962   2.324   2.543  17.193  1.2401  0.8109  1.3983
 1835SOL     OW16963   1.800   2.017   5.756  0.1592  0.3410  0.4581
 1835SOL    HW116964   1.791   2.021   5.852  0.7872  1.0990  0.4806
 1835SOL    HW216965   1.709   2.018   5.727  0.8158 -1.8205 -1.6215
 1836SOL     OW16966   3.541   3.774  14.165  0.1001  0.3029 -0.0384
 1836SOL    HW116967   3.447   3.758  14.156  0.2171 -0.2822 -0.1780
 1836SOL    HW216968   3.540   3.837  14.237  1.3912  0.0372  0.2101
 1837SOL     OW16969   2.540   4.179   9.358 -0.6334 -0.3856  0.6056
 1837SOL    HW116970   2.522   4.226   9.440  0.4002 -1.8064  1.6448
 1837SOL    HW216971   2.470   4.114   9.349 -2.3388  1.7094 -1.2980
 1838SOL     OW16972   2.298   3.413  11.238  0.7435  0.7491 -0.2068
 1838SOL    HW116973   2.222   3.436  11.292 -0.2153  1.2274 -1.7732
 1838SOL    HW216974   2.366   3.466  11.279 -0.4445  0.9024  1.5839
 1839SOL     OW16975   3.732   2.507  10.027 -0.4849 -0.3269 -0.3690
 1839SOL    HW116976   3.742   2.460  10.110 -2.9381  1.6259  1.0616
 1839SOL    HW216977   3.640   2.533  10.021  0.0874  2.1984  1.3968
 1840SOL     OW16978   4.549   4.714   6.041 -0.3057 -0.2453 -0.4428
 1840SOL    HW116979   4.464   4.676   6.061  0.8423 -3.2309 -1.3004
 1840SOL    HW216980   4.517   0.080   6.029  1.5808  0.1517 -2.4929
 1841SOL     OW16981   3.435   3.677   2.988 -0.1586  0.8256 -0.0605
 1841SOL    HW116982   3.470   3.615   3.052 -0.5788  2.0693  1.3565
 1841SOL    HW216983   3.503   3.744   2.987  0.5681  0.0788 -1.0132
 1842SOL     OW16984   0.401   1.183   9.471 -0.5809  0.1516  0.7201
 1842SOL    HW116985   0.467   1.142   9.527  0.4846  0.7384 -0.0919
 1842SOL    HW216986   0.326   1.176   9.529  0.6842 -0.1762  2.3109
 1843SOL     OW16987   1.733   2.753  16.540  0.2033  0.0648  0.4424
 1843SOL    HW116988   1.647   2.739  16.581  0.1833  1.1449  0.7529
 1843SOL    HW216989   1.727   2.841  16.504 -2.0538  0.2831  1.2966
 1844SOL     OW16990   2.633   1.321   5.470 -0.3529  0.1902 -0.4292
 1844SOL    HW116991   2.681   1.350   5.547  0.6701  0.0319 -1.0038
 1844SOL    HW216992   2.662   1.388   5.408  2.0287  0.9479  1.4989
 1845SOL     OW16993   2.642   1.263   1.987 -0.6601  0.1948  0.2592
 1845SOL    HW116994   2.593   1.344   1.997 -1.5815 -0.3659  0.3564
 1845SOL    HW216995   2.706   1.296   1.925 -0.9929  0.5203  0.0937
 1846SOL     OW16996   1.019   4.278   5.312  0.3220  0.1149 -0.0317
 1846SOL    HW116997   1.008   4.189   5.279  0.7838  0.1845 -0.3655
 1846SOL    HW216998   1.112   4.297   5.316  0.1946  1.4817 -4.1072
 1847SOL     OW16999   2.923   2.469   8.408  0.0237 -0.4696  0.8717
 1847SOL    HW117000   2.935   2.562   8.388 -3.5289 -0.1245  0.3800
 1847SOL    HW217001   3.010   2.431   8.404 -0.0750 -0.4866 -1.2791
 1848SOL     OW17002   3.317   1.442   6.978  0.3859 -0.6685 -0.2679
 1848SOL    HW117003   3.308   1.490   6.896  1.7041 -3.4103 -1.9890
 1848SOL    HW217004   3.229   1.406   6.990 -0.0829  0.2537 -0.9236
 1849SOL     OW17005   2.072   0.400  13.838 -0.4189 -0.0489  0.8228
 1849SOL    HW117006   2.127   0.341  13.786 -0.3401 -0.0959  0.9592
 1849SOL    HW217007   2.123   0.479  13.822 -2.1077  1.0992  1.1344
 1850SOL     OW17008   3.383   2.139   6.346 -0.1777  0.1333  0.0000
 1850SOL    HW117009   3.472   2.138   6.311 -0.0390  0.5632  0.3376
 1850SOL    HW217010   3.351   2.048   6.345  0.6486 -0.1485 -0.6018
 1851SOL     OW17011   3.631   2.642   1.991 -0.1213  0.4000 -0.2782
 1851SOL    HW117012   3.617   2.554   1.957  0.6954 -0.2920  1.1383
 1851SOL    HW217013   3.540   2.664   2.011 -0.3746 -0.2131 -0.7544
 1852SOL     OW17014   1.631   3.360   3.469  0.2294  0.3629  0.1829
 1852SOL    HW117015   1.674   3.409   3.399 -1.1924 -0.8297 -1.5399
 1852SOL    HW217016   1.545   3.337   3.434  1.0017 -1.0740 -0.7946
 1853SOL     OW17017   3.844   0.899   7.230  0.0859  0.7222 -0.0227
 1853SOL    HW117018   3.754   0.894   7.262  0.6655 -1.6738  1.2140
 1853SOL    HW217019   3.847   0.817   7.179  0.8938 -0.1187  1.3958
 1854SOL     OW17020   0.742   3.211   2.619  0.1121 -0.1565 -0.7205
 1854SOL    HW117021   0.800   3.279   2.654 -0.8087  0.6771 -0.8129
 1854SOL    HW217022   0.727   3.151   2.693  0.7877  0.3042 -0.2021
 1855SOL     OW17023   3.281   3.838   3.414  0.3698 -0.0685 -0.5296
 1855SOL    HW117024   3.354   3.810   3.468 -0.2162 -0.9694 -0.2023
 1855SOL    HW217025   3.326   3.899   3.356 -0.0452  1.7378  1.0232
 1856SOL     OW17026   2.032   0.585   2.493 -0.2757 -0.1150  0.3414
 1856SOL    HW117027   2.003   0.535   2.417  2.5298 -0.1052 -0.7557
 1856SOL    HW217028   1.960   0.575   2.555 -0.8626 -0.1932 -0.3649
 1857SOL     OW17029   3.062   3.514   7.312 -0.4394  0.6189  0.3510
 1857SOL    HW117030   3.057   3.421   7.289 -1.4706  1.3296 -2.3743
 1857SOL    HW217031   3.035   3.557   7.230  2.4043  0.8436 -0.4572
 1858SOL     OW17032   2.988   4.192   7.891  0.1165  0.5806 -0.2325
 1858SOL    HW117033   2.988   4.179   7.796 -4.3058  2.3885 -0.4540
 1858SOL    HW217034   2.895   4.214   7.901  1.0221  3.5862  1.4944
 1859SOL     OW17035   0.779   3.538  10.709 -0.4450 -0.0587 -0.0629
 1859SOL    HW117036   0.835   3.490  10.647 -0.2654 -0.3805  0.3523
 1859SOL    HW217037   0.717   3.586  10.654 -2.0706 -1.8230  0.1890
 1860SOL     OW17038   0.517   0.961  11.363 -0.0032  0.7634  0.0801
 1860SOL    HW117039   0.584   0.899  11.391 -0.1339  1.0483  1.0118
 1860SOL    HW217040   0.571   1.014  11.305  1.5886 -1.2096 -0.2506
 1861SOL     OW17041   3.644   3.837   2.798 -0.0516  0.5003  0.0195
 1861SOL    HW117042   3.647   3.903   2.867 -2.3935 -0.1802  0.8064
 1861SOL    HW217043   3.701   3.886   2.740  0.3963  0.2966  0.2821
 1862SOL     OW17044   0.482   2.308   8.812 -0.7304 -0.0626  0.0080
 1862SOL    HW117045   0.514   2.303   8.902  0.7532 -3.1471 -0.6892
 1862SOL    HW217046   0.555   2.348   8.766  1.2018  0.8514  3.8472
 1863SOL     OW17047   2.123   4.504   9.819 -0.4195 -0.2387  0.0982
 1863SOL    HW117048   2.156   4.584   9.860 -0.6798  0.1505 -0.4561
 1863SOL    HW217049   2.029   4.511   9.839 -0.3214  1.1922  0.0053
 1864SOL     OW17050   1.584   0.245  17.652  0.0983 -0.0083 -0.1790
 1864SOL    HW117051   1.557   0.153  17.661  1.3389 -0.2317  1.1871
 1864SOL    HW217052   1.502   0.290  17.672 -0.4113 -1.0719  0.1011
 1865SOL     OW17053   1.234   2.695   5.159 -0.0437 -0.4107  0.5805
 1865SOL    HW117054   1.297   2.747   5.208  0.4475 -0.7833  0.3349
 1865SOL    HW217055   1.293   2.659   5.093 -1.2330  0.8117 -1.1635
 1866SOL     OW17056   1.903   0.282   7.681  0.0319 -0.6455  0.1608
 1866SOL    HW117057   1.858   0.241   7.607  1.6604 -2.7190  0.3097
 1866SOL    HW217058   1.911   0.205   7.737 -1.0278 -0.9579 -0.1207
 1867SOL     OW17059   0.475   4.234   6.406  0.3631 -0.2116 -0.3590
 1867SOL    HW117060   0.473   4.316   6.454 -1.4583 -0.8106  0.6022
 1867SOL    HW217061   0.568   4.210   6.407  0.7653  1.3108 -1.1595
 1868SOL     OW17062   2.310   3.083   9.415 -0.3153  0.2571 -0.3343
 1868SOL    HW117063   2.402   3.056   9.420 -0.2322  0.4813 -0.6211
 1868SOL    HW217064   2.271   3.057   9.498  0.8556 -1.0685 -0.2024
 1869SOL     OW17065   3.248   0.563   5.573  0.2013  0.0807 -0.3957
 1869SOL    HW117066   3.166   0.562   5.524  0.8504 -0.6653 -1.4604
 1869SOL    HW217067   3.294   0.484   5.547  0.6057 -0.3064  1.4895
 1870SOL     OW17068   3.989   0.694   4.716  0.0200  0.2995  0.0677
 1870SOL    HW117069   3.923   0.704   4.785  0.8638 -2.2844  1.2392
 1870SOL    HW217070   4.013   0.785   4.701 -1.7075  1.0096  1.5846
 1871SOL     OW17071   4.207   0.680  14.467 -0.2733 -0.1266 -0.2144
 1871SOL    HW117072   4.201   0.592  14.502 -0.0968 -0.0630 -0.0265
 1871SOL    HW217073   4.123   0.719  14.494  0.7046  1.5530  0.4100
 1872SOL     OW17074   0.738   1.226   1.430  0.2318  0.6006  0.2217
 1872SOL    HW117075   0.720   1.135   1.450  1.9923  0.2266  0.1023
 1872SOL    HW217076   0.803   1.220   1.360 -0.4185  3.5226 -0.6416
 1873SOL     OW17077   3.984   1.917   4.823 -0.2338  0.2381 -0.1012
 1873SOL    HW117078   4.048   1.984   4.848 -0.6766  0.7411 -0.3180
 1873SOL    HW217079   3.950   1.892   4.909  2.6217 -2.3187  0.2904
 1874SOL     OW17080   0.984   4.318  17.618 -0.1407 -0.4111  0.1425
 1874SOL    HW117081   0.940   4.319   0.007  1.6217 -0.5371  1.0514
 1874SOL    HW217082   1.061   4.268  17.645  0.0507  0.5573  1.4305
 1875SOL     OW17083   2.173   2.895   9.895 -0.2242  0.0327  0.2649
 1875SOL    HW117084   2.091   2.894   9.945 -0.5115  0.8938 -0.1822
 1875SOL    HW217085   2.179   2.801   9.882  1.7674  0.2878 -0.5851
 1876SOL     OW17086   1.669   4.710   4.675  0.0798  0.3564 -0.2434
 1876SOL    HW117087   1.588   4.676   4.713  0.9565 -0.8740  0.5159
 1876SOL    HW217088   1.635   0.069   4.639 -1.0433  0.6304  1.4687
 1877SOL     OW17089   0.379   2.676  13.862  0.7010 -0.2268 -0.2977
 1877SOL    HW117090   0.421   2.616  13.924  1.8747  2.7736  1.8600
 1877SOL    HW217091   0.450   2.663  13.799  2.9296 -0.3858  2.2133
 1878SOL     OW17092   1.281   2.636   9.448 -0.4042 -0.0456 -0.6648
 1878SOL    HW117093   1.323   2.561   9.490 -1.2437  0.1194  0.4905
 1878SOL    HW217094   1.238   2.583   9.381 -0.3238 -1.4064  0.3327
 1879SOL     OW17095   0.572   1.240  10.642  0.1403 -0.3366 -0.4321
 1879SOL    HW117096   0.615   1.222  10.559  1.4253  0.3311  0.0713
 1879SOL    HW217097   0.573   1.336  10.631  0.6186 -0.2054  0.7216
 1880SOL     OW17098   1.882   0.728   2.234  0.1370 -0.2387  0.3515
 1880SOL    HW117099   1.872   0.721   2.139 -2.3868  0.7542  0.5353
 1880SOL    HW217100   1.893   0.638   2.264  0.7744 -0.5849 -0.9111
 1881SOL     OW17101   2.407   2.965  13.473  0.1886  0.1003 -0.2118
 1881SOL    HW117102   2.352   2.931  13.544  2.0683 -2.7394 -0.1308
 1881SOL    HW217103   2.434   3.042  13.524  0.7710 -0.5942  0.5232
 1882SOL     OW17104   2.366   3.148   5.013 -0.0619  0.1866 -0.3070
 1882SOL    HW117105   2.428   3.111   5.075  0.5138  1.3559 -0.1935
 1882SOL    HW217106   2.286   3.148   5.065  0.0700 -0.6248 -0.1002
 1883SOL     OW17107   4.372   2.812   5.154  0.9015  0.0022  0.0725
 1883SOL    HW117108   4.318   2.750   5.202 -1.1428  0.3472 -1.7875
 1883SOL    HW217109   4.410   2.860   5.228 -3.5538  0.2666  2.1939
 1884SOL     OW17110   1.781   0.692   6.097 -0.3410 -0.2080  0.3372
 1884SOL    HW117111   1.737   0.777   6.089  2.3463  1.1117 -0.4960
 1884SOL    HW217112   1.709   0.629   6.087 -0.9870  0.5507  0.1809
 1885SOL     OW17113   4.472   2.737   9.813  0.2471  0.6157 -0.3593
 1885SOL    HW117114   4.447   2.829   9.822 -1.8133  0.0094 -0.0379
 1885SOL    HW217115   4.386   2.696   9.815 -1.0757  3.2963 -1.3082
 1886SOL     OW17116   4.049   1.548   5.219  0.0314  0.0330 -0.3460
 1886SOL    HW117117   4.115   1.589   5.163  0.2616 -0.8095 -0.6899
 1886SOL    HW217118   4.026   1.473   5.164  1.5791 -1.8045  1.5162
 1887SOL     OW17119   1.161   2.748   6.632  0.1567  0.1862 -0.1379
 1887SOL    HW117120   1.123   2.789   6.554  2.0929 -0.0399 -1.2026
 1887SOL    HW217121   1.255   2.768   6.630  0.1143  0.4555  0.5160
 1888SOL     OW17122   4.230   2.846   0.120 -0.0316  0.2478  0.4218
 1888SOL    HW117123   4.162   2.855   0.187 -1.9015  0.0990 -1.4789
 1888SOL    HW217124   4.277   2.930   0.121 -0.3645  0.4295  0.5432
 1889SOL     OW17125   1.414   1.057   9.349 -0.1654 -0.0754 -0.0010
 1889SOL    HW117126   1.404   1.144   9.388 -0.0074 -0.1398  0.1815
 1889SOL    HW217127   1.372   1.086   9.268 -2.8843 -2.3195  0.6275
 1890SOL     OW17128   4.504   0.112   2.432 -0.3006  0.8365  0.3510
 1890SOL    HW117129   4.463   0.130   2.347  0.0641 -1.1977 -0.2524
 1890SOL    HW217130   4.559   0.190   2.438  1.1763 -0.2909  1.4875
 1891SOL     OW17131   3.962   4.111  10.106 -0.4970  0.1175  0.1821
 1891SOL    HW117132   3.995   4.040  10.161  2.2264 -0.3061 -2.0150
 1891SOL    HW217133   4.036   4.123  10.047 -0.1958 -0.4133  0.4498
 1892SOL     OW17134   3.393   3.664   4.747  0.4422 -0.1054 -0.4984
 1892SOL    HW117135   3.400   3.586   4.693 -0.0740  1.8595 -3.4236
 1892SOL    HW217136   3.352   3.724   4.684  0.1559 -0.5839 -0.7637
 1893SOL     OW17137   0.247   3.023   3.748 -0.1905  0.0720 -1.1031
 1893SOL    HW117138   0.204   3.108   3.754  0.2467  0.3913 -2.3358
 1893SOL    HW217139   0.173   2.965   3.726 -0.8962  0.4647  0.2770
 1894SOL     OW17140   0.037   4.709  14.004  0.2992 -0.0123 -0.2826
 1894SOL    HW117141   0.116   4.658  14.024 -0.3664 -0.8598  0.2287
 1894SOL    HW217142   4.699   4.649  14.046 -0.8171  1.5188  0.2611
 1895SOL     OW17143   3.936   2.151   7.689 -0.2138 -0.1175  0.0235
 1895SOL    HW117144   3.859   2.205   7.704 -1.2299 -2.3086  2.5005
 1895SOL    HW217145   3.901   2.114   7.608  1.9187 -0.0885 -0.9055
 1896SOL     OW17146   4.300   3.518  14.144  0.4777  0.4251  0.0322
 1896SOL    HW117147   4.350   3.496  14.223  0.3740  2.1653  0.5971
 1896SOL    HW217148   4.212   3.522  14.181  0.5804  1.6684  0.1379
 1897SOL     OW17149   4.012   1.264  17.570  0.8306  0.6244  0.1620
 1897SOL    HW117150   3.959   1.299  17.642  0.1732 -0.3711  0.1789
 1897SOL    HW217151   3.986   1.172  17.583 -0.6422  1.0001 -0.1037
 1898SOL     OW17152   3.299   3.918   8.055 -0.4618 -0.7396  0.2606
 1898SOL    HW117153   3.336   3.959   8.133 -0.1867  0.3927 -0.4756
 1898SOL    HW217154   3.219   3.884   8.096 -1.0107  1.0343  0.6424
 1899SOL     OW17155   1.979   2.064  15.358 -0.5159  0.3335  0.0765
 1899SOL    HW117156   2.053   2.099  15.406 -0.8414  1.3405 -0.1510
 1899SOL    HW217157   2.022   2.005  15.296  0.4597 -2.0083  3.0161
 1900SOL     OW17158   1.923   4.289   7.546 -0.7828 -0.0589  0.2261
 1900SOL    HW117159   1.908   4.320   7.635  0.1871 -0.4191  0.5204
 1900SOL    HW217160   1.896   4.201   7.571 -1.5576 -0.1531 -0.9632
 1901SOL     OW17161   4.407   4.577   7.984  0.2027 -0.4730 -0.2911
 1901SOL    HW117162   4.477   4.567   7.919  0.6225 -0.9762  0.2388
 1901SOL    HW217163   4.358   4.653   7.955 -1.5114 -2.1049 -1.6663
 1902SOL     OW17164   3.156   2.529  15.346 -0.1390 -0.4231 -0.5857
 1902SOL    HW117165   3.079   2.498  15.393  0.4749 -1.1882 -0.0624
 1902SOL    HW217166   3.146   2.624  15.345 -0.5034 -0.4835 -2.1937
 1903SOL     OW17167   2.660   3.145  16.283 -0.8992 -0.1293 -0.2296
 1903SOL    HW117168   2.739   3.189  16.311  0.4702 -3.9384  1.9474
 1903SOL    HW217169   2.659   3.171  16.191 -0.1417 -2.7852 -1.0034
 1904SOL     OW17170   0.749   2.485   8.064 -0.2818  0.3200  0.2920
 1904SOL    HW117171   0.666   2.532   8.070  0.3688  1.6361 -1.0035
 1904SOL    HW217172   0.727   2.421   7.995  2.0961 -0.5633  0.3470
 1905SOL     OW17173   2.835   2.288   0.689  0.2742 -0.3871  0.3624
 1905SOL    HW117174   2.905   2.313   0.748 -0.0706 -0.6994  0.9033
 1905SOL    HW217175   2.840   2.194   0.707 -0.5521 -0.0721  2.1876
 1906SOL     OW17176   2.838   4.055   3.178  0.1801  0.2808 -0.2661
 1906SOL    HW117177   2.846   3.960   3.176 -0.3378  0.2341 -0.0597
 1906SOL    HW217178   2.811   4.081   3.090 -1.0418  0.7741  0.2607
 1907SOL     OW17179   4.491   2.304   8.086  0.1430  0.2697 -0.0242
 1907SOL    HW117180   4.512   2.260   8.169  3.6700  0.5008 -0.7960
 1907SOL    HW217181   4.573   2.300   8.037 -0.6241 -1.0206 -1.2071
 1908SOL     OW17182   2.526   0.984   8.844 -0.2416 -0.4462 -0.6197
 1908SOL    HW117183   2.572   0.968   8.762 -0.9814 -3.5729 -0.4329
 1908SOL    HW217184   2.449   0.929   8.828 -0.3070 -0.2976 -0.8050
 1909SOL     OW17185   3.897   1.407   2.279  0.2102  0.4947  0.1404
 1909SOL    HW117186   3.860   1.390   2.193 -0.1575 -0.6392  0.5200
 1909SOL    HW217187   3.818   1.443   2.320 -0.8266  0.4153 -1.8203
 1910SOL     OW17188   3.240   2.998  13.105  0.6835 -0.1130 -0.0860
 1910SOL    HW117189   3.222   3.092  13.101 -1.9579 -0.6487 -0.8565
 1910SOL    HW217190   3.161   2.964  13.064 -0.4155  4.1664 -1.5059
 1911SOL     OW17191   4.102   3.462  14.968 -0.0912 -0.0741  0.2054
 1911SOL    HW117192   4.178   3.519  14.962 -1.0034  1.2549  1.2124
 1911SOL    HW217193   4.149   3.401  15.025 -2.6961 -0.7232  1.6810
 1912SOL     OW17194   1.349   3.843   6.772  0.5533 -0.3220 -0.3140
 1912SOL    HW117195   1.403   3.821   6.697  0.7578  1.3943 -0.6741
 1912SOL    HW217196   1.407   3.875   6.842 -2.1842 -0.0108  1.8323
 1913SOL     OW17197   0.641   0.329  13.028  0.4452  0.1227 -0.2274
 1913SOL    HW117198   0.723   0.297  13.065  0.8089  2.9876  1.4741
 1913SOL    HW217199   0.666   0.330  12.936  0.1131 -1.4481 -0.3395
 1914SOL     OW17200   2.570   0.159  17.060 -0.2421 -0.0693  0.0255
 1914SOL    HW117201   2.598   0.105  17.135 -0.2172  3.8263  2.8274
 1914SOL    HW217202   2.609   0.116  16.984  2.5471  2.0234  0.2526
 1915SOL     OW17203   0.675   4.353   7.611 -0.3678  0.3617 -0.3133
 1915SOL    HW117204   0.684   4.448   7.601 -1.3521  0.7874  3.0129
 1915SOL    HW217205   0.650   4.338   7.702 -2.7791  0.2084 -1.0060
 1916SOL     OW17206   1.200   1.396   2.495 -0.8562  0.5050  0.5874
 1916SOL    HW117207   1.158   1.462   2.439  2.3232  1.6311 -0.4825
 1916SOL    HW217208   1.186   1.430   2.583  0.7045  0.6100  0.8050
 1917SOL     OW17209   2.374   4.527   9.704 -0.0580  0.0625  0.4138
 1917SOL    HW117210   2.391   4.602   9.761  0.7724 -0.4414  0.8183
 1917SOL    HW217211   2.290   4.494   9.735 -1.0174  0.2477 -2.0369
 1918SOL     OW17212   1.100   4.352  14.550  0.1997 -0.3739 -0.2564
 1918SOL    HW117213   1.041   4.307  14.489 -0.5722 -0.2227  0.3925
 1918SOL    HW217214   1.175   4.347  14.490 -0.9186  2.8727 -1.9217
 1919SOL     OW17215   1.313   4.269   9.053  0.5337 -0.1706 -0.3761
 1919SOL    HW117216   1.341   4.179   9.037 -1.9718 -1.5329  2.8675
 1919SOL    HW217217   1.349   4.291   9.139  0.5386 -0.4021 -0.3200
 1920SOL     OW17218   1.058   1.565   1.954  0.2568  0.1223  0.1893
 1920SOL    HW117219   0.972   1.605   1.942  0.6287 -0.3635 -3.8801
 1920SOL    HW217220   1.090   1.543   1.867  1.9337 -0.5102  0.9554
 1921SOL     OW17221   0.025   0.964  11.257  0.1269  0.5803  0.0323
 1921SOL    HW117222   0.098   1.003  11.306 -0.1224 -1.4443  1.9725
 1921SOL    HW217223   4.692   0.948  11.333  0.1411 -0.6146 -0.2077
 1922SOL     OW17224   0.649   4.392   7.921  0.0419  0.7106  0.3557
 1922SOL    HW117225   0.633   4.319   7.980  2.2238  1.5987  2.0463
 1922SOL    HW217226   0.653   4.460   7.988  2.0650 -0.1078  1.0474
 1923SOL     OW17227   2.119   0.691   9.461 -0.7048 -0.3348 -0.3243
 1923SOL    HW117228   2.169   0.621   9.419 -0.9025 -0.2438 -0.7098
 1923SOL    HW217229   2.029   0.659   9.471 -1.2702  0.9445 -1.3606
 1924SOL     OW17230   2.626   0.332   1.417 -0.1357 -0.3145  0.5308
 1924SOL    HW117231   2.537   0.307   1.393 -0.2234  0.1473  0.3590
 1924SOL    HW217232   2.680   0.254   1.430  0.4928  0.0603  0.1905
 1925SOL     OW17233   2.674   1.448   5.201 -0.1475  0.5171 -0.5620
 1925SOL    HW117234   2.745   1.508   5.179  0.4512 -0.1164 -0.3817
 1925SOL    HW217235   2.678   1.386   5.128 -1.6603  0.6785 -0.7821
 1926SOL     OW17236   4.703   0.732  10.964  0.5534  0.2282  0.3232
 1926SOL    HW117237   4.646   0.776  11.027 -0.3193 -1.5586  0.7771
 1926SOL    HW217238   0.004   0.653  11.012 -1.0581 -0.7032 -0.3746
 1927SOL     OW17239   2.091   4.409   8.598  0.0903 -0.2696  0.4306
 1927SOL    HW117240   2.146   4.476   8.557 -0.5155 -0.5710 -0.8925
 1927SOL    HW217241   2.020   4.404   8.534  0.4666  2.0293 -0.1928
 1928SOL     OW17242   0.387   0.200   7.710 -0.1790  0.0113  0.2028
 1928SOL    HW117243   0.467   0.253   7.711 -0.1170 -0.1038  1.2347
 1928SOL    HW217244   0.423   0.112   7.715  0.4654  0.3787  1.8885
 1929SOL     OW17245   3.947   2.374   8.766  0.2809 -0.1059 -0.2102
 1929SOL    HW117246   3.908   2.323   8.837 -0.7928 -2.2009 -2.3353
 1929SOL    HW217247   3.917   2.321   8.693 -0.9420  0.0701  0.1640
 1930SOL     OW17248   1.005   0.098   2.127 -0.2539 -0.4470  0.0910
 1930SOL    HW117249   1.037   0.061   2.209  0.2986  1.5890  0.7826
 1930SOL    HW217250   0.914   0.068   2.125 -0.6326  0.7333 -0.5015
 1931SOL     OW17251   3.208   3.021   3.660 -0.0713 -0.2554  0.4364
 1931SOL    HW117252   3.271   3.070   3.608  0.3797 -1.9733 -0.6347
 1931SOL    HW217253   3.235   2.929   3.666 -0.4761 -0.3871  0.2523
 1932SOL     OW17254   0.670   1.160   7.780 -0.7470  0.3300 -0.0288
 1932SOL    HW117255   0.714   1.107   7.846  0.1715  0.2296 -0.7199
 1932SOL    HW217256   0.661   1.101   7.705 -0.8280  0.6376 -0.2608
 1933SOL     OW17257   3.559   4.472  13.173 -0.1547  0.1622  0.1113
 1933SOL    HW117258   3.577   4.383  13.202  1.8397  0.0053 -1.7004
 1933SOL    HW217259   3.467   4.479  13.198 -0.5815 -2.1107 -0.9253
 1934SOL     OW17260   3.016   0.157   6.225 -0.0273  0.9457 -0.2740
 1934SOL    HW117261   3.070   0.202   6.290  0.8629 -0.7337  0.1585
 1934SOL    HW217262   2.946   0.133   6.285 -0.1674 -1.5295 -1.4142
 1935SOL     OW17263   0.812   2.451   3.084 -0.0837 -0.4130 -0.1827
 1935SOL    HW117264   0.778   2.500   3.159 -2.5007 -1.4832 -0.5659
 1935SOL    HW217265   0.865   2.390   3.135 -0.7982  0.0162  1.0916
 1936SOL     OW17266   0.492   2.241   5.567  0.1028 -0.3212  0.3669
 1936SOL    HW117267   0.498   2.146   5.570  0.1739 -0.2695  1.6013
 1936SOL    HW217268   0.413   2.245   5.512  0.7981  0.5625 -0.5686
 1937SOL     OW17269   0.640   4.715  14.018 -0.8041 -0.5003 -0.4793
 1937SOL    HW117270   0.612   4.690  14.106 -1.2672 -0.3031 -0.5680
 1937SOL    HW217271   0.559   0.029  13.983 -1.5525 -2.3474 -0.7542
 1938SOL     OW17272   0.238   0.959   2.627 -0.2213 -0.1446 -0.4998
 1938SOL    HW117273   0.185   0.889   2.666 -1.3168  0.5754 -0.7067
 1938SOL    HW217274   0.171   1.016   2.591 -0.7537  0.1638  0.9598
 1939SOL     OW17275   4.047   1.860   4.577  0.3636 -0.2935  0.2241
 1939SOL    HW117276   4.004   1.927   4.523 -1.7001 -0.2016  1.9721
 1939SOL    HW217277   4.008   1.877   4.663 -0.7567 -0.0967 -0.3186
 1940SOL     OW17278   3.647   0.937   8.760 -0.3553  0.3975 -0.5803
 1940SOL    HW117279   3.612   0.848   8.772  0.8989 -0.1026 -0.6461
 1940SOL    HW217280   3.587   0.973   8.694 -3.3982 -3.4480  0.0188
 1941SOL     OW17281   2.260   2.481   2.746 -0.5929  0.6487 -0.0392
 1941SOL    HW117282   2.317   2.529   2.686  1.8214  0.4292  2.0445
 1941SOL    HW217283   2.326   2.433   2.797  0.1845 -0.4508 -2.1001
 1942SOL     OW17284   2.558   0.436   7.709 -0.0340 -0.0947 -0.1154
 1942SOL    HW117285   2.602   0.452   7.792 -0.9811 -3.0551  0.9898
 1942SOL    HW217286   2.545   0.527   7.683  0.2312  0.0944  0.4081
 1943SOL     OW17287   0.608   2.979   4.667 -0.7462 -0.0226 -0.3214
 1943SOL    HW117288   0.696   2.955   4.641 -0.1440  1.1224  0.6660
 1943SOL    HW217289   0.575   2.892   4.691  2.1600 -0.5908  1.5374
 1944SOL     OW17290   2.553   2.748   2.191 -0.0973  0.4233 -0.1488
 1944SOL    HW117291   2.575   2.708   2.107  2.6586 -0.7114  1.1314
 1944SOL    HW217292   2.585   2.681   2.250 -0.0954  1.4460  0.9975
 1945SOL     OW17293   1.092   0.467  17.362 -0.3555  0.6863  0.2822
 1945SOL    HW117294   1.053   0.543  17.319 -2.1458  1.2272  2.8314
 1945SOL    HW217295   1.122   0.411  17.290 -0.0117  1.3160 -0.0595
 1946SOL     OW17296   2.315   3.488   3.713  0.4658  0.2051 -0.1641
 1946SOL    HW117297   2.401   3.525   3.732 -0.1945  0.9750  1.2999
 1946SOL    HW217298   2.294   3.516   3.624 -0.8188 -0.4857 -0.0858
 1947SOL     OW17299   2.250   0.316  14.958  0.4888  0.6412  0.1442
 1947SOL    HW117300   2.267   0.344  14.868 -3.2038 -1.5186 -1.2473
 1947SOL    HW217301   2.289   0.229  14.947 -0.1892  0.2883  0.5112
 1948SOL     OW17302   4.379   2.073   6.841 -0.0789  0.1452  0.2951
 1948SOL    HW117303   4.418   1.999   6.887 -1.5975 -0.8787 -0.0524
 1948SOL    HW217304   4.376   2.143   6.907  1.1150 -1.1525  1.7293
 1949SOL     OW17305   0.833   3.663   2.729  0.0625 -0.2577 -0.2365
 1949SOL    HW117306   0.764   3.687   2.790  0.0042 -0.2309 -0.3133
 1949SOL    HW217307   0.800   3.702   2.648  0.5986 -2.5094 -1.5361
 1950SOL     OW17308   0.041   1.051   8.897 -0.2695 -0.2564  0.5196
 1950SOL    HW117309   0.028   0.958   8.878  0.3669 -0.5796  1.7098
 1950SOL    HW217310   0.028   1.050   8.991  1.0261  0.9888  0.7178
 1951SOL     OW17311   2.528   3.659   5.979 -0.1937 -0.1124  0.4248
 1951SOL    HW117312   2.566   3.721   6.041 -0.6877 -0.0251  0.6447
 1951SOL    HW217313   2.552   3.577   6.022 -0.7993 -0.9797 -0.8987
 1952SOL     OW17314   3.507   0.068   3.680 -0.0617  0.0237 -0.3581
 1952SOL    HW117315   3.523   0.161   3.668 -0.5782  0.1986  0.2746
 1952SOL    HW217316   3.421   0.052   3.642 -1.3225  0.6025  2.2408
 1953SOL     OW17317   4.329   4.345   6.596  0.2356  0.4472  0.3915
 1953SOL    HW117318   4.405   4.402   6.599  3.0940 -3.3116 -0.0986
 1953SOL    HW217319   4.363   4.281   6.658  0.5932  1.1610  0.9329
 1954SOL     OW17320   1.572   0.258   6.832 -0.1868  0.3212  0.2233
 1954SOL    HW117321   1.528   0.201   6.895 -3.5375  3.0552  0.3533
 1954SOL    HW217322   1.648   0.206   6.806  1.0974  2.2889  0.0423
 1955SOL     OW17323   2.031   0.456   3.439  0.2575 -0.2938  0.1919
 1955SOL    HW117324   2.045   0.535   3.387  1.5804 -1.3398 -1.0464
 1955SOL    HW217325   2.038   0.392   3.368 -1.1196 -0.6265  0.3454
 1956SOL     OW17326   0.116   3.106   6.163  0.2718  0.6576 -0.6523
 1956SOL    HW117327   0.154   3.146   6.242  0.6674 -0.2823 -0.3570
 1956SOL    HW217328   0.170   3.027   6.162 -1.9720 -0.8766 -0.4497
 1957SOL     OW17329   2.556   3.294   1.239  0.0409  0.9251 -0.1990
 1957SOL    HW117330   2.637   3.244   1.251  0.6540  1.7974 -0.7076
 1957SOL    HW217331   2.536   3.282   1.146  2.8488 -0.5385 -0.6210
 1958SOL     OW17332   0.541   0.230  17.217  0.0893 -0.0612  0.1858
 1958SOL    HW117333   0.637   0.234  17.226  0.3682  0.6342 -3.0311
 1958SOL    HW217334   0.518   0.296  17.282 -0.1213  0.7956 -0.7665
 1959SOL     OW17335   3.604   1.037   0.647 -0.2558 -0.1812 -0.4345
 1959SOL    HW117336   3.514   1.011   0.664 -0.6554  2.2860  1.1459
 1959SOL    HW217337   3.634   0.966   0.589 -1.5475  0.7957 -2.2790
 1960SOL     OW17338   3.835   2.932   2.134 -0.2480  0.4920  0.5314
 1960SOL    HW117339   3.919   2.972   2.160 -0.0903  0.2298  0.4178
 1960SOL    HW217340   3.774   3.004   2.117 -0.9661  0.0226  1.1168
 1961SOL     OW17341   2.926   3.980  13.773 -0.0177 -0.4330  0.1024
 1961SOL    HW117342   2.991   4.011  13.836 -0.3060 -0.7564  0.5636
 1961SOL    HW217343   2.853   4.036  13.799 -1.5047 -1.0073 -2.9017
 1962SOL     OW17344   3.746   2.948  16.833  0.4698  0.3765 -0.1134
 1962SOL    HW117345   3.786   3.011  16.893  1.5207  0.3831 -0.8183
 1962SOL    HW217346   3.734   3.008  16.759 -2.5439 -0.3755 -0.2082
 1963SOL     OW17347   4.279   0.886   2.211 -0.2074  0.5287  0.3150
 1963SOL    HW117348   4.367   0.919   2.229  0.3216 -1.7123  1.8596
 1963SOL    HW217349   4.280   0.819   2.279  0.3676 -0.6121 -0.8190
 1964SOL     OW17350   0.932   3.157   4.397  0.0347  0.1798 -0.1653
 1964SOL    HW117351   0.973   3.113   4.471 -0.2458  1.8342  0.9856
 1964SOL    HW217352   0.851   3.106   4.391 -0.1015  0.2386  1.3484
 1965SOL     OW17353   4.099   3.454   9.289  0.1377  0.2089  0.6370
 1965SOL    HW117354   4.083   3.441   9.196  2.7586 -1.0200  0.3604
 1965SOL    HW217355   4.170   3.390   9.296  2.4627  2.5422 -1.6202
 1966SOL     OW17356   1.072   4.635   2.752 -0.2053  0.0948 -0.2783
 1966SOL    HW117357   1.123   4.624   2.671 -1.5856  0.3963 -1.1893
 1966SOL    HW217358   1.146   4.614   2.809 -1.5107 -0.8370  1.0423
 1967SOL     OW17359   1.410   2.019   3.235 -0.0582 -0.0726 -0.3580
 1967SOL    HW117360   1.330   2.013   3.287  0.8021  0.9811  1.0934
 1967SOL    HW217361   1.379   2.027   3.145 -1.4929  0.3594  0.1695
 1968SOL     OW17362   2.061   3.845   9.753 -0.2124  0.3234  0.2242
 1968SOL    HW117363   2.120   3.858   9.828  1.2621 -1.7715 -0.5776
 1968SOL    HW217364   2.020   3.931   9.749 -0.7530  0.1016  0.9681
 1969SOL     OW17365   3.552   3.494   3.920 -0.8322 -0.5428  0.2270
 1969SOL    HW117366   3.470   3.478   3.872 -1.6027  1.6022  0.8260
 1969SOL    HW217367   3.538   3.456   4.008  2.5332  1.9597  1.8106
 1970SOL     OW17368   0.076   4.089   8.108 -0.3150 -0.3493  0.3661
 1970SOL    HW117369   4.717   4.048   8.135  0.7353 -1.9153  1.2034
 1970SOL    HW217370   0.137   4.039   8.162 -0.1758 -1.1123 -0.4971
 1971SOL     OW17371   0.889   0.369   4.283  0.5298  0.5679  0.0990
 1971SOL    HW117372   0.907   0.275   4.287  0.7501  0.5107 -2.3658
 1971SOL    HW217373   0.794   0.373   4.271  0.2868  0.1445  1.8539
 1972SOL     OW17374   1.373   2.496   2.014 -0.1796 -0.4540 -0.2070
 1972SOL    HW117375   1.449   2.456   2.057  0.0180  0.0490 -0.0856
 1972SOL    HW217376   1.305   2.468   2.075 -1.0238  1.9313 -0.0845
 1973SOL     OW17377   1.772   4.160   3.100 -0.4026 -0.4930  0.5866
 1973SOL    HW117378   1.817   4.151   3.016 -1.8563 -0.0079 -0.2482
 1973SOL    HW217379   1.687   4.190   3.067 -0.1637 -0.9274 -0.4280
 1974SOL     OW17380   0.528   0.539   3.848  0.0803 -0.1295  0.0744
 1974SOL    HW117381   0.481   0.471   3.800 -0.3221  0.3792 -0.2599
 1974SOL    HW217382   0.615   0.549   3.810  0.3469  0.0921  0.7421
 1975SOL     OW17383   1.473   4.110   4.431  0.3206  0.4990 -0.3749
 1975SOL    HW117384   1.381   4.083   4.436  0.0989  1.2488 -0.3412
 1975SOL    HW217385   1.455   4.200   4.403  0.6007 -0.0495 -2.2848
 1976SOL     OW17386   0.715   3.912   1.833 -0.1239 -0.3306 -0.2428
 1976SOL    HW117387   0.623   3.900   1.807  0.2138 -2.2966 -0.5558
 1976SOL    HW217388   0.754   3.965   1.764  1.1376  1.4560  1.8360
 1977SOL     OW17389   1.165   1.459   1.212 -0.3247  0.4170 -0.3854
 1977SOL    HW117390   1.190   1.493   1.298 -1.8030  0.2542  0.1083
 1977SOL    HW217391   1.250   1.466   1.168  0.6329  1.4296  1.6124
 1978SOL     OW17392   4.402   2.714  12.701  0.3747  0.4652  0.1209
 1978SOL    HW117393   4.333   2.779  12.719  0.3848  0.9806 -1.7742
 1978SOL    HW217394   4.470   2.753  12.756 -1.0573  1.2563  1.3498
 1979SOL     OW17395   1.348   0.922  14.440 -0.0481 -0.0135  0.4729
 1979SOL    HW117396   1.398   0.863  14.497  1.4915 -0.0601 -0.9004
 1979SOL    HW217397   1.272   0.944  14.493  0.6509  1.3099  0.9274
 1980SOL     OW17398   3.691   2.508   7.885  0.1033 -0.6183 -0.5102
 1980SOL    HW117399   3.753   2.491   7.956 -1.8984  0.9030  1.5932
 1980SOL    HW217400   3.619   2.546   7.937  3.0891  1.1303  2.3455
 1981SOL     OW17401   2.025   1.010   8.085 -0.4865 -0.3619  0.0852
 1981SOL    HW117402   2.032   0.918   8.060  2.0634 -0.4563  1.1769
 1981SOL    HW217403   2.114   1.029   8.115 -0.3399  1.8387 -1.7767
 1982SOL     OW17404   0.339   0.918   9.697 -0.2262  0.2095 -0.3737
 1982SOL    HW117405   0.419   0.963   9.671  0.9671 -0.1016  2.7366
 1982SOL    HW217406   0.324   0.949   9.786 -2.8036 -0.1462 -0.6902
 1983SOL     OW17407   1.621   0.125   5.320  0.5558 -0.4200  0.1750
 1983SOL    HW117408   1.656   0.055   5.264  0.6265 -0.5247  0.3521
 1983SOL    HW217409   1.530   0.119   5.289 -0.2840  2.9448  2.0001
 1984SOL     OW17410   2.363   3.394   7.777  0.3318  0.2979 -0.6861
 1984SOL    HW117411   2.452   3.428   7.792 -0.2142  1.2630  0.4155
 1984SOL    HW217412   2.378   3.302   7.757 -1.8916 -0.3151  0.4279
 1985SOL     OW17413   2.078   4.618  12.149  0.2924 -0.2569  0.2050
 1985SOL    HW117414   2.133   4.631  12.071 -4.0301  0.4404 -2.7420
 1985SOL    HW217415   2.078   4.523  12.161  0.9685 -0.0364  1.9198
 1986SOL     OW17416   2.404   4.052  16.960  0.5253 -0.0078  0.2131
 1986SOL    HW117417   2.400   4.147  16.972  0.1258 -0.2286  1.7443
 1986SOL    HW217418   2.414   4.044  16.865  2.2847  0.8487  0.3177
 1987SOL     OW17419   1.183   0.820  16.588 -0.0618 -0.0683 -0.0492
 1987SOL    HW117420   1.121   0.799  16.658 -0.4772 -1.6094 -0.8893
 1987SOL    HW217421   1.223   0.734  16.575  0.2097  0.0146  0.2445
 1988SOL     OW17422   3.267   2.295   2.033  0.3728  0.5744 -0.0253
 1988SOL    HW117423   3.308   2.298   1.946  2.9511 -0.8950  1.1491
 1988SOL    HW217424   3.287   2.208   2.065 -0.0865  1.0687  1.5832
 1989SOL     OW17425   4.493   2.341   8.475 -0.4005  0.2680  0.2826
 1989SOL    HW117426   4.503   2.272   8.409  0.2220 -2.0395  2.8062
 1989SOL    HW217427   4.577   2.318   8.514 -0.2506  0.2524 -0.0456
 1990SOL     OW17428   0.237   2.771  10.610 -0.3410 -0.1560  0.1404
 1990SOL    HW117429   0.159   2.753  10.663  0.0025 -0.7687  0.4389
 1990SOL    HW217430   0.300   2.748  10.679 -1.0847  2.0099  1.5717
 1991SOL     OW17431   4.148   1.444  14.295 -0.8876 -0.0197  0.0585
 1991SOL    HW117432   4.232   1.472  14.260 -0.6639 -2.3337 -1.2421
 1991SOL    HW217433   4.163   1.451  14.389  0.0553 -0.6317 -0.0432
 1992SOL     OW17434   1.019   0.690  11.778  0.3491 -0.1475 -0.2342
 1992SOL    HW117435   0.964   0.664  11.851  0.8476  0.3697  0.3222
 1992SOL    HW217436   0.959   0.739  11.722 -3.1553 -2.2221  1.7127
 1993SOL     OW17437   0.243   0.831   7.597  0.0528 -0.4375 -0.3100
 1993SOL    HW117438   0.291   0.850   7.516  0.6855 -0.3586  0.0777
 1993SOL    HW217439   0.286   0.889   7.660 -1.1206  0.2371 -0.1399
 1994SOL     OW17440   3.989   0.207   4.391  0.1885  0.2345  0.0177
 1994SOL    HW117441   4.049   0.227   4.319 -0.2115  1.4365  0.0158
 1994SOL    HW217442   4.020   0.121   4.421 -1.1111 -0.2688 -0.0752
 1995SOL     OW17443   2.363   3.077   3.444  0.3533 -0.4836 -0.1740
 1995SOL    HW117444   2.429   3.007   3.441 -1.1948 -1.8596 -1.7688
 1995SOL    HW217445   2.411   3.129   3.508  0.2567 -0.7212  0.0904
 1996SOL     OW17446   3.877   2.596  15.163  0.3423  0.1438  0.5383
 1996SOL    HW117447   3.893   2.685  15.195 -0.6141 -0.3551  2.3872
 1996SOL    HW217448   3.952   2.548  15.196  0.5101  0.7994  1.1068
 1997SOL     OW17449   0.246   0.907  12.967  0.5506 -0.2030  0.3503
 1997SOL    HW117450   0.227   0.849  12.893 -0.0124 -1.4146  1.4735
 1997SOL    HW217451   0.332   0.875  12.996  0.3249 -3.7680 -2.9504
 1998SOL     OW17452   4.071   2.631   6.700 -0.2843  0.0860 -0.2271
 1998SOL    HW117453   4.154   2.633   6.653  1.1687  2.5244  2.4251
 1998SOL    HW217454   4.040   2.558   6.648  0.2327 -2.4606  3.0140
 1999SOL     OW17455   3.846   3.254   2.859  0.5278  0.8011  0.4906
 1999SOL    HW117456   3.784   3.210   2.917  1.4368 -0.8339  0.1993
 1999SOL    HW217457   3.809   3.342   2.865  2.2358  1.4940  0.8898
 2000SOL     OW17458   1.855   0.851  14.351 -0.2164 -0.5400 -0.0627
 2000SOL    HW117459   1.927   0.903  14.387  0.3714 -1.8650  0.6832
 2000SOL    HW217460   1.780   0.906  14.374  0.4648 -0.9673  3.1977
 2001SOL     OW17461   1.181   3.965  10.860 -0.5952  0.0301 -0.5387
 2001SOL    HW117462   1.145   4.048  10.828  0.8071  0.4303 -1.0692
 2001SOL    HW217463   1.118   3.902  10.828 -1.7751  0.8132  0.2396
 2002SOL     OW17464   1.711   4.173  17.431  0.3191 -0.0389  0.1166
 2002SOL    HW117465   1.769   4.167  17.355 -0.2950  0.2002 -0.3702
 2002SOL    HW217466   1.741   4.259  17.460  1.1004  0.1980 -1.4191
 2003SOL     OW17467   4.587   0.657   5.888  0.0253 -0.1862 -0.1447
 2003SOL    HW117468   4.617   0.567   5.889  1.9316  0.4999  3.5352
 2003SOL    HW217469   4.641   0.679   5.964  1.6812 -1.2525 -1.0437
 2004SOL     OW17470   0.427   4.213  12.701 -0.1137  0.1837  0.1598
 2004SOL    HW117471   0.362   4.260  12.650 -0.4467  1.6877  1.9898
 2004SOL    HW217472   0.395   4.231  12.789  0.1881 -1.0901  0.5316
 2005SOL     OW17473   1.323   0.973  15.033 -0.3206 -0.0959 -0.3852
 2005SOL    HW117474   1.332   1.031  14.957 -0.4199  0.4403  0.0093
 2005SOL    HW217475   1.344   0.891  14.989 -1.7701 -1.0017  0.6515
 2006SOL     OW17476   1.182   0.718  13.523 -0.3892  0.0140 -0.1119
 2006SOL    HW117477   1.142   0.805  13.517  1.6987  0.9281 -0.8165
 2006SOL    HW217478   1.272   0.738  13.549  0.2420 -1.7460 -0.9395
 2007SOL     OW17479   1.768   0.602   4.557  0.5399  1.0378 -0.0392
 2007SOL    HW117480   1.722   0.619   4.474  1.7988 -1.0863 -1.1813
 2007SOL    HW217481   1.719   0.656   4.619  0.0266  0.5939 -0.0577
 2008SOL     OW17482   1.618   1.316   3.495 -0.0688 -0.2483  0.0638
 2008SOL    HW117483   1.559   1.325   3.420 -0.0783  0.6699  0.1841
 2008SOL    HW217484   1.672   1.394   3.482 -0.6648 -0.2743 -2.5968
 2009SOL     OW17485   3.781   0.894  14.724  0.2198  0.2873 -0.0501
 2009SOL    HW117486   3.708   0.943  14.687 -0.5600 -0.4963  0.4476
 2009SOL    HW217487   3.779   0.933  14.811 -2.3401 -0.1834  0.1037
 2010SOL     OW17488   3.289   2.980   0.282  0.1992 -0.4303 -0.4633
 2010SOL    HW117489   3.265   3.025   0.363 -1.0655  1.3416 -1.8115
 2010SOL    HW217490   3.218   3.003   0.223 -0.7214  1.5062  1.3909
 2011SOL     OW17491   3.803   2.866   5.753  0.1613 -0.6847  0.1804
 2011SOL    HW117492   3.875   2.926   5.734  0.6851 -0.4772  2.8688
 2011SOL    HW217493   3.826   2.862   5.846  0.0475 -1.9187  0.1511
 2012SOL     OW17494   0.795   2.641   7.016  0.0769 -0.7557 -0.0219
 2012SOL    HW117495   0.835   2.686   6.942  1.4987  0.4722  1.5094
 2012SOL    HW217496   0.738   2.708   7.054  0.1016 -0.4661 -0.4943
 2013SOL     OW17497   1.507   0.240   4.763 -0.0174  0.1218  0.0681
 2013SOL    HW117498   1.475   0.281   4.683 -1.4276  0.6881  0.9076
 2013SOL    HW217499   1.441   0.172   4.775  2.8781 -2.9467 -1.6944
 2014SOL     OW17500   3.019   1.889   4.243  0.9015  0.0787 -0.0945
 2014SOL    HW117501   2.927   1.880   4.268  1.1467  0.2535  0.8554
 2014SOL    HW217502   3.018   1.981   4.219  0.6677  0.6436  2.0723
 2015SOL     OW17503   2.683   2.349   4.821 -0.1386  0.2931 -0.4425
 2015SOL    HW117504   2.670   2.443   4.832  0.9420  0.2388  1.1856
 2015SOL    HW217505   2.674   2.303   4.905  0.5020  0.5101 -0.2607
 2016SOL     OW17506   1.796   0.903   4.908  0.4944 -0.3810 -0.3497
 2016SOL    HW117507   1.855   0.840   4.867  0.5198 -1.1640  0.8716
 2016SOL    HW217508   1.788   0.865   4.995 -0.1125  0.9318  0.1752
 2017SOL     OW17509   0.658   2.112   8.063 -0.5163 -0.8841  0.2255
 2017SOL    HW117510   0.736   2.150   8.021  0.6605 -1.9114  1.4674
 2017SOL    HW217511   0.691   2.024   8.082 -0.6119 -1.3787 -1.8489
 2018SOL     OW17512   0.409   2.368   3.755  0.4049  0.0523 -0.2576
 2018SOL    HW117513   0.483   2.412   3.796 -0.6874  1.1675  0.5118
 2018SOL    HW217514   0.438   2.292   3.704  1.8749 -0.1609  0.8971
 2019SOL     OW17515   1.366   0.786  13.716  0.6512  0.6339 -0.4590
 2019SOL    HW117516   1.296   0.842  13.750 -0.3653 -1.3073  0.6526
 2019SOL    HW217517   1.350   0.700  13.754 -0.0841 -0.1385 -2.4770
 2020SOL     OW17518   2.538   3.349   6.915  0.1886  0.6363  0.4236
 2020SOL    HW117519   2.602   3.371   6.983  0.9792  3.0887 -1.1591
 2020SOL    HW217520   2.495   3.270   6.948  0.8036 -0.1116 -0.5680
 2021SOL     OW17521   1.258   4.279   2.316 -0.8622  0.5614  0.6113
 2021SOL    HW117522   1.297   4.322   2.240  1.3393 -0.5440  1.1239
 2021SOL    HW217523   1.302   4.193   2.313 -1.1957  0.4414 -0.6823
 2022SOL     OW17524   3.517   0.415   3.075  0.0532 -0.4240 -0.3380
 2022SOL    HW117525   3.553   0.327   3.085 -0.0776 -0.3786  0.5018
 2022SOL    HW217526   3.441   0.402   3.018  0.7010  0.1573 -1.3300
 2023SOL     OW17527   0.431   1.081   7.492  0.4154  0.4983 -0.8465
 2023SOL    HW117528   0.466   1.001   7.454 -1.1877 -0.5305 -0.1140
 2023SOL    HW217529   0.510   1.136   7.484 -0.2981  1.7981  1.1545
 2024SOL     OW17530   0.053   4.290   5.897 -0.0141 -0.1511 -0.6252
 2024SOL    HW117531   0.006   4.268   5.978 -2.5288 -0.3552 -2.1431
 2024SOL    HW217532   0.126   4.229   5.912  0.2896 -0.1739 -2.2594
 2025SOL     OW17533   1.246   3.066   3.127 -0.2670  0.2093 -0.1104
 2025SOL    HW117534   1.213   3.092   3.213 -1.2406  1.5458 -0.8725
 2025SOL    HW217535   1.295   2.988   3.151 -0.9352 -0.2155 -0.1264
 2026SOL     OW17536   0.852   0.911  17.182 -0.0235  0.1294  0.0726
 2026SOL    HW117537   0.784   0.933  17.119  0.2011 -1.6066 -0.7553
 2026SOL    HW217538   0.807   0.912  17.267 -1.3348  0.9281 -0.6331
 2027SOL     OW17539   2.664   4.107   7.990  0.0446 -0.9812  0.1048
 2027SOL    HW117540   2.702   4.169   8.052 -0.3591  1.2225 -1.8602
 2027SOL    HW217541   2.690   4.021   8.023 -1.4187 -0.8557  1.6016
 2028SOL     OW17542   2.165   3.262   3.450  0.0176 -0.4183  0.6283
 2028SOL    HW117543   2.240   3.204   3.440  0.0966  0.0161 -1.1224
 2028SOL    HW217544   2.216   3.340   3.432 -1.6883  0.7374  0.7775
 2029SOL     OW17545   0.173   4.444   3.739 -0.2165 -0.0570 -0.3046
 2029SOL    HW117546   0.187   4.355   3.707 -1.6523 -0.4409  0.1124
 2029SOL    HW217547   0.173   4.425   3.833  1.1805  0.2971 -0.2316
 2030SOL     OW17548   0.891   2.198  11.161  0.2068  0.0836 -0.3800
 2030SOL    HW117549   0.972   2.248  11.152  0.5407 -0.5884 -1.0661
 2030SOL    HW217550   0.841   2.218  11.082  1.2684  1.5544 -0.6852
 2031SOL     OW17551   4.695   1.589   0.439  0.3562 -0.2067  0.0681
 2031SOL    HW117552   4.721   1.670   0.394 -0.2227  0.9971  1.9176
 2031SOL    HW217553   4.620   1.564   0.385 -1.2207  2.2596  1.1149
 2032SOL     OW17554   3.361   0.602   4.800 -0.7129 -0.2375  0.4210
 2032SOL    HW117555   3.438   0.546   4.795 -0.1690  0.6567 -1.2223
 2032SOL    HW217556   3.391   0.691   4.780  0.5672 -0.5724  0.8470
 2033SOL     OW17557   4.592   0.189   3.141  0.4379 -0.3529 -0.0581
 2033SOL    HW117558   4.618   0.276   3.111 -0.4106 -0.9501 -2.5161
 2033SOL    HW217559   4.572   0.143   3.060  1.5496  1.1129 -1.1529
 2034SOL     OW17560   0.807   2.359   7.034  0.4475  0.1407  0.1846
 2034SOL    HW117561   0.781   2.451   7.028 -1.9432 -0.4950  0.8038
 2034SOL    HW217562   0.861   2.358   7.113 -0.2905  0.4585  0.7021
 2035SOL     OW17563   0.083   3.069   0.615  0.3936 -0.1383 -0.6087
 2035SOL    HW117564   0.136   3.074   0.535  1.2473  1.6192  0.0626
 2035SOL    HW217565   0.020   2.997   0.611  0.2080 -0.1265  2.1434
 2036SOL     OW17566   4.340   1.363  11.237 -0.1877  0.6400  0.1587
 2036SOL    HW117567   4.387   1.442  11.265  0.0178  1.3006 -1.9657
 2036SOL    HW217568   4.253   1.392  11.212 -1.1418 -1.9480  0.5355
 2037SOL     OW17569   3.587   4.642   3.105 -0.2374 -0.2941  0.2784
 2037SOL    HW117570   3.649   4.575   3.075 -0.7252 -0.6783  0.1368
 2037SOL    HW217571   3.513   4.582   3.114 -0.3990  0.1038  1.6100
 2038SOL     OW17572   2.116   3.434   1.691  0.0226 -0.5342  0.3432
 2038SOL    HW117573   2.201   3.406   1.723  0.4524 -2.1892 -2.2257
 2038SOL    HW217574   2.064   3.431   1.771 -0.2513  1.9113  0.2676
 2039SOL     OW17575   0.626   3.504  11.796  0.2507 -0.2299 -0.3253
 2039SOL    HW117576   0.546   3.499  11.744  0.1590 -0.9113 -0.1164
 2039SOL    HW217577   0.618   3.597  11.815 -2.1690 -0.7438  1.2036
 2040SOL     OW17578   4.040   1.091  17.130  0.3123 -0.2322 -0.0527
 2040SOL    HW117579   3.947   1.070  17.128 -0.2663  2.0612  1.4137
 2040SOL    HW217580   4.043   1.186  17.114  0.6209 -0.0582  1.0046
 2041SOL     OW17581   3.530   4.224   1.924  0.3896  0.2338  0.1101
 2041SOL    HW117582   3.471   4.165   1.876 -1.3492  3.0427 -1.1969
 2041SOL    HW217583   3.470   4.250   1.994 -1.2625  0.0879 -1.2273
 2042SOL     OW17584   0.371   2.873   2.302  0.1786 -0.0693  0.1869
 2042SOL    HW117585   0.449   2.921   2.276  0.3172 -1.4341 -1.8659
 2042SOL    HW217586   0.396   2.821   2.378 -2.4648  0.0334  1.1506
 2043SOL     OW17587   0.904   3.929   8.087 -0.1336  0.3077 -0.2175
 2043SOL    HW117588   0.949   3.878   8.020  0.5686  0.4553  0.1422
 2043SOL    HW217589   0.986   3.972   8.113 -0.1208 -0.5069  1.0895
 2044SOL     OW17590   0.782   4.146   6.506 -0.2922 -0.0752 -0.0611
 2044SOL    HW117591   0.827   4.157   6.589 -1.5560  2.6526  0.2717
 2044SOL    HW217592   0.736   4.230   6.510 -1.7470 -0.9868  1.9370
 2045SOL     OW17593   3.460   2.883   6.089  0.0138 -0.4079  0.1250
 2045SOL    HW117594   3.402   2.859   6.162  0.4029  1.8580  1.1759
 2045SOL    HW217595   3.519   2.945   6.132 -0.5230  0.0983  0.1369
 2046SOL     OW17596   2.290   2.275   4.865 -0.4095 -0.3522  0.3256
 2046SOL    HW117597   2.316   2.364   4.841  0.6206 -1.1032 -1.3740
 2046SOL    HW217598   2.303   2.279   4.960 -0.2746 -0.3549  0.3083
 2047SOL     OW17599   2.293   1.542   6.602 -0.6108 -0.3368 -0.0925
 2047SOL    HW117600   2.344   1.578   6.530  0.7990  0.3035  1.2216
 2047SOL    HW217601   2.305   1.620   6.657  0.8682 -1.1937  0.7914
 2048SOL     OW17602   2.873   3.388   3.893  0.1394  1.1014  0.3118
 2048SOL    HW117603   2.919   3.443   3.830 -0.5552 -0.3386 -1.4470
 2048SOL    HW217604   2.945   3.379   3.956 -0.9026  0.4730  1.4059
 2049SOL     OW17605   2.175   3.733   2.349  0.3349  0.5819  0.5044
 2049SOL    HW117606   2.151   3.784   2.426  0.7627 -0.2953  1.2297
 2049SOL    HW217607   2.264   3.767   2.341 -0.1723  1.9983  0.9921
 2050SOL     OW17608   3.627   2.968   8.201  0.0164 -0.9926 -0.2433
 2050SOL    HW117609   3.699   3.026   8.225  0.5893 -1.3867 -1.0328
 2050SOL    HW217610   3.558   2.992   8.263 -0.4365 -0.6249 -0.8994
 2051SOL     OW17611   2.946   4.163   7.581 -0.3214  0.2121  0.4663
 2051SOL    HW117612   3.000   4.104   7.529  0.3840 -0.5443  2.0586
 2051SOL    HW217613   2.862   4.163   7.536  0.1856  2.4102 -0.4979
 2052SOL     OW17614   1.580   0.169   8.242 -0.0302 -0.4761 -0.2342
 2052SOL    HW117615   1.662   0.171   8.192 -0.3649 -1.6748 -0.8295
 2052SOL    HW217616   1.603   0.143   8.331  0.0190 -0.3931 -0.2225
 2053SOL     OW17617   1.437   2.813   9.148 -0.0143 -0.3596 -0.1695
 2053SOL    HW117618   1.345   2.828   9.170 -0.9555 -2.3861 -2.6817
 2053SOL    HW217619   1.424   2.749   9.078 -0.2118  1.1819 -1.5300
 2054SOL     OW17620   4.384   3.795   5.731  0.8635  0.2043  0.0019
 2054SOL    HW117621   4.319   3.862   5.750 -1.0150 -1.7065  0.2992
 2054SOL    HW217622   4.327   3.730   5.691 -0.3494  0.9075  0.5951
 2055SOL     OW17623   3.492   2.032   6.108  0.0359 -0.5610  0.1024
 2055SOL    HW117624   3.557   2.008   6.042  0.4167  3.1019 -0.8312
 2055SOL    HW217625   3.558   2.070   6.167  2.4530 -3.0588 -0.9748
 2056SOL     OW17626   1.874   3.079   8.881  0.0075 -0.3473 -0.0396
 2056SOL    HW117627   1.871   3.171   8.853 -0.4569 -0.3890 -0.1387
 2056SOL    HW217628   1.904   3.038   8.801 -0.5511 -0.0652 -0.3985
 2057SOL     OW17629   1.411   4.403  13.096  0.6881 -0.8077  0.0742
 2057SOL    HW117630   1.449   4.321  13.064 -1.4182 -1.7192 -0.0992
 2057SOL    HW217631   1.393   4.378  13.187  2.1796  1.0534  0.9079
 2058SOL     OW17632   2.642   3.531  17.191 -0.6437 -0.3864 -0.3924
 2058SOL    HW117633   2.608   3.443  17.181 -1.1126 -0.4936  1.9779
 2058SOL    HW217634   2.567   3.575  17.232 -2.5037 -2.3814 -1.7133
 2059SOL     OW17635   1.484   2.406  10.423 -0.6116  0.1516 -0.2011
 2059SOL    HW117636   1.507   2.385  10.332  1.3186 -1.4788  0.6439
 2059SOL    HW217637   1.493   2.320  10.463 -0.9498 -0.1401 -0.7495
 2060SOL     OW17638   3.026   3.480  15.970  0.1578 -0.9298  0.2226
 2060SOL    HW117639   3.028   3.560  15.917  2.2816 -2.5742 -2.1723
 2060SOL    HW217640   3.116   3.473  16.003  0.3183 -0.0107 -0.0049
 2061SOL     OW17641   0.390   2.696  10.827  0.3868  0.7549  0.1524
 2061SOL    HW117642   0.364   2.617  10.874  2.0933 -2.2151 -3.8763
 2061SOL    HW217643   0.465   2.680  10.770 -1.5849  0.3193 -2.3282
 2062SOL     OW17644   2.787   3.524  14.370  0.7506  0.0744 -0.2463
 2062SOL    HW117645   2.717   3.556  14.426  0.8524 -0.1675  0.0252
 2062SOL    HW217646   2.769   3.570  14.288  0.4309 -2.4314 -1.5998
 2063SOL     OW17647   4.397   1.014   8.406 -0.2326  0.1540  0.0216
 2063SOL    HW117648   4.490   1.016   8.430 -0.4800 -1.0449  1.0601
 2063SOL    HW217649   4.360   1.097   8.435 -1.6118 -0.8340  1.0852
 2064SOL     OW17650   2.696   3.418   2.775 -0.1339  0.0193 -0.5202
 2064SOL    HW117651   2.765   3.452   2.717 -0.8470  0.7179 -0.9493
 2064SOL    HW217652   2.747   3.339   2.794 -2.4429 -1.4711 -0.5527
 2065SOL     OW17653   2.784   0.416   8.567 -0.2914  0.0515 -0.1117
 2065SOL    HW117654   2.716   0.443   8.505 -0.0578 -1.5992 -1.0860
 2065SOL    HW217655   2.745   0.336   8.601 -3.3370  0.2600 -3.1348
 2066SOL     OW17656   0.862   0.682   3.017  0.1736  0.6769  0.6714
 2066SOL    HW117657   0.839   0.594   3.047 -1.9607  0.5816 -1.2520
 2066SOL    HW217658   0.938   0.708   3.070  0.0161 -1.0908  1.7632
 2067SOL     OW17659   0.053   3.543   7.341 -0.2746  0.3163 -0.2908
 2067SOL    HW117660   4.695   3.500   7.363 -0.7360  3.1458  3.5847
 2067SOL    HW217661   0.068   3.598   7.419  0.1295  1.5438 -1.2359
 2068SOL     OW17662   3.425   0.034  16.011 -0.2251  0.3425 -0.2269
 2068SOL    HW117663   3.496   4.701  15.980  0.7011  0.9751  0.7445
 2068SOL    HW217664   3.458   0.122  15.994 -1.4191  1.2199  2.0095
 2069SOL     OW17665   4.449   1.283  13.634 -0.3359  0.4880 -0.1366
 2069SOL    HW117666   4.420   1.329  13.556 -0.8685  2.6091  1.3131
 2069SOL    HW217667   4.458   1.357  13.695 -1.3194  2.1958 -2.0918
 2070SOL     OW17668   4.352   1.385  14.701 -0.1193 -0.1122  0.1380
 2070SOL    HW117669   4.440   1.384  14.739  0.1393  1.5739 -0.3889
 2070SOL    HW217670   4.355   1.295  14.670 -0.4253 -0.5298  1.2844
 2071SOL     OW17671   0.937   2.233   7.396  0.0689 -0.5314  0.5394
 2071SOL    HW117672   0.947   2.317   7.351  2.4416 -1.8557 -1.3752
 2071SOL    HW217673   0.845   2.231   7.368  0.3796  1.4876 -0.5969
 2072SOL     OW17674   3.825   4.408   0.596 -0.0188  0.1174 -0.5610
 2072SOL    HW117675   3.896   4.464   0.628 -0.9621  0.6085  0.7148
 2072SOL    HW217676   3.850   4.410   0.504 -0.9020  2.4541 -0.7485
 2073SOL     OW17677   4.642   3.859   5.607  0.4836 -0.3999 -0.6246
 2073SOL    HW117678   4.620   3.916   5.534  1.8365 -0.6071 -1.2010
 2073SOL    HW217679   4.558   3.856   5.652  0.6161 -0.7587 -0.3895
 2074SOL     OW17680   4.560   3.126  17.220 -0.3156 -0.3021 -0.2277
 2074SOL    HW117681   4.628   3.090  17.277  2.1316  2.4465 -1.4676
 2074SOL    HW217682   4.482   3.103  17.271 -0.4422 -1.3906 -0.8992
 2075SOL     OW17683   1.643   0.422   4.924 -0.6263 -0.2054 -0.2138
 2075SOL    HW117684   1.635   0.351   4.860  2.4168 -1.0723  0.3904
 2075SOL    HW217685   1.559   0.469   4.924 -0.0020  0.9021  1.6130
 2076SOL     OW17686   2.131   1.829   1.071  0.2892  0.1650  0.8016
 2076SOL    HW117687   2.167   1.767   1.007  0.4668  0.0751  0.9894
 2076SOL    HW217688   2.145   1.916   1.035 -1.1579  0.3893  0.7857
 2077SOL     OW17689   3.010   1.471   3.147  0.0039  0.9343 -0.0126
 2077SOL    HW117690   3.049   1.519   3.220  1.0372 -0.8811  0.6226
 2077SOL    HW217691   2.936   1.528   3.125 -0.0529  0.6877 -0.4655
 2078SOL     OW17692   2.012   1.554   0.610  0.1846  0.4513 -0.0922
 2078SOL    HW117693   2.078   1.595   0.554 -0.0422  0.6650 -0.2020
 2078SOL    HW217694   2.044   1.470   0.643 -1.1775  0.5637  1.5147
 2079SOL     OW17695   4.077   0.739   5.700 -0.5967 -0.3306  0.2021
 2079SOL    HW117696   4.158   0.779   5.732 -0.3960 -0.6456  0.0826
 2079SOL    HW217697   4.049   0.788   5.623 -1.4661 -0.7517  0.2480
 2080SOL     OW17698   1.404   1.805  15.434 -0.0599 -0.0115 -0.3140
 2080SOL    HW117699   1.399   1.714  15.464  1.3479 -0.1732 -0.5467
 2080SOL    HW217700   1.329   1.841  15.482 -0.2013 -0.9355  0.1586
 2081SOL     OW17701   2.912   3.307  10.144 -0.1650  0.0564 -0.6224
 2081SOL    HW117702   2.925   3.314  10.238 -1.2354 -0.1388 -0.4600
 2081SOL    HW217703   2.988   3.358  10.113 -0.5162 -0.6586 -2.6895
 2082SOL     OW17704   0.701   3.625  13.446  0.2000  0.0661 -0.2086
 2082SOL    HW117705   0.794   3.626  13.467  0.6272 -0.9284 -1.9788
 2082SOL    HW217706   0.667   3.559  13.506  0.1878  1.3020  1.1228
 2083SOL     OW17707   0.500   4.002   6.744 -0.4376 -0.1701 -0.0202
 2083SOL    HW117708   0.563   4.073   6.757 -2.1119  1.5954 -1.6205
 2083SOL    HW217709   0.508   3.987   6.650  0.4256 -0.9955  0.1800
 2084SOL     OW17710   2.369   4.580  10.943 -0.5369  0.6161 -0.2288
 2084SOL    HW117711   2.394   4.489  10.926  0.3611  0.9147 -0.4818
 2084SOL    HW217712   2.280   4.577  10.907 -0.8775  0.8776  0.5979
 2085SOL     OW17713   0.534   0.005   4.340  0.6051 -0.2899  0.0056
 2085SOL    HW117714   0.475   0.081   4.342 -0.0427 -0.8537  2.3351
 2085SOL    HW217715   0.598   0.041   4.278  0.5437 -0.1635  0.0142
 2086SOL     OW17716   0.319   2.283   6.270  0.1078  0.3871 -0.3880
 2086SOL    HW117717   0.369   2.205   6.292  0.2430 -0.0388 -2.1621
 2086SOL    HW217718   0.390   2.341   6.241  1.2739 -0.2826  1.1613
 2087SOL     OW17719   3.117   0.895   3.664 -0.4829 -0.0412  0.2547
 2087SOL    HW117720   3.073   0.812   3.682 -0.2940  0.0255  1.0071
 2087SOL    HW217721   3.182   0.868   3.599  0.0377  0.4301  0.5872
 2088SOL     OW17722   4.202   2.307   5.092  0.9126  0.4569 -0.0151
 2088SOL    HW117723   4.155   2.311   5.175  1.6178 -0.9366  0.4640
 2088SOL    HW217724   4.198   2.400   5.071 -1.1122 -0.0555 -1.8383
 2089SOL     OW17725   2.458   4.567   6.275  0.3066 -0.2118  0.1105
 2089SOL    HW117726   2.442   4.496   6.213 -0.4057  0.8470 -0.9411
 2089SOL    HW217727   2.378   4.552   6.325  1.9099 -1.7974  2.1994
 2090SOL     OW17728   4.341   3.844   8.386  0.7962 -0.2222  0.5392
 2090SOL    HW117729   4.359   3.816   8.296  4.2125 -1.4304  1.5972
 2090SOL    HW217730   4.405   3.909   8.415  0.3020  0.1567  0.7880
 2091SOL     OW17731   0.954   4.379  14.300  0.3168  0.2877 -0.0155
 2091SOL    HW117732   1.043   4.351  14.280  0.1127  1.3303 -2.3631
 2091SOL    HW217733   0.908   4.361  14.218  3.0433  0.6082 -1.6195
 2092SOL     OW17734   3.033   1.522   3.492 -0.2669  0.6104  0.4629
 2092SOL    HW117735   3.010   1.530   3.584 -0.8472  2.0264  0.1887
 2092SOL    HW217736   3.108   1.582   3.492 -0.8354  1.3166  0.1038
 2093SOL     OW17737   3.312   3.324   8.617  0.4383  0.0300 -0.1719
 2093SOL    HW117738   3.352   3.265   8.681 -1.0245 -1.0717 -0.2773
 2093SOL    HW217739   3.289   3.387   8.685 -1.3217  0.9915 -1.6668
 2094SOL     OW17740   2.207   4.640   5.532 -0.7121 -0.2087 -0.0016
 2094SOL    HW117741   2.227   4.636   5.626 -0.9068 -0.1230  0.0457
 2094SOL    HW217742   2.169   0.005   5.526  1.3173  0.7020  0.8286
 2095SOL     OW17743   3.608   4.653   7.768  0.2348 -0.1333  0.2739
 2095SOL    HW117744   3.652   4.611   7.841 -0.6887 -1.5073  0.0478
 2095SOL    HW217745   3.582   4.580   7.711  2.4416  0.6149 -1.6588
 2096SOL     OW17746   1.481   3.784  11.792  0.2126  0.1006  0.3514
 2096SOL    HW117747   1.461   3.756  11.703 -0.5841  0.7131  0.3355
 2096SOL    HW217748   1.506   3.876  11.790 -0.0088  0.1732  0.8810
 2097SOL     OW17749   0.261   2.249   7.847  0.2058  0.0094  0.0253
 2097SOL    HW117750   0.349   2.262   7.880  0.5089 -1.4619 -0.2135
 2097SOL    HW217751   0.239   2.337   7.815 -0.6328 -0.3141 -0.3073
 2098SOL     OW17752   3.741   4.151  17.134 -0.3873  0.1743  0.0455
 2098SOL    HW117753   3.757   4.086  17.066 -1.5198  2.9396 -2.8846
 2098SOL    HW217754   3.705   4.220  17.077  0.2108  1.1432  0.8605
 2099SOL     OW17755   0.816   2.804   2.804 -0.0245 -0.1837  0.2477
 2099SOL    HW117756   0.759   2.815   2.879  0.1007 -0.5619  0.4018
 2099SOL    HW217757   0.861   2.724   2.832 -1.2665 -0.7612  0.5702
 2100SOL     OW17758   1.609   3.778  14.805  0.5497  0.6154 -0.1612
 2100SOL    HW117759   1.586   3.706  14.746 -0.7849  2.0291 -1.3797
 2100SOL    HW217760   1.584   3.741  14.890 -2.0703  3.3147  0.2443
 2101SOL     OW17761   1.754   4.133   0.697  0.2602  0.6140  0.0009
 2101SOL    HW117762   1.751   4.203   0.763 -3.8680  0.0899  0.3742
 2101SOL    HW217763   1.842   4.100   0.716 -0.0815 -0.5140 -0.3930
 2102SOL     OW17764   0.356   3.003   7.661 -0.0110  0.2719  0.6322
 2102SOL    HW117765   0.366   2.931   7.599 -1.8112  1.1420 -0.6471
 2102SOL    HW217766   0.377   2.956   7.742  2.5868 -1.8954 -1.3110
 2103SOL     OW17767   4.335   2.310   2.606  0.2016 -0.4124 -0.0723
 2103SOL    HW117768   4.308   2.354   2.525  0.9836  1.0072  0.4298
 2103SOL    HW217769   4.345   2.218   2.582  0.2725 -0.2367 -0.7276
 2104SOL     OW17770   3.581   3.204   4.311 -0.0090 -0.3167  0.6716
 2104SOL    HW117771   3.574   3.109   4.306 -0.4498 -0.2337 -0.3883
 2104SOL    HW217772   3.611   3.203   4.402  0.7343 -1.1923  0.4079
 2105SOL     OW17773   4.179   1.295   6.499 -0.2775  0.2630 -0.3826
 2105SOL    HW117774   4.142   1.348   6.428 -2.1021 -1.1579 -0.4770
 2105SOL    HW217775   4.273   1.315   6.493  0.1902 -1.6052  1.0277
 2106SOL     OW17776   0.513   1.063   4.816  0.3324 -0.3517 -0.3795
 2106SOL    HW117777   0.452   1.067   4.743 -0.7072  2.8162  0.6620
 2106SOL    HW217778   0.501   0.971   4.840  0.9277 -0.0290  1.2252
 2107SOL     OW17779   1.913   1.891   7.932  0.4759 -0.5659  0.6720
 2107SOL    HW117780   1.846   1.879   8.000  0.7235 -1.3415  0.7778
 2107SOL    HW217781   1.969   1.818   7.957  1.5872  0.2961  0.6694
 2108SOL     OW17782   4.637   2.224   1.395  0.3493  0.6002 -0.3575
 2108SOL    HW117783   4.624   2.260   1.307 -0.5127 -0.5526 -0.7142
 2108SOL    HW217784   4.569   2.156   1.402  0.3747  0.7097  0.8227
 2109SOL     OW17785   0.147   1.003   3.300 -0.4113 -0.2910  0.2688
 2109SOL    HW117786   0.207   0.960   3.362  0.7162  1.0746  0.1382
 2109SOL    HW217787   0.066   0.954   3.316 -1.3337  1.3138  0.5146
 2110SOL     OW17788   0.600   2.021  12.375 -0.6352 -0.3224 -0.7294
 2110SOL    HW117789   0.694   2.003  12.370 -1.1692 -3.1564 -0.2856
 2110SOL    HW217790   0.568   1.985  12.292 -0.2603  0.0743 -1.0489
 2111SOL     OW17791   0.610   0.368   7.665 -0.4311  0.6633  0.5497
 2111SOL    HW117792   0.570   0.444   7.623 -2.1790  0.0776  1.1603
 2111SOL    HW217793   0.699   0.385   7.635 -0.2444 -0.0756  0.6772
 2112SOL     OW17794   3.097   4.714   2.346  0.3725  0.3554 -0.2569
 2112SOL    HW117795   3.053   4.679   2.268 -0.7125 -1.0757  0.9919
 2112SOL    HW217796   3.068   0.081   2.340 -1.7867 -0.3641 -0.8619
 2113SOL     OW17797   2.305   0.430   1.783  0.4375  0.0719  0.4522
 2113SOL    HW117798   2.341   0.357   1.833 -0.4085 -1.1037 -0.6882
 2113SOL    HW217799   2.371   0.452   1.717 -1.0519  1.9870 -0.3897
 2114SOL     OW17800   1.644   4.699   4.255 -0.0093 -0.3414 -0.3872
 2114SOL    HW117801   1.592   4.650   4.191 -0.6998  0.3513 -0.3573
 2114SOL    HW217802   1.722   4.717   4.203 -1.1071  2.5026 -1.0611
 2115SOL     OW17803   2.717   2.625   1.048 -0.0511 -0.0490 -0.4258
 2115SOL    HW117804   2.761   2.710   1.055  0.4760 -0.3589  0.0004
 2115SOL    HW217805   2.717   2.604   0.955 -0.2365  2.2841 -0.9588
 2116SOL     OW17806   0.993   4.665  14.895 -0.2523 -0.4928 -0.7120
 2116SOL    HW117807   0.961   0.012  14.951 -0.0211  1.1630 -2.6743
 2116SOL    HW217808   1.034   4.720  14.828  1.1446  0.0317  0.5673
 2117SOL     OW17809   0.544   1.677   7.736  0.0642 -0.1261 -0.1442
 2117SOL    HW117810   0.509   1.765   7.753  0.6679 -0.0736  0.8628
 2117SOL    HW217811   0.486   1.655   7.664  1.8064  0.2415 -1.6529
 2118SOL     OW17812   1.706   0.045   5.018  0.5474 -0.2079  0.1474
 2118SOL    HW117813   1.746   4.721   4.944  0.6664 -0.2049  0.2097
 2118SOL    HW217814   1.782   0.075   5.068  1.0522  0.3075 -0.9236
 2119SOL     OW17815   3.528   3.121   4.017  0.2577  0.4031  0.7587
 2119SOL    HW117816   3.503   3.149   3.928 -2.5731 -0.5725  1.2418
 2119SOL    HW217817   3.457   3.057   4.028 -2.0006  2.7731  0.1987
 2120SOL     OW17818   2.549   3.012   5.196  0.7163  0.3940  0.3032
 2120SOL    HW117819   2.521   2.921   5.198  0.4240  0.4512 -2.6024
 2120SOL    HW217820   2.630   3.004   5.146  0.2879 -0.5072 -0.2307
 2121SOL     OW17821   1.558   0.249  10.579  0.0245  0.2683 -0.0791
 2121SOL    HW117822   1.498   0.177  10.561  0.5290  0.6195 -3.0476
 2121SOL    HW217823   1.634   0.208  10.538  0.1963 -1.6471  2.1070
 2122SOL     OW17824   0.099   1.111  16.246 -0.4004  0.0840 -0.3756
 2122SOL    HW117825   0.085   1.102  16.340 -0.2564  0.8447 -0.2795
 2122SOL    HW217826   0.188   1.147  16.245 -0.6262  0.6446 -1.0762
 2123SOL     OW17827   0.425   0.551   9.637 -0.0328 -0.1537 -0.3491
 2123SOL    HW117828   0.470   0.526   9.557  0.6617 -0.0647  0.0150
 2123SOL    HW217829   0.411   0.643   9.614 -1.3368  0.0730  1.2578
 2124SOL     OW17830   1.766   2.483   8.845 -0.3005 -0.3163  0.3597
 2124SOL    HW117831   1.729   2.400   8.874 -0.5053 -0.3044  0.1394
 2124SOL    HW217832   1.800   2.515   8.928  0.4804  0.4732 -0.2621
 2125SOL     OW17833   4.611   2.238  12.493  0.2402 -0.4124  0.2452
 2125SOL    HW117834   4.665   2.161  12.475  0.0671 -0.5709  0.3986
 2125SOL    HW217835   4.634   2.288  12.415  1.4027 -2.1183 -0.4857
 2126SOL     OW17836   2.800   0.435   6.412  0.7754  0.3536  0.6857
 2126SOL    HW117837   2.883   0.477   6.392 -0.6126  2.3258 -0.9178
 2126SOL    HW217838   2.760   0.496   6.475 -0.4315 -1.5128  1.7382
 2127SOL     OW17839   0.182   2.805   5.041 -0.1523 -0.9889 -0.0543
 2127SOL    HW117840   0.214   2.842   4.958  0.1080  2.1489  1.4255
 2127SOL    HW217841   0.087   2.796   5.039  0.0627 -2.6303 -2.4767
 2128SOL     OW17842   2.599   2.893   2.579 -0.3100 -0.1795 -0.1245
 2128SOL    HW117843   2.659   2.886   2.653 -1.4719 -0.0764  0.8204
 2128SOL    HW217844   2.640   2.837   2.512  0.8595 -1.9215  2.0402
 2129SOL     OW17845   0.023   4.204  11.735  0.0970  0.1168 -0.4281
 2129SOL    HW117846   0.091   4.144  11.704  1.2127 -0.3335  2.9638
 2129SOL    HW217847   4.682   4.136  11.755  1.5633 -1.5591 -1.3955
 2130SOL     OW17848   0.233   0.618   0.472 -0.3422 -0.1930  0.8099
 2130SOL    HW117849   0.190   0.533   0.478 -3.4897  1.2640 -1.2073
 2130SOL    HW217850   0.191   0.644   0.391  0.6015 -0.5298  0.2142
 2131SOL     OW17851   1.865   3.155   3.230 -0.3898  0.0001 -0.2807
 2131SOL    HW117852   1.849   3.081   3.171  1.3082 -0.6244  0.0295
 2131SOL    HW217853   1.777   3.191   3.226  1.0313  3.5852  0.4187
 2132SOL     OW17854   3.190   0.800   2.562  0.2280  0.4244 -1.1975
 2132SOL    HW117855   3.127   0.729   2.558 -0.2032  0.7425 -0.1146
 2132SOL    HW217856   3.185   0.844   2.647 -1.6907  0.0716 -1.1373
 2133SOL     OW17857   0.569   2.512   2.928 -0.2217  0.2500  0.3356
 2133SOL    HW117858   0.584   2.503   2.834 -0.1252  0.3837  0.3387
 2133SOL    HW217859   0.621   2.441   2.966 -0.6713 -0.3762 -0.2248
 2134SOL     OW17860   0.113   1.037   6.504  0.4244  0.6524  0.1688
 2134SOL    HW117861   0.181   1.006   6.444 -2.1629 -2.5176 -1.1279
 2134SOL    HW217862   0.153   1.111   6.550 -0.0411  1.7234 -1.1495
 2135SOL     OW17863   3.036   3.246   3.105 -0.1945  0.0988  0.7695
 2135SOL    HW117864   3.088   3.326   3.116  0.0829  0.1388 -0.8451
 2135SOL    HW217865   3.070   3.202   3.027  0.6170  3.4224 -0.7471
 2136SOL     OW17866   3.350   2.812   8.898 -0.2543 -0.0247  0.0195
 2136SOL    HW117867   3.421   2.820   8.834  1.8865 -1.2197  2.2545
 2136SOL    HW217868   3.349   2.719   8.922  0.4715 -0.6069 -2.1311
 2137SOL     OW17869   4.557   1.814   0.655 -0.4562 -0.0933 -0.3587
 2137SOL    HW117870   4.513   1.897   0.672  1.6924  1.2080 -1.1521
 2137SOL    HW217871   4.600   1.834   0.572  1.3602 -1.3295  0.2879
 2138SOL     OW17872   3.907   3.324   7.924  0.3902 -0.5156 -0.4724
 2138SOL    HW117873   3.955   3.394   7.968  0.3340 -1.6155  1.3564
 2138SOL    HW217874   3.840   3.315   7.991  0.7933  1.8562  0.2516
 2139SOL     OW17875   2.616   0.180   7.580 -0.1253 -0.3915 -0.0562
 2139SOL    HW117876   2.570   0.263   7.588  0.2991 -0.3739  2.1659
 2139SOL    HW217877   2.602   0.167   7.486 -2.5901 -1.0914  0.4218
 2140SOL     OW17878   2.029   3.081  10.302 -0.0333 -0.2934  0.2329
 2140SOL    HW117879   2.088   3.006  10.296  0.1697 -0.1844  0.8688
 2140SOL    HW217880   1.978   3.080  10.221  1.6219 -0.7225 -0.8161
 2141SOL     OW17881   1.918   3.123  10.049  0.0642 -0.3074  0.2316
 2141SOL    HW117882   1.911   3.213  10.017  0.3271 -0.2418  0.3554
 2141SOL    HW217883   1.875   3.068   9.983 -1.5079  0.2053  0.8311
 2142SOL     OW17884   1.550   4.226   9.641 -0.7180  0.3365  0.0223
 2142SOL    HW117885   1.636   4.206   9.604  1.0744  2.5293  3.0352
 2142SOL    HW217886   1.499   4.180   9.574 -0.2321 -0.6678  0.3479
 2143SOL     OW17887   0.789   3.903   5.180  0.1345  0.1588  0.5082
 2143SOL    HW117888   0.786   3.987   5.225  1.6082  1.3728 -1.6198
 2143SOL    HW217889   0.804   3.843   5.252  2.7034 -0.4961 -0.5614
 2144SOL     OW17890   0.143   2.506   6.365  0.5705 -0.6637 -0.1397
 2144SOL    HW117891   0.213   2.442   6.380  0.6136 -1.0792 -2.1071
 2144SOL    HW217892   0.188   2.586   6.337 -0.4364  0.2243  0.7821
 2145SOL     OW17893   1.755   2.425   2.687 -0.0108  0.9749  0.0447
 2145SOL    HW117894   1.712   2.508   2.665 -1.1504 -0.2209 -2.1692
 2145SOL    HW217895   1.677   2.376   2.712  0.8046  0.2685  1.2071
 2146SOL     OW17896   0.536   1.212   6.636  0.2851  0.2523 -0.1922
 2146SOL    HW117897   0.569   1.199   6.725 -0.5809 -1.4103 -0.1093
 2146SOL    HW217898   0.549   1.127   6.593  0.5559 -0.0964  0.5880
 2147SOL     OW17899   1.008   2.265   5.221 -0.0775  0.0032  0.0505
 2147SOL    HW117900   1.074   2.223   5.165  0.4669  0.3411  0.4346
 2147SOL    HW217901   1.038   2.315   5.297 -0.3610 -1.5410  1.1885
 2148SOL     OW17902   4.600   0.754   9.225 -0.8534 -0.3961 -0.5340
 2148SOL    HW117903   4.634   0.816   9.290 -1.7202 -1.6195  1.1084
 2148SOL    HW217904   4.579   0.680   9.282  1.0842 -1.1081 -0.7631
 2149SOL     OW17905   3.617   3.753   5.463 -0.1794 -0.0584  0.6016
 2149SOL    HW117906   3.532   3.770   5.424  0.1368  1.1137  0.4085
 2149SOL    HW217907   3.597   3.687   5.529  1.7014  0.9709  2.2197
 2150SOL     OW17908   0.820   1.013   7.964  0.2229  0.6070 -0.0303
 2150SOL    HW117909   0.868   1.077   8.017 -1.7558  3.1291 -1.3035
 2150SOL    HW217910   0.788   0.951   8.030 -3.0738  2.0543 -0.2937
 2151SOL     OW17911   4.320   2.696   3.974  0.3963 -0.1462  0.1720
 2151SOL    HW117912   4.237   2.729   4.009  0.0794 -0.4082 -0.3395
 2151SOL    HW217913   4.309   2.689   3.879  2.4994  1.2684 -0.1777
 2152SOL     OW17914   3.213   1.060   9.449  0.0278 -0.4758 -0.4369
 2152SOL    HW117915   3.250   1.082   9.534  2.8783  3.5151 -2.6368
 2152SOL    HW217916   3.238   0.968   9.455  1.2166  0.0317  2.3897
 2153SOL     OW17917   4.565   4.428  10.339  0.4184  0.0631 -0.5432
 2153SOL    HW117918   4.578   4.341  10.300  0.8611  0.1453 -0.5738
 2153SOL    HW217919   4.641   4.477  10.307  2.3183 -2.0559  0.7073
 2154SOL     OW17920   4.620   3.943   3.108  0.7777 -0.1759  0.2944
 2154SOL    HW117921   4.544   3.991   3.138 -0.2070 -0.3150 -2.0202
 2154SOL    HW217922   4.625   3.884   3.184 -3.9184  1.1395  1.5765
 2155SOL     OW17923   3.405   2.681   5.062 -0.0958 -0.0514 -0.0051
 2155SOL    HW117924   3.311   2.700   5.052 -0.7306 -2.7817  0.8306
 2155SOL    HW217925   3.427   2.642   4.977  0.2996  1.1448 -0.4418
 2156SOL     OW17926   2.211   4.696   0.692 -0.2991  0.9863  0.5559
 2156SOL    HW117927   2.133   4.723   0.741 -1.8707  2.1495 -2.6275
 2156SOL    HW217928   2.173   4.682   0.606  1.9996 -2.8500  0.1716
 2157SOL     OW17929   0.613   1.770   5.620  0.3894 -0.0007 -0.1003
 2157SOL    HW117930   0.597   1.851   5.573 -0.3954  0.3483  0.7658
 2157SOL    HW217931   0.573   1.709   5.557 -0.3530  0.7993 -0.4024
 2158SOL     OW17932   4.192   1.741  10.625  0.0269  0.6343 -0.0185
 2158SOL    HW117933   4.281   1.743  10.590  0.3900  1.1455  0.9498
 2158SOL    HW217934   4.187   1.672  10.692  1.8287 -1.3427 -1.9172
 2159SOL     OW17935   0.429   2.352   1.163  0.4210 -0.5990  0.2103
 2159SOL    HW117936   0.496   2.404   1.118  0.0342 -1.5606 -1.4860
 2159SOL    HW217937   0.490   2.288   1.198 -0.0224 -1.4650 -0.5999
 2160SOL     OW17938   2.184   4.552   4.068  0.3717  0.0085  0.4886
 2160SOL    HW117939   2.106   4.519   4.114  0.7971 -0.5605  0.7891
 2160SOL    HW217940   2.260   4.532   4.122  0.4182 -1.1298 -0.0148
 2161SOL     OW17941   1.780   1.578   4.109 -0.5578 -0.7131 -0.2992
 2161SOL    HW117942   1.729   1.617   4.181  3.2980 -1.2712  2.7349
 2161SOL    HW217943   1.853   1.532   4.150 -0.8554  0.1712  1.2577
 2162SOL     OW17944   0.786   3.647   4.114 -0.4919 -0.2526  0.0854
 2162SOL    HW117945   0.725   3.676   4.181 -1.0011 -0.4671 -0.2761
 2162SOL    HW217946   0.775   3.721   4.054 -0.0744  1.4184  2.1186
 2163SOL     OW17947   2.084   1.447   7.103 -0.2385 -0.6741  0.2360
 2163SOL    HW117948   2.178   1.463   7.090 -0.3542 -0.4445 -0.3264
 2163SOL    HW217949   2.095   1.361   7.144  1.0809 -0.7861 -0.3432
 2164SOL     OW17950   2.771   4.189  17.648  0.5345  0.0485 -0.0940
 2164SOL    HW117951   2.796   4.147   0.033  0.1389  0.8586  0.4380
 2164SOL    HW217952   2.741   4.117  17.592 -0.4374  0.3019  0.1070
 2165SOL     OW17953   0.707   4.339  16.090 -0.2257  0.1262 -0.6116
 2165SOL    HW117954   0.739   4.422  16.055  0.4704  0.6698  1.3320
 2165SOL    HW217955   0.633   4.329  16.029  1.4752 -0.3370 -2.5810
 2166SOL     OW17956   0.736   1.475  13.602 -0.6624 -0.2111  0.2642
 2166SOL    HW117957   0.807   1.453  13.662 -1.3741 -0.0473  1.1637
 2166SOL    HW217958   0.743   1.571  13.597 -0.6815 -0.3280 -2.1466
 2167SOL     OW17959   0.252   3.570   6.661  0.3001  0.6162 -0.1030
 2167SOL    HW117960   0.286   3.489   6.700 -0.6979  1.0720  1.7268
 2167SOL    HW217961   0.166   3.578   6.702  0.8928  2.4217  0.7534
 2168SOL     OW17962   2.077   0.164   6.776  0.0612 -0.0629 -0.4956
 2168SOL    HW117963   1.995   0.114   6.773  0.4427 -0.9307  3.4834
 2168SOL    HW217964   2.044   0.240   6.823 -1.7313 -0.1464 -1.6049
 2169SOL     OW17965   3.246   3.370   4.844  0.0457 -0.6304  0.2227
 2169SOL    HW117966   3.333   3.396   4.814 -0.5779 -0.6547 -1.5798
 2169SOL    HW217967   3.202   3.338   4.766 -0.1010 -0.4627  0.2344
 2170SOL     OW17968   2.758   0.406  12.908  0.5336 -0.0774  0.3290
 2170SOL    HW117969   2.747   0.489  12.862  1.8344 -0.7186 -1.1483
 2170SOL    HW217970   2.845   0.387  12.872 -0.0689 -1.7575 -0.2449
 2171SOL     OW17971   1.080   1.126   7.854  0.0854 -0.4361  0.2755
 2171SOL    HW117972   1.059   1.133   7.947  0.2202 -2.0786  0.4280
 2171SOL    HW217973   1.084   1.218   7.829  2.6283 -0.8304 -0.7920
 2172SOL     OW17974   0.181   0.810   3.487  0.6251 -0.0959 -0.5283
 2172SOL    HW117975   0.165   0.733   3.433  1.2541 -0.3720 -0.3237
 2172SOL    HW217976   0.275   0.795   3.498  0.9525  1.1525 -1.6518
 2173SOL     OW17977   3.428   2.557   9.567 -0.5390 -0.0097  0.2220
 2173SOL    HW117978   3.510   2.607   9.567 -0.9013  0.5835  1.2274
 2173SOL    HW217979   3.456   2.475   9.607 -0.5944  0.4512  1.2204
 2174SOL     OW17980   1.240   0.991   7.439  0.4104 -0.3746  0.3568
 2174SOL    HW117981   1.250   1.018   7.531  1.1355 -0.5560  0.3336
 2174SOL    HW217982   1.291   1.058   7.394  0.8682 -0.1908  1.1351
 2175SOL     OW17983   0.334   0.297   0.021  0.0794 -0.0007  0.1137
 2175SOL    HW117984   0.249   0.325  17.683  1.4970  0.7423 -2.8109
 2175SOL    HW217985   0.372   0.380   0.049  1.1094  0.1207 -1.5655
 2176SOL     OW17986   3.789   2.200   8.542  0.1194  0.6156  0.0890
 2176SOL    HW117987   3.829   2.119   8.510 -3.0037 -1.3950  1.3316
 2176SOL    HW217988   3.705   2.168   8.574  0.5953  1.3055  2.0704
 2177SOL     OW17989   0.915   2.889  16.191  0.1032 -0.3552 -0.2216
 2177SOL    HW117990   0.964   2.972  16.189 -0.7559  0.0654 -3.8650
 2177SOL    HW217991   0.914   2.866  16.098 -0.4986 -0.5129 -0.1732
 2178SOL     OW17992   0.558   3.197   8.062 -0.1693  0.0445 -0.1657
 2178SOL    HW117993   0.644   3.188   8.105 -1.3142 -1.4595  1.7965
 2178SOL    HW217994   0.580   3.183   7.970  1.7225  0.8855  0.1438
 2179SOL     OW17995   0.635   2.666   8.508  0.1761 -0.1515  0.1906
 2179SOL    HW117996   0.578   2.707   8.573 -0.5379 -0.6120 -0.1456
 2179SOL    HW217997   0.695   2.620   8.567  0.2932 -1.0208 -0.6093
 2180SOL     OW17998   2.225   1.009   8.939  0.2975 -0.1660 -0.4720
 2180SOL    HW117999   2.232   1.079   8.875 -0.1514  1.1444  0.9053
 2180SOL    HW218000   2.233   0.923   8.897  1.0114  0.4094 -1.5043
 2181SOL     OW18001   1.187   2.405  12.094  0.0390  0.1351 -0.6108
 2181SOL    HW118002   1.129   2.481  12.087 -0.4201 -0.1419  0.1643
 2181SOL    HW218003   1.208   2.388  12.002  0.1905 -0.3901 -0.4755
 2182SOL     OW18004   2.563   3.581   2.494 -0.2947  0.0020 -0.2046
 2182SOL    HW118005   2.638   3.523   2.484  0.6387  1.3157 -0.8216
 2182SOL    HW218006   2.514   3.547   2.569 -0.9214  1.0341 -0.1438
 2183SOL     OW18007   0.152   4.498  10.664  0.2291 -1.0201 -0.3702
 2183SOL    HW118008   0.059   4.500  10.685  0.8286  0.7632  2.1020
 2183SOL    HW218009   0.149   4.479  10.570 -1.3565 -1.1981 -0.2906
 2184SOL     OW18010   0.645   2.775  16.160 -0.1302  0.2641  0.1645
 2184SOL    HW118011   0.562   2.794  16.204  0.0150 -0.2539  0.6623
 2184SOL    HW218012   0.718   2.800  16.217  1.0147 -1.8841 -0.3439
 2185SOL     OW18013   1.031   0.780  16.835  0.1447  0.3304  0.2722
 2185SOL    HW118014   1.077   0.707  16.875 -1.4942 -1.7581 -1.6209
 2185SOL    HW218015   1.099   0.845  16.853  0.8201 -0.6849  1.3772
 2186SOL     OW18016   0.019   2.461  10.928 -0.5185  0.4693  0.6100
 2186SOL    HW118017   4.680   2.435  10.996  0.3137  1.0352  1.5889
 2186SOL    HW218018   4.717   2.547  10.893  0.5434  0.8004  0.6505
 2187SOL     OW18019   3.577   2.746   3.619 -0.5829  0.0910  0.1748
 2187SOL    HW118020   3.620   2.667   3.652  2.0758  0.9496 -1.2141
 2187SOL    HW218021   3.638   2.816   3.642  0.8346 -0.6698 -1.2997
 2188SOL     OW18022   3.746   4.018   2.986  0.2940 -0.3986 -0.1447
 2188SOL    HW118023   3.772   4.003   3.077  2.7093  1.8637 -0.4783
 2188SOL    HW218024   3.785   4.101   2.959 -0.5766  0.3113  0.7446
 2189SOL     OW18025   4.150   2.131   1.180  0.1461  0.1525  0.1696
 2189SOL    HW118026   4.131   2.047   1.139 -1.3062  0.6924 -0.2876
 2189SOL    HW218027   4.081   2.191   1.152 -0.0615 -1.0931 -1.9603
 2190SOL     OW18028   4.005   4.193  10.528  0.1014 -0.1639 -0.1099
 2190SOL    HW118029   3.931   4.252  10.511  1.4868  1.4574 -0.4742
 2190SOL    HW218030   4.073   4.250  10.562  2.0987 -2.4545 -0.2655
 2191SOL     OW18031   0.057   2.302   0.743 -0.1266  0.1505  0.4024
 2191SOL    HW118032   0.130   2.363   0.731  0.2497 -0.6315 -1.3621
 2191SOL    HW218033   0.036   2.262   0.658 -0.4946  1.6769 -0.2254
 2192SOL     OW18034   3.582   4.281   7.940 -0.5224 -1.0929  0.5516
 2192SOL    HW118035   3.502   4.235   7.917 -1.9423  2.9503 -2.6064
 2192SOL    HW218036   3.550   4.328   8.017  0.3957  0.5374 -0.0628
 2193SOL     OW18037   2.356   2.617   0.024 -0.1701 -0.5261  0.2612
 2193SOL    HW118038   2.377   2.710   0.019 -1.0644 -0.3439 -0.1295
 2193SOL    HW218039   2.310   2.616   0.108  0.2994  0.9120  0.5349
 2194SOL     OW18040   2.077   2.100   2.297 -0.0546  0.0661 -0.0313
 2194SOL    HW118041   2.156   2.111   2.349 -0.1350 -0.3897  0.1821
 2194SOL    HW218042   2.091   2.143   2.213  0.2856 -0.0174 -0.0143
 2195SOL     OW18043   3.187   3.156   0.798 -0.1185  0.1668 -0.3929
 2195SOL    HW118044   3.214   3.142   0.707 -1.0976 -0.5614 -0.5664
 2195SOL    HW218045   3.131   3.079   0.805 -0.3157  0.4147  0.8120
 2196SOL     OW18046   2.309   4.172   5.889 -0.2980  0.7197  0.4799
 2196SOL    HW118047   2.278   4.242   5.832 -1.3617  0.2539  0.4829
 2196SOL    HW218048   2.236   4.110   5.887  0.6271 -0.3451  0.0573
 2197SOL     OW18049   4.633   1.109   0.069 -0.2764  0.2476 -0.2343
 2197SOL    HW118050   4.569   1.041   0.091 -1.8879  1.5006 -1.0517
 2197SOL    HW218051   4.578   1.181   0.038 -1.3274  0.0081  1.0653
 2198SOL     OW18052   1.769   0.619   6.742 -0.1478  0.8361  0.3669
 2198SOL    HW118053   1.828   0.674   6.690 -0.1658  1.3752  0.9138
 2198SOL    HW218054   1.684   0.663   6.736 -1.0259 -1.3027 -2.3980
 2199SOL     OW18055   0.808   3.382  15.548  0.0427 -0.0848 -0.0928
 2199SOL    HW118056   0.754   3.317  15.593  0.0855 -0.3041 -0.3658
 2199SOL    HW218057   0.894   3.346  15.569  0.5825  1.9595  1.2448
 2200SOL     OW18058   1.573   2.804   6.016  0.6743 -0.2075  0.7171
 2200SOL    HW118059   1.480   2.819   6.031  0.8680  2.8417 -1.1586
 2200SOL    HW218060   1.622   2.857   6.078  0.9336  1.5459 -0.9620
 2201SOL     OW18061   1.267   3.317   7.445  0.0346 -0.2771 -0.3628
 2201SOL    HW118062   1.306   3.313   7.357 -2.8897 -0.1559 -1.6369
 2201SOL    HW218063   1.203   3.387   7.432  0.1209 -0.7398 -3.1753
 2202SOL     OW18064   4.484   2.983   2.941  0.0799  0.3086 -0.6774
 2202SOL    HW118065   4.435   3.052   2.897 -1.0907  0.6444  1.1550
 2202SOL    HW218066   4.545   2.961   2.871  1.2946 -0.7661  0.7149
 2203SOL     OW18067   1.592   0.788   4.734  0.7050 -0.1810  0.2566
 2203SOL    HW118068   1.558   0.842   4.805 -1.5700 -1.0467 -0.1557
 2203SOL    HW218069   1.659   0.852   4.711 -1.5530  2.2054  0.4163
 2204SOL     OW18070   0.490   0.844   4.024  0.5582 -0.1953  0.8365
 2204SOL    HW118071   0.410   0.850   4.077  0.0456  1.1789 -0.0743
 2204SOL    HW218072   0.492   0.932   3.985  0.1915 -0.9663 -0.8956
 2205SOL     OW18073   4.313   3.296   5.940  0.5901  0.6884  0.4769
 2205SOL    HW118074   4.384   3.255   5.989 -0.1825 -0.3860  0.6876
 2205SOL    HW218075   4.350   3.381   5.915 -1.3842  0.5650 -2.7662
 2206SOL     OW18076   2.876   0.456   5.980  0.0165 -1.0839 -0.0342
 2206SOL    HW118077   2.958   0.479   5.937 -0.9066  2.3023  0.0492
 2206SOL    HW218078   2.894   0.374   6.027 -0.8398 -0.5922  1.1258
 2207SOL     OW18079   2.732   2.763  15.026 -0.3260 -0.4490  0.6126
 2207SOL    HW118080   2.698   2.850  15.047 -0.7052 -0.3610 -0.3658
 2207SOL    HW218081   2.826   2.769  15.039 -0.1191  0.9913 -1.6368
 2208SOL     OW18082   3.690   2.508  14.625 -0.0577 -0.0638 -0.2911
 2208SOL    HW118083   3.702   2.415  14.644  0.3611  0.0394 -0.0453
 2208SOL    HW218084   3.715   2.548  14.708 -0.2628  0.2442 -0.3798
 2209SOL     OW18085   3.724   0.003   4.093  0.2847  0.0807  0.1532
 2209SOL    HW118086   3.643   0.044   4.124  0.0967 -0.1961  0.0377
 2209SOL    HW218087   3.771   0.081   4.065  1.8081 -1.1102 -0.5738
 2210SOL     OW18088   1.375   1.669   5.060  0.0592 -0.4786 -0.6665
 2210SOL    HW118089   1.418   1.690   5.143  0.9043 -3.7760 -0.2789
 2210SOL    HW218090   1.438   1.603   5.032 -0.1586  0.2273 -2.7842
 2211SOL     OW18091   2.208   4.465   3.571 -0.5888  0.0890  0.3271
 2211SOL    HW118092   2.262   4.393   3.605 -0.5667 -1.1407 -2.3067
 2211SOL    HW218093   2.129   4.462   3.625 -0.9123  1.1080 -0.0970
 2212SOL     OW18094   1.633   1.743   3.559 -0.2143  0.3923 -0.4832
 2212SOL    HW118095   1.698   1.806   3.527  2.0200 -1.4031  0.4567
 2212SOL    HW218096   1.574   1.713   3.490 -0.3849 -2.5289  0.9069
 2213SOL     OW18097   1.604   2.982   5.491 -0.4233 -0.6336  0.3386
 2213SOL    HW118098   1.574   3.070   5.514  0.8516  0.0002 -0.4368
 2213SOL    HW218099   1.636   2.984   5.401 -0.4471 -2.0109  0.3092
 2214SOL     OW18100   1.280   2.278   7.636  0.1731  0.1654  0.5293
 2214SOL    HW118101   1.263   2.330   7.557  2.0030 -2.0807 -1.3139
 2214SOL    HW218102   1.189   2.252   7.648 -0.7198  0.9309 -4.5860
 2215SOL     OW18103   0.365   1.021   6.377  0.0991 -0.0900  0.3643
 2215SOL    HW118104   0.417   1.087   6.330 -2.6074 -0.9158 -3.7394
 2215SOL    HW218105   0.415   0.941   6.361 -2.1662 -1.5786  0.7509
 2216SOL     OW18106   3.183   4.118  17.211  0.0514  0.2153  0.1268
 2216SOL    HW118107   3.094   4.150  17.192  0.3682  0.6318 -0.6765
 2216SOL    HW218108   3.184   4.108  17.306 -3.5751  0.7831  0.2289
 2217SOL     OW18109   1.234   1.597   3.244 -0.5222 -0.6698  0.1162
 2217SOL    HW118110   1.167   1.628   3.184 -1.3249 -0.8675  0.9059
 2217SOL    HW218111   1.296   1.552   3.187 -1.0477  0.9924 -1.7432
 2218SOL     OW18112   3.699   4.139   2.488 -0.1224 -0.3585  0.0107
 2218SOL    HW118113   3.680   4.232   2.477 -1.6046 -0.7599 -0.8733
 2218SOL    HW218114   3.784   4.147   2.531 -0.9223  1.7839  1.1612
 2219SOL     OW18115   0.537   2.036  14.275  0.4035  0.0237  0.1482
 2219SOL    HW118116   0.485   2.080  14.341  2.1791  0.4082  1.2792
 2219SOL    HW218117   0.520   1.949  14.313  0.2528  0.4649  1.0812
 2220SOL     OW18118   2.591   3.943  13.387 -0.0325  0.5355  0.5173
 2220SOL    HW118119   2.501   3.968  13.366 -0.6271  0.0148  2.4126
 2220SOL    HW218120   2.583   3.953  13.482 -1.4113  0.0211  0.4598
 2221SOL     OW18121   3.305   1.150   3.844  0.2114  0.8863 -0.5690
 2221SOL    HW118122   3.319   1.164   3.751 -1.4937 -1.3155 -1.1623
 2221SOL    HW218123   3.224   1.099   3.845  0.1674  0.9476 -1.1970
 2222SOL     OW18124   2.236   3.288   9.831  0.5668 -0.2720 -0.2175
 2222SOL    HW118125   2.284   3.313   9.752 -0.7547 -1.4931 -1.4163
 2222SOL    HW218126   2.146   3.278   9.800  1.2146  1.6754 -2.7524
 2223SOL     OW18127   1.340   3.284   2.953 -0.1682 -0.1508  0.2831
 2223SOL    HW118128   1.301   3.228   3.020 -1.2157 -0.4367 -0.5683
 2223SOL    HW218129   1.409   3.329   3.003 -1.2116 -0.2204  1.7948
 2224SOL     OW18130   0.153   2.928  17.238  0.7354  0.4026 -0.3133
 2224SOL    HW118131   0.102   2.986  17.294 -0.1393 -0.4767 -0.1799
 2224SOL    HW218132   0.241   2.955  17.261 -0.0468  0.9426  2.0901
 2225SOL     OW18133   1.052   2.723  16.347 -0.5948  0.0453  0.7983
 2225SOL    HW118134   1.008   2.779  16.282  0.9306  0.0696 -0.2115
 2225SOL    HW218135   1.059   2.641  16.298  0.5103 -0.9288  2.6104
 2226SOL     OW18136   0.778   1.572   0.556 -0.1187  0.1101  0.1523
 2226SOL    HW118137   0.832   1.569   0.634  0.9069 -0.5104 -0.5818
 2226SOL    HW218138   0.851   1.589   0.496 -0.7995  1.5061 -0.2822
 2227SOL     OW18139   4.663   3.541   5.261  0.1010  0.0900 -0.1086
 2227SOL    HW118140   4.695   3.503   5.343 -0.6742 -0.7035 -0.1689
 2227SOL    HW218141   4.648   3.633   5.282 -1.2895 -0.1627  0.0286
 2228SOL     OW18142   0.174   1.163  15.017  0.2050 -0.2022 -0.3001
 2228SOL    HW118143   0.101   1.131  15.071  0.1885  0.3991  0.0394
 2228SOL    HW218144   0.222   1.214  15.082 -1.3191  0.7297  0.0999
 2229SOL     OW18145   0.176   4.127   9.325 -0.0177  0.3039 -0.0201
 2229SOL    HW118146   0.099   4.103   9.376  0.5091 -1.5601 -0.1069
 2229SOL    HW218147   0.208   4.039   9.307 -0.4977 -0.0134  0.6660
 2230SOL     OW18148   0.772   3.999   0.278 -0.4039  0.8012 -0.2087
 2230SOL    HW118149   0.704   3.931   0.281  2.0340 -1.6718 -1.1128
 2230SOL    HW218150   0.726   4.046   0.347 -2.1982  0.2467 -1.0142
 2231SOL     OW18151   4.605   3.159   4.790 -0.1251 -0.4474  0.3666
 2231SOL    HW118152   4.652   3.164   4.873  0.3019 -0.5141  0.1281
 2231SOL    HW218153   4.523   3.146   4.836  0.3209  2.0328  1.9076
 2232SOL     OW18154   1.286   0.610   7.761 -0.3129 -0.1690 -0.2209
 2232SOL    HW118155   1.366   0.605   7.709 -1.5566  0.1220 -2.1569
 2232SOL    HW218156   1.295   0.695   7.805 -3.4567 -0.2883  0.6493
 2233SOL     OW18157   2.089   2.646  10.129 -0.5048 -0.7058  0.1495
 2233SOL    HW118158   2.057   2.571  10.179  1.0424 -0.6396  1.2279
 2233SOL    HW218159   2.172   2.614  10.094  0.2248 -1.1655  2.2796
 2234SOL     OW18160   2.311   3.916   7.818  0.0937  0.4346 -0.2882
 2234SOL    HW118161   2.347   3.831   7.840  1.1048  0.9973  0.2236
 2234SOL    HW218162   2.246   3.922   7.887  1.1757  3.0463  0.5026
 2235SOL     OW18163   1.788   2.620   8.447 -0.3052  0.4324 -0.2834
 2235SOL    HW118164   1.707   2.569   8.443  2.2352 -3.6207 -0.1115
 2235SOL    HW218165   1.752   2.708   8.456  2.2933  1.4009  0.6087
 2236SOL     OW18166   2.915   0.705   5.551 -0.0296  0.7212 -0.3039
 2236SOL    HW118167   2.855   0.641   5.514  0.4135  0.9197 -1.3717
 2236SOL    HW218168   2.981   0.714   5.481  0.0480  1.7372 -0.1089
 2237SOL     OW18169   2.032   2.346   1.665 -0.0293 -0.1444 -0.4308
 2237SOL    HW118170   2.091   2.276   1.691  0.0383 -0.0750 -0.3960
 2237SOL    HW218171   1.949   2.299   1.663 -0.5750  0.7656  1.1366
 2238SOL     OW18172   1.705   2.363   7.907 -0.4533 -0.1666 -0.1330
 2238SOL    HW118173   1.711   2.348   8.001  0.3632 -1.5714 -0.4042
 2238SOL    HW218174   1.740   2.281   7.872  3.6718  1.6356 -0.2816
 2239SOL     OW18175   3.334   4.302  10.954  0.4024 -0.0699 -0.3580
 2239SOL    HW118176   3.339   4.207  10.966 -0.5600  0.0913  1.4489
 2239SOL    HW218177   3.251   4.326  10.997  0.2336 -2.3787  0.5947
 2240SOL     OW18178   2.602   2.506  17.623  0.4014 -0.4615 -0.5935
 2240SOL    HW118179   2.514   2.540  17.634  0.9313  0.3331  1.1942
 2240SOL    HW218180   2.643   2.586  17.589  0.6967 -0.0777  0.6719
 2241SOL     OW18181   0.718   1.154   1.826  0.6451  0.2846 -0.4102
 2241SOL    HW118182   0.757   1.188   1.907 -1.4839  1.6850  0.0198
 2241SOL    HW218183   0.761   1.068   1.834  0.2028  0.2880  2.0563
 2242SOL     OW18184   0.492   1.767   5.263 -0.2358  0.0483 -0.0217
 2242SOL    HW118185   0.578   1.728   5.247  0.0602  0.5826  0.2724
 2242SOL    HW218186   0.500   1.845   5.207 -1.1336  0.0435 -0.1463
 2243SOL     OW18187   2.526   2.727   4.652 -0.5313 -0.1085  0.3681
 2243SOL    HW118188   2.518   2.821   4.640  1.7042  0.0082 -0.2011
 2243SOL    HW218189   2.620   2.711   4.663 -0.3203  0.2635 -0.9470
 2244SOL     OW18190   3.720   3.441  12.174  0.1317  1.0078 -0.1599
 2244SOL    HW118191   3.783   3.484  12.231  0.2438  0.0082  0.4579
 2244SOL    HW218192   3.672   3.379  12.228 -0.1521 -0.4512 -2.0819
 2245SOL     OW18193   4.613   4.491   9.769 -0.3255  0.6134 -0.1811
 2245SOL    HW118194   4.628   4.440   9.689  2.8451 -2.2997  2.2801
 2245SOL    HW218195   4.532   4.534   9.741 -1.8408 -1.1888  1.4370
 2246SOL     OW18196   4.017   3.240   3.661 -0.3912 -0.4087  0.2355
 2246SOL    HW118197   4.015   3.147   3.641  2.3204 -1.0755  3.0383
 2246SOL    HW218198   4.103   3.252   3.703 -1.1073  0.0655  1.5744
 2247SOL     OW18199   1.115   0.520   3.676 -0.3617  0.1477 -0.3458
 2247SOL    HW118200   1.144   0.574   3.603  0.8598  0.1374  0.1417
 2247SOL    HW218201   1.143   0.581   3.744 -1.3008  0.6265 -0.3770
 2248SOL     OW18202   4.465   1.873   7.020 -0.0224  0.1586 -0.2503
 2248SOL    HW118203   4.507   1.788   7.011  0.0150  0.1920 -0.3874
 2248SOL    HW218204   4.449   1.883   7.114  1.8077 -0.1117  0.0927
 2249SOL     OW18205   1.602   1.265   2.924 -0.1425 -0.3758  0.4536
 2249SOL    HW118206   1.575   1.247   3.014 -1.3358 -2.6195 -0.3722
 2249SOL    HW218207   1.602   1.177   2.887  1.3338 -1.5390  3.2148
 2250SOL     OW18208   0.064   3.042   2.866  0.0583  0.2569  0.1401
 2250SOL    HW118209   0.058   2.962   2.918 -1.3358 -0.5647 -1.2865
 2250SOL    HW218210   0.122   3.015   2.794 -0.8460 -0.0096 -0.4896
 2251SOL     OW18211   0.726   1.110  10.042 -0.0121 -0.7531  0.4632
 2251SOL    HW118212   0.789   1.182  10.052  1.5547 -2.3811  2.4458
 2251SOL    HW218213   0.737   1.066  10.127  0.5616 -2.2113 -0.3628
 2252SOL     OW18214   3.676   4.383   3.003  0.0990 -0.3502 -0.1455
 2252SOL    HW118215   3.690   4.431   2.922  0.7875 -0.1776  0.0733
 2252SOL    HW218216   3.762   4.340   3.006  0.8873  1.2774  0.4678
 2253SOL     OW18217   2.452   4.090   7.373 -0.5665  0.2566 -0.2577
 2253SOL    HW118218   2.385   4.155   7.357 -1.0909  0.3911  2.5117
 2253SOL    HW218219   2.397   4.020   7.410  0.4301  0.6647  2.0275
 2254SOL     OW18220   2.795   2.684   9.531 -0.5204  0.8014 -0.5312
 2254SOL    HW118221   2.856   2.743   9.486  0.8754 -1.4413 -1.5758
 2254SOL    HW218222   2.801   2.710   9.623 -1.8477 -3.5700  0.8017
 2255SOL     OW18223   2.448   2.608   3.329  0.0103 -0.1483 -0.1015
 2255SOL    HW118224   2.362   2.633   3.363  1.8824  2.4106  2.7874
 2255SOL    HW218225   2.488   2.692   3.352 -1.7769  0.6023  0.2068
 2256SOL     OW18226   2.636   4.205   0.582 -0.0593 -0.5117  0.0268
 2256SOL    HW118227   2.595   4.195   0.668  0.4529  0.0969  0.3465
 2256SOL    HW218228   2.573   4.151   0.535 -3.3641  3.5883 -0.2410
 2257SOL     OW18229   4.150   4.475   7.149  0.0129  0.4002  0.1125
 2257SOL    HW118230   4.237   4.435   7.152  0.4670  1.4195  0.3298
 2257SOL    HW218231   4.116   4.424   7.222  3.0205 -1.3172  0.3037
 2258SOL     OW18232   4.367   4.608   9.728 -0.3243 -0.1981  0.0708
 2258SOL    HW118233   4.283   4.572   9.757 -0.4277  0.3440  0.4232
 2258SOL    HW218234   4.380   4.680   9.789 -3.5523  0.9175 -0.5406
 2259SOL     OW18235   0.194   1.413   7.211 -0.3482  0.0039  0.6685
 2259SOL    HW118236   0.139   1.384   7.138 -0.2085  0.5405  0.3562
 2259SOL    HW218237   0.210   1.333   7.261 -0.9384  0.4910  1.6288
 2260SOL     OW18238   4.360   3.382  14.940 -0.0967 -0.1697 -0.1717
 2260SOL    HW118239   4.398   3.301  14.973  0.5673 -0.0078 -0.5337
 2260SOL    HW218240   4.435   3.432  14.906 -1.4276 -0.6879 -3.9105
 2261SOL     OW18241   1.008   0.937   7.325 -0.3231  0.2674 -0.1530
 2261SOL    HW118242   1.000   1.022   7.282 -1.1996 -1.4781 -3.4462
 2261SOL    HW218243   1.094   0.942   7.368  0.7908 -0.6754 -2.2392
 2262SOL     OW18244   1.142   2.072  12.159 -0.3075  0.5331 -0.2652
 2262SOL    HW118245   1.171   1.983  12.139 -2.7363 -0.1894 -0.6302
 2262SOL    HW218246   1.188   2.118  12.088 -0.9263 -1.2402 -1.8194
 2263SOL     OW18247   2.361   3.673   1.867  0.7730 -0.4128  0.2166
 2263SOL    HW118248   2.383   3.729   1.792 -0.3461  0.1819  0.3440
 2263SOL    HW218249   2.448   3.675   1.909  0.1112  0.5787  1.5102
 2264SOL     OW18250   0.140   3.682  14.227  0.4410 -0.1021  0.2994
 2264SOL    HW118251   0.060   3.734  14.218  0.1960 -0.3318  1.2088
 2264SOL    HW218252   0.094   3.598  14.238  2.7183 -1.6869 -2.1655
 2265SOL     OW18253   0.224   2.288  13.625  0.1521 -0.0518 -0.0627
 2265SOL    HW118254   0.317   2.265  13.632 -0.4001 -2.5274 -1.0934
 2265SOL    HW218255   0.224   2.381  13.647 -1.8772 -0.3170  1.0221
 2266SOL     OW18256   3.102   4.333  13.345  0.0724 -0.4234  0.1215
 2266SOL    HW118257   3.113   4.292  13.259 -3.5558 -0.2630 -0.4546
 2266SOL    HW218258   3.145   4.418  13.335 -0.8750  0.0243 -0.1785
 2267SOL     OW18259   3.989   1.879  16.334 -0.6016 -0.9731 -0.0732
 2267SOL    HW118260   3.913   1.857  16.280 -0.8560  0.9985 -0.5147
 2267SOL    HW218261   3.956   1.939  16.400 -0.0395  0.1687 -0.8245
 2268SOL     OW18262   0.923   0.896   1.852  0.3144  0.2365 -0.2174
 2268SOL    HW118263   0.874   0.847   1.918  2.4964 -0.7061  0.7407
 2268SOL    HW218264   0.996   0.934   1.902 -0.3274 -0.7138  1.4652
 2269SOL     OW18265   2.588   4.500   0.152 -0.2178 -0.1271  0.2773
 2269SOL    HW118266   2.509   4.499   0.206 -0.8097  1.3930 -0.5793
 2269SOL    HW218267   2.650   4.480   0.223 -2.3189  1.0679  2.4454
 2270SOL     OW18268   1.144   2.274  13.814  0.4088  0.2616  0.0955
 2270SOL    HW118269   1.176   2.363  13.827  1.7812 -0.2756  0.3090
 2270SOL    HW218270   1.180   2.259  13.727  1.1980  0.0211  0.4687
 2271SOL     OW18271   2.396   2.540   7.715  0.5934 -0.0734 -0.5733
 2271SOL    HW118272   2.351   2.487   7.650  0.2497 -2.5625  1.7151
 2271SOL    HW218273   2.437   2.473   7.769 -0.2556 -0.9919 -1.0727
 2272SOL     OW18274   3.334   0.348  10.824  0.0846  0.2969  0.5296
 2272SOL    HW118275   3.408   0.288  10.812 -0.3934 -0.1276 -0.2487
 2272SOL    HW218276   3.366   0.397  10.900  0.8241  0.1206  0.3353
 2273SOL     OW18277   4.224   0.407   3.708  0.4434  0.1484 -0.3320
 2273SOL    HW118278   4.310   0.376   3.678 -1.1745 -2.6796 -1.9635
 2273SOL    HW218279   4.257   0.457   3.782  3.1381 -0.7977 -0.8786
 2274SOL     OW18280   2.527   0.929   2.938 -0.2693  0.0663 -0.0810
 2274SOL    HW118281   2.433   0.941   2.945 -0.3985 -1.0704  0.0453
 2274SOL    HW218282   2.534   0.842   2.898 -0.6183  0.0630 -0.1281
 2275SOL     OW18283   2.166   1.691   3.112  0.3856 -0.1076  0.4425
 2275SOL    HW118284   2.074   1.699   3.091  0.6497 -1.2145 -1.1096
 2275SOL    HW218285   2.200   1.700   3.023 -0.3175  1.3992  0.3308
 2276SOL     OW18286   0.935   4.160   3.403  0.0520 -1.0231  0.0971
 2276SOL    HW118287   0.959   4.199   3.319 -1.9539  0.1292  0.0544
 2276SOL    HW218288   1.013   4.194   3.446 -1.3812  0.4905  1.4967
 2277SOL     OW18289   0.953   0.737  10.324 -0.0643  0.1126  0.3100
 2277SOL    HW118290   1.027   0.758  10.267 -2.3200  0.0699 -2.6185
 2277SOL    HW218291   0.943   0.645  10.299  1.4210  0.5072 -1.7908
 2278SOL     OW18292   2.537   3.425   9.929 -0.0622 -0.1681  0.4852
 2278SOL    HW118293   2.466   3.361   9.930  0.3373 -0.6465 -1.2892
 2278SOL    HW218294   2.611   3.374   9.962  1.4879  0.6846 -1.6453
 2279SOL     OW18295   3.177   4.252   5.800 -0.2196 -0.3817  0.1218
 2279SOL    HW118296   3.092   4.258   5.845 -1.2004 -1.9847 -1.5768
 2279SOL    HW218297   3.231   4.311   5.854  0.2302 -1.0696  0.4188
 2280SOL     OW18298   1.607   0.948  13.663 -0.5547  0.6390 -0.0359
 2280SOL    HW118299   1.656   0.956  13.582 -0.3708  1.3322  0.1496
 2280SOL    HW218300   1.519   0.982  13.645 -0.4815 -0.0422 -1.6487
 2281SOL     OW18301   1.060   2.016   5.901  0.9522 -0.7678  0.2288
 2281SOL    HW118302   1.111   2.090   5.935 -1.6916  1.8508 -1.5355
 2281SOL    HW218303   1.078   2.029   5.807 -3.2886  0.0880 -0.4557
 2282SOL     OW18304   2.754   0.298  14.128  0.0818 -0.1944 -0.0430
 2282SOL    HW118305   2.753   0.216  14.080 -1.9070 -1.3948  2.0541
 2282SOL    HW218306   2.721   0.361  14.064 -0.2296  0.2847  0.5792
 2283SOL     OW18307   3.038   3.183   2.603 -0.1920 -0.2116  0.5514
 2283SOL    HW118308   3.040   3.276   2.579  1.8005 -0.6539 -1.0052
 2283SOL    HW218309   2.963   3.153   2.553  0.3885 -2.2252  0.8989
 2284SOL     OW18310   1.990   0.799   0.713 -0.1403  0.2513  0.5311
 2284SOL    HW118311   2.039   0.763   0.639  1.8184 -0.7411  2.3267
 2284SOL    HW218312   2.057   0.837   0.768  2.5321 -1.3542 -1.6252
 2285SOL     OW18313   0.405   2.976  17.347  0.0443 -0.0011 -0.2342
 2285SOL    HW118314   0.393   3.059  17.394  0.0927 -0.8000  1.1865
 2285SOL    HW218315   0.493   2.997  17.314  1.5073  0.1733  3.7917
 2286SOL     OW18316   2.547   0.293  14.373  0.0147 -0.2998 -0.1795
 2286SOL    HW118317   2.454   0.314  14.364 -0.1678 -1.8945 -2.0420
 2286SOL    HW218318   2.564   0.329  14.285 -2.1397  3.5301  0.9620
 2287SOL     OW18319   3.465   2.514   6.083  0.3832 -0.2836 -0.1561
 2287SOL    HW118320   3.483   2.579   6.015 -0.4731 -0.9251 -1.0086
 2287SOL    HW218321   3.517   2.531   6.161 -0.6506  0.7923  0.2941
 2288SOL     OW18322   3.127   0.037  10.567 -0.2750 -0.3859 -0.2054
 2288SOL    HW118323   3.188   4.695  10.599 -0.1592 -0.0600  0.2485
 2288SOL    HW218324   3.113   0.089  10.646 -1.6958 -0.0005 -0.7052
 2289SOL     OW18325   3.730   2.074   0.749  0.5551 -0.1925 -0.4986
 2289SOL    HW118326   3.811   2.122   0.734  1.1852 -0.3950  2.2817
 2289SOL    HW218327   3.659   2.132   0.724  0.2194  0.1047  1.1501
 2290SOL     OW18328   0.654   4.037   3.433 -0.0135  0.0972  0.3555
 2290SOL    HW118329   0.623   4.010   3.346  0.7315 -0.7080  0.3458
 2290SOL    HW218330   0.745   4.056   3.410  0.1304 -0.1093  0.7546
 2291SOL     OW18331   4.675   2.299  17.689  0.1902  0.1788  1.0058
 2291SOL    HW118332   4.650   2.211   0.020  0.6895 -0.6022 -1.0089
 2291SOL    HW218333   4.650   2.304  17.597 -2.9179 -0.0730  1.8373
 2292SOL     OW18334   3.498   0.845  16.627 -0.0081  0.1159  0.5047
 2292SOL    HW118335   3.578   0.891  16.602 -0.2023 -0.0719 -0.4874
 2292SOL    HW218336   3.505   0.833  16.722 -0.4023 -0.6912  0.4316
 2293SOL     OW18337   2.602   3.791  15.277  0.1801 -0.1375  0.0983
 2293SOL    HW118338   2.685   3.812  15.318 -0.7645  1.2950  1.2572
 2293SOL    HW218339   2.577   3.878  15.247  0.4360 -0.4019 -0.9158
 2294SOL     OW18340   3.693   3.240   6.183  0.1853 -0.3892 -0.2581
 2294SOL    HW118341   3.700   3.145   6.174  1.5114  0.0370 -3.4481
 2294SOL    HW218342   3.644   3.249   6.265  0.3371 -0.4686 -0.1585
 2295SOL     OW18343   2.897   2.988   9.020 -0.1964 -0.0130  0.2216
 2295SOL    HW118344   2.928   3.078   9.029 -0.9279 -0.0333  3.2404
 2295SOL    HW218345   2.974   2.935   9.043 -0.2611 -0.1972  0.0071
 2296SOL     OW18346   0.486   0.863   8.030 -0.4562 -0.1865  0.7305
 2296SOL    HW118347   0.535   0.916   8.093 -0.8386 -1.7315  2.3025
 2296SOL    HW218348   0.486   0.775   8.065  0.2635  0.4121  2.2161
 2297SOL     OW18349   3.604   2.765   3.286  0.5681  0.1517 -0.4340
 2297SOL    HW118350   3.636   2.851   3.313 -1.5404  0.9336 -0.4006
 2297SOL    HW218351   3.580   2.730   3.372  0.6262  0.8327 -0.1401
 2298SOL     OW18352   4.600   3.472   5.026  0.4957 -0.4390 -0.3848
 2298SOL    HW118353   4.594   3.376   5.020 -2.7625 -0.0749 -3.0174
 2298SOL    HW218354   4.657   3.493   5.100 -0.6959  0.5764  0.2370
 2299SOL     OW18355   0.702   1.264   4.869  0.1134  0.4214  0.1436
 2299SOL    HW118356   0.636   1.195   4.871  0.4856  0.0837  0.9204
 2299SOL    HW218357   0.688   1.299   4.781  1.9371  1.2105  0.1649
 2300SOL     OW18358   3.187   3.830   7.737  0.1535  0.5890  0.1639
 2300SOL    HW118359   3.119   3.826   7.804  0.4193  0.2926  0.4152
 2300SOL    HW218360   3.141   3.780   7.670  0.3919  0.2994  0.2137
 2301SOL     OW18361   4.467   2.759   0.717 -0.6854  0.4992 -0.3028
 2301SOL    HW118362   4.379   2.795   0.706 -1.3165 -0.7032  0.8783
 2301SOL    HW218363   4.460   2.664   0.714 -0.7882  0.5206 -0.7301
 2302SOL     OW18364   1.385   3.520  12.382 -0.2737  0.0015 -0.7787
 2302SOL    HW118365   1.390   3.521  12.287  1.7861 -1.8700 -0.7009
 2302SOL    HW218366   1.299   3.483  12.400  0.3405 -1.6440 -1.2281
 2303SOL     OW18367   3.686   4.332   8.813  0.4003 -0.4416  0.2420
 2303SOL    HW118368   3.630   4.407   8.793  2.5010  1.1717  0.4870
 2303SOL    HW218369   3.628   4.292   8.879 -0.0009 -0.2841 -0.0152
 2304SOL     OW18370   4.218   4.609   2.713 -0.1459  0.2653  0.1138
 2304SOL    HW118371   4.306   4.618   2.677 -0.6825 -1.1953 -1.5520
 2304SOL    HW218372   4.206   4.689   2.764 -0.6652  1.5109 -1.9755
 2305SOL     OW18373   0.934   3.001   9.548  0.0341 -0.2922  0.1360
 2305SOL    HW118374   0.887   2.968   9.624 -1.1918 -0.8477 -0.8585
 2305SOL    HW218375   0.994   2.927   9.535 -1.0142 -0.8857 -1.3615
 2306SOL     OW18376   3.425   3.181   5.931 -0.4290 -0.6034  0.5712
 2306SOL    HW118377   3.429   3.139   6.017  0.0328  1.0705  1.3572
 2306SOL    HW218378   3.399   3.269   5.958  0.2363 -0.4777  0.7856
 2307SOL     OW18379   3.836   3.364   3.889  0.6846 -0.0909 -0.0213
 2307SOL    HW118380   3.808   3.301   3.956  0.9362 -1.0914 -0.8485
 2307SOL    HW218381   3.883   3.306   3.828  0.2319  0.1818 -0.6331
 2308SOL     OW18382   0.919   2.758   3.806 -0.0370  0.1787  0.0967
 2308SOL    HW118383   0.839   2.807   3.825  0.4719  0.6232  1.0773
 2308SOL    HW218384   0.988   2.824   3.805 -0.1210  0.2435 -1.0475
 2309SOL     OW18385   4.507   0.747  16.574 -0.1481  0.0128  1.0013
 2309SOL    HW118386   4.492   0.817  16.510 -0.3068  1.4287  2.5730
 2309SOL    HW218387   4.603   0.742  16.571 -0.1994  1.0275 -2.5968
 2310SOL     OW18388   3.564   1.752   4.874 -0.4322 -0.9380 -0.1504
 2310SOL    HW118389   3.629   1.761   4.944  0.7154 -1.6149 -1.1268
 2310SOL    HW218390   3.594   1.679   4.820  2.2454  0.7968 -1.0084
 2311SOL     OW18391   1.983   2.391   4.513 -0.5826 -0.2835 -0.1575
 2311SOL    HW118392   2.039   2.404   4.437 -0.9846  1.2402 -0.1969
 2311SOL    HW218393   1.922   2.324   4.483 -0.2011 -0.0083 -1.5217
 2312SOL     OW18394   0.100   1.526   8.402  0.0945  0.0141  0.1096
 2312SOL    HW118395   0.187   1.501   8.436  1.4018  0.6664 -2.7638
 2312SOL    HW218396   0.038   1.499   8.470  1.0011 -1.3872  0.4065
 2313SOL     OW18397   2.937   3.605  11.605  0.4143  0.2576  0.4825
 2313SOL    HW118398   2.891   3.530  11.641  0.1157  0.4954  0.5986
 2313SOL    HW218399   2.944   3.578  11.514  1.4290  0.3103  0.5450
 2314SOL     OW18400   1.388   1.950   4.992  0.3669 -0.0103 -0.0616
 2314SOL    HW118401   1.474   1.992   4.998  1.3023 -1.9335 -0.1840
 2314SOL    HW218402   1.414   1.859   5.002  0.8048  0.2327  1.0071
 2315SOL     OW18403   1.234   3.229  16.475 -0.8691 -0.1086  0.8379
 2315SOL    HW118404   1.302   3.284  16.438 -0.4671 -0.8078  0.5318
 2315SOL    HW218405   1.165   3.273  16.425 -0.1782  1.4107  1.2589
 2316SOL     OW18406   0.343   1.395   8.220  0.4298  0.7916 -0.1183
 2316SOL    HW118407   0.396   1.318   8.202 -0.3003 -0.0788  1.4083
 2316SOL    HW218408   0.352   1.393   8.316 -0.1056 -0.7603 -0.1150
 2317SOL     OW18409   0.603   0.487   4.286  0.4228 -0.1753  0.1479
 2317SOL    HW118410   0.663   0.548   4.243  1.2100 -1.4620 -0.5607
 2317SOL    HW218411   0.578   0.545   4.358  1.4117 -0.2358  0.5374
 2318SOL     OW18412   3.483   1.235   3.088 -0.6332  0.4243  0.0341
 2318SOL    HW118413   3.515   1.321   3.118  0.5081  0.2375 -0.6317
 2318SOL    HW218414   3.491   1.236   2.993  0.2947  1.5900  0.1180
 2319SOL     OW18415   0.545   3.948  10.090  0.1191 -0.5568 -0.5035
 2319SOL    HW118416   0.488   3.904  10.152 -1.5405  0.3771 -1.3655
 2319SOL    HW218417   0.621   3.929  10.145  0.4272  1.3028 -0.2774
 2320SOL     OW18418   1.107   2.032   2.035  0.1112 -0.2067  0.5078
 2320SOL    HW118419   1.023   1.997   2.066 -1.1815  1.4219 -1.1674
 2320SOL    HW218420   1.078   2.106   1.981  2.2445  0.5221  0.3421
 2321SOL     OW18421   4.019   2.743   2.691 -0.5656  0.5140  0.3686
 2321SOL    HW118422   3.983   2.656   2.672  2.1617  0.1244 -2.8841
 2321SOL    HW218423   3.970   2.782   2.764  1.0650 -0.0449  1.7782
 2322SOL     OW18424   3.078   1.013   4.788 -0.1482  0.4144  0.2059
 2322SOL    HW118425   3.106   1.103   4.803 -2.3700  1.2142 -0.5266
 2322SOL    HW218426   2.987   1.024   4.816 -0.1920  2.0650 -0.5640
 2323SOL     OW18427   3.523   2.814   9.346  0.2273 -0.6473 -0.3312
 2323SOL    HW118428   3.577   2.773   9.413 -0.0958 -0.3992  0.0770
 2323SOL    HW218429   3.438   2.770   9.353  1.0011 -1.8374  1.4415
 2324SOL     OW18430   1.698   4.080   9.874  0.3268 -0.5149  0.4985
 2324SOL    HW118431   1.644   4.110   9.801 -1.0545 -2.3310  0.7806
 2324SOL    HW218432   1.774   4.138   9.873 -1.1406  1.4026  0.3391
 2325SOL     OW18433   4.270   2.267  12.644 -0.3631 -0.3063  0.2490
 2325SOL    HW118434   4.254   2.254  12.738  2.8136 -2.6149  0.4464
 2325SOL    HW218435   4.313   2.353  12.647  0.2886 -0.6757  1.6738
 2326SOL     OW18436   3.191   3.705   8.613  0.3856  0.0646  0.2245
 2326SOL    HW118437   3.252   3.719   8.685 -0.4576  0.7489  0.8067
 2326SOL    HW218438   3.217   3.786   8.568  1.0189 -0.2951 -0.0540
 2327SOL     OW18439   1.073   2.816  13.683  0.0164  0.4467 -0.6659
 2327SOL    HW118440   1.074   2.908  13.659 -1.5958  0.9715  1.2227
 2327SOL    HW218441   1.085   2.820  13.778  1.2849  0.3110 -0.8171
 2328SOL     OW18442   3.760   1.656  10.372  0.2657 -0.0040 -0.0040
 2328SOL    HW118443   3.679   1.700  10.347  0.1899 -0.6951 -1.0059
 2328SOL    HW218444   3.786   1.640  10.281 -0.1451 -2.3077  0.2872
 2329SOL     OW18445   3.722   1.421   8.521 -0.3481 -0.7153  0.3013
 2329SOL    HW118446   3.653   1.472   8.479  0.1500 -0.2555  0.0447
 2329SOL    HW218447   3.762   1.409   8.435  0.0244  0.2016  0.3483
 2330SOL     OW18448   3.325   0.549  14.456 -0.2767  0.2023  0.1621
 2330SOL    HW118449   3.231   0.540  14.470 -0.4647  0.5618 -0.8714
 2330SOL    HW218450   3.358   0.591  14.536 -0.6131 -0.2875  0.5549
 2331SOL     OW18451   4.661   4.567  12.190 -0.0453  0.1914  0.0192
 2331SOL    HW118452   4.628   4.516  12.116  0.7704  1.0452 -0.9368
 2331SOL    HW218453   0.024   4.528  12.203 -0.3323 -0.1356  0.9828
 2332SOL     OW18454   2.781   4.094   0.293  0.0888  0.3027  0.0257
 2332SOL    HW118455   2.707   4.110   0.236 -0.2734 -0.6046  0.2416
 2332SOL    HW218456   2.763   4.141   0.375 -2.1444 -0.3311 -0.1095
 2333SOL     OW18457   1.733   1.652  12.771  0.1352 -0.2300 -0.5309
 2333SOL    HW118458   1.694   1.604  12.698 -1.0725 -1.7584  1.1239
 2333SOL    HW218459   1.824   1.632  12.747  1.0045  2.0267  0.8537
 2334SOL     OW18460   1.434   3.413  13.375 -0.0751 -0.5634 -0.0686
 2334SOL    HW118461   1.491   3.444  13.445  2.2454 -0.6240 -1.9423
 2334SOL    HW218462   1.455   3.486  13.318 -0.7074 -0.1026  0.2858
 2335SOL     OW18463   3.905   3.358   1.280 -0.1024 -0.1241  0.9895
 2335SOL    HW118464   3.923   3.441   1.324  1.3384  0.1948 -0.2167
 2335SOL    HW218465   3.899   3.295   1.352  0.4277 -0.2558  0.9165
 2336SOL     OW18466   1.439   4.231   2.535  0.4336  0.2663 -0.1996
 2336SOL    HW118467   1.364   4.262   2.485  0.9391  0.8398 -0.5961
 2336SOL    HW218468   1.420   4.138   2.521  0.6980  0.5101 -2.0831
 2337SOL     OW18469   4.696   0.532  16.484  0.1953  0.3196 -0.4830
 2337SOL    HW118470   0.067   0.526  16.498 -0.1833  1.3154  2.5539
 2337SOL    HW218471   4.664   0.550  16.573 -2.1761 -0.6705 -1.1353
 2338SOL     OW18472   4.672   3.303   0.669 -0.2993  0.0532 -0.1579
 2338SOL    HW118473   4.602   3.264   0.722  0.5869 -1.5299 -0.1506
 2338SOL    HW218474   4.707   3.225   0.626 -1.3897  1.1644 -3.0405
 2339SOL     OW18475   4.218   0.247   5.231  0.4338 -0.2194 -0.1000
 2339SOL    HW118476   4.252   0.159   5.216  0.4729  0.1883 -2.3654
 2339SOL    HW218477   4.254   0.271   5.316 -2.0756  1.7327  0.4221
 2340SOL     OW18478   0.064   2.053   6.531  0.7159 -0.3020 -0.4633
 2340SOL    HW118479   0.035   2.070   6.441 -0.4258 -0.0447 -0.0419
 2340SOL    HW218480   4.711   2.082   6.580  1.6572 -2.7083  2.4265
 2341SOL     OW18481   0.922   1.139   4.656 -0.0745  0.2469  0.4063
 2341SOL    HW118482   0.976   1.062   4.637  1.3070  1.6324 -1.1841
 2341SOL    HW218483   0.952   1.158   4.746  1.0015 -0.9466  0.3063
 2342SOL     OW18484   1.535   0.733   2.896  0.3166  0.0162 -0.0016
 2342SOL    HW118485   1.609   0.677   2.872 -0.3606 -0.2747 -1.3766
 2342SOL    HW218486   1.513   0.774   2.813 -0.0116  1.8813  0.9997
 2343SOL     OW18487   0.718   2.994   4.337  0.1172 -0.0459 -0.0670
 2343SOL    HW118488   0.721   2.906   4.375 -0.9789  0.2043  0.6014
 2343SOL    HW218489   0.662   2.973   4.262  0.0599  0.8958 -0.2775
 2344SOL     OW18490   3.488   4.544   4.621  0.1284  0.3786  0.4734
 2344SOL    HW118491   3.556   4.478   4.633 -1.1887 -1.1641 -0.5062
 2344SOL    HW218492   3.548   4.603   4.576 -0.4310 -0.1820 -1.0012
 2345SOL     OW18493   1.229   1.502   3.507  0.4807 -0.4059 -0.3218
 2345SOL    HW118494   1.239   1.503   3.412 -1.7724  0.2845 -0.5505
 2345SOL    HW218495   1.194   1.414   3.519  1.4929 -0.5881  1.3911
 2346SOL     OW18496   0.566   1.205   3.455 -0.0542 -0.7108  0.8768
 2346SOL    HW118497   0.601   1.228   3.369 -1.8075 -1.9669 -0.1734
 2346SOL    HW218498   0.654   1.191   3.490 -0.9193 -1.5197  2.7458
 2347SOL     OW18499   3.282   3.670   3.933  0.5311 -0.1560 -0.1506
 2347SOL    HW118500   3.344   3.690   4.003 -0.5989 -0.6040  0.9833
 2347SOL    HW218501   3.200   3.656   3.980  0.5450  0.3203  0.0244
 2348SOL     OW18502   3.202   1.911  16.114 -1.0040 -0.0101  0.0643
 2348SOL    HW118503   3.196   1.962  16.034  2.9933  3.1814  1.8299
 2348SOL    HW218504   3.194   1.819  16.089 -1.7867 -0.2387  1.1507
 2349SOL     OW18505   3.707   3.300   6.796 -0.1204  0.4158  0.5126
 2349SOL    HW118506   3.688   3.247   6.873 -0.7482  0.0513  0.1079
 2349SOL    HW218507   3.800   3.284   6.808 -0.1801 -0.3600 -0.0935
 2350SOL     OW18508   1.923   0.897   7.118  0.0745  0.2934  0.6935
 2350SOL    HW118509   1.991   0.830   7.118  0.2952  0.5162  0.9501
 2350SOL    HW218510   1.945   0.932   7.032 -0.8254 -0.4290  0.1804
 2351SOL     OW18511   3.536   2.959  14.266 -0.1431 -0.1635 -0.1552
 2351SOL    HW118512   3.583   3.039  14.290  0.8259 -0.6893 -0.3311
 2351SOL    HW218513   3.499   2.935  14.351 -1.7549 -1.0709 -1.1075
 2352SOL     OW18514   0.370   2.165   4.494  0.4146 -0.0144  0.5353
 2352SOL    HW118515   0.312   2.218   4.439 -0.1514  1.1061  2.2402
 2352SOL    HW218516   0.438   2.156   4.427 -0.2882 -0.8913 -0.0681
 2353SOL     OW18517   0.618   1.441   9.223 -0.1427 -0.1335 -0.0457
 2353SOL    HW118518   0.572   1.515   9.262  1.8082 -0.3447  2.6628
 2353SOL    HW218519   0.548   1.376   9.219 -0.4121  0.0984  1.1463
 2354SOL     OW18520   3.592   4.437   6.053  0.5868 -0.0684 -0.2569
 2354SOL    HW118521   3.504   4.439   6.091  0.2306  1.1420 -1.1384
 2354SOL    HW218522   3.630   4.520   6.084  0.3128  0.8120 -2.2951
 2355SOL     OW18523   4.401   4.172   0.555  0.1530 -0.2495  0.3512
 2355SOL    HW118524   4.393   4.211   0.642  0.1886  0.7083 -0.0740
 2355SOL    HW218525   4.479   4.118   0.568 -0.4434 -1.8796 -2.7656
 2356SOL     OW18526   0.359   1.926   6.995 -0.0328  0.2270 -0.3386
 2356SOL    HW118527   0.428   1.870   6.959 -1.9607 -2.0531 -0.4536
 2356SOL    HW218528   0.417   1.995   7.028 -0.5674  0.9600 -0.9383
 2357SOL     OW18529   1.035   2.858   5.071  0.1529  0.4630  0.3969
 2357SOL    HW118530   0.978   2.816   5.135  1.7204 -1.2919  0.6373
 2357SOL    HW218531   1.111   2.804   5.091 -1.8166 -2.2865  0.5071
 2358SOL     OW18532   4.011   1.458   3.156  0.7253  0.1026 -0.7345
 2358SOL    HW118533   4.038   1.404   3.083  0.3222  1.6989 -2.0723
 2358SOL    HW218534   4.045   1.544   3.131  2.0400 -0.5377 -1.1433
 2359SOL     OW18535   2.627   2.930   9.782  0.3147 -0.1921 -0.3750
 2359SOL    HW118536   2.700   2.981   9.816 -0.8387 -0.6609  2.8926
 2359SOL    HW218537   2.565   2.942   9.854  0.3090  0.6782 -0.5237
 2360SOL     OW18538   3.283   3.828   5.706 -0.3945 -0.8331 -0.4884
 2360SOL    HW118539   3.311   3.749   5.752  0.1685  0.5075  1.4467
 2360SOL    HW218540   3.370   3.867   5.696 -0.6021 -0.4783 -0.9069
 2361SOL     OW18541   3.207   3.939   8.439 -0.3422 -0.3898  0.3785
 2361SOL    HW118542   3.178   4.002   8.372 -1.3872 -2.0219 -0.7020
 2361SOL    HW218543   3.254   3.997   8.499  0.8223 -1.8142  0.8211
 2362SOL     OW18544   4.577   3.041   2.609 -0.0209 -0.1096 -0.3609
 2362SOL    HW118545   4.569   2.946   2.606  1.1344 -0.2553  1.1195
 2362SOL    HW218546   4.644   3.065   2.673  0.3622 -0.9800 -0.4376
 2363SOL     OW18547   1.479   1.675   3.319  0.0703 -0.1590 -0.1431
 2363SOL    HW118548   1.423   1.752   3.303 -0.0732  0.0950  1.5947
 2363SOL    HW218549   1.411   1.611   3.339 -0.9855  1.2747  0.8839
 2364SOL     OW18550   0.474   1.906   3.454  0.2560 -0.8336 -0.2632
 2364SOL    HW118551   0.397   1.872   3.408  1.2318 -2.4894 -0.6728
 2364SOL    HW218552   0.546   1.844   3.440 -0.0969 -1.3202  0.0737
 2365SOL     OW18553   4.615   3.518   8.749 -0.3016 -0.2586 -0.0892
 2365SOL    HW118554   4.676   3.590   8.763  0.1701 -0.8205  0.7136
 2365SOL    HW218555   4.600   3.497   8.841  0.1550 -1.3500 -0.2635
 2366SOL     OW18556   1.151   3.682   9.292 -0.0288  0.2574 -0.0471
 2366SOL    HW118557   1.237   3.685   9.250  0.1141  1.8535  0.3609
 2366SOL    HW218558   1.110   3.608   9.247 -2.0434  1.1254  0.3236
 2367SOL     OW18559   3.745   0.059   6.739  0.2146 -0.2561 -0.0589
 2367SOL    HW118560   3.738   4.716   6.808 -0.7882 -0.5188 -0.4026
 2367SOL    HW218561   3.774   0.136   6.787 -2.7353  0.1406  1.1031
 2368SOL     OW18562   4.226   4.310   8.318 -0.2398 -0.1672  0.1919
 2368SOL    HW118563   4.148   4.366   8.314  0.7853  1.1276 -1.3852
 2368SOL    HW218564   4.260   4.322   8.230  2.6056 -0.9568  1.2084
 2369SOL     OW18565   3.023   0.843   0.772  0.3954 -0.1581  0.6588
 2369SOL    HW118566   3.064   0.794   0.843 -1.7811 -1.5465  0.9500
 2369SOL    HW218567   2.931   0.817   0.775  0.7522 -1.4680  0.0124
 2370SOL     OW18568   0.614   1.721   2.638  0.2059  0.5360  0.5679
 2370SOL    HW118569   0.615   1.704   2.732 -2.0477  1.1747  0.7112
 2370SOL    HW218570   0.560   1.649   2.604  1.8154 -1.2916  1.9252
 2371SOL     OW18571   4.472   3.596   6.837  0.0117 -0.2466 -0.1300
 2371SOL    HW118572   4.467   3.657   6.764 -1.4752  1.2369  1.1990
 2371SOL    HW218573   4.385   3.595   6.877 -0.1203 -0.9385 -0.4354
 2372SOL     OW18574   3.061   0.053   5.409  0.6995  0.2715  0.0180
 2372SOL    HW118575   3.051   0.144   5.439 -1.2053  0.2881 -0.7128
 2372SOL    HW218576   3.023   0.001   5.479 -0.8735 -0.3441 -1.3042
 2373SOL     OW18577   0.838   2.169   0.838  0.2686 -0.2005  0.1380
 2373SOL    HW118578   0.825   2.080   0.870 -0.4119  0.1778  0.9117
 2373SOL    HW218579   0.787   2.226   0.895  1.8446  1.0787  0.2567
 2374SOL     OW18580   3.537   0.483   6.703  0.1321  0.3651 -0.3221
 2374SOL    HW118581   3.524   0.504   6.610  1.7047  0.2862 -0.5561
 2374SOL    HW218582   3.632   0.477   6.709  0.0961 -0.6237 -0.6330
 2375SOL     OW18583   0.678   1.525   5.801 -0.2760 -0.9700  0.1963
 2375SOL    HW118584   0.710   1.615   5.806  1.0453 -1.4235 -0.0196
 2375SOL    HW218585   0.743   1.488   5.862  1.7445 -0.7881 -1.8352
 2376SOL     OW18586   0.996   2.653   1.979  0.0211 -0.1236 -0.1108
 2376SOL    HW118587   0.923   2.675   1.921 -0.0625 -0.3917 -0.1097
 2376SOL    HW218588   1.061   2.722   1.967 -0.7277  0.8788  1.6295
 2377SOL     OW18589   2.505   0.008   1.542  0.0321 -0.5478 -0.7136
 2377SOL    HW118590   2.568   0.046   1.481 -1.0982  1.4111 -0.6405
 2377SOL    HW218591   2.511   0.070   1.614  0.1331 -1.3384 -0.0425
 2378SOL     OW18592   4.469   2.313   3.013 -0.2737 -0.3153  0.4656
 2378SOL    HW118593   4.473   2.350   2.924  2.6599 -0.1517  0.6655
 2378SOL    HW218594   4.522   2.380   3.057 -0.2338 -1.0163  1.4602
 2379SOL     OW18595   4.541   2.740   1.509 -0.3067  0.2587  0.2100
 2379SOL    HW118596   4.630   2.706   1.505 -1.3556 -2.3417 -1.4233
 2379SOL    HW218597   4.541   2.785   1.593 -0.2815  1.2024 -0.2944
 2380SOL     OW18598   4.223   4.654   5.062 -0.0462 -0.8374  0.1114
 2380SOL    HW118599   4.175   4.602   4.998 -0.5650 -1.2767  0.8610
 2380SOL    HW218600   4.186   4.619   5.143  1.9772  0.3017  1.5443
 2381SOL     OW18601   1.409   1.929   6.207  0.1129  0.4529 -0.8200
 2381SOL    HW118602   1.443   1.885   6.129  0.8041 -2.5013  1.1612
 2381SOL    HW218603   1.468   2.004   6.217  2.1692 -1.5603  2.0225
 2382SOL     OW18604   0.269   1.625   3.860 -0.5626  0.3088  0.2958
 2382SOL    HW118605   0.335   1.655   3.798  1.7444  0.8384  2.9884
 2382SOL    HW218606   0.242   1.709   3.895 -1.6635  0.1082 -0.0756
 2383SOL     OW18607   2.615   3.088   8.061 -0.3961 -0.3318 -0.0930
 2383SOL    HW118608   2.652   3.103   7.974 -0.8899 -2.7499 -0.7206
 2383SOL    HW218609   2.685   3.126   8.114 -0.4850 -0.3788  0.0583
 2384SOL     OW18610   2.971   3.199  17.527 -0.4267 -0.4989  0.6438
 2384SOL    HW118611   2.974   3.161  17.439  1.3540  0.0928  0.4516
 2384SOL    HW218612   3.064   3.195  17.548 -0.0755  1.1778 -0.5093
 2385SOL     OW18613   4.479   3.990   3.810  0.0112  0.0551 -0.0314
 2385SOL    HW118614   4.563   3.949   3.788  0.6869  1.6494 -0.3518
 2385SOL    HW218615   4.477   4.064   3.750  1.3220  1.1633  1.2983
 2386SOL     OW18616   0.616   2.388   2.682  0.1063 -0.5999  0.1696
 2386SOL    HW118617   0.537   2.336   2.664  0.4587 -1.1504  0.2256
 2386SOL    HW218618   0.671   2.324   2.726  1.6388 -0.1922 -1.1642
 2387SOL     OW18619   0.764   0.038   3.294  0.0254 -0.5381  0.3410
 2387SOL    HW118620   0.812   0.062   3.215  0.3167 -0.8942  0.4147
 2387SOL    HW218621   0.703   4.696   3.261 -0.7080  0.5449 -0.4827
 2388SOL     OW18622   1.865   0.106  17.672  0.2093 -0.1026 -0.1707
 2388SOL    HW118623   1.887   0.094  17.579 -1.9245  1.0154 -0.8248
 2388SOL    HW218624   1.811   0.184  17.666  0.5555  0.1043 -0.5966
 2389SOL     OW18625   3.864   2.311   6.223  0.6595 -0.0658  0.1958
 2389SOL    HW118626   3.956   2.283   6.222  1.1108  1.4480 -2.6092
 2389SOL    HW218627   3.874   2.404   6.202  0.1082  0.6138  2.9349
 2390SOL     OW18628   1.198   4.084   4.437  0.2173 -0.1898  0.6140
 2390SOL    HW118629   1.185   4.003   4.388 -1.5413  0.0274  0.7158
 2390SOL    HW218630   1.108   4.105   4.459  0.3111 -0.0252  0.8408
 2391SOL     OW18631   2.491   0.337   4.848 -0.8108 -0.3408  1.0164
 2391SOL    HW118632   2.439   0.338   4.929 -2.2931  0.4014  0.0540
 2391SOL    HW218633   2.447   0.269   4.798  0.1808 -1.0542  1.1049
 2392SOL     OW18634   2.892   3.313   8.755 -0.7902 -0.9616 -0.1870
 2392SOL    HW118635   2.814   3.270   8.791 -1.1763  2.0822  2.6874
 2392SOL    HW218636   2.964   3.257   8.787 -0.0330  0.1463  0.0498
 2393SOL     OW18637   4.632   4.018   9.363 -1.1759  0.1131  0.0897
 2393SOL    HW118638   4.621   3.990   9.272  1.8319  1.1331 -0.5904
 2393SOL    HW218639   4.546   3.989   9.393 -1.8365  1.3615 -0.6201
 2394SOL     OW18640   3.046   0.569  14.451  0.5623 -0.2310 -0.2343
 2394SOL    HW118641   2.986   0.638  14.424  0.7275 -0.7904 -2.0064
 2394SOL    HW218642   3.001   0.491  14.419  0.8551 -0.7216  0.5292
 2395SOL     OW18643   1.961   3.848   6.257  0.1153  0.4322  0.4112
 2395SOL    HW118644   1.990   3.931   6.295  1.1498  0.7624 -1.0848
 2395SOL    HW218645   2.043   3.819   6.217  0.0047  3.5134 -2.0280
 2396SOL     OW18646   4.022   4.406   6.174 -0.1116 -0.3687  0.2019
 2396SOL    HW118647   4.071   4.326   6.151  0.6954  0.8571 -2.3535
 2396SOL    HW218648   3.934   4.377   6.149  0.4061 -0.7750 -1.1956
 2397SOL     OW18649   4.019   2.522  10.795  0.2137 -0.2942 -0.0792
 2397SOL    HW118650   4.076   2.565  10.859  0.9251 -2.2929  0.6295
 2397SOL    HW218651   3.974   2.461  10.854 -0.7640 -1.5138 -2.0942
 2398SOL     OW18652   0.453   4.272   3.790  0.1785 -0.4903  0.2031
 2398SOL    HW118653   0.494   4.274   3.703 -1.7796  1.0671 -0.6743
 2398SOL    HW218654   0.367   4.238   3.765 -0.9883  2.3499  0.2895
 2399SOL     OW18655   0.519   3.392   0.680 -0.6322 -0.1644  0.0538
 2399SOL    HW118656   0.505   3.336   0.756 -2.5657 -1.6016 -1.3773
 2399SOL    HW218657   0.608   3.422   0.695 -1.3096  1.7306  0.2711
 2400SOL     OW18658   3.701   2.492  16.979 -0.3030  0.1713  0.1211
 2400SOL    HW118659   3.625   2.435  16.969 -0.6856  0.3470  1.9650
 2400SOL    HW218660   3.667   2.580  16.962 -1.2125 -0.0870  0.5890
 2401SOL     OW18661   3.296   4.568  12.690 -0.1190  0.0374 -0.1018
 2401SOL    HW118662   3.340   4.650  12.666 -0.8529  0.4407 -0.0687
 2401SOL    HW218663   3.289   4.576  12.785 -1.1084 -0.9825 -0.0878
 2402SOL     OW18664   1.630   0.385   5.354 -1.1876  0.3199  0.1411
 2402SOL    HW118665   1.631   0.292   5.330  1.4822  0.4196 -0.1063
 2402SOL    HW218666   1.578   0.381   5.434 -0.0775 -3.0731  0.7057
 2403SOL     OW18667   1.844   3.467  15.730 -0.5254 -0.4611  0.0853
 2403SOL    HW118668   1.924   3.440  15.683  1.4020 -1.0008  3.6789
 2403SOL    HW218669   1.777   3.440  15.667 -0.7501  0.6333 -0.1436
 2404SOL     OW18670   2.538   0.702   8.418 -0.5881 -0.1379 -0.1451
 2404SOL    HW118671   2.457   0.695   8.468  0.1979  0.0652  1.1536
 2404SOL    HW218672   2.542   0.618   8.372 -0.8829 -0.1998 -0.0582
 2405SOL     OW18673   1.608   2.682   7.987  0.3121 -0.1514 -0.2015
 2405SOL    HW118674   1.528   2.682   7.934  1.4354  0.5392 -1.9043
 2405SOL    HW218675   1.583   2.734   8.063  0.7824  0.2714 -0.3345
 2406SOL     OW18676   2.773   2.507   7.735 -0.3305  0.1402 -0.0767
 2406SOL    HW118677   2.855   2.528   7.691 -0.5691 -1.4430 -1.2840
 2406SOL    HW218678   2.767   2.588   7.785 -1.5013 -0.1303  0.2162
 2407SOL     OW18679   4.322   2.624  16.461 -0.5934  0.2044 -0.1763
 2407SOL    HW118680   4.272   2.656  16.536 -1.0073  3.1032 -1.6756
 2407SOL    HW218681   4.413   2.626  16.492  0.3058 -2.4250 -2.6242
 2408SOL     OW18682   2.660   4.684   7.375 -0.0832 -0.3748 -0.1673
 2408SOL    HW118683   2.565   4.685   7.364 -0.1089  0.0343  0.1230
 2408SOL    HW218684   2.662   4.603   7.428  0.0889  0.3218  0.8928
 2409SOL     OW18685   0.009   0.718   3.796 -0.0471 -0.8258 -0.1251
 2409SOL    HW118686   0.087   0.667   3.818  0.6058 -0.6431 -2.0115
 2409SOL    HW218687   4.686   0.651   3.745 -2.4966 -0.5284  1.7399
 2410SOL     OW18688   1.113   2.369  16.902 -0.0972  0.1073  0.0342
 2410SOL    HW118689   1.098   2.400  16.813 -1.1553  1.3179  0.6358
 2410SOL    HW218690   1.205   2.394  16.914 -0.2545  2.0385 -2.9040
 2411SOL     OW18691   0.440   4.000  14.140  0.2374 -0.3591  0.2885
 2411SOL    HW118692   0.413   3.929  14.082 -1.1307  0.0246  0.4600
 2411SOL    HW218693   0.378   3.996  14.213  2.6119  0.9184  2.3847
 2412SOL     OW18694   0.204   0.583  10.661 -0.3090 -0.6858  0.1671
 2412SOL    HW118695   0.249   0.570  10.745 -1.7019 -0.5746  0.9233
 2412SOL    HW218696   0.167   0.671  10.665 -0.9343 -0.9607  0.3786
 2413SOL     OW18697   1.339   4.470   7.880  0.1750 -0.2093  0.1685
 2413SOL    HW118698   1.250   4.461   7.845  0.6686 -1.5410 -0.7259
 2413SOL    HW218699   1.390   4.493   7.803  1.6882 -0.4321  1.1181
 2414SOL     OW18700   3.292   4.713   7.397 -0.7625  0.3127 -0.5203
 2414SOL    HW118701   3.387   4.709   7.400 -0.7592 -0.8845 -1.9397
 2414SOL    HW218702   3.282   4.694   7.304 -1.0651 -1.7188 -0.0908
 2415SOL     OW18703   1.061   0.406   6.043  0.3223 -0.4811 -0.0493
 2415SOL    HW118704   0.989   0.380   5.985 -1.8651  2.4157  1.3703
 2415SOL    HW218705   1.053   0.351   6.121 -0.0080 -0.7171 -0.2480
 2416SOL     OW18706   3.229   1.672   1.268 -0.2993 -0.1473  0.1782
 2416SOL    HW118707   3.276   1.727   1.205  0.3674  0.5442  1.2874
 2416SOL    HW218708   3.299   1.610   1.288  0.6541  0.7019 -0.5662
 2417SOL     OW18709   2.665   4.584   6.551  0.2408  0.3597 -0.0773
 2417SOL    HW118710   2.655   4.527   6.476 -2.3893  0.7910 -0.0459
 2417SOL    HW218711   2.667   4.674   6.517 -1.8373  0.1930 -0.6560
 2418SOL     OW18712   2.356   0.770   9.895  0.0564 -0.3641  0.0413
 2418SOL    HW118713   2.262   0.782   9.906  0.2016 -0.1803  1.0594
 2418SOL    HW218714   2.359   0.788   9.801 -0.2663  1.7142  0.4190
 2419SOL     OW18715   2.627   4.191   1.312  0.3758 -0.1347  0.2677
 2419SOL    HW118716   2.586   4.145   1.238 -0.1174  1.1562 -0.2483
 2419SOL    HW218717   2.716   4.216   1.288 -0.2445  1.2568 -0.5830
 2420SOL     OW18718   2.103   0.080   8.087 -0.0564  0.1089  0.5871
 2420SOL    HW118719   2.155   0.017   8.037 -0.4894  1.5305 -1.6461
 2420SOL    HW218720   2.095   0.147   8.020  1.1818  0.9245  1.2427
 2421SOL     OW18721   3.666   4.625   1.689  0.4630 -0.2870  0.2394
 2421SOL    HW118722   3.706   4.665   1.766 -1.8294  0.8148  0.8573
 2421SOL    HW218723   3.732   4.569   1.648 -1.8858 -1.4906 -1.9053
 2422SOL     OW18724   0.480   2.863   6.518 -0.8397 -0.6145  0.0475
 2422SOL    HW118725   0.553   2.917   6.487 -0.5837 -1.4386 -0.8124
 2422SOL    HW218726   0.527   2.790   6.559  2.7699  1.1047 -0.9975
 2423SOL     OW18727   1.976   0.134   7.227 -0.0241 -0.6526  0.2271
 2423SOL    HW118728   1.979   0.142   7.322 -0.3611 -1.9370  0.3529
 2423SOL    HW218729   1.952   0.220   7.193 -1.2091  0.0576  2.8776
 2424SOL     OW18730   0.802   1.793   4.078 -0.0402  0.1916  0.0421
 2424SOL    HW118731   0.828   1.713   4.124  0.5209 -0.4726 -1.4269
 2424SOL    HW218732   0.887   1.824   4.047  0.4263 -1.2548 -0.1458
 2425SOL     OW18733   3.869   3.126  12.991  0.2165 -0.4558 -0.2609
 2425SOL    HW118734   3.879   3.218  13.017  1.4349 -0.6565 -0.0018
 2425SOL    HW218735   3.865   3.082  13.077 -0.6099  2.0177  0.9609
 2426SOL     OW18736   3.598   1.091  12.660 -0.4876 -0.2510  0.2210
 2426SOL    HW118737   3.520   1.035  12.666 -0.4024 -0.4055 -0.1230
 2426SOL    HW218738   3.563   1.180  12.658 -0.4501 -0.1951  1.8061
 2427SOL     OW18739   2.780   1.842  14.938  0.5463 -0.3273  0.3453
 2427SOL    HW118740   2.783   1.900  15.014  0.9580 -0.2520  0.2730
 2427SOL    HW218741   2.781   1.908  14.869  0.5515  0.9983  1.6075
 2428SOL     OW18742   4.010   0.216   3.700  1.1304 -0.4242  0.3641
 2428SOL    HW118743   3.968   0.227   3.786 -0.4196 -1.2151 -0.2940
 2428SOL    HW218744   4.099   0.249   3.712  1.0826 -0.4429  0.7908
 2429SOL     OW18745   2.676   2.143  10.451 -0.4919 -0.1344 -0.0007
 2429SOL    HW118746   2.690   2.210  10.385  0.9859  0.4986  0.9652
 2429SOL    HW218747   2.671   2.193  10.533 -1.6971  2.3559 -1.5932
 2430SOL     OW18748   1.928   1.032   5.283 -0.1112  0.0177  0.1391
 2430SOL    HW118749   1.884   0.949   5.260  0.5388 -0.2301 -0.2265
 2430SOL    HW218750   1.952   1.060   5.194 -2.9600 -0.6972 -0.8520
 2431SOL     OW18751   4.622   4.705   1.903  0.5893  0.1504  0.2008
 2431SOL    HW118752   4.683   0.046   1.868  0.6639  1.2592  2.3774
 2431SOL    HW218753   4.671   4.628   1.876  1.1207 -0.6872  3.4786
 2432SOL     OW18754   4.406   0.144   5.027  0.1475 -0.1878 -0.2668
 2432SOL    HW118755   4.363   0.221   4.990  1.9364  0.7001 -0.5019
 2432SOL    HW218756   4.329   0.098   5.058 -0.3335  0.3832 -0.6222
 2433SOL     OW18757   4.571   0.106   6.488 -0.6597  0.1315  0.1190
 2433SOL    HW118758   4.580   0.179   6.427  1.5160 -0.4158 -0.2241
 2433SOL    HW218759   4.558   0.160   6.566  0.0732  0.1335  0.2452
 2434SOL     OW18760   3.882   4.565   7.557 -0.7882  0.0973 -0.3053
 2434SOL    HW118761   3.939   4.516   7.616  1.4829  3.5366  0.3162
 2434SOL    HW218762   3.815   4.496   7.554 -1.4006  0.6712  0.1102
 2435SOL     OW18763   2.370   1.568   4.948  0.0798  0.1167  0.7487
 2435SOL    HW118764   2.383   1.642   5.007  1.0658 -0.5814  1.4017
 2435SOL    HW218765   2.316   1.522   5.012 -0.6554  0.7653  0.6078
 2436SOL     OW18766   2.815   2.318   3.429 -0.3199 -0.0841  0.3879
 2436SOL    HW118767   2.898   2.360   3.452 -0.5484  0.9875 -0.7767
 2436SOL    HW218768   2.806   2.344   3.338  2.1555  0.8931  0.4374
 2437SOL     OW18769   3.347   2.852  16.756 -0.3130 -0.3406  0.4682
 2437SOL    HW118770   3.403   2.900  16.695 -1.0559 -0.3529 -0.2143
 2437SOL    HW218771   3.299   2.918  16.807 -3.8461 -1.0912 -1.8981
 2438SOL     OW18772   1.743   2.015   1.744  0.2779 -0.4219  0.3896
 2438SOL    HW118773   1.727   1.923   1.725  1.0785  0.1572 -3.0605
 2438SOL    HW218774   1.837   2.018   1.762  0.6912 -0.7428 -1.7897
 2439SOL     OW18775   3.778   1.937   8.434 -0.2543 -0.3722 -0.3129
 2439SOL    HW118776   3.702   1.899   8.390  0.6715 -2.6312  0.0077
 2439SOL    HW218777   3.738   1.940   8.520  1.8322 -1.5525  0.7033
 2440SOL     OW18778   3.017   1.863   9.225  0.1317  0.3225  0.4187
 2440SOL    HW118779   2.944   1.924   9.236  0.8981  1.0448  1.4513
 2440SOL    HW218780   3.077   1.908   9.285 -1.6022 -0.6060  2.8421
 2441SOL     OW18781   3.050   1.885   7.769  0.3332  0.2546  0.0986
 2441SOL    HW118782   2.997   1.952   7.811  0.0794  1.0139 -1.4413
 2441SOL    HW218783   2.981   1.821   7.749  0.4034 -0.2624  1.4963
 2442SOL     OW18784   4.398   3.065   4.488 -0.0241 -0.3065 -0.1280
 2442SOL    HW118785   4.489   3.085   4.509  0.2007 -1.1134 -0.3424
 2442SOL    HW218786   4.356   3.151   4.481 -1.6700 -1.0418  0.7438
 2443SOL     OW18787   0.459   0.085   3.722 -0.0041 -0.3356 -0.0973
 2443SOL    HW118788   0.531   0.075   3.659 -0.8035 -1.3246 -0.8581
 2443SOL    HW218789   0.453   4.722   3.764  0.6345 -0.7753 -0.9081
 2444SOL     OW18790   1.425   4.425  10.970 -0.1326  0.0669 -0.0277
 2444SOL    HW118791   1.414   4.520  10.963  0.3158 -0.0696 -2.6427
 2444SOL    HW218792   1.426   4.411  11.064  2.5229 -1.6331 -0.3257
 2445SOL     OW18793   4.326   3.335   3.010 -0.0931  0.0393 -0.4203
 2445SOL    HW118794   4.349   3.276   2.939 -0.1179 -1.4453  0.8253
 2445SOL    HW218795   4.305   3.421   2.972 -0.4988  0.4825  0.8111
 2446SOL     OW18796   1.558   3.042   6.392 -0.0449 -0.3687  0.1173
 2446SOL    HW118797   1.499   3.053   6.467 -1.7900 -1.4783 -1.1114
 2446SOL    HW218798   1.640   3.074   6.431 -0.6375  0.4236  0.7253
 2447SOL     OW18799   0.486   2.421   0.164 -0.2461  0.2006  0.5899
 2447SOL    HW118800   0.451   2.335   0.188 -0.2798  0.3566  1.1031
 2447SOL    HW218801   0.507   2.394   0.075 -0.5907  3.0221 -0.3482
 2448SOL     OW18802   0.545   2.183   7.026  0.7066 -0.1981 -0.5089
 2448SOL    HW118803   0.600   2.120   6.980  1.4888 -0.1198  0.3222
 2448SOL    HW218804   0.592   2.266   7.020  1.1012 -0.2708  1.4643
 2449SOL     OW18805   4.658   4.025  15.750 -0.1764 -0.1924 -0.0637
 2449SOL    HW118806   4.578   4.029  15.803  1.3185  1.3725  2.0704
 2449SOL    HW218807   4.655   4.110  15.707  2.7113  0.7039  1.5397
 2450SOL     OW18808   2.964   1.914   2.036  0.4433 -0.1264 -0.2314
 2450SOL    HW118809   3.009   1.958   1.963  1.7325 -1.3778 -0.1771
 2450SOL    HW218810   2.995   1.971   2.106 -0.3066 -2.1005  1.6761
 2451SOL     OW18811   3.213   0.140  10.288 -0.2614  0.0896 -0.0819
 2451SOL    HW118812   3.193   0.119  10.379 -2.0404  1.5422 -0.1534
 2451SOL    HW218813   3.139   0.100  10.242 -1.1851  0.5141  1.0476
 2452SOL     OW18814   0.196   3.624   3.888  0.6682  0.4931 -0.3608
 2452SOL    HW118815   0.263   3.682   3.853  1.1559  1.3249  2.0054
 2452SOL    HW218816   0.175   3.559   3.820  0.3005 -0.4720  0.6758
 2453SOL     OW18817   1.870   2.571  12.915 -0.1678  1.0176 -0.1205
 2453SOL    HW118818   1.910   2.484  12.904 -1.3372  0.4026  0.5155
 2453SOL    HW218819   1.777   2.551  12.908 -0.2210  0.9039  0.9094
 2454SOL     OW18820   4.599   0.858   7.762  0.8197  0.1845 -1.0712
 2454SOL    HW118821   4.589   0.856   7.857  0.9975  1.3145 -1.0317
 2454SOL    HW218822   4.565   0.945   7.742 -1.7403 -0.1087  1.9934
 2455SOL     OW18823   0.167   0.870   5.169  0.6876  0.0315  0.3862
 2455SOL    HW118824   0.150   0.887   5.076  0.7724 -1.0656  0.1754
 2455SOL    HW218825   0.151   0.954   5.211 -0.1950 -0.0509  0.2052
 2456SOL     OW18826   4.114   1.923   9.331  0.4296  0.2035 -0.7441
 2456SOL    HW118827   4.079   1.957   9.249  0.0112  1.8704  0.1383
 2456SOL    HW218828   4.158   1.843   9.300 -3.7946 -1.7038 -1.8387
 2457SOL     OW18829   2.092   0.028   4.814 -0.1773  0.0995  0.1727
 2457SOL    HW118830   2.177   0.012   4.855  0.1028  1.4786  0.1435
 2457SOL    HW218831   2.042   4.670   4.816 -0.5640  0.3596  1.2007
 2458SOL     OW18832   3.559   1.882   4.341  0.1873  0.8623 -0.1919
 2458SOL    HW118833   3.581   1.935   4.264  1.3965 -0.5557 -0.8123
 2458SOL    HW218834   3.493   1.935   4.387  0.0186  0.1834  0.3551
 2459SOL     OW18835   0.334   4.657  17.512  0.2272  0.3590 -0.5058
 2459SOL    HW118836   0.344   4.570  17.475  1.5841  1.4029 -2.6344
 2459SOL    HW218837   0.296   4.701  17.436  0.8226 -0.9656 -1.5720
 2460SOL     OW18838   1.538   0.063   7.077  0.0182 -0.7226  0.3202
 2460SOL    HW118839   1.632   0.047   7.072  0.4469  1.8615 -0.1034
 2460SOL    HW218840   1.539   0.150   7.117  0.0063  0.7438 -2.8400
 2461SOL     OW18841   2.275   4.044   1.390  0.6045 -0.1173 -0.1679
 2461SOL    HW118842   2.199   4.014   1.439  2.3337  0.1568  2.6863
 2461SOL    HW218843   2.234   4.065   1.305  0.7300 -1.6950 -0.6093
 2462SOL     OW18844   1.072   4.449   9.025 -0.4478  0.5271  0.1875
 2462SOL    HW118845   1.102   4.522   9.080  0.4981 -0.3231  0.8159
 2462SOL    HW218846   1.130   4.380   9.058 -0.1937  1.4033  1.5698
 2463SOL     OW18847   4.474   0.802  10.326 -0.1345 -0.5545  0.1911
 2463SOL    HW118848   4.540   0.769  10.387  0.0568  1.4252  1.0771
 2463SOL    HW218849   4.521   0.811  10.243  0.4595  0.2436  0.6058
 2464SOL     OW18850   1.673   0.976   8.484 -0.4882  0.8495  0.5010
 2464SOL    HW118851   1.717   0.934   8.558 -0.4070  1.8407  1.0066
 2464SOL    HW218852   1.739   0.988   8.416 -0.3619  1.5646  0.7506
 2465SOL     OW18853   2.649   0.247   5.450 -0.2296  0.0807 -0.1552
 2465SOL    HW118854   2.657   0.225   5.357 -0.0583  0.8284 -0.3166
 2465SOL    HW218855   2.701   0.184   5.500 -1.6500 -1.9960 -1.3000
 2466SOL     OW18856   2.777   0.170   6.426  0.7728  0.3154 -0.1416
 2466SOL    HW118857   2.782   0.265   6.423 -0.2480  0.2385 -4.7041
 2466SOL    HW218858   2.686   0.157   6.399  0.7466 -2.0837  1.1439
 2467SOL     OW18859   3.764   0.712   4.123 -0.3519 -0.3682 -0.0732
 2467SOL    HW118860   3.857   0.693   4.108  0.2974  2.1554  0.8640
 2467SOL    HW218861   3.734   0.708   4.033  1.1663  0.4495 -0.6151
 2468SOL     OW18862   3.858   2.189  15.506  0.0876 -0.5585 -0.2337
 2468SOL    HW118863   3.804   2.256  15.547 -0.8710 -1.7501  0.4499
 2468SOL    HW218864   3.853   2.208  15.412  0.2125  1.3370  0.1513
 2469SOL     OW18865   0.337   0.372   7.975 -0.7654 -0.2707 -0.2724
 2469SOL    HW118866   0.281   0.321   8.033 -2.6308  2.0180 -0.0407
 2469SOL    HW218867   0.389   0.304   7.931 -1.9696 -0.9585 -0.6328
 2470SOL     OW18868   3.044   3.469   4.227  0.1951  0.3284  0.4803
 2470SOL    HW118869   3.056   3.535   4.295 -1.3658  0.1103  0.9624
 2470SOL    HW218870   3.007   3.518   4.154 -0.5004  0.8395  1.1815
 2471SOL     OW18871   0.892   2.687   8.216 -0.0957 -0.2815 -0.0153
 2471SOL    HW118872   0.908   2.711   8.125 -1.1235  0.5717  0.0332
 2471SOL    HW218873   0.802   2.717   8.229 -0.2984  0.1884 -2.5628
 2472SOL     OW18874   0.779   2.249  14.696  0.2379  0.1337 -0.2968
 2472SOL    HW118875   0.841   2.232  14.625  0.8467  1.0136  0.0137
 2472SOL    HW218876   0.719   2.175  14.688 -1.2172  1.2907 -0.1066
 2473SOL     OW18877   2.426   2.385   0.381  0.1332 -0.3382  0.1725
 2473SOL    HW118878   2.422   2.319   0.450  0.9578 -1.5270 -0.9285
 2473SOL    HW218879   2.519   2.380   0.362  0.2220  0.6703  0.3402
 2474SOL     OW18880   2.760   2.770  12.071 -0.0882  0.0946 -0.4274
 2474SOL    HW118881   2.690   2.717  12.033  0.0544 -0.4779  0.1209
 2474SOL    HW218882   2.804   2.705  12.125  1.0728  2.8678  1.9946
 2475SOL     OW18883   1.742   0.797   3.424 -0.7310 -0.3253  0.2823
 2475SOL    HW118884   1.762   0.888   3.449 -0.2686 -0.2571 -0.3512
 2475SOL    HW218885   1.709   0.805   3.335  0.6365  0.0597 -0.1971
 2476SOL     OW18886   2.090   4.195   3.946  0.0474 -0.1430  0.6416
 2476SOL    HW118887   2.014   4.244   3.976 -0.3270 -0.5749  0.3867
 2476SOL    HW218888   2.154   4.210   4.015  0.4213  1.2840 -0.0106
 2477SOL     OW18889   0.738   2.150   5.341  0.3605 -0.0840 -1.2054
 2477SOL    HW118890   0.642   2.158   5.341  0.4875  1.3604  0.3272
 2477SOL    HW218891   0.757   2.157   5.247 -0.7967  0.5373 -1.4056
 2478SOL     OW18892   3.887   3.063   8.235 -0.1774 -0.2798  0.0969
 2478SOL    HW118893   3.974   3.092   8.207  0.4862 -1.3247  1.0846
 2478SOL    HW218894   3.903   2.972   8.262  2.3396  0.2349  0.3317
 2479SOL     OW18895   1.601   2.464  16.151  0.2009 -1.0619 -0.0965
 2479SOL    HW118896   1.609   2.558  16.164  0.8190 -1.1793  0.3698
 2479SOL    HW218897   1.508   2.441  16.158 -0.0573  0.3388  1.1142
 2480SOL     OW18898   2.712   4.412   0.395  0.0486  0.3230 -0.0706
 2480SOL    HW118899   2.681   4.360   0.470 -2.2666  1.2762 -0.3720
 2480SOL    HW218900   2.802   4.428   0.424 -0.1057  2.0715 -0.6032
 2481SOL     OW18901   4.503   0.069   7.357  0.0179 -0.2024 -0.9005
 2481SOL    HW118902   4.443   0.144   7.358  3.3587  2.4483 -1.9894
 2481SOL    HW218903   4.443   0.006   7.396 -0.8453  1.6895  0.8382
 2482SOL     OW18904   0.701   3.469   3.649  0.1911 -0.6423 -0.2026
 2482SOL    HW118905   0.722   3.514   3.567  0.6011  1.4140  1.0620
 2482SOL    HW218906   0.777   3.484   3.705 -0.9244 -0.0993  1.1615
 2483SOL     OW18907   2.017   0.611   5.139 -0.1199  0.4586  0.6347
 2483SOL    HW118908   2.047   0.640   5.053 -0.0793  1.0903  0.8640
 2483SOL    HW218909   2.044   0.519   5.131 -1.3094  0.2111 -0.4498
 2484SOL     OW18910   0.432   1.927   7.757 -0.0357 -0.3645  0.3401
 2484SOL    HW118911   0.354   1.952   7.708 -1.8087 -0.5309  3.0498
 2484SOL    HW218912   0.495   1.999   7.753  0.0342 -0.4654 -0.4034
 2485SOL     OW18913   2.373   2.539   7.387 -0.1653  0.0540  0.7286
 2485SOL    HW118914   2.369   2.465   7.448 -1.3298  0.2889  0.9358
 2485SOL    HW218915   2.341   2.496   7.308  1.9188 -0.2216  0.0141
 2486SOL     OW18916   0.071   2.795   7.765 -0.6891  0.1353  0.1450
 2486SOL    HW118917   0.048   2.809   7.856 -0.1087  0.5786  0.2213
 2486SOL    HW218918   0.142   2.731   7.774 -1.6185 -0.6182  1.9776
 2487SOL     OW18919   0.933   3.733  13.884 -0.2275 -0.4107 -0.0573
 2487SOL    HW118920   0.997   3.793  13.922 -0.4566 -1.8175  2.5313
 2487SOL    HW218921   0.884   3.713  13.964 -1.1178 -0.3542 -0.5807
 2488SOL     OW18922   4.263   0.323  12.176  0.5624 -0.3039 -0.1878
 2488SOL    HW118923   4.219   0.403  12.203 -0.3638 -0.8417 -0.1100
 2488SOL    HW218924   4.271   0.281  12.261 -0.3386  1.2641  0.6706
 2489SOL     OW18925   3.834   1.746   6.838  0.0759  0.5611 -0.0088
 2489SOL    HW118926   3.881   1.684   6.894 -0.4143 -0.0491 -0.2675
 2489SOL    HW218927   3.902   1.760   6.773  1.4355  0.5769  1.4174
 2490SOL     OW18928   2.327   2.082   7.910 -0.3053 -0.1782  0.3309
 2490SOL    HW118929   2.308   1.990   7.896 -0.7171  0.1054 -0.9285
 2490SOL    HW218930   2.248   2.117   7.950 -0.5881 -2.8145  2.0620
 2491SOL     OW18931   2.747   0.108   3.868  0.5524 -0.2458  0.0131
 2491SOL    HW118932   2.798   0.088   3.790  0.6271 -1.7253  0.4355
 2491SOL    HW218933   2.723   0.199   3.851 -0.6347 -0.6570 -0.5225
 2492SOL     OW18934   3.297   2.990   4.107  0.1946 -0.5499  0.4092
 2492SOL    HW118935   3.243   3.059   4.069 -0.9666 -1.3293  0.6272
 2492SOL    HW218936   3.236   2.957   4.173 -3.5594 -0.8982 -3.1975
 2493SOL     OW18937   1.308   2.134   1.334  0.0698  0.2020 -0.4198
 2493SOL    HW118938   1.238   2.144   1.270 -3.1646 -1.7958  2.7612
 2493SOL    HW218939   1.345   2.052   1.301  2.7468  1.5705 -0.8062
 2494SOL     OW18940   2.736   4.611  11.036 -0.4885  0.4218  0.0589
 2494SOL    HW118941   2.814   4.578  11.080  0.5020  2.6756 -0.0062
 2494SOL    HW218942   2.780   4.648  10.960 -1.0892  0.9763 -0.0161
 2495SOL     OW18943   3.769   3.323   9.216  0.2241  0.4073 -0.0033
 2495SOL    HW118944   3.841   3.271   9.252  0.3161 -0.4350 -1.4200
 2495SOL    HW218945   3.705   3.258   9.190  1.0715 -0.8314  0.9897
 2496SOL     OW18946   3.311   2.377  15.917 -0.0842 -0.6113  0.4132
 2496SOL    HW118947   3.307   2.455  15.971  2.1709  0.0562 -0.3620
 2496SOL    HW218948   3.336   2.416  15.833  0.8876 -0.2119  0.8910
 2497SOL     OW18949   3.716   0.538   5.931 -0.2004  0.7453  0.5465
 2497SOL    HW118950   3.776   0.467   5.954 -0.6220 -0.0684 -0.8593
 2497SOL    HW218951   3.662   0.497   5.865  0.1327  0.5841  0.3737
 2498SOL     OW18952   1.705   1.961  15.985 -0.4645 -0.0843 -0.1232
 2498SOL    HW118953   1.728   2.026  16.052 -1.5368 -1.2576  1.3640
 2498SOL    HW218954   1.636   1.910  16.026  1.8008 -1.3474  2.1367
 2499SOL     OW18955   3.968   0.843   0.279  0.4985  0.0189 -0.0092
 2499SOL    HW118956   3.913   0.767   0.261  0.9490  0.2886 -2.5468
 2499SOL    HW218957   4.040   0.803   0.328 -1.4094 -1.8494  1.2556
 2500SOL     OW18958   0.890   2.216  12.178  0.1414 -0.6641  0.3798
 2500SOL    HW118959   0.981   2.202  12.151 -0.3771  1.1475 -2.2047
 2500SOL    HW218960   0.868   2.134  12.224 -0.9505 -0.2399  0.6217
 2501SOL     OW18961   0.453   4.276   5.830 -0.4069 -0.1747 -0.1114
 2501SOL    HW118962   0.510   4.228   5.891  0.5250 -0.1933 -1.0006
 2501SOL    HW218963   0.500   4.359   5.834 -1.1114  0.3099 -1.9387
 2502SOL     OW18964   4.703   4.313   7.152 -0.3942 -0.4248 -0.0899
 2502SOL    HW118965   0.067   4.280   7.133 -0.2766  0.0151 -0.3000
 2502SOL    HW218966   4.678   4.333   7.062  0.4439 -1.0735 -0.4582
 2503SOL     OW18967   3.665   1.005   4.153  0.1326 -0.2230 -0.7241
 2503SOL    HW118968   3.703   1.011   4.065  0.4974 -0.9654 -0.6153
 2503SOL    HW218969   3.698   0.917   4.169 -0.5273 -0.3136  0.1407
 2504SOL     OW18970   2.495   4.181   8.383  0.2281  0.5341 -0.2184
 2504SOL    HW118971   2.411   4.189   8.430  0.0729  1.6356 -0.6832
 2504SOL    HW218972   2.476   4.202   8.292  3.0781 -1.8536 -1.3352
 2505SOL     OW18973   2.737   3.508   6.171 -0.5388 -0.2376 -0.2766
 2505SOL    HW118974   2.830   3.511   6.150 -0.0493 -0.2755  1.8955
 2505SOL    HW218975   2.723   3.425   6.215  1.0394 -0.7372 -0.7242
 2506SOL     OW18976   1.742   0.617   5.533 -0.1362 -0.2711  0.8655
 2506SOL    HW118977   1.692   0.544   5.495  0.6613 -3.1189  5.2950
 2506SOL    HW218978   1.708   0.616   5.622 -0.6884 -1.5883  0.6427
 2507SOL     OW18979   1.014   2.419  16.238  0.1642  0.6696  0.1250
 2507SOL    HW118980   0.950   2.387  16.175  1.3395 -1.5228  0.0425
 2507SOL    HW218981   0.984   2.376  16.318 -0.0686  2.5270  1.0474
 2508SOL     OW18982   0.919   1.191   6.727 -0.3581 -0.0933  0.5438
 2508SOL    HW118983   0.868   1.224   6.800 -1.6740  1.4964 -1.1167
 2508SOL    HW218984   0.968   1.268   6.698  0.4119 -1.2762 -1.2772
 2509SOL     OW18985   2.434   0.065  14.473 -0.5430 -0.4366 -0.5222
 2509SOL    HW118986   2.499   0.127  14.441  0.3250 -0.5961  0.9162
 2509SOL    HW218987   2.419   0.019  14.390  1.8473 -2.2171  0.0319
 2510SOL     OW18988   3.897   1.496   7.204  0.1371  0.3157  0.1837
 2510SOL    HW118989   3.984   1.513   7.241  0.2781  0.9635 -0.4361
 2510SOL    HW218990   3.856   1.465   7.284  1.2180 -2.1465 -0.2236
 2511SOL     OW18991   3.480   4.531   2.276  0.5100 -0.5429  0.5915
 2511SOL    HW118992   3.471   4.624   2.254  2.2077 -0.1407  1.6179
 2511SOL    HW218993   3.393   4.493   2.267 -0.7472  2.2983  0.7258
 2512SOL     OW18994   0.104   2.068  17.497  0.5398  0.6114 -0.1277
 2512SOL    HW118995   0.175   2.119  17.458 -0.2833  0.9424 -1.1959
 2512SOL    HW218996   0.035   2.072  17.431 -0.2363 -1.5774  0.5481
 2513SOL     OW18997   2.565   2.558  16.813 -0.4777 -0.2833  0.1819
 2513SOL    HW118998   2.532   2.593  16.896  0.3318  0.5371  0.1586
 2513SOL    HW218999   2.516   2.476  16.802 -0.8654  0.1711 -1.4368
 2514SOL     OW19000   3.516   0.511   6.405 -0.0792  0.1808 -0.2493
 2514SOL    HW119001   3.606   0.510   6.372 -0.0563 -2.6550 -0.1011
 2514SOL    HW219002   3.470   0.579   6.355 -0.7588  0.8923  1.3295
 2515SOL     OW19003   3.994   1.209   2.419  0.4104  0.1066  0.0448
 2515SOL    HW119004   3.944   1.169   2.490 -2.1214  0.6540 -1.4183
 2515SOL    HW219005   3.953   1.292   2.393 -0.0094 -0.0844  0.0852
 2516SOL     OW19006   4.369   3.529   5.823 -0.7457 -0.3254  0.0961
 2516SOL    HW119007   4.411   3.611   5.798 -1.1759  0.7110  2.7512
 2516SOL    HW219008   4.286   3.537   5.776  0.4172  0.6850 -1.7943
 2517SOL     OW19009   2.641   3.159   8.717  0.4794  0.6528  0.5601
 2517SOL    HW119010   2.678   3.075   8.744 -1.7447 -0.3295  0.6043
 2517SOL    HW219011   2.652   3.171   8.623 -1.6466  1.3673  0.4011
 2518SOL     OW19012   0.216   4.604   1.906  0.6869  0.0548  0.1995
 2518SOL    HW119013   0.219   4.602   2.002 -0.8231  0.4410  0.2549
 2518SOL    HW219014   0.307   4.600   1.879  0.3744  1.1319 -1.0184
 2519SOL     OW19015   3.537   1.270   0.172 -0.0282 -0.3863 -0.1075
 2519SOL    HW119016   3.442   1.281   0.178  0.1904  0.6890  1.5895
 2519SOL    HW219017   3.551   1.242   0.262  1.1767  0.0051 -0.1781
 2520SOL     OW19018   0.779   3.556  10.978  0.2040 -0.6768 -0.3295
 2520SOL    HW119019   0.796   3.544  10.885  0.8377 -1.4296 -0.1211
 2520SOL    HW219020   0.854   3.513  11.018  1.1175  1.5122  0.3149
 2521SOL     OW19021   1.182   0.896   2.331  0.2358  0.5446  0.4585
 2521SOL    HW119022   1.226   0.822   2.291  2.3608  2.2993 -0.4821
 2521SOL    HW219023   1.173   0.870   2.423 -0.7501 -1.1022 -0.1171
 2522SOL     OW19024   2.127   1.253  11.976  0.9080  0.3180 -0.0049
 2522SOL    HW119025   2.087   1.171  12.003  0.1534  1.1914  1.5258
 2522SOL    HW219026   2.108   1.302  12.055 -1.0943 -0.8286  0.2438
 2523SOL     OW19027   1.908   1.399   5.857 -0.4243  0.2786  0.4197
 2523SOL    HW119028   1.920   1.317   5.810 -0.1996  0.7551 -0.3501
 2523SOL    HW219029   1.996   1.408   5.894  0.1170  0.0058 -0.8312
 2524SOL     OW19030   4.127   1.800   2.630 -0.7433 -0.3704  0.6741
 2524SOL    HW119031   4.101   1.880   2.676  1.0826  0.6107 -0.0233
 2524SOL    HW219032   4.129   1.732   2.697  2.5380 -0.7923  0.1196
 2525SOL     OW19033   2.744   3.326  11.957  0.1991  0.3677 -0.3243
 2525SOL    HW119034   2.800   3.251  11.976 -0.4395  0.4038  1.7166
 2525SOL    HW219035   2.769   3.343  11.866 -0.8720 -0.0169 -0.6897
 2526SOL     OW19036   0.043   2.472   6.671 -0.4847  0.4746  0.9254
 2526SOL    HW119037   0.027   2.395   6.725 -0.5555 -0.9468 -1.1194
 2526SOL    HW219038   0.099   2.431   6.605 -1.5822  1.7634 -0.7984
 2527SOL     OW19039   0.382   3.754  11.040  0.4315 -0.0928  0.3149
 2527SOL    HW119040   0.455   3.715  11.088  0.0322 -0.7409  0.4037
 2527SOL    HW219041   0.419   3.840  11.023 -3.1033  1.0923 -1.4196
 2528SOL     OW19042   2.836   3.328   5.498  0.1176  0.1372 -0.0859
 2528SOL    HW119043   2.930   3.335   5.513 -0.6214  1.1719  4.0283
 2528SOL    HW219044   2.817   3.247   5.545 -1.8214  0.5821 -0.0823
 2529SOL     OW19045   4.270   4.674   7.703  0.2906 -0.0191  0.4372
 2529SOL    HW119046   4.209   4.613   7.662 -0.9318  1.6566 -0.2404
 2529SOL    HW219047   4.226   0.035   7.695 -0.9131 -0.6201  0.7320
 2530SOL     OW19048   0.226   4.356   8.489  0.4511  0.3313  0.5848
 2530SOL    HW119049   0.289   4.342   8.561  0.8327 -3.2193 -0.4537
 2530SOL    HW219050   0.160   4.291   8.512  0.8862 -0.6973 -1.0909
 2531SOL     OW19051   0.040   1.335  15.578  0.1519 -0.0584  0.1274
 2531SOL    HW119052   0.004   1.256  15.537  2.3756  0.4055 -2.7214
 2531SOL    HW219053   0.020   1.310  15.669 -1.8311 -0.0352 -0.2979
 2532SOL     OW19054   1.960   2.688   4.218 -0.2199  0.5815  0.3774
 2532SOL    HW119055   2.052   2.661   4.227 -0.2742  0.2671 -0.0151
 2532SOL    HW219056   1.912   2.609   4.243 -3.0220  1.9659 -0.6737
 2533SOL     OW19057   1.856   4.417   3.213  0.0457  0.1673  0.1223
 2533SOL    HW119058   1.790   4.477   3.178 -1.0808 -1.3181 -0.2925
 2533SOL    HW219059   1.831   4.333   3.174 -0.9599  0.4207  0.2110
 2534SOL     OW19060   2.267   1.788   5.442  0.5573  0.1953 -0.6400
 2534SOL    HW119061   2.215   1.838   5.379  0.7389  1.2205  0.0193
 2534SOL    HW219062   2.310   1.718   5.392 -0.8622 -0.8519 -0.3637
 2535SOL     OW19063   0.093   3.812  15.873  0.0720  0.3799 -0.1921
 2535SOL    HW119064   0.136   3.759  15.807 -2.6718  1.0833 -2.5258
 2535SOL    HW219065   0.056   3.883  15.821  0.1452  0.3410 -0.2975
 2536SOL     OW19066   4.374   3.523   5.239 -0.2377  0.3006  0.1297
 2536SOL    HW119067   4.345   3.458   5.175  1.9918  0.6232 -1.2084
 2536SOL    HW219068   4.457   3.552   5.201  0.8384 -2.0933  0.6802
 2537SOL     OW19069   1.026   0.921   0.454  0.3154  0.1278 -0.3118
 2537SOL    HW119070   1.091   0.851   0.457  1.2055  1.0638  1.8479
 2537SOL    HW219071   1.072   0.990   0.502 -0.0091 -1.1464  1.8315
 2538SOL     OW19072   3.041   2.469   9.123  0.1611  0.0988 -0.6850
 2538SOL    HW119073   2.956   2.429   9.142  0.4649 -0.2680 -0.1107
 2538SOL    HW219074   3.104   2.397   9.121 -0.6890 -0.6765  1.1068
 2539SOL     OW19075   0.996   1.612   7.996  0.0573 -0.1078  0.3948
 2539SOL    HW119076   0.950   1.551   8.053  0.2113  0.7936  1.5003
 2539SOL    HW219077   0.929   1.644   7.936 -0.0093 -2.5262 -0.8124
 2540SOL     OW19078   2.676   1.681   4.925 -0.0857  0.5797 -0.5787
 2540SOL    HW119079   2.697   1.675   5.018  2.0776 -1.6714 -1.2077
 2540SOL    HW219080   2.731   1.611   4.889  0.2296  0.9977 -0.9088
 2541SOL     OW19081   0.951   0.434  14.182 -0.2349 -0.5137 -0.4428
 2541SOL    HW119082   0.864   0.429  14.142 -0.8946  2.0419  0.7370
 2541SOL    HW219083   0.923   0.417  14.272  1.6349  3.7087  0.9152
 2542SOL     OW19084   2.125   2.880   8.240 -0.1886  0.4230 -0.1468
 2542SOL    HW119085   2.060   2.913   8.178 -2.3648  0.1735  2.0000
 2542SOL    HW219086   2.188   2.952   8.237 -0.7305  0.9453  0.8583
 2543SOL     OW19087   3.621   0.395  15.541 -0.1194 -0.6739 -0.6192
 2543SOL    HW119088   3.703   0.401  15.492 -0.8604 -1.0162 -1.8961
 2543SOL    HW219089   3.590   0.485  15.527 -0.3115 -0.8182 -1.1144
 2544SOL     OW19090   0.090   0.053  10.093  0.0798 -0.5610  0.4221
 2544SOL    HW119091   0.161   0.118  10.089  1.0872 -1.5842  1.7113
 2544SOL    HW219092   0.063   0.044  10.002  0.2165 -0.6773  0.3924
 2545SOL     OW19093   1.366   0.531   3.291  0.0383 -0.7525 -0.6249
 2545SOL    HW119094   1.316   0.485   3.224  0.5470 -3.0552  0.5795
 2545SOL    HW219095   1.447   0.545   3.242  0.2887 -0.9909 -0.2778
 2546SOL     OW19096   0.080   3.753   2.443 -0.3009  0.3184 -0.1293
 2546SOL    HW119097   0.071   3.686   2.376  3.1364  0.0889 -0.3721
 2546SOL    HW219098   0.045   3.712   2.522 -2.0364  1.0877 -0.5085
 2547SOL     OW19099   3.074   3.882   5.318 -0.1022 -0.2501 -0.1149
 2547SOL    HW119100   2.996   3.932   5.343 -0.3793 -0.7726  0.0642
 2547SOL    HW219101   3.129   3.946   5.272 -0.5552 -0.0481 -0.3819
 2548SOL     OW19102   1.044   0.528   8.200 -0.0263  0.6199 -0.7790
 2548SOL    HW119103   1.025   0.618   8.229 -1.5474  0.6290 -1.8037
 2548SOL    HW219104   1.049   0.473   8.278 -0.5475  1.6445 -0.0206
 2549SOL     OW19105   2.801   1.014   8.012  0.0496  0.2986  0.1422
 2549SOL    HW119106   2.813   0.920   8.027  1.8535  0.5267  0.1891
 2549SOL    HW219107   2.891   1.042   8.030  0.1253  0.0028  0.2094
 2550SOL     OW19108   3.779   0.490   3.747 -0.7945 -0.3795 -0.0621
 2550SOL    HW119109   3.802   0.412   3.797  0.8598 -0.7472 -1.3764
 2550SOL    HW219110   3.866   0.509   3.713 -1.5711  1.4177 -1.0716
 2551SOL     OW19111   2.162   3.545  11.447  0.4449  0.5298  0.1702
 2551SOL    HW119112   2.233   3.594  11.487 -0.1885  1.3386  0.3026
 2551SOL    HW219113   2.124   3.513  11.530  0.7563 -3.5075 -1.2212
 2552SOL     OW19114   1.184   3.663  11.911  0.3897 -0.5185  0.0578
 2552SOL    HW119115   1.181   3.710  11.828 -2.2946 -0.5077  0.1689
 2552SOL    HW219116   1.227   3.581  11.887  1.2148 -0.2387  0.5857
 2553SOL     OW19117   1.339   1.293   9.435  0.1969  0.2133 -0.3056
 2553SOL    HW119118   1.433   1.310   9.442 -0.1648  1.8690  0.7102
 2553SOL    HW219119   1.308   1.374   9.476 -1.4790  0.9809 -3.1141
 2554SOL     OW19120   4.345   4.228   7.679  0.4422 -0.2212  0.1487
 2554SOL    HW119121   4.264   4.176   7.684  0.7843 -0.4730  3.1274
 2554SOL    HW219122   4.398   4.189   7.748 -0.1456 -0.6967  0.3312
 2555SOL     OW19123   1.298   2.415   2.788 -0.7571  0.6302  0.1746
 2555SOL    HW119124   1.221   2.358   2.790 -1.5895  1.7429 -0.8984
 2555SOL    HW219125   1.272   2.471   2.861  2.1786  1.3339  0.6733
 2556SOL     OW19126   2.615   2.225   6.176  0.0789  0.6939 -0.2413
 2556SOL    HW119127   2.649   2.148   6.222 -0.4899 -0.0371 -1.0375
 2556SOL    HW219128   2.648   2.288   6.240 -0.3241 -0.0773  0.7193
 2557SOL     OW19129   2.586   0.117   3.130 -0.2899 -0.1548  0.3150
 2557SOL    HW119130   2.524   0.058   3.086 -0.4319 -0.5402  1.0191
 2557SOL    HW219131   2.657   0.053   3.142  0.6212  0.7092 -0.4275
 2558SOL     OW19132   3.972   3.456   2.598 -0.1378  0.4147 -0.2437
 2558SOL    HW119133   3.941   3.475   2.510 -1.0070 -1.2149 -0.2911
 2558SOL    HW219134   3.908   3.392   2.629 -1.2035  0.4714 -2.3466
 2559SOL     OW19135   1.258   0.872  12.419 -0.1918  0.1882  0.0085
 2559SOL    HW119136   1.349   0.843  12.425 -0.6309 -1.5898 -2.0727
 2559SOL    HW219137   1.249   0.942  12.355  1.7473  1.3699  1.0112
 2560SOL     OW19138   2.408   4.500  13.743 -0.0805  0.1598  0.2051
 2560SOL    HW119139   2.399   4.594  13.761 -0.4218  0.3587 -0.9934
 2560SOL    HW219140   2.479   4.492  13.679  0.0729 -1.5011  0.5760
 2561SOL     OW19141   0.952   4.580   8.825  0.1132 -0.6735  0.8532
 2561SOL    HW119142   1.028   4.639   8.821 -0.6605  0.2186 -0.3993
 2561SOL    HW219143   0.976   4.522   8.898 -0.8101  1.0673  2.5549
 2562SOL     OW19144   3.791   1.595   0.937 -0.0673  0.2545  0.1334
 2562SOL    HW119145   3.761   1.674   0.891 -0.5939  0.8480  1.5015
 2562SOL    HW219146   3.787   1.543   0.857  1.4562  2.9836 -1.7145
 2563SOL     OW19147   2.042   3.283   6.522 -0.1951  0.3132 -0.0108
 2563SOL    HW119148   2.112   3.324   6.572  0.3229  1.2744 -1.5225
 2563SOL    HW219149   1.966   3.337   6.539  0.2753  0.6210  1.1247
 2564SOL     OW19150   3.881   1.476   0.269  0.5417 -0.1341 -0.1257
 2564SOL    HW119151   3.841   1.528   0.339 -0.2729  0.0910 -0.7527
 2564SOL    HW219152   3.819   1.489   0.197  0.2041 -2.9111 -0.3530
 2565SOL     OW19153   2.209   1.680   0.488 -0.3751 -0.2028  0.0987
 2565SOL    HW119154   2.259   1.711   0.564 -1.3086  0.3925  0.4743
 2565SOL    HW219155   2.265   1.720   0.422 -0.4368  0.8218  0.6542
 2566SOL     OW19156   3.582   3.881   4.188 -0.0878 -0.1087 -0.7271
 2566SOL    HW119157   3.669   3.920   4.179  1.1076 -2.3862  1.0390
 2566SOL    HW219158   3.540   3.961   4.154 -0.2601 -0.5854 -1.6302
 2567SOL     OW19159   0.147   0.364   9.842  0.2338 -0.2048 -0.2854
 2567SOL    HW119160   0.208   0.324   9.905 -2.3284 -1.2101  1.5696
 2567SOL    HW219161   0.194   0.348   9.760 -1.8990  2.1320 -1.9482
 2568SOL     OW19162   2.522   2.457   9.159 -0.2993  0.3202  0.1652
 2568SOL    HW119163   2.549   2.471   9.250  1.0679 -0.4225 -0.1249
 2568SOL    HW219164   2.429   2.438   9.170 -0.2247 -0.8888 -1.2694
 2569SOL     OW19165   3.219   3.747   2.757 -0.1364  0.2166 -0.0150
 2569SOL    HW119166   3.252   3.836   2.770  0.1485 -0.1509  1.7787
 2569SOL    HW219167   3.201   3.719   2.847 -0.9594  0.1467 -0.2075
 2570SOL     OW19168   3.341   3.855   3.743  0.9736 -0.1786  0.0214
 2570SOL    HW119169   3.330   3.807   3.825 -0.2235  1.0838  0.6065
 2570SOL    HW219170   3.404   3.805   3.692 -0.1888 -0.5461 -1.0584
 2571SOL     OW19171   1.284   1.684   0.624  0.3562 -0.7360 -0.2031
 2571SOL    HW119172   1.371   1.718   0.602  0.1389 -0.6741 -0.9681
 2571SOL    HW219173   1.254   1.730   0.701  1.1761 -1.7534  0.7248
 2572SOL     OW19174   4.378   3.239  16.485  0.6176 -0.4080  0.4446
 2572SOL    HW119175   4.390   3.334  16.478  0.0450 -0.3514  0.2176
 2572SOL    HW219176   4.418   3.209  16.566 -0.1695 -0.1190  0.9311
 2573SOL     OW19177   4.661   2.529   7.858  0.3452 -0.3392 -0.7839
 2573SOL    HW119178   4.612   2.598   7.902  2.6231  1.0185 -0.3980
 2573SOL    HW219179   4.602   2.514   7.784 -0.0278 -1.2153 -0.3188
 2574SOL     OW19180   0.684   0.913   5.775 -0.3062  0.3622 -0.1213
 2574SOL    HW119181   0.592   0.884   5.775 -0.7772  1.9815  3.6393
 2574SOL    HW219182   0.683   0.990   5.832 -0.6395  0.7614 -0.6656
 2575SOL     OW19183   2.077   1.232   6.294 -0.0625 -0.1046  0.0912
 2575SOL    HW119184   2.120   1.313   6.266  0.3942 -0.4467 -0.2003
 2575SOL    HW219185   2.084   1.180   6.214 -0.1896 -1.9210  1.2759
 2576SOL     OW19186   0.751   1.200  14.532  1.0971 -0.5434  0.0568
 2576SOL    HW119187   0.833   1.152  14.519  1.0597 -0.8980  1.1736
 2576SOL    HW219188   0.733   1.218  14.439  1.6908 -2.4765 -0.4270
 2577SOL     OW19189   1.766   2.252   3.184  0.2456  0.1825  0.3108
 2577SOL    HW119190   1.844   2.218   3.227  0.2825 -1.1659 -0.8351
 2577SOL    HW219191   1.733   2.174   3.139  0.4302  0.4250 -0.2418
 2578SOL     OW19192   4.423   2.844   7.305  0.1508 -0.3908  0.2325
 2578SOL    HW119193   4.436   2.916   7.367  2.6293  0.0179 -0.7274
 2578SOL    HW219194   4.408   2.770   7.363 -0.2451  0.0225  0.6482
 2579SOL     OW19195   3.913   0.320  15.737 -0.3908 -0.1332  0.4774
 2579SOL    HW119196   3.978   0.390  15.743  0.1266 -0.8039  2.6071
 2579SOL    HW219197   3.955   0.260  15.799 -0.0372  0.2704  0.6284
 2580SOL     OW19198   0.646   4.653   4.579  0.1188  0.0418 -0.3245
 2580SOL    HW119199   0.595   4.667   4.659  1.0761 -1.1580  0.5007
 2580SOL    HW219200   0.586   4.639   4.506 -1.0443 -0.1379  0.6670
 2581SOL     OW19201   0.053   0.826   9.721  0.1765  0.6985 -0.0653
 2581SOL    HW119202   0.019   0.873   9.798  0.0536  0.9721 -0.2859
 2581SOL    HW219203   0.146   0.848   9.715  0.4298 -0.2373  0.4920
 2582SOL     OW19204   1.587   3.473  10.118 -0.1066 -0.1436  0.2246
 2582SOL    HW119205   1.585   3.398  10.178 -0.4651  1.0905  1.7602
 2582SOL    HW219206   1.634   3.535  10.175  0.1124  0.1379 -0.2640
 2583SOL     OW19207   3.573   1.353   5.135 -0.1027  0.6967  0.1328
 2583SOL    HW119208   3.496   1.319   5.090  0.5354  0.2882 -0.6637
 2583SOL    HW219209   3.628   1.366   5.058  0.9474 -0.4212  0.6946
 2584SOL     OW19210   0.238   4.418   5.713  0.5048  0.3015 -0.6795
 2584SOL    HW119211   0.306   4.351   5.722 -0.1936 -0.5627 -1.7835
 2584SOL    HW219212   0.156   4.371   5.726  1.9398 -1.8364  0.6914
 2585SOL     OW19213   3.024   0.095   8.068  0.8055  0.1958 -0.5069
 2585SOL    HW119214   2.965   0.112   7.995 -1.6000 -2.3345  0.8753
 2585SOL    HW219215   3.020   0.179   8.113 -0.9551  1.2918 -2.6648
 2586SOL     OW19216   4.352   1.257   3.653 -0.5663  0.8375 -0.2927
 2586SOL    HW119217   4.298   1.211   3.589 -0.8557  0.0692  0.5128
 2586SOL    HW219218   4.439   1.258   3.612 -1.2461  0.8798 -1.7145
 2587SOL     OW19219   3.887   3.877   6.760  0.1030 -0.3862 -0.0485
 2587SOL    HW119220   3.921   3.856   6.847  1.2765 -2.1939 -0.9591
 2587SOL    HW219221   3.838   3.796   6.752  0.7786 -0.8760  0.8253
 2588SOL     OW19222   3.772   1.195  12.490 -0.3673 -0.3880 -0.0035
 2588SOL    HW119223   3.704   1.136  12.523 -0.0393  1.0910  3.2966
 2588SOL    HW219224   3.763   1.194  12.395 -2.3143 -1.3718  0.1798
 2589SOL     OW19225   4.593   0.255   9.522 -0.0512  0.1279  0.5373
 2589SOL    HW119226   4.523   0.224   9.464 -0.5487  1.1460  0.5920
 2589SOL    HW219227   4.669   0.217   9.478 -0.1454  0.6276 -0.0546
 2590SOL     OW19228   1.023   1.229  15.324  0.7092 -0.0878  0.7526
 2590SOL    HW119229   1.095   1.168  15.310  1.4479  0.8938  0.2155
 2590SOL    HW219230   1.062   1.307  15.285 -0.7900 -0.4857 -1.5358
 2591SOL     OW19231   0.701   4.489  13.863  0.7186 -0.5611 -0.3287
 2591SOL    HW119232   0.691   4.578  13.898  4.5656  0.6004 -2.1810
 2591SOL    HW219233   0.679   4.437  13.940 -0.9707 -1.3905 -1.3937
 2592SOL     OW19234   3.170   0.097   3.713 -0.1747 -0.6079 -0.7679
 2592SOL    HW119235   3.213   0.012   3.718  0.8187 -0.2197 -2.7748
 2592SOL    HW219236   3.222   0.129   3.639 -0.3160  1.4059  0.0143
 2593SOL     OW19237   1.080   4.151   8.982 -0.0998 -0.2661  0.0940
 2593SOL    HW119238   1.077   4.076   9.042 -0.4161 -1.7017 -1.7348
 2593SOL    HW219239   1.157   4.198   9.014 -0.8589  0.3687  0.9932
 2594SOL     OW19240   4.023   4.662   6.480 -0.4134 -0.3266 -0.1459
 2594SOL    HW119241   4.056   0.007   6.422 -2.5257  2.0801  1.4677
 2594SOL    HW219242   4.078   4.587   6.460  1.2259  1.6476 -2.9670
 2595SOL     OW19243   1.888   4.596   5.630  0.0268  0.0298  0.4896
 2595SOL    HW119244   1.889   4.536   5.704 -0.0051  0.4474  0.8338
 2595SOL    HW219245   1.794   4.616   5.620  0.7580  3.7065  0.7333
 2596SOL     OW19246   4.016   1.598   7.675  0.1637  0.1018 -0.2050
 2596SOL    HW119247   4.104   1.635   7.681 -0.9071  2.3059  1.8340
 2596SOL    HW219248   4.053   1.510   7.670  0.8525  0.1908  3.2874
 2597SOL     OW19249   1.809   3.071   1.347  0.8285  0.0486  0.7775
 2597SOL    HW119250   1.717   3.046   1.335  0.5382  1.3210  0.3541
 2597SOL    HW219251   1.826   3.077   1.441 -0.9967 -2.3556  1.2550
 2598SOL     OW19252   1.524   3.967   2.083  0.2895 -0.4017 -0.4562
 2598SOL    HW119253   1.614   3.997   2.070  1.1640 -2.0866  1.7590
 2598SOL    HW219254   1.543   3.886   2.035  2.7378  2.0743 -3.6956
 2599SOL     OW19255   0.594   4.680   8.219 -0.1369  0.4243 -0.0679
 2599SOL    HW119256   0.630   0.042   8.244 -1.8902  1.2806 -0.4993
 2599SOL    HW219257   0.618   4.671   8.127 -0.5959  1.6494 -0.3093
 2600SOL     OW19258   1.017   0.920  12.546  0.2946 -0.3471 -0.0280
 2600SOL    HW119259   1.055   1.001  12.581  4.7929 -3.1517  1.5151
 2600SOL    HW219260   1.096   0.879  12.511  1.1173  0.6737  0.6245
 2601SOL     OW19261   4.509   1.912   4.483 -0.2561 -0.2438  0.0550
 2601SOL    HW119262   4.491   1.837   4.541 -0.0830 -0.4104 -0.1052
 2601SOL    HW219263   4.578   1.955   4.533 -1.0324 -0.2763  1.1651
 2602SOL     OW19264   3.984   1.686   1.120 -0.0404 -0.1570  0.7418
 2602SOL    HW119265   3.924   1.656   1.051  1.4049 -1.3620  0.0050
 2602SOL    HW219266   4.035   1.607   1.138 -1.2751 -1.3148 -0.7527
 2603SOL     OW19267   3.235   0.034   6.564 -0.0762 -0.0630  0.4327
 2603SOL    HW119268   3.184   0.101   6.518  0.1915 -0.2996 -0.2008
 2603SOL    HW219269   3.309   0.088   6.590 -0.5504  0.9831 -0.4225
 2604SOL     OW19270   2.329   3.050   2.850  0.3017  0.0364  0.3092
 2604SOL    HW119271   2.324   3.075   2.943  0.5339 -0.7149  0.5232
 2604SOL    HW219272   2.328   2.954   2.854 -1.0307  0.1043  1.7250
 2605SOL     OW19273   1.901   4.683   0.282  0.0451 -0.1021  0.0718
 2605SOL    HW119274   1.964   0.029   0.301  1.5503 -1.3559 -0.3043
 2605SOL    HW219275   1.907   4.633   0.363  2.5664 -1.5374 -0.9961
 2606SOL     OW19276   4.325   3.848   0.307 -0.2990 -0.2935  0.2479
 2606SOL    HW119277   4.235   3.882   0.307 -0.2565 -0.2235 -1.6954
 2606SOL    HW219278   4.309   3.775   0.367 -2.6581 -0.8856 -1.0969
 2607SOL     OW19279   1.585   2.576   0.040  0.4585 -0.1925  0.0450
 2607SOL    HW119280   1.640   2.518   0.092 -2.3517 -1.6972  1.3425
 2607SOL    HW219281   1.538   2.509  17.686 -0.8223  0.5361  0.2647
 2608SOL     OW19282   2.676   2.015   4.085  0.3830  0.3041 -0.6294
 2608SOL    HW119283   2.701   2.108   4.087  1.5085 -0.0101 -0.0776
 2608SOL    HW219284   2.619   2.015   4.008  0.2281  0.1861 -0.5137
 2609SOL     OW19285   3.454   1.697  15.230  0.5337  0.2730 -0.0699
 2609SOL    HW119286   3.405   1.636  15.285  1.9047  0.1963  1.0580
 2609SOL    HW219287   3.505   1.634  15.180  0.3881  0.8024 -0.8867
 2610SOL     OW19288   2.802   0.316  10.395  0.4155  0.1002  0.4447
 2610SOL    HW119289   2.887   0.351  10.423 -0.1730  0.5318  1.7195
 2610SOL    HW219290   2.747   0.394  10.385 -0.0808 -0.1927  0.9264
 2611SOL     OW19291   2.102   0.034   3.680 -0.1092  0.3215  0.5371
 2611SOL    HW119292   2.041   4.684   3.693  0.0952 -0.1691 -1.2456
 2611SOL    HW219293   2.057   0.105   3.635 -0.9073  0.6761  1.9166
 2612SOL     OW19294   4.553   4.246   6.105  0.2042 -0.1298 -0.8808
 2612SOL    HW119295   4.527   4.157   6.085  3.2559 -1.7224  2.1586
 2612SOL    HW219296   4.465   4.275   6.130  0.8927 -0.3901  1.9171
 2613SOL     OW19297   0.128   4.335   4.903 -0.1126 -0.3334 -0.4096
 2613SOL    HW119298   0.192   4.343   4.832  0.8747  3.3947  0.8569
 2613SOL    HW219299   0.163   4.267   4.960 -0.3119 -0.2427 -0.1777
 2614SOL     OW19300   0.176   1.482   2.342 -0.7039 -0.3886  0.2829
 2614SOL    HW119301   0.207   1.521   2.260 -0.2691  1.1536  1.1796
 2614SOL    HW219302   0.097   1.535   2.355 -0.4221 -0.1739  1.1080
 2615SOL     OW19303   3.010   0.179   2.987 -0.5576  0.0875  0.7851
 2615SOL    HW119304   2.933   0.131   2.957 -0.6745 -0.0745  1.3314
 2615SOL    HW219305   3.008   0.259   2.934 -0.8791  0.8583  1.9338
 2616SOL     OW19306   3.142   0.087  16.302 -0.5900  0.1112  0.1466
 2616SOL    HW119307   3.112   0.015  16.357  1.6961 -0.2246  0.9278
 2616SOL    HW219308   3.156   0.052  16.214 -1.5921  0.5235 -0.1756
 2617SOL     OW19309   1.147   1.817   1.752 -0.1472 -0.4555  0.1181
 2617SOL    HW119310   1.160   1.868   1.673  1.7317  0.8423  1.2562
 2617SOL    HW219311   1.094   1.743   1.722  1.6454 -3.0252  3.2556
 2618SOL     OW19312   4.413   2.437   9.551  0.0845  0.3099  0.1509
 2618SOL    HW119313   4.337   2.448   9.495 -0.5802 -1.1091  0.7681
 2618SOL    HW219314   4.450   2.525   9.549 -0.9496  0.7323 -0.2086
 2619SOL     OW19315   2.078   2.970  13.384 -0.0581  0.2529 -0.5474
 2619SOL    HW119316   2.119   2.968  13.470  0.8293  2.1507 -0.9293
 2619SOL    HW219317   1.988   2.982  13.414  0.1491  4.6036 -1.7419
 2620SOL     OW19318   1.964   2.493   6.803 -0.2765  1.2142  0.2320
 2620SOL    HW119319   1.871   2.513   6.796 -0.4784  0.3202  0.3500
 2620SOL    HW219320   1.998   2.581   6.817  0.2974  1.2714 -1.5664
 2621SOL     OW19321   1.372   4.037   2.356  0.1128  0.1743 -0.2856
 2621SOL    HW119322   1.380   4.002   2.267  1.7640  0.1898 -0.1359
 2621SOL    HW219323   1.359   3.954   2.402  0.3145  1.2075  1.5917
 2622SOL     OW19324   4.679   4.007   2.503 -0.0741  0.6560  0.0143
 2622SOL    HW119325   4.712   3.921   2.475 -2.6004 -1.4326  3.4142
 2622SOL    HW219326   4.597   4.019   2.455  0.0978 -1.0537 -0.7221
 2623SOL     OW19327   1.290   3.223   4.993  0.2860 -0.0900 -0.0891
 2623SOL    HW119328   1.262   3.312   4.971 -4.2159 -1.1418  1.4255
 2623SOL    HW219329   1.250   3.227   5.080  1.5212  0.8826  0.4357
 2624SOL     OW19330   1.811   0.970   5.603  0.4923  0.1192  1.1993
 2624SOL    HW119331   1.836   0.911   5.532  1.2659  2.3108 -0.3479
 2624SOL    HW219332   1.786   0.914   5.677  0.2524 -0.7089  0.5022
 2625SOL     OW19333   0.745   2.255  12.577  0.1408  0.2266  0.2235
 2625SOL    HW119334   0.764   2.162  12.587 -0.8190  0.2513  2.4153
 2625SOL    HW219335   0.832   2.292  12.587  1.5403 -3.3955  1.3803
 2626SOL     OW19336   0.981   3.752   6.525 -0.0154 -0.1719  0.2352
 2626SOL    HW119337   1.038   3.808   6.578 -2.3499  0.1815  2.3823
 2626SOL    HW219338   0.895   3.790   6.544 -0.2804  0.0882 -1.4657
 2627SOL     OW19339   3.607   1.995   8.655  0.1846  0.4539  0.4684
 2627SOL    HW119340   3.529   2.049   8.645  0.2868 -0.0455 -2.9854
 2627SOL    HW219341   3.611   1.979   8.749 -1.5847 -0.6857  0.3511
 2628SOL     OW19342   3.844   0.471   6.666  0.0653 -0.6634  0.0071
 2628SOL    HW119343   3.886   0.507   6.587  0.4905  0.6311  0.8203
 2628SOL    HW219344   3.795   0.548   6.693  1.3838  0.6814 -1.4135
 2629SOL     OW19345   4.097   0.317  14.277 -0.1602  0.0226 -0.6452
 2629SOL    HW119346   4.104   0.276  14.191  0.0626 -1.6213  0.1631
 2629SOL    HW219347   4.191   0.329  14.293 -0.1776  0.4139 -0.8353
 2630SOL     OW19348   1.564   3.517   6.720 -0.0151  0.0901 -0.0785
 2630SOL    HW119349   1.605   3.438   6.758  1.1634  0.3893 -0.7235
 2630SOL    HW219350   1.630   3.586   6.713  1.3135 -1.3185 -1.5275
 2631SOL     OW19351   4.561   3.306   1.082 -0.5278  0.2313 -0.3110
 2631SOL    HW119352   4.639   3.303   1.137 -0.9327 -0.4185  0.2333
 2631SOL    HW219353   4.497   3.287   1.150  0.9067 -1.4621  0.5689
 2632SOL     OW19354   0.167   3.311   0.210 -0.4256  0.1717 -0.2126
 2632SOL    HW119355   0.198   3.248   0.275  1.3448  1.1086 -0.1376
 2632SOL    HW219356   0.076   3.325   0.236 -0.6896 -3.1355  0.6145
 2633SOL     OW19357   1.869   4.510  15.398  0.5515 -0.4220  0.8095
 2633SOL    HW119358   1.929   4.436  15.399  2.0258  0.7591 -1.1651
 2633SOL    HW219359   1.861   4.531  15.492  2.9701  1.9561  0.4885
 2634SOL     OW19360   1.146   1.700   6.809  0.1390 -0.3135 -0.0387
 2634SOL    HW119361   1.085   1.663   6.745 -0.5140 -0.5198  0.7027
 2634SOL    HW219362   1.223   1.653   6.779  1.6937  2.5015 -0.4989
 2635SOL     OW19363   0.131   4.230  11.205  0.4868 -0.3070  0.0700
 2635SOL    HW119364   0.222   4.232  11.173  0.4712  1.2846  0.1229
 2635SOL    HW219365   0.137   4.270  11.292  1.3512  1.6505 -0.8886
 2636SOL     OW19366   2.470   2.859   5.871  0.5479  0.2286 -0.1947
 2636SOL    HW119367   2.374   2.851   5.874  0.6282 -0.6284  0.0977
 2636SOL    HW219368   2.487   2.910   5.950  2.0662  0.8145 -0.9095
 2637SOL     OW19369   3.458   1.901   8.402  0.0139  0.1040  0.3073
 2637SOL    HW119370   3.435   1.976   8.457 -2.2779  0.2587 -0.8335
 2637SOL    HW219371   3.397   1.893   8.328 -0.9487  0.2110  1.0859
 2638SOL     OW19372   2.811   2.563   5.236  0.1432 -0.2002  0.3543
 2638SOL    HW119373   2.820   2.475   5.272  0.2503 -1.3869 -2.5938
 2638SOL    HW219374   2.905   2.582   5.228  0.2214 -0.8813 -0.2924
 2639SOL     OW19375   4.113   0.382   2.476 -0.1751  0.0536  0.0900
 2639SOL    HW119376   4.192   0.430   2.501  0.3457 -1.0197  0.5225
 2639SOL    HW219377   4.164   0.304   2.451 -0.9977 -0.2279 -0.6990
 2640SOL     OW19378   0.056   1.123   2.484 -0.0317 -0.1963 -0.5097
 2640SOL    HW119379   0.071   1.047   2.429 -0.3879 -2.8082  3.0087
 2640SOL    HW219380   0.023   1.189   2.422  1.6998 -0.0166 -1.2334
 2641SOL     OW19381   1.207   2.469   7.438  0.1296 -0.1862 -0.4165
 2641SOL    HW119382   1.194   2.416   7.359 -3.7256  2.0310 -1.2881
 2641SOL    HW219383   1.120   2.509   7.438  0.6593  0.9600 -2.1273
 2642SOL     OW19384   0.764   2.191   2.373 -0.9573 -0.2930  0.2097
 2642SOL    HW119385   0.720   2.123   2.423  0.2707 -0.8892  0.4879
 2642SOL    HW219386   0.802   2.145   2.298 -0.4593 -0.1683  0.3869
 2643SOL     OW19387   0.768   3.802   7.746 -0.2177 -0.1765  0.0040
 2643SOL    HW119388   0.748   3.856   7.669 -1.0814 -0.2093  0.2010
 2643SOL    HW219389   0.863   3.811   7.752 -0.4563  1.6844  0.7525
 2644SOL     OW19390   0.769   4.143   5.338  0.6067 -0.4866  0.2470
 2644SOL    HW119391   0.837   4.209   5.348  0.2063 -0.1015  0.4641
 2644SOL    HW219392   0.688   4.188   5.362  1.4679  0.7998  0.7055
 2645SOL     OW19393   0.962   0.568  13.122 -0.3058 -0.0989  0.5829
 2645SOL    HW119394   0.933   0.485  13.085  0.5863 -0.2880  0.3189
 2645SOL    HW219395   0.913   0.573  13.204 -0.2211 -0.1221  0.6350
 2646SOL     OW19396   1.456   2.386   6.955  0.1582  0.0626  0.4059
 2646SOL    HW119397   1.362   2.392   6.937 -0.0890  1.3479  2.2077
 2646SOL    HW219398   1.480   2.321   6.888 -0.6649 -0.4663  0.6223
 2647SOL     OW19399   3.327   3.462   2.817 -0.0552  0.3073  0.4491
 2647SOL    HW119400   3.406   3.500   2.854  1.4015 -1.2295 -1.1072
 2647SOL    HW219401   3.283   3.539   2.782 -1.1316  1.0991  3.4935
 2648SOL     OW19402   0.171   4.021   6.400  0.2014 -0.0280  0.3531
 2648SOL    HW119403   0.125   4.099   6.429 -1.4540 -1.3721  1.3506
 2648SOL    HW219404   0.106   3.952   6.385  0.1125 -0.1640  1.3520
 2649SOL     OW19405   3.796   0.691   4.907  0.2771  0.2390  0.0221
 2649SOL    HW119406   3.747   0.654   4.981 -0.5160  1.5360  0.1501
 2649SOL    HW219407   3.796   0.785   4.923 -0.6938  0.3710 -0.7264
 2650SOL     OW19408   1.458   4.375   2.825 -0.6574 -0.0856  0.3765
 2650SOL    HW119409   1.452   4.328   2.741  0.6891  0.8498 -0.2471
 2650SOL    HW219410   1.553   4.367   2.825 -0.7496 -1.3966 -2.4325
 2651SOL     OW19411   2.155   1.395  16.836  0.6529 -0.1351 -0.0206
 2651SOL    HW119412   2.180   1.449  16.911 -1.4407 -1.4257  1.6144
 2651SOL    HW219413   2.186   1.453  16.766 -1.3777  1.6960  0.5984
 2652SOL     OW19414   1.657   3.538  14.281 -0.0692 -0.0689  0.2073
 2652SOL    HW119415   1.730   3.532  14.342  0.3775 -0.3945 -0.3615
 2652SOL    HW219416   1.709   3.556  14.203  0.1284  0.2602  0.4132
 2653SOL     OW19417   1.081   2.101   3.836 -0.9370 -0.4172 -0.1304
 2653SOL    HW119418   1.172   2.075   3.854  0.1400  3.3410 -0.1051
 2653SOL    HW219419   1.079   2.060   3.750 -1.2523 -1.4036  0.3453
 2654SOL     OW19420   0.482   3.004   8.280  0.3006  0.4495 -0.2930
 2654SOL    HW119421   0.423   3.026   8.352 -1.1216 -0.9675 -1.0070
 2654SOL    HW219422   0.506   3.096   8.270  2.2149  0.2272  2.3511
 2655SOL     OW19423   1.420   2.626   7.423  0.0392 -0.3309  0.0048
 2655SOL    HW119424   1.350   2.564   7.444 -0.3609  0.1066 -0.0181
 2655SOL    HW219425   1.448   2.578   7.346  0.7581  2.3283 -1.3799
 2656SOL     OW19426   4.370   1.846   9.100  0.0533  0.4158 -0.1392
 2656SOL    HW119427   4.341   1.800   9.178  0.8498  1.7381  0.9318
 2656SOL    HW219428   4.455   1.885   9.121 -0.7448  1.6821  0.6605
 2657SOL     OW19429   1.294   3.503   5.331 -0.2107 -0.1444  0.3166
 2657SOL    HW119430   1.222   3.446   5.356 -1.3776  2.0330  1.9660
 2657SOL    HW219431   1.349   3.507   5.410 -1.1525  2.2146  0.8465
 2658SOL     OW19432   2.753   3.668  11.316  0.1131  0.1213  0.1275
 2658SOL    HW119433   2.834   3.618  11.317  0.4835  0.7598  2.3933
 2658SOL    HW219434   2.723   3.631  11.400  0.0686 -2.4616 -1.0206
 2659SOL     OW19435   0.000   3.454   6.173 -0.3567  0.0765 -0.0675
 2659SOL    HW119436   0.002   3.422   6.263  2.2588  0.0828 -0.0974
 2659SOL    HW219437   4.632   3.440   6.152 -0.5876  1.2762  0.1452
 2660SOL     OW19438   2.621   1.816  10.998 -0.2014 -0.3500  0.6875
 2660SOL    HW119439   2.619   1.736  10.946  0.0945 -0.7274  1.2664
 2660SOL    HW219440   2.598   1.869  10.921 -0.3097 -0.5221  0.6025
 2661SOL     OW19441   0.738   3.349  12.056  0.2826 -0.1305  1.0100
 2661SOL    HW119442   0.815   3.374  12.108  1.5999 -1.3914 -0.3412
 2661SOL    HW219443   0.680   3.306  12.119 -1.0413  0.0966 -0.0458
 2662SOL     OW19444   0.968   2.381   1.956  0.2787 -0.2341  0.0354
 2662SOL    HW119445   1.033   2.368   1.888  0.3621 -1.6785  0.3813
 2662SOL    HW219446   0.974   2.476   1.965  0.2065 -0.4786  2.8276
 2663SOL     OW19447   3.763   3.804  16.079 -0.0335 -0.2134 -0.1792
 2663SOL    HW119448   3.820   3.732  16.107  1.2707  1.4161  1.2943
 2663SOL    HW219449   3.695   3.798  16.147  0.8432  0.0532  0.7104
 2664SOL     OW19450   1.754   0.246   0.392 -0.0571 -0.2328  0.3643
 2664SOL    HW119451   1.686   0.180   0.407 -0.1306 -0.2521 -0.0636
 2664SOL    HW219452   1.718   0.276   0.308  1.8055  1.0656  0.0316
 2665SOL     OW19453   2.629   0.354   9.475  0.2653  0.5663 -0.5258
 2665SOL    HW119454   2.576   0.414   9.527 -0.1290 -0.2324  0.0064
 2665SOL    HW219455   2.714   0.351   9.519  0.0558  2.0732 -0.0373
 2666SOL     OW19456   3.571   1.684   8.643  0.0464  0.1217 -0.7323
 2666SOL    HW119457   3.544   1.768   8.681  2.5004  0.9774 -0.8819
 2666SOL    HW219458   3.497   1.627   8.663 -0.5188  1.5011  1.1505
 2667SOL     OW19459   1.227   1.008   7.105 -0.5549  0.1631 -0.3797
 2667SOL    HW119460   1.300   1.028   7.163  0.4640 -1.5540 -1.0650
 2667SOL    HW219461   1.209   1.092   7.063  2.6809  0.7713 -0.5434
 2668SOL     OW19462   2.712   0.681   3.331 -0.6310  0.0450 -0.2932
 2668SOL    HW119463   2.802   0.714   3.322 -0.6836 -0.1288 -1.5166
 2668SOL    HW219464   2.674   0.708   3.247 -1.1823  2.7316  0.7993
 2669SOL     OW19465   0.051   3.878   8.914  0.4511  0.4153 -0.0891
 2669SOL    HW119466   0.099   3.822   8.854  1.2431 -0.2131  1.1199
 2669SOL    HW219467   0.063   3.830   8.996  0.8969  1.7087  0.6066
 2670SOL     OW19468   4.547   2.158   9.809  0.2971 -0.4030  0.0790
 2670SOL    HW119469   4.488   2.133   9.737  1.0801 -1.6515 -0.1412
 2670SOL    HW219470   4.508   2.111   9.883 -0.7266  0.9673  0.4124
 2671SOL     OW19471   2.466   3.702   6.288 -0.4958  0.4613 -0.0419
 2671SOL    HW119472   2.510   3.700   6.373  0.8714  0.1764 -0.7515
 2671SOL    HW219473   2.523   3.757   6.233 -0.9280 -1.4332 -2.3467
 2672SOL     OW19474   0.802   2.860   2.511  0.1169  0.1759 -0.7187
 2672SOL    HW119475   0.755   2.777   2.502  0.6208 -0.1184 -0.6372
 2672SOL    HW219476   0.816   2.860   2.605  2.6031 -0.1297 -1.0794
 2673SOL     OW19477   0.317   3.419   4.561  0.5591  0.3927  0.5322
 2673SOL    HW119478   0.324   3.513   4.579  0.2365  0.1496  1.9271
 2673SOL    HW219479   0.406   3.385   4.554  0.9725  2.0793 -2.2296
 2674SOL     OW19480   2.132   2.133   7.211  0.1282 -0.1006 -0.2684
 2674SOL    HW119481   2.093   2.047   7.221  0.1240 -0.3634 -2.6627
 2674SOL    HW219482   2.063   2.187   7.171 -0.1682 -0.1104  0.2269
 2675SOL     OW19483   4.042   4.132   8.166 -0.2588 -0.2065 -0.6124
 2675SOL    HW119484   4.010   4.043   8.157  1.1732 -0.9218  1.3546
 2675SOL    HW219485   4.115   4.129   8.228 -1.0630 -1.1932  0.2738
 2676SOL     OW19486   1.786   2.042   7.292  0.9126  0.2341 -0.3804
 2676SOL    HW119487   1.782   2.061   7.198  1.8896 -0.0353 -0.4802
 2676SOL    HW219488   1.787   2.135   7.316  0.7320 -0.2957  1.6385
 2677SOL     OW19489   0.592   1.857  12.096  0.0383 -0.3876  0.0035
 2677SOL    HW119490   0.632   1.773  12.075  0.3776 -0.5063  1.0873
 2677SOL    HW219491   0.672   1.903  12.070 -0.9569 -0.2252 -2.7668
 2678SOL     OW19492   3.151   3.836   2.255 -0.3018  0.1219  0.1495
 2678SOL    HW119493   3.102   3.839   2.337  0.2449  2.7845  0.3971
 2678SOL    HW219494   3.078   3.857   2.197 -0.9242 -1.3433  0.4007
 2679SOL     OW19495   1.143   3.403   6.512  0.0710 -0.2936  0.7842
 2679SOL    HW119496   1.057   3.444   6.514 -0.1358 -0.5914 -1.9989
 2679SOL    HW219497   1.129   3.344   6.438 -1.7249  2.0385 -0.7252
 2680SOL     OW19498   0.047   4.556   4.232 -0.2270 -0.0511 -0.2713
 2680SOL    HW119499   0.129   4.594   4.202 -0.7374  0.9703 -0.3706
 2680SOL    HW219500   4.713   4.618   4.187 -0.0406  1.5805  1.7715
 2681SOL     OW19501   3.032   2.758   1.037  0.1278  0.6406  0.2079
 2681SOL    HW119502   3.038   2.667   1.067 -1.3477  1.0177  1.6255
 2681SOL    HW219503   3.124   2.780   1.050  0.2149  0.2906  0.1737
 2682SOL     OW19504   1.298   0.931  15.843 -0.4208  0.0638 -0.0897
 2682SOL    HW119505   1.370   0.989  15.817  0.1539 -1.0956 -1.0906
 2682SOL    HW219506   1.268   0.983  15.917 -0.0838 -0.6179  0.5321
 2683SOL     OW19507   4.682   4.467   2.239 -0.4152  0.2595  0.0218
 2683SOL    HW119508   4.648   4.450   2.151  1.5081 -2.1169 -0.2504
 2683SOL    HW219509   4.635   4.403   2.292 -0.9244 -0.0835 -0.8243
 2684SOL     OW19510   0.384   1.941   9.506 -0.1324 -0.0317 -0.2798
 2684SOL    HW119511   0.349   1.943   9.417 -0.5666  0.1840 -0.1039
 2684SOL    HW219512   0.465   1.991   9.497  0.4144 -1.1628 -1.5744
 2685SOL     OW19513   1.778   1.043   3.546  0.8254 -0.3687 -0.2446
 2685SOL    HW119514   1.700   1.084   3.511  0.2367  0.3916  1.9309
 2685SOL    HW219515   1.831   1.119   3.570  0.9862 -0.6159  0.1908
 2686SOL     OW19516   3.108   1.733   3.976 -0.4099  0.5423 -0.2592
 2686SOL    HW119517   3.045   1.686   4.031  0.0231 -1.1245 -1.1826
 2686SOL    HW219518   3.108   1.820   4.015 -4.1499  0.7910 -0.8083
 2687SOL     OW19519   3.904   4.485   3.854 -0.1455 -0.2790 -0.1896
 2687SOL    HW119520   3.874   4.454   3.769 -0.8685 -1.3076  0.4413
 2687SOL    HW219521   3.865   4.572   3.843  1.3463  0.3862 -0.2922
 2688SOL     OW19522   2.789   3.228   8.219  0.3732  0.4206  0.5636
 2688SOL    HW119523   2.868   3.209   8.168  0.3240 -2.3958  1.4931
 2688SOL    HW219524   2.810   3.313   8.258  2.5267  0.9820 -1.8373
 2689SOL     OW19525   0.945   1.509   1.037  0.2695  0.0402 -0.0414
 2689SOL    HW119526   0.860   1.502   1.080 -1.0651 -0.2873 -2.7315
 2689SOL    HW219527   0.988   1.472   1.114  1.4276  2.2636  0.3867
 2690SOL     OW19528   1.225   4.416   2.017  0.5168  0.1052  0.9219
 2690SOL    HW119529   1.312   4.427   2.056  0.5978  0.3787  0.6723
 2690SOL    HW219530   1.252   4.409   1.925 -1.0641 -0.9799  0.5366
 2691SOL     OW19531   4.464   1.170  10.292  0.2025 -0.1365 -0.4784
 2691SOL    HW119532   4.422   1.214  10.366 -0.7837  0.6131 -1.4804
 2691SOL    HW219533   4.393   1.162  10.228  1.3230 -0.5488 -1.6855
 2692SOL     OW19534   3.717   2.800  10.307 -0.0312 -0.3292 -0.8244
 2692SOL    HW119535   3.664   2.721  10.316  2.2139 -1.6889  0.5795
 2692SOL    HW219536   3.796   2.764  10.348  0.4375 -0.6983 -2.0423
 2693SOL     OW19537   4.462   1.516  12.830  0.0948  0.1473 -0.5123
 2693SOL    HW119538   4.461   1.421  12.819  1.5900  0.1255 -0.3754
 2693SOL    HW219539   4.420   1.551  12.751  0.2271  0.5449 -0.4075
 2694SOL     OW19540   0.640   3.740   2.059  0.7223  0.2529 -0.2296
 2694SOL    HW119541   0.662   3.785   1.978 -3.7546 -0.1989 -1.6909
 2694SOL    HW219542   0.554   3.780   2.067 -0.9411 -3.2564 -0.6216
 2695SOL     OW19543   4.470   4.100   1.107  0.0851  0.7779 -0.6860
 2695SOL    HW119544   4.392   4.153   1.092  0.2898  0.9264 -1.2479
 2695SOL    HW219545   4.523   4.131   1.033  1.0490  0.2519 -0.2062
 2696SOL     OW19546   0.244   4.390   2.775  0.9146 -0.3688 -0.3340
 2696SOL    HW119547   0.279   4.472   2.741 -0.7717  0.2950 -0.4988
 2696SOL    HW219548   0.177   4.371   2.709 -1.1756  1.2807  1.2771
 2697SOL     OW19549   0.276   1.123   4.993 -0.1433  0.3580  0.1399
 2697SOL    HW119550   0.247   1.033   4.976 -1.2000  0.9358 -1.0738
 2697SOL    HW219551   0.301   1.158   4.907  1.9807  1.0136  1.0349
 2698SOL     OW19552   4.171   1.248   8.588 -0.0602  0.0102  0.4327
 2698SOL    HW119553   4.161   1.312   8.659  0.0448 -0.0690  0.5191
 2698SOL    HW219554   4.266   1.253   8.585 -0.0207 -0.3596  1.0823
 2699SOL     OW19555   3.017   0.750   8.313  0.5031 -0.4621 -0.4485
 2699SOL    HW119556   2.999   0.754   8.219 -0.6363 -1.7162 -0.2832
 2699SOL    HW219557   3.032   0.843   8.331 -0.1213 -0.5714  0.6007
 2700SOL     OW19558   2.224   4.543  15.441 -0.3960  0.2678  0.4576
 2700SOL    HW119559   2.173   4.497  15.375  0.7684  1.3110 -1.1827
 2700SOL    HW219560   2.221   4.634  15.409 -0.6230  0.5218  1.2100
 2701SOL     OW19561   3.556   3.229   3.748  0.0422  0.1397 -0.3466
 2701SOL    HW119562   3.627   3.268   3.798  0.2538 -0.1796 -0.3971
 2701SOL    HW219563   3.586   3.257   3.661  0.8528  0.2959 -0.0148
 2702SOL     OW19564   2.270   1.381   0.150 -0.1565  0.3635 -0.2429
 2702SOL    HW119565   2.176   1.398   0.157 -0.4766 -0.3977 -2.7721
 2702SOL    HW219566   2.301   1.411   0.235  0.4417  0.3821 -0.4720
 2703SOL     OW19567   1.485   4.382  11.214 -0.2449 -0.5802 -0.2947
 2703SOL    HW119568   1.443   4.391  11.299  0.9249  2.2511 -0.0179
 2703SOL    HW219569   1.570   4.427  11.219 -1.2899  1.4033 -0.3043
 2704SOL     OW19570   4.227   2.481   9.348  0.3028  0.2824 -0.8708
 2704SOL    HW119571   4.204   2.390   9.330  0.2001  0.2877 -0.7625
 2704SOL    HW219572   4.152   2.525   9.309 -0.3904  0.6207  0.8291
 2705SOL     OW19573   0.275   2.549   5.380  0.0896  0.6620  0.5017
 2705SOL    HW119574   0.285   2.455   5.367 -1.2731  0.3310  1.8982
 2705SOL    HW219575   0.252   2.546   5.473  1.3566  0.7766  0.8135
 2706SOL     OW19576   4.457   2.467  12.653  0.3581 -0.1655  0.4209
 2706SOL    HW119577   4.446   2.560  12.670 -0.4895  0.2423 -2.3969
 2706SOL    HW219578   4.498   2.468  12.567  2.7938 -1.6900  1.5670
 2707SOL     OW19579   3.066   4.295   9.922 -0.3994 -0.4294  0.0995
 2707SOL    HW119580   3.009   4.227   9.885  0.8317 -2.6256  2.1751
 2707SOL    HW219581   3.137   4.309   9.860  0.8816  1.4428  2.0065
 2708SOL     OW19582   0.862   3.187  17.569  0.0143  0.2167 -0.8523
 2708SOL    HW119583   0.793   3.201  17.634  1.0854 -0.9064  0.5221
 2708SOL    HW219584   0.940   3.156  17.613 -0.9806  2.1542  2.2382
 2709SOL     OW19585   3.250   0.802  17.622  0.3129  0.6722 -0.1561
 2709SOL    HW119586   3.225   0.865  17.555  3.1509  0.6132 -1.2786
 2709SOL    HW219587   3.183   0.733  17.616  1.5096 -0.5563  0.5794
 2710SOL     OW19588   0.674   3.900   4.517 -0.0677  0.0912 -0.0834
 2710SOL    HW119589   0.710   3.967   4.576 -2.8602  2.3085 -0.8784
 2710SOL    HW219590   0.752   3.872   4.470 -0.4969 -2.8441  0.9826
 2711SOL     OW19591   4.393   2.981   9.882  0.3746  0.1681  0.3467
 2711SOL    HW119592   4.435   3.064   9.905 -0.6755  0.5374  0.9143
 2711SOL    HW219593   4.302   3.002   9.901  0.5596  1.1207  0.2083
 2712SOL     OW19594   2.411   4.004  16.698  0.3282  0.0839  0.1571
 2712SOL    HW119595   2.474   4.046  16.639  0.5770  0.6377  0.8163
 2712SOL    HW219596   2.392   3.919  16.660  0.4099  0.5428 -0.9078
 2713SOL     OW19597   0.189   3.273  15.428 -0.1487  0.8306 -0.1148
 2713SOL    HW119598   0.127   3.226  15.372 -0.3245 -2.5852  2.9408
 2713SOL    HW219599   0.135   3.347  15.456 -1.3714 -0.0725 -0.0984
 2714SOL     OW19600   1.621   4.651   3.672 -0.0231  0.1495  0.6667
 2714SOL    HW119601   1.560   4.697   3.614  1.4455  0.5194 -0.5944
 2714SOL    HW219602   1.699   4.641   3.617 -1.6392 -0.5035 -1.5051
 2715SOL     OW19603   2.724   0.713  10.142  0.1168 -0.2698  0.0929
 2715SOL    HW119604   2.661   0.682  10.076  0.4102 -1.4317  0.3507
 2715SOL    HW219605   2.698   0.669  10.223 -3.1345 -0.8819 -1.2676
 2716SOL     OW19606   2.890   0.376  14.381  0.7075 -0.1199  0.3139
 2716SOL    HW119607   2.853   0.352  14.296 -1.9332  0.0589  1.4147
 2716SOL    HW219608   2.844   0.318  14.442  0.7528  2.1884  2.5741
 2717SOL     OW19609   0.625   4.018   2.713  0.0232 -0.4462  0.0669
 2717SOL    HW119610   0.540   3.998   2.753  0.2703 -0.1666  0.7202
 2717SOL    HW219611   0.611   4.111   2.692  1.2266 -0.2753  0.0129
 2718SOL     OW19612   2.516   2.531   4.411 -0.6743  0.2179  0.6242
 2718SOL    HW119613   2.521   2.456   4.351  0.6637  1.3314 -0.6649
 2718SOL    HW219614   2.487   2.486   4.490 -1.8872 -1.6850 -0.8953
 2719SOL     OW19615   1.749   3.558   7.713 -0.2953  0.4731  0.1492
 2719SOL    HW119616   1.825   3.576   7.768  0.4060  0.8156 -0.9139
 2719SOL    HW219617   1.712   3.645   7.701  1.9310  1.4116  0.0613
 2720SOL     OW19618   3.796   0.768   6.261  0.2326  0.0351  0.1153
 2720SOL    HW119619   3.851   0.797   6.333 -0.6163 -0.1841  0.8550
 2720SOL    HW219620   3.861   0.745   6.195 -0.4413 -0.4571 -0.3779
 2721SOL     OW19621   0.016   3.906   3.741  0.7573 -0.0390  0.1819
 2721SOL    HW119622   0.090   3.923   3.800  1.0043  2.5704 -0.8866
 2721SOL    HW219623   0.052   3.925   3.654  1.0074 -2.8784 -0.3548
 2722SOL     OW19624   0.257   2.541   2.529 -0.4834  0.4606 -0.5569
 2722SOL    HW119625   0.344   2.579   2.512  0.1183 -0.4046  0.5516
 2722SOL    HW219626   0.206   2.619   2.508 -0.9626 -0.2039 -1.8687
 2723SOL     OW19627   2.934   3.474   4.652  0.2463  0.1079 -0.4568
 2723SOL    HW119628   2.841   3.469   4.629 -0.2406 -1.2875  1.8318
 2723SOL    HW219629   2.934   3.552   4.708  0.5169  0.8756 -1.5326
 2724SOL     OW19630   2.051   1.392  11.731  0.7654  0.4276  0.5822
 2724SOL    HW119631   1.991   1.331  11.687  1.2884  1.4550 -1.5688
 2724SOL    HW219632   2.074   1.350  11.814  0.1963  0.1298  0.5883
 2725SOL     OW19633   1.679   1.228   5.131 -1.0167  0.3335 -0.6295
 2725SOL    HW119634   1.654   1.149   5.178 -0.5271 -0.6735 -2.0599
 2725SOL    HW219635   1.658   1.290   5.201 -0.1973 -0.9003  0.7030
 2726SOL     OW19636   2.249   3.304   7.315 -0.4818 -0.0163 -0.0925
 2726SOL    HW119637   2.344   3.294   7.322 -0.3163  2.0288  0.6653
 2726SOL    HW219638   2.236   3.344   7.401  0.6222 -1.7023  0.8563
 2727SOL     OW19639   4.702   3.839  10.923 -0.3868  0.3443 -0.1932
 2727SOL    HW119640   0.010   3.888  10.847  0.2240  1.8204  1.0103
 2727SOL    HW219641   4.700   3.906  10.991 -0.5916 -0.0752  0.2169
 2728SOL     OW19642   1.588   2.635   4.479 -0.1946  0.9096 -0.2941
 2728SOL    HW119643   1.522   2.638   4.410 -0.2658  0.4214 -0.2460
 2728SOL    HW219644   1.644   2.712   4.466  0.5426  0.5462  0.6968
 2729SOL     OW19645   3.830   4.137  11.826  0.3120 -0.4085  0.2673
 2729SOL    HW119646   3.764   4.184  11.774  2.0099 -0.2091 -1.6904
 2729SOL    HW219647   3.791   4.155  11.912 -1.2847 -0.2370 -0.4892
 2730SOL     OW19648   1.364   4.542  14.485 -0.2203  0.1736 -0.0427
 2730SOL    HW119649   1.364   4.447  14.479  0.4153  0.3511 -2.9166
 2730SOL    HW219650   1.328   4.544  14.573 -2.1203  2.8756 -0.8592
 2731SOL     OW19651   3.472   3.822   8.432  0.2390 -0.1099 -1.1195
 2731SOL    HW119652   3.381   3.841   8.409  0.6458  2.3200 -0.6739
 2731SOL    HW219653   3.467   3.727   8.426  0.7988 -0.2240  0.2181
 2732SOL     OW19654   0.294   4.482   0.453 -0.3047  0.1498  0.4482
 2732SOL    HW119655   0.334   4.402   0.489 -0.0939  0.9299  1.9167
 2732SOL    HW219656   0.297   4.539   0.530 -0.2239  0.1438  0.4495
 2733SOL     OW19657   3.140   1.245   2.861  0.0249 -0.1766 -0.4164
 2733SOL    HW119658   3.186   1.266   2.780  2.3564  0.9867  1.1768
 2733SOL    HW219659   3.059   1.277   2.823 -0.1801 -1.2446 -0.8767
 2734SOL     OW19660   4.056   0.786   1.213 -0.4762 -0.2670 -0.5989
 2734SOL    HW119661   4.050   0.714   1.276 -1.7878 -0.5735 -1.0667
 2734SOL    HW219662   4.124   0.841   1.253 -1.5124 -0.4589  1.4293
 2735SOL     OW19663   2.259   0.171   8.644 -0.0026  0.6907  0.2603
 2735SOL    HW119664   2.199   0.219   8.702 -1.2782  0.1267 -0.6045
 2735SOL    HW219665   2.322   0.134   8.706 -1.2128  0.5129  1.4029
 2736SOL     OW19666   1.243   0.529  16.628  0.5507 -0.2102 -0.0889
 2736SOL    HW119667   1.150   0.507  16.628  0.7099 -0.9029  0.8466
 2736SOL    HW219668   1.252   0.541  16.723 -1.5631  1.1257 -0.0613
 2737SOL     OW19669   0.119   3.492   1.343  0.9540  0.0004  0.3183
 2737SOL    HW119670   0.099   3.399   1.331 -2.1122  0.6306  0.7113
 2737SOL    HW219671   0.056   3.534   1.286  2.1235  1.9036  0.4186
 2738SOL     OW19672   0.863   3.247   7.379 -0.1733 -0.4932  0.1293
 2738SOL    HW119673   0.943   3.207   7.343  0.3663  0.1604  0.6253
 2738SOL    HW219674   0.889   3.310   7.445  0.2960 -1.7504  1.1515
 2739SOL     OW19675   0.732   3.983  10.915 -0.1387  0.2195 -0.2848
 2739SOL    HW119676   0.644   3.972  10.879  1.4543 -2.5909 -3.3414
 2739SOL    HW219677   0.785   3.985  10.835  0.7039  2.1288  0.3268
 2740SOL     OW19678   2.516   0.260   7.081 -0.0563  0.5075 -0.1048
 2740SOL    HW119679   2.464   0.241   7.159  0.0619 -0.3940 -0.2341
 2740SOL    HW219680   2.467   0.221   7.008  0.3552 -1.3999  0.6422
 2741SOL     OW19681   2.400   0.763   6.091 -0.3770  0.4752 -0.8504
 2741SOL    HW119682   2.486   0.721   6.086 -0.4264  0.5981 -2.5439
 2741SOL    HW219683   2.396   0.816   6.011 -1.3561  0.2049 -0.9772
 2742SOL     OW19684   2.425   1.012   7.231 -0.1957  0.1746  0.1036
 2742SOL    HW119685   2.504   0.970   7.196 -1.2265 -1.9755  0.3815
 2742SOL    HW219686   2.369   0.935   7.236 -1.7881  1.4438  1.5763
 2743SOL     OW19687   4.134   3.351  12.683 -0.0362  0.1231  0.0790
 2743SOL    HW119688   4.203   3.296  12.646 -0.9398 -0.6201 -0.5033
 2743SOL    HW219689   4.126   3.308  12.768 -0.9101 -2.3268 -1.2653
 2744SOL     OW19690   0.093   1.677   2.147  0.2549 -0.5319 -1.1822
 2744SOL    HW119691   4.723   1.695   2.139 -0.1633 -2.2178  0.1056
 2744SOL    HW219692   0.130   1.766   2.150 -1.6793  0.1423  1.9143
 2745SOL     OW19693   3.995   0.547   6.435 -0.1666 -1.0333  0.3582
 2745SOL    HW119694   4.086   0.517   6.428  0.2862 -0.1367  2.4419
 2745SOL    HW219695   4.010   0.642   6.435 -0.5434 -0.9748  0.3782
 2746SOL     OW19696   3.286   0.300   5.099 -0.9975  0.6988 -0.4492
 2746SOL    HW119697   3.254   0.319   5.188  2.0755  1.3309  0.5050
 2746SOL    HW219698   3.211   0.327   5.046  0.4462  2.3318 -1.6292
 2747SOL     OW19699   3.422   0.379   5.483 -0.1654  0.3822  0.0981
 2747SOL    HW119700   3.481   0.407   5.553 -1.7610 -0.9086  1.9570
 2747SOL    HW219701   3.438   0.285   5.470  1.7488  0.7518 -0.2507
 2748SOL     OW19702   0.120   0.744   2.726 -0.0410  0.3991 -0.5224
 2748SOL    HW119703   0.187   0.697   2.676  1.5697  2.8417 -0.6566
 2748SOL    HW219704   0.057   0.672   2.732  0.2195  0.0535 -1.9275
 2749SOL     OW19705   3.303   2.368   5.055 -0.0792  0.1723 -0.0187
 2749SOL    HW119706   3.285   2.326   4.971 -2.1934 -2.0716  1.5724
 2749SOL    HW219707   3.212   2.361   5.083  0.1973  0.7435  1.0347
 2750SOL     OW19708   0.963   4.586  14.533 -0.7060  0.1173  0.1457
 2750SOL    HW119709   1.009   4.517  14.580 -1.3420  0.8269  1.8526
 2750SOL    HW219710   0.941   4.542  14.451 -0.6227  2.4195 -1.1024
 2751SOL     OW19711   1.607   2.213   5.298 -0.2905 -0.1868  0.8319
 2751SOL    HW119712   1.528   2.204   5.350  0.1140 -0.5844  1.3834
 2751SOL    HW219713   1.600   2.299   5.256 -0.2912  0.3561  1.9476
 2752SOL     OW19714   1.793   1.485   4.564 -0.3160  0.4780 -1.0180
 2752SOL    HW119715   1.720   1.425   4.554  0.9045 -1.0468 -0.7304
 2752SOL    HW219716   1.857   1.425   4.603 -2.4213 -0.1350  1.5153
 2753SOL     OW19717   1.201   0.756  10.196 -0.1139 -0.0918 -0.2095
 2753SOL    HW119718   1.254   0.767  10.275 -0.0286 -2.1930  0.0080
 2753SOL    HW219719   1.194   0.847  10.166  1.3119  0.0630 -0.0689
 2754SOL     OW19720   2.413   2.612  14.399  0.2213  0.6525 -0.4798
 2754SOL    HW119721   2.457   2.610  14.484 -0.1734 -2.1452 -0.3240
 2754SOL    HW219722   2.446   2.690  14.355  1.3235 -0.1986 -1.1484
 2755SOL     OW19723   1.101   3.502  14.801  0.1760 -0.1361  0.4489
 2755SOL    HW119724   1.188   3.492  14.838  0.5664  1.3668 -0.0642
 2755SOL    HW219725   1.099   3.422  14.748 -1.3433 -1.0489  1.8756
 2756SOL     OW19726   3.823   2.855   7.386 -0.9455  0.1197  0.7319
 2756SOL    HW119727   3.835   2.878   7.294 -0.1353 -0.1312  0.7736
 2756SOL    HW219728   3.756   2.788   7.388 -0.2403 -0.6389 -1.6209
 2757SOL     OW19729   2.721   3.786   9.974  0.0067  0.0704 -0.6538
 2757SOL    HW119730   2.782   3.832  10.032  1.4320 -0.0535 -2.0528
 2757SOL    HW219731   2.648   3.848   9.979 -0.0010 -0.1530  1.9148
 2758SOL     OW19732   0.522   3.630   8.076 -0.4932  0.4188 -0.6738
 2758SOL    HW119733   0.469   3.643   8.155  0.9929  1.0779  0.1987
 2758SOL    HW219734   0.614   3.624   8.102 -1.5603 -0.3442  2.9849
 2759SOL     OW19735   0.303   1.301   6.532  0.4438 -0.4248  0.0880
 2759SOL    HW119736   0.363   1.266   6.597  2.3933  0.0001 -1.5002
 2759SOL    HW219737   0.290   1.384   6.577 -2.7133 -0.1201 -1.3788
 2760SOL     OW19738   4.079   2.596   5.814 -0.5329  0.5141 -0.4922
 2760SOL    HW119739   4.037   2.662   5.869  0.7487  1.3982 -0.5715
 2760SOL    HW219740   4.123   2.653   5.751 -4.3360  2.1690 -1.5969
 2761SOL     OW19741   3.459   4.284  14.230  0.7811 -0.3600 -0.6672
 2761SOL    HW119742   3.487   4.242  14.311  0.1455 -0.8949 -0.7162
 2761SOL    HW219743   3.540   4.325  14.200  0.9898  0.0114  0.3999
 2762SOL     OW19744   1.012   2.259   7.693  0.1020  0.1549 -0.4728
 2762SOL    HW119745   1.017   2.344   7.736  1.1937  0.8673 -2.0576
 2762SOL    HW219746   0.981   2.274   7.604  0.6238  0.7211 -0.5480
 2763SOL     OW19747   3.585   2.911   2.818  0.4975  0.5319  0.1257
 2763SOL    HW119748   3.554   2.880   2.733 -1.5969 -0.3628  1.2307
 2763SOL    HW219749   3.679   2.895   2.813 -0.1295 -3.2255  0.5814
 2764SOL     OW19750   3.733   1.318   6.403 -0.1173 -0.2181  0.1749
 2764SOL    HW119751   3.679   1.240   6.415 -0.2203  0.0459  1.3563
 2764SOL    HW219752   3.787   1.319   6.482  1.1986  2.5274 -0.7415
 2765SOL     OW19753   2.080   4.384   7.189  0.2677  0.1695 -0.6876
 2765SOL    HW119754   2.151   4.325   7.212 -1.4417 -0.7677  2.0925
 2765SOL    HW219755   2.043   4.420   7.269 -1.2192  1.4434 -1.9425
 2766SOL     OW19756   3.311   1.602  10.281  0.3953  0.3835  0.3339
 2766SOL    HW119757   3.351   1.515  10.282 -0.9385 -0.2240  0.2021
 2766SOL    HW219758   3.374   1.659  10.325 -0.2406  0.7301  0.7896
 2767SOL     OW19759   1.966   2.649   9.526  0.5267  0.1175 -0.0996
 2767SOL    HW119760   2.061   2.640   9.532  0.4652 -1.7412 -1.7452
 2767SOL    HW219761   1.956   2.719   9.461  1.2435 -0.2487 -0.5999
 2768SOL     OW19762   2.166   1.755   3.622  0.2468 -0.1470  0.0765
 2768SOL    HW119763   2.221   1.687   3.662 -0.5459  0.7454  2.6594
 2768SOL    HW219764   2.079   1.720   3.643  0.6917 -1.0718  0.3864
 2769SOL     OW19765   0.175   0.365   8.436 -0.0279 -0.2862 -0.2518
 2769SOL    HW119766   0.094   0.404   8.403 -0.7085 -0.1425  1.5994
 2769SOL    HW219767   0.212   0.446   8.469  0.6023 -0.9881  0.7647
 2770SOL     OW19768   4.053   1.785   8.654 -0.2219  1.3242  0.3641
 2770SOL    HW119769   4.094   1.783   8.567  2.3074 -0.3293  1.6120
 2770SOL    HW219770   3.982   1.722   8.646  0.3791  0.7332 -0.3043
 2771SOL     OW19771   1.587   1.684   2.191  0.1849  0.3010 -0.3166
 2771SOL    HW119772   1.549   1.665   2.106 -1.1609 -0.5097  0.4765
 2771SOL    HW219773   1.503   1.696   2.235  0.0374  1.2747 -0.8530
 2772SOL     OW19774   0.581   2.090  14.019  0.0001  0.0762  0.1169
 2772SOL    HW119775   0.578   2.055  14.108 -0.5014  0.4710  0.2613
 2772SOL    HW219776   0.548   2.012  13.976  1.4938  0.2040 -1.2304
 2773SOL     OW19777   0.426   3.912   6.504 -0.0388  0.9186 -0.3158
 2773SOL    HW119778   0.333   3.934   6.501 -0.6306 -2.0405 -4.4753
 2773SOL    HW219779   0.412   3.842   6.439 -1.6476  0.0952  0.9309
 2774SOL     OW19780   3.828   3.089   5.461  0.4182 -0.1637 -0.0731
 2774SOL    HW119781   3.833   3.122   5.371  0.8569 -0.4469 -0.1528
 2774SOL    HW219782   3.760   3.152   5.485 -1.5823 -2.1040 -0.6630
 2775SOL     OW19783   0.525   2.634   0.836  0.2366 -0.4952 -0.0074
 2775SOL    HW119784   0.519   2.697   0.907 -0.5560  0.9153 -1.3272
 2775SOL    HW219785   0.546   2.555   0.887 -1.1061  0.8325  2.5870
 2776SOL     OW19786   3.285   1.652   6.213  0.2141  0.1882  0.3251
 2776SOL    HW119787   3.368   1.615   6.242 -0.2253  0.1246  1.4858
 2776SOL    HW219788   3.271   1.579   6.152 -0.1602  0.6052 -0.0926
 2777SOL     OW19789   0.860   4.489   2.874 -0.0594 -0.3525  0.0010
 2777SOL    HW119790   0.863   4.394   2.890 -1.9217  0.1876  3.4423
 2777SOL    HW219791   0.953   4.501   2.855  0.5444 -1.3712  2.2165
 2778SOL     OW19792   4.673   0.449   7.362 -0.5548  0.7073 -0.0414
 2778SOL    HW119793   0.006   0.394   7.308  1.2450  1.9285  0.5782
 2778SOL    HW219794   4.596   0.449   7.306  0.4148  1.1021 -1.3874
 2779SOL     OW19795   2.346   1.157   6.908 -0.4418 -0.1806 -0.0976
 2779SOL    HW119796   2.334   1.212   6.830  0.6562  0.2927  0.0773
 2779SOL    HW219797   2.354   1.216   6.982 -0.0988 -1.4241  0.8636
 2780SOL     OW19798   4.177   1.246   7.849  0.3268  0.5904 -0.0834
 2780SOL    HW119799   4.238   1.304   7.894 -0.1339 -0.0769  1.3937
 2780SOL    HW219800   4.151   1.290   7.768 -2.1521 -0.6809  0.0396
 2781SOL     OW19801   1.545   1.614  13.443 -0.1862  0.0853  0.4431
 2781SOL    HW119802   1.517   1.641  13.355  0.3974 -0.1787  0.1730
 2781SOL    HW219803   1.574   1.696  13.481 -2.6577  1.5030 -0.7247
 2782SOL     OW19804   2.877   0.608  11.378 -0.6244 -0.1551 -0.1720
 2782SOL    HW119805   2.872   0.703  11.370 -1.4625 -0.0567  1.7480
 2782SOL    HW219806   2.971   0.593  11.375 -0.4124  1.4785 -2.0519
 2783SOL     OW19807   3.849   4.284   7.184  0.3745  0.1229 -0.3606
 2783SOL    HW119808   3.824   4.194   7.165 -0.8999  0.1615  1.1466
 2783SOL    HW219809   3.773   4.307   7.238 -1.6605 -1.4817 -2.5459
 2784SOL     OW19810   2.146   0.707  16.307  0.0360 -0.5545  0.0961
 2784SOL    HW119811   2.114   0.776  16.364 -1.9036 -0.1978 -1.3848
 2784SOL    HW219812   2.229   0.742  16.275  0.1057 -1.3993 -0.6622
 2785SOL     OW19813   0.573   2.297  15.410 -0.6989 -0.1538 -0.0635
 2785SOL    HW119814   0.615   2.260  15.487  1.4117  0.8186 -0.7440
 2785SOL    HW219815   0.621   2.242  15.349 -0.6018 -0.7578  0.5524
 2786SOL     OW19816   0.437   1.253   5.191 -0.5398 -0.9447  0.3918
 2786SOL    HW119817   0.389   1.199   5.128  1.7548 -2.2491 -0.2431
 2786SOL    HW219818   0.488   1.308   5.131 -1.2359  0.0188  0.6888
 2787SOL     OW19819   3.469   4.251   9.374 -0.9407  0.4167 -0.5175
 2787SOL    HW119820   3.508   4.197   9.305 -0.1587 -0.5457  0.6728
 2787SOL    HW219821   3.415   4.187   9.420 -0.4469 -0.8622 -1.7067
 2788SOL     OW19822   1.860   0.050   9.089 -0.1902 -0.0835  0.9345
 2788SOL    HW119823   1.858   4.678   9.080 -0.6518  0.3864 -3.6610
 2788SOL    HW219824   1.939   0.056   9.143  0.1279  0.8824  0.3594
 2789SOL     OW19825   2.669   4.671  10.686  0.4053 -0.0882 -0.1931
 2789SOL    HW119826   2.660   4.579  10.711 -3.2840  0.3054 -0.0311
 2789SOL    HW219827   2.755   4.688  10.723  0.4925 -0.5009 -0.2127
 2790SOL     OW19828   1.965   3.142  13.682  0.5951 -0.1442  0.5110
 2790SOL    HW119829   1.874   3.172  13.680 -0.8292 -4.3558  1.2792
 2790SOL    HW219830   1.945   3.048  13.691 -0.3741 -0.1016 -1.1638
 2791SOL     OW19831   2.235   4.716  15.130 -0.2256  0.3738 -0.1780
 2791SOL    HW119832   2.220   0.033  15.215 -0.3645  1.5985 -0.7922
 2791SOL    HW219833   2.310   4.666  15.161 -0.2354  0.7825  0.5059
 2792SOL     OW19834   2.173   2.653  12.715  0.0058  0.7185 -0.1047
 2792SOL    HW119835   2.179   2.568  12.759  1.6125 -0.4980 -2.6410
 2792SOL    HW219836   2.242   2.699  12.764  1.7659 -0.9239 -1.0163
 2793SOL     OW19837   0.179   3.991   1.977  0.1535  0.3139  0.0817
 2793SOL    HW119838   0.140   3.930   2.040 -0.6215  1.4847  0.7358
 2793SOL    HW219839   0.150   4.077   2.009  0.9881  0.5414  0.2282
 2794SOL     OW19840   3.823   3.849  13.723  0.1073  0.4244 -0.1994
 2794SOL    HW119841   3.892   3.811  13.778  0.6602  2.1875  0.3484
 2794SOL    HW219842   3.753   3.855  13.787 -0.1017  0.0173 -0.3945
 2795SOL     OW19843   1.451   4.621   7.565 -0.0928  0.2055  0.0382
 2795SOL    HW119844   1.419   4.711   7.573 -4.0320 -0.8935 -3.3769
 2795SOL    HW219845   1.477   4.627   7.473  0.3842 -0.1358  0.1523
 2796SOL     OW19846   0.794   4.660   6.876  0.0631  0.4696 -0.2564
 2796SOL    HW119847   0.768   4.588   6.934  0.7094  2.2852  2.2297
 2796SOL    HW219848   0.841   4.608   6.810  1.3457  2.0778 -0.5929
 2797SOL     OW19849   3.864   2.854   2.878 -0.2611  0.6676 -0.5358
 2797SOL    HW119850   3.922   2.903   2.935  3.0569 -3.3728 -0.4692
 2797SOL    HW219851   3.808   2.818   2.947  0.9867 -2.2365 -1.0484
 2798SOL     OW19852   0.456   2.775   4.179  0.0105 -0.2854  0.3812
 2798SOL    HW119853   0.377   2.722   4.177  0.9519 -1.5183 -4.1359
 2798SOL    HW219854   0.411   2.852   4.145  0.2891 -1.2796 -2.2122
 2799SOL     OW19855   2.955   1.036   2.485  0.4377 -0.7877 -0.0041
 2799SOL    HW119856   2.982   0.961   2.431  1.0231  0.7414 -1.8341
 2799SOL    HW219857   2.860   1.043   2.476  0.2666 -0.9866  1.6209
 2800SOL     OW19858   3.201   3.231  10.040 -0.0535 -0.0541 -0.2327
 2800SOL    HW119859   3.246   3.201   9.962 -0.3176  0.5712 -0.6261
 2800SOL    HW219860   3.211   3.159  10.103  2.1755 -1.0990 -1.8143
 2801SOL     OW19861   4.336   4.016   4.042 -0.2813 -0.2881  0.0611
 2801SOL    HW119862   4.405   3.998   3.978  1.2141  0.5092  1.4535
 2801SOL    HW219863   4.384   4.086   4.087  2.1089  0.3425 -3.4591
 2802SOL     OW19864   1.078   4.118  12.404 -0.8490  0.1005  0.0363
 2802SOL    HW119865   1.004   4.057  12.400  0.4593 -1.4686 -0.8320
 2802SOL    HW219866   1.127   4.103  12.322 -0.7250 -0.8756  0.2794
 2803SOL     OW19867   3.461   1.054   8.578  0.2185  0.1363  0.1880
 2803SOL    HW119868   3.376   1.036   8.618  1.3399 -1.9408  1.6387
 2803SOL    HW219869   3.484   0.971   8.536 -2.0711  0.4379 -1.7125
 2804SOL     OW19870   2.102   1.735  15.382 -0.1513  0.3503  0.1246
 2804SOL    HW119871   2.019   1.759  15.341 -0.5970 -2.6079 -0.7279
 2804SOL    HW219872   2.073   1.656  15.427  1.3820 -0.7135 -0.7502
 2805SOL     OW19873   2.206   0.464   3.033 -0.3804 -0.2981  0.3986
 2805SOL    HW119874   2.234   0.541   2.984 -1.3160  0.5563  1.2038
 2805SOL    HW219875   2.257   0.475   3.113  0.8554 -0.0047 -0.4259
 2806SOL     OW19876   1.963   2.059   1.549  0.0680  0.4191  0.3052
 2806SOL    HW119877   1.914   1.977   1.544 -1.7463  1.6642 -2.3130
 2806SOL    HW219878   1.952   2.095   1.460 -2.3572 -0.7823  0.1251
 2807SOL     OW19879   1.452   4.610   3.255  0.7528 -0.1082  0.4800
 2807SOL    HW119880   1.462   4.701   3.283 -1.2602  0.1561  0.3386
 2807SOL    HW219881   1.359   4.618   3.231  0.4369 -0.8084  1.4624
 2808SOL     OW19882   1.156   3.224   5.927  0.6425 -0.1999  0.6475
 2808SOL    HW119883   1.098   3.260   5.994 -0.8541 -0.8858 -0.2812
 2808SOL    HW219884   1.225   3.186   5.980  0.8836 -2.1272 -1.0148
 2809SOL     OW19885   0.041   2.334   7.999  0.0007  0.4939 -0.3211
 2809SOL    HW119886   0.113   2.290   7.954  0.0690 -0.6334  0.9220
 2809SOL    HW219887   0.017   2.406   7.940  0.2951 -0.1980 -1.2744
 2810SOL     OW19888   1.715   1.462   2.780  0.5913 -0.4484 -0.0321
 2810SOL    HW119889   1.667   1.386   2.812 -0.5709  0.7786  1.1473
 2810SOL    HW219890   1.802   1.441   2.815  1.2272  0.0134 -1.3494
 2811SOL     OW19891   1.021   1.164  16.107  0.2521 -0.7530 -0.5012
 2811SOL    HW119892   1.113   1.164  16.082  0.1834  0.9408 -0.7236
 2811SOL    HW219893   1.014   1.068  16.105  1.0555 -0.7783 -1.9374
 2812SOL     OW19894   0.448   3.380   5.815 -0.2127 -0.2847  0.5479
 2812SOL    HW119895   0.371   3.341   5.857  0.3477 -4.1188 -2.0227
 2812SOL    HW219896   0.415   3.458   5.771  1.7375 -0.6921 -1.6673
 2813SOL     OW19897   4.319   3.973   5.209  0.2443  0.1991  0.4190
 2813SOL    HW119898   4.260   3.925   5.151 -1.1588  0.6051  1.5345
 2813SOL    HW219899   4.263   4.048   5.229 -1.1713 -0.4789 -1.0646
 2814SOL     OW19900   1.503   1.694   5.337 -0.0539  0.0943 -0.0871
 2814SOL    HW119901   1.565   1.766   5.326  1.8836 -1.8043 -1.7505
 2814SOL    HW219902   1.552   1.617   5.364 -1.3660 -0.3218  1.1367
 2815SOL     OW19903   4.702   1.409  13.745  0.3501  0.3280  0.7906
 2815SOL    HW119904   0.019   1.438  13.664 -1.8261  0.5440 -0.2233
 2815SOL    HW219905   0.033   1.335  13.773  1.3619 -0.1159 -2.3422
 2816SOL     OW19906   1.380   0.076   8.070 -0.5793  0.1349 -0.2909
 2816SOL    HW119907   1.330   0.001   8.101 -0.2219 -0.5198 -1.2746
 2816SOL    HW219908   1.432   0.095   8.148 -0.8527 -0.4379  0.0365
 2817SOL     OW19909   3.998   0.908   0.951  0.4254 -0.8484  0.5931
 2817SOL    HW119910   3.996   0.879   1.042 -1.3268 -0.1388  0.7904
 2817SOL    HW219911   4.089   0.937   0.946 -0.3761  1.3531 -1.0558
 2818SOL     OW19912   2.195   2.854  10.282  0.0347  0.1330 -0.3454
 2818SOL    HW119913   2.285   2.840  10.252  0.5206  1.0822  0.6623
 2818SOL    HW219914   2.154   2.782  10.234  0.1606  0.7299 -1.3453
 2819SOL     OW19915   3.981   0.898   7.978 -0.4484 -0.3587 -0.0195
 2819SOL    HW119916   3.980   0.988   8.011  2.6276  0.0782 -1.1388
 2819SOL    HW219917   4.066   0.910   7.936 -0.1095  1.9281  1.2937
 2820SOL     OW19918   1.647   3.301  10.341 -0.0931  0.0659 -0.0915
 2820SOL    HW119919   1.696   3.235  10.391 -2.0197 -1.0638  0.3239
 2820SOL    HW219920   1.716   3.366  10.331  0.8900 -0.4290  3.3707
 2821SOL     OW19921   4.158   1.777   1.892 -0.0899 -0.0118  0.1554
 2821SOL    HW119922   4.145   1.858   1.942 -0.3292  0.0422  0.0007
 2821SOL    HW219923   4.244   1.802   1.858  0.2817 -0.6687  0.6123
 2822SOL     OW19924   3.725   1.527   0.048 -0.2252 -0.2776 -0.0645
 2822SOL    HW119925   3.637   1.564   0.046 -1.0532 -2.3001 -1.1834
 2822SOL    HW219926   3.762   1.552  17.659  0.0756 -1.2850 -0.2330
 2823SOL     OW19927   4.535   4.344  13.472 -0.6174 -0.1278  0.8732
 2823SOL    HW119928   4.454   4.359  13.520 -0.9194 -0.6439  0.5284
 2823SOL    HW219929   4.525   4.253  13.446 -3.1250  0.1669  0.8155
 2824SOL     OW19930   1.871   1.377  16.756  0.4061  0.0824  0.0758
 2824SOL    HW119931   1.964   1.386  16.779  0.9783 -1.6340 -1.5376
 2824SOL    HW219932   1.841   1.298  16.802  1.9339 -0.2676  0.4741
 2825SOL     OW19933   0.944   4.696   3.090 -0.1974 -0.0875 -0.1061
 2825SOL    HW119934   0.958   0.049   3.034 -0.9770 -0.0841 -0.3063
 2825SOL    HW219935   0.933   4.629   3.023 -2.2924 -1.2041  1.3454
 2826SOL     OW19936   3.067   3.116   9.402  0.4342 -0.0847 -0.0163
 2826SOL    HW119937   3.154   3.080   9.420 -0.3451 -2.0813 -0.1871
 2826SOL    HW219938   3.074   3.203   9.441 -0.9154  0.3999 -0.8361
 2827SOL     OW19939   0.837   1.628   7.597 -0.8852 -0.1828  0.3099
 2827SOL    HW119940   0.800   1.548   7.633 -0.6883 -1.2856 -1.8989
 2827SOL    HW219941   0.909   1.659   7.651 -1.3389 -1.1328  1.4445
 2828SOL     OW19942   1.456   4.139  10.999  0.2874 -0.1910 -0.1641
 2828SOL    HW119943   1.412   4.128  10.915 -0.0549  3.0495 -0.3915
 2828SOL    HW219944   1.453   4.233  11.015 -1.6492 -0.4195  0.8792
 2829SOL     OW19945   3.823   4.412   3.611 -0.7302  0.0744 -0.7067
 2829SOL    HW119946   3.749   4.457   3.570 -0.4190  0.8259 -0.4334
 2829SOL    HW219947   3.888   4.482   3.604  2.0135 -2.5309 -1.1229
 2830SOL     OW19948   2.093   1.118   5.484  0.8755 -0.6296 -0.2869
 2830SOL    HW119949   2.073   1.194   5.429 -1.2503 -0.0228  1.3260
 2830SOL    HW219950   2.074   1.050   5.419  1.5542 -0.0401 -1.1055
 2831SOL     OW19951   1.917   2.404   4.055  0.4700  0.1771  0.2832
 2831SOL    HW119952   1.865   2.419   4.134 -1.2454 -2.3458 -0.3547
 2831SOL    HW219953   1.972   2.333   4.089  2.7470  1.0910 -1.5052
 2832SOL     OW19954   0.041   1.763   5.201  0.2560  0.7538  0.0433
 2832SOL    HW119955   0.046   1.667   5.209  0.7747  0.6056 -1.8765
 2832SOL    HW219956   0.075   1.780   5.289 -0.3773  0.6214  0.3113
 2833SOL     OW19957   1.106   3.575   4.908 -0.3586 -0.1968 -0.0587
 2833SOL    HW119958   1.115   3.615   4.821 -0.2801  0.9867  0.5019
 2833SOL    HW219959   1.194   3.597   4.937 -0.1362  1.2338 -1.8257
 2834SOL     OW19960   4.553   2.681   5.820  0.2465  0.1900 -0.4696
 2834SOL    HW119961   4.573   2.739   5.747  0.6236 -0.4564 -0.8757
 2834SOL    HW219962   4.633   2.683   5.872  0.0283 -1.2666 -0.1029
 2835SOL     OW19963   3.917   2.446   7.506 -0.8524  0.3051  0.3148
 2835SOL    HW119964   3.885   2.517   7.563 -0.1755  0.2221  0.8085
 2835SOL    HW219965   3.835   2.397   7.500 -1.0666  0.7657 -0.4731
 2836SOL     OW19966   2.369   4.288   6.885 -0.9363 -0.2417  0.1946
 2836SOL    HW119967   2.463   4.289   6.902 -0.7366 -0.6202 -0.8794
 2836SOL    HW219968   2.349   4.381   6.872  2.3275  0.3592 -0.4233
 2837SOL     OW19969   4.211   3.190   2.361  0.1180 -0.8851 -0.4266
 2837SOL    HW119970   4.276   3.202   2.292 -2.1162  1.6886 -2.0888
 2837SOL    HW219971   4.135   3.176   2.305 -0.5309 -0.2321  0.2884
 2838SOL     OW19972   3.781   3.500   6.230 -0.0170  0.6214  0.0499
 2838SOL    HW119973   3.740   3.414   6.225  2.6649 -0.6612 -0.2064
 2838SOL    HW219974   3.716   3.537   6.289 -2.9409  1.9193 -4.0554
 2839SOL     OW19975   3.902   0.302  11.936  0.0592  0.2209  0.0565
 2839SOL    HW119976   3.861   0.245  11.872  3.8914  0.7647 -2.8828
 2839SOL    HW219977   3.883   0.263  12.021 -2.0363  2.3579  0.5552
 2840SOL     OW19978   3.701   2.534  10.879 -0.3692  0.2779  0.0014
 2840SOL    HW119979   3.623   2.514  10.930 -0.4679  2.3822  0.6633
 2840SOL    HW219980   3.772   2.486  10.922 -1.6545 -0.4640  1.2791
 2841SOL     OW19981   0.545   3.352  10.446 -0.3974 -0.1514  0.7534
 2841SOL    HW119982   0.577   3.306  10.369 -1.6602  0.2590 -0.0137
 2841SOL    HW219983   0.555   3.445  10.425  0.7506 -0.6579 -0.9318
 2842SOL     OW19984   2.351   1.439   2.929 -0.5909  0.1910  0.5201
 2842SOL    HW119985   2.268   1.397   2.950 -0.1048 -1.9838 -2.0020
 2842SOL    HW219986   2.320   1.524   2.897  1.3681  0.4588 -0.6763
 2843SOL     OW19987   3.136   1.355   7.177  0.4393 -0.1423 -1.0710
 2843SOL    HW119988   3.192   1.303   7.235  1.0249 -2.2695 -3.5552
 2843SOL    HW219989   3.053   1.311   7.198  0.0404  1.0354 -0.1721
 2844SOL     OW19990   0.752   3.834   3.942  0.3565  0.0623  0.2222
 2844SOL    HW119991   0.817   3.900   3.917 -0.0102  0.7419  1.0968
 2844SOL    HW219992   0.702   3.819   3.861 -1.1318 -0.5894  1.2753
 2845SOL     OW19993   0.655   3.778   5.406 -0.1462  0.4549  0.3596
 2845SOL    HW119994   0.575   3.830   5.408  0.0792  0.7955  0.4913
 2845SOL    HW219995   0.627   3.692   5.438  0.9313 -0.1522 -0.3193
 2846SOL     OW19996   0.681   1.220   4.554  0.2423  0.2228  0.3318
 2846SOL    HW119997   0.749   1.160   4.584 -0.7074 -0.4777  1.0785
 2846SOL    HW219998   0.623   1.149   4.524  2.4074 -0.2303 -2.7765
 2847SOL     OW19999   3.341   2.566   7.675  0.3712 -0.5174 -0.4203
 2847SOL    HW120000   3.317   2.632   7.610 -2.3472 -1.2202 -0.1168
 2847SOL    HW220001   3.348   2.484   7.626  0.5685 -0.1060 -1.0791
 2848SOL     OW20002   4.209   1.318   5.915 -0.7720  0.2358 -0.0713
 2848SOL    HW120003   4.216   1.252   5.984 -2.5675 -1.5329 -1.6021
 2848SOL    HW220004   4.282   1.376   5.938 -0.8120  0.8514 -1.5304
 2849SOL     OW20005   0.839   0.242   6.726 -0.0203  0.2947  0.4984
 2849SOL    HW120006   0.750   0.208   6.736  0.5624 -1.2332  0.4478
 2849SOL    HW220007   0.859   0.271   6.814  0.2658  0.8431  0.2527
 2850SOL     OW20008   3.721   0.521   2.910  0.0664 -0.0040  1.4406
 2850SOL    HW120009   3.724   0.461   2.836 -1.3247  2.3702 -0.5642
 2850SOL    HW220010   3.637   0.497   2.948  0.2106 -2.4431  0.1914
 2851SOL     OW20011   1.990   3.715   1.512  0.2896  0.5463  0.1670
 2851SOL    HW120012   2.014   3.807   1.521 -0.6861  0.7682  0.5483
 2851SOL    HW220013   1.971   3.688   1.602 -0.6079  1.2439  0.1907
 2852SOL     OW20014   3.603   2.934  13.000 -0.8466 -0.3064  0.1536
 2852SOL    HW120015   3.627   2.880  12.925 -0.9578  0.0825 -0.1653
 2852SOL    HW220016   3.688   2.964  13.031 -0.6578 -0.3734 -0.2978
 2853SOL     OW20017   0.403   1.267   7.928 -0.4615 -0.3590 -0.1113
 2853SOL    HW120018   0.449   1.239   8.007  2.1371 -0.3495 -1.6424
 2853SOL    HW220019   0.404   1.186   7.877 -1.4618 -2.0110  2.4947
 2854SOL     OW20020   2.979   2.371   6.474 -0.0301  0.1988  0.2318
 2854SOL    HW120021   3.037   2.338   6.405 -0.5012 -1.2532  0.5439
 2854SOL    HW220022   3.033   2.436   6.520 -0.0895 -0.4560  1.2276
 2855SOL     OW20023   2.667   4.103   5.583 -0.2638  0.5629 -0.2208
 2855SOL    HW120024   2.583   4.113   5.627 -1.1073 -0.9716 -1.5118
 2855SOL    HW220025   2.643   4.151   5.503  1.0229 -0.5406 -1.2647
 2856SOL     OW20026   3.285   4.332  11.241 -0.2726  0.0310 -0.2590
 2856SOL    HW120027   3.231   4.410  11.227  0.8428  1.0604  1.1934
 2856SOL    HW220028   3.212   4.273  11.262 -0.2492  0.0222 -0.2029
 2857SOL     OW20029   0.361   1.486   6.333 -0.3266  0.1695  0.1261
 2857SOL    HW120030   0.330   1.412   6.385  2.9639 -0.0260  1.7721
 2857SOL    HW220031   0.295   1.509   6.267 -0.2681  1.6549  0.5663
 2858SOL     OW20032   4.129   2.019   3.641  0.4134 -0.3820 -0.5577
 2858SOL    HW120033   4.070   1.948   3.664  2.9287 -2.5700 -0.8450
 2858SOL    HW220034   4.199   2.013   3.706 -0.5924  1.5161  0.6858
 2859SOL     OW20035   2.600   2.532  16.397 -0.2244 -0.1548  0.3255
 2859SOL    HW120036   2.637   2.449  16.427 -0.5748 -1.2588 -2.2940
 2859SOL    HW220037   2.512   2.497  16.409  0.3085 -0.8154  2.3705
 2860SOL     OW20038   3.539   4.653   8.778  0.6008  0.2204 -0.1502
 2860SOL    HW120039   3.499   4.597   8.845 -1.5546  2.8240  0.7393
 2860SOL    HW220040   3.590   4.703   8.842 -1.4340  1.7755  0.2660
 2861SOL     OW20041   2.975   3.761   7.922 -0.6445 -0.0566  0.4236
 2861SOL    HW120042   3.013   3.773   8.009  1.9175 -1.4191 -0.5271
 2861SOL    HW220043   2.889   3.804   7.928 -1.5294 -1.5007 -1.8316
 2862SOL     OW20044   3.637   0.963   6.833 -0.5383  0.0349 -0.0509
 2862SOL    HW120045   3.696   1.008   6.893  0.7080  1.5421 -2.4134
 2862SOL    HW220046   3.555   0.987   6.878 -0.5609 -0.0948 -0.0235
 2863SOL     OW20047   0.755   1.238   8.301  0.2306  0.4052  0.4436
 2863SOL    HW120048   0.828   1.299   8.291  2.2862 -2.0207  0.7505
 2863SOL    HW220049   0.793   1.154   8.328  1.8212  0.6108 -1.1298
 2864SOL     OW20050   4.065   1.612   6.962 -0.2101 -0.2052  0.1026
 2864SOL    HW120051   4.005   1.545   6.996 -0.0057 -0.9828 -1.0476
 2864SOL    HW220052   4.148   1.565   6.957 -0.2536 -0.5530  2.6434
 2865SOL     OW20053   2.619   0.730  13.653 -0.0546  0.1514  0.0053
 2865SOL    HW120054   2.617   0.739  13.749 -3.3329 -1.3055  0.0422
 2865SOL    HW220055   2.622   0.634  13.655  1.1191  0.1347 -4.0862
 2866SOL     OW20056   3.878   4.450  10.009  0.2998  0.0223 -0.0432
 2866SOL    HW120057   3.923   4.431   9.927 -2.8600 -2.2593 -1.2539
 2866SOL    HW220058   3.822   4.374  10.025  1.6671 -1.2962 -1.6622
 2867SOL     OW20059   4.723   1.479  13.096 -0.1936  0.0173 -0.0720
 2867SOL    HW120060   0.052   1.417  13.046  0.2803  1.7092 -1.6854
 2867SOL    HW220061   4.638   1.438  13.108  0.0507 -0.5906 -0.4326
 2868SOL     OW20062   1.796   0.808   5.182  0.2468  0.4305  0.2338
 2868SOL    HW120063   1.740   0.730   5.186  0.2954  0.2910 -1.8964
 2868SOL    HW220064   1.884   0.771   5.180  0.0435  0.1813 -3.3793
 2869SOL     OW20065   1.758   4.030   1.986  0.3084  0.5866 -0.2046
 2869SOL    HW120066   1.767   4.118   1.951 -1.0985  0.7527 -0.1223
 2869SOL    HW220067   1.747   3.978   1.906 -1.2670  0.5638  0.0318
 2870SOL     OW20068   1.197   0.735   3.803  0.4906 -0.0797 -0.1596
 2870SOL    HW120069   1.147   0.809   3.768  0.8971 -0.5769 -1.7796
 2870SOL    HW220070   1.228   0.787   3.877  0.0126 -0.9874  0.6930
 2871SOL     OW20071   1.163   0.234   2.445  1.0461  0.2770 -0.0182
 2871SOL    HW120072   1.119   0.150   2.456  0.8219  0.4207  0.1775
 2871SOL    HW220073   1.082   0.282   2.430  1.1365  1.0187  1.8087
 2872SOL     OW20074   3.194   4.500  13.924 -0.0252  0.8214 -0.2841
 2872SOL    HW120075   3.167   4.494  14.016 -1.1148 -1.5950 -0.7764
 2872SOL    HW220076   3.256   4.427  13.919  0.3550  0.9776  2.0767
 2873SOL     OW20077   3.348   1.452   4.171 -0.1179  0.1762 -0.6992
 2873SOL    HW120078   3.336   1.358   4.182  0.0663  0.1209 -0.9977
 2873SOL    HW220079   3.421   1.472   4.229  1.1228 -2.8665 -1.2013
 2874SOL     OW20080   1.539   0.691   9.213 -0.7818 -0.2995  0.0131
 2874SOL    HW120081   1.613   0.631   9.209 -0.6145  0.0697 -2.6819
 2874SOL    HW220082   1.479   0.646   9.272 -1.2873  0.8034  0.3563
 2875SOL     OW20083   3.883   1.986   1.040  0.0750  0.4758  0.0627
 2875SOL    HW120084   3.839   1.923   1.097 -2.0912  1.5595 -0.4402
 2875SOL    HW220085   3.966   1.945   1.014  1.3287  3.4076 -0.6269
 2876SOL     OW20086   0.890   1.805   2.621  0.2784  0.4060  0.8250
 2876SOL    HW120087   0.912   1.814   2.529 -4.3126  0.4886 -0.2583
 2876SOL    HW220088   0.795   1.795   2.626  0.4925 -1.8439  0.1523
 2877SOL     OW20089   1.243   4.591  12.981 -0.0867 -0.3697 -0.4970
 2877SOL    HW120090   1.199   4.535  12.917  1.5468 -1.5591 -0.6073
 2877SOL    HW220091   1.300   4.530  13.028  0.6822 -1.1606 -2.4085
 2878SOL     OW20092   3.261   4.266   2.029 -0.1409 -0.4648 -0.3333
 2878SOL    HW120093   3.214   4.331   2.081 -0.1237  1.2700 -2.4953
 2878SOL    HW220094   3.272   4.193   2.091 -0.3112 -0.0274  0.2172
 2879SOL     OW20095   2.032   4.174   5.003  0.0622  0.1891  0.0512
 2879SOL    HW120096   2.023   4.205   5.093  0.4388  0.4451  0.0004
 2879SOL    HW220097   2.118   4.133   5.013  0.4598  0.6166 -1.6573
 2880SOL     OW20098   1.925   1.021   8.793 -0.2992 -0.3817 -0.3793
 2880SOL    HW120099   1.922   1.025   8.888 -0.4451 -1.3960 -0.3384
 2880SOL    HW220100   2.000   1.078   8.776 -1.0331  1.0768  1.2561
 2881SOL     OW20101   0.644   3.366   7.644  0.2855  0.1124 -0.3072
 2881SOL    HW120102   0.629   3.449   7.690  0.5641  0.8084 -1.4541
 2881SOL    HW220103   0.553   3.345   7.621  0.4451 -0.7206 -0.1495
 2882SOL     OW20104   4.501   2.663  14.333 -0.1433  0.3612 -0.5161
 2882SOL    HW120105   4.480   2.570  14.322 -0.5007  0.8557 -3.8812
 2882SOL    HW220106   4.458   2.678  14.417  2.4992  0.4710  0.8205
 2883SOL     OW20107   3.675   3.398   5.860  0.0583 -1.3057  0.3072
 2883SOL    HW120108   3.657   3.373   5.769  0.0483  0.8104 -0.2623
 2883SOL    HW220109   3.673   3.310   5.898 -0.5843 -0.8320  1.3665
 2884SOL     OW20110   3.188   3.734   9.823 -0.2561  0.6250  0.2880
 2884SOL    HW120111   3.117   3.739   9.887 -0.6189  2.3569 -0.2680
 2884SOL    HW220112   3.149   3.704   9.740 -2.7467 -0.0072  1.6906
 2885SOL     OW20113   3.862   3.667   7.983 -0.4267  0.1086  0.5863
 2885SOL    HW120114   3.768   3.677   7.966 -0.8002  0.4518  2.7877
 2885SOL    HW220115   3.864   3.599   8.050 -0.0400 -0.4509 -0.0091
 2886SOL     OW20116   4.431   2.672   2.942 -0.2387  0.1706 -0.3220
 2886SOL    HW120117   4.374   2.749   2.931  1.5808  1.1378 -2.9272
 2886SOL    HW220118   4.420   2.627   2.859  1.7764 -3.4481  1.3734
 2887SOL     OW20119   1.953   0.528  11.073  0.0400 -0.0388  0.0476
 2887SOL    HW120120   2.003   0.524  10.992 -2.2958 -2.3853 -1.2678
 2887SOL    HW220121   1.988   0.449  11.113 -0.4859 -1.2712 -1.9166
 2888SOL     OW20122   4.385   4.070   8.596  0.1815 -0.0180  0.4611
 2888SOL    HW120123   4.327   4.080   8.671 -0.9783 -0.6731 -0.3573
 2888SOL    HW220124   4.463   4.035   8.639 -0.8519  0.6643  2.9012
 2889SOL     OW20125   2.790   3.212   9.581  0.4111  0.4967 -0.9181
 2889SOL    HW120126   2.744   3.147   9.635 -0.8362  0.9388 -1.4612
 2889SOL    HW220127   2.756   3.294   9.618  0.7378 -0.4797  1.5342
 2890SOL     OW20128   4.156   1.494   0.247 -0.2199 -0.2028 -0.8258
 2890SOL    HW120129   4.066   1.506   0.275  0.1016  1.1007 -0.3436
 2890SOL    HW220130   4.155   1.507   0.152  0.1977 -0.0368 -0.8085
 2891SOL     OW20131   3.575   3.292  11.238 -0.4853  0.1665 -0.1907
 2891SOL    HW120132   3.496   3.253  11.276 -1.2931 -0.8121 -2.9119
 2891SOL    HW220133   3.611   3.210  11.204 -4.0526 -0.8609 -1.5041
 2892SOL     OW20134   0.315   4.235   2.137 -0.7295  0.1684  0.2354
 2892SOL    HW120135   0.349   4.234   2.047 -0.8671 -0.6733  0.1939
 2892SOL    HW220136   0.231   4.281   2.133  0.4194  2.3538  1.3632
 2893SOL     OW20137   4.640   1.987   9.107 -0.7066  0.2675 -0.0416
 2893SOL    HW120138   0.004   1.994   9.147 -0.4399 -0.8120 -0.4474
 2893SOL    HW220139   4.655   1.984   9.013  2.0672 -0.3515  0.4102
 2894SOL     OW20140   2.337   3.328   2.529  0.2583 -0.0193 -0.2597
 2894SOL    HW120141   2.378   3.291   2.608  0.3290  2.9540  1.1164
 2894SOL    HW220142   2.274   3.383   2.576 -1.3350 -2.7005  0.6832
 2895SOL     OW20143   0.104   4.087   7.578 -0.1816  0.3015  0.1061
 2895SOL    HW120144   0.042   4.102   7.506 -1.0229  0.4292  0.8632
 2895SOL    HW220145   0.095   3.994   7.598 -0.3305  0.7737  2.2169
 2896SOL     OW20146   1.117   2.934   8.309 -0.2149 -0.0879  0.3502
 2896SOL    HW120147   1.042   2.948   8.366 -0.2603 -0.9900  0.5096
 2896SOL    HW220148   1.081   2.951   8.222  0.0650  0.4724  0.3466
 2897SOL     OW20149   4.195   2.524   0.940 -0.2493 -0.8279  0.6616
 2897SOL    HW120150   4.201   2.593   0.874 -1.4353 -0.5748  0.8062
 2897SOL    HW220151   4.259   2.465   0.900 -1.5937 -3.1469  1.9092
 2898SOL     OW20152   2.738   1.335  11.591 -0.7062  1.0396  0.2799
 2898SOL    HW120153   2.703   1.354  11.678 -3.3694 -0.0350 -0.5825
 2898SOL    HW220154   2.776   1.422  11.582  0.1295  0.4257 -2.0835
 2899SOL     OW20155   3.331   0.686  14.231 -0.2892  0.4341  0.1878
 2899SOL    HW120156   3.341   0.628  14.307  2.8216  1.1336  0.3154
 2899SOL    HW220157   3.247   0.723  14.259 -0.7962 -0.1632 -0.5812
 2900SOL     OW20158   3.933   0.182   3.182 -0.0427  0.4899  0.5264
 2900SOL    HW120159   3.925   0.278   3.186 -0.3336  0.4651  0.5123
 2900SOL    HW220160   4.028   0.177   3.170 -0.1004 -0.2295  0.4078
 2901SOL     OW20161   0.258   0.511   1.467  0.1871  0.2581 -0.5938
 2901SOL    HW120162   0.237   0.418   1.456  2.7502 -0.5893  1.4850
 2901SOL    HW220163   0.171   0.546   1.447 -0.5596  0.8436  3.6685
 2902SOL     OW20164   4.140   2.081   6.416 -0.3917  0.4657  0.1753
 2902SOL    HW120165   4.212   2.041   6.464 -1.6777 -0.8436  1.0281
 2902SOL    HW220166   4.111   2.000   6.372 -2.4298  0.9781  0.5668
 2903SOL     OW20167   1.525   1.463   5.001 -0.2696 -0.2119  0.3699
 2903SOL    HW120168   1.460   1.435   4.937 -0.6103  0.5088  0.3996
 2903SOL    HW220169   1.573   1.381   5.005 -0.6321 -0.5634 -2.0688
 2904SOL     OW20170   3.528   2.145   3.893  0.7684  0.1867  0.0185
 2904SOL    HW120171   3.482   2.062   3.907  0.0021  1.1986  3.4308
 2904SOL    HW220172   3.563   2.132   3.805 -1.2421  3.9848 -1.3531
 2905SOL     OW20173   2.512   3.193  13.875 -0.0849  0.4279 -0.0194
 2905SOL    HW120174   2.554   3.130  13.935 -1.8179 -0.0034  0.7344
 2905SOL    HW220175   2.473   3.252  13.940 -0.2836  1.2154 -0.8547
 2906SOL     OW20176   1.952   3.455   6.805  0.7703  0.6321 -0.3390
 2906SOL    HW120177   1.888   3.494   6.864  1.6414  1.1795  0.2512
 2906SOL    HW220178   1.921   3.365   6.798  0.1968  0.9148 -1.4317
 2907SOL     OW20179   2.596   4.405  10.748  0.3024 -0.0799 -0.1364
 2907SOL    HW120180   2.584   4.324  10.700 -0.8494  0.2462 -0.3942
 2907SOL    HW220181   2.610   4.388  10.841 -2.0638  0.1342  0.2531
 2908SOL     OW20182   1.221   1.156   6.050  0.4128  0.3069 -0.1539
 2908SOL    HW120183   1.142   1.201   6.020  0.3538 -0.7619 -1.6265
 2908SOL    HW220184   1.214   1.178   6.143  0.3641  0.2287 -0.1383
 2909SOL     OW20185   3.273   2.692   9.344  0.2286 -0.3252  0.5130
 2909SOL    HW120186   3.286   2.670   9.436 -1.3499 -0.2008  0.7680
 2909SOL    HW220187   3.183   2.661   9.330  0.6544 -0.4216 -2.1550
 2910SOL     OW20188   3.263   2.088   5.986 -0.1712 -0.1699  0.7253
 2910SOL    HW120189   3.264   2.182   6.002  2.3795  0.1812 -1.3676
 2910SOL    HW220190   3.344   2.062   6.031 -1.0363 -2.9289  0.6551
 2911SOL     OW20191   4.562   1.132   5.384 -0.3179  0.6534  0.0886
 2911SOL    HW120192   4.474   1.109   5.414 -1.1041  3.4555 -0.0988
 2911SOL    HW220193   4.578   1.201   5.449  0.7082  0.5986 -0.1039
 2912SOL     OW20194   1.539   1.096   6.399 -0.3576 -0.4272 -0.3398
 2912SOL    HW120195   1.605   1.128   6.461 -0.5440  1.9068 -1.3783
 2912SOL    HW220196   1.591   1.026   6.358  0.1200  0.5038 -1.3254
 2913SOL     OW20197   3.227   0.137   3.160 -0.3002  0.1270  0.2399
 2913SOL    HW120198   3.248   0.045   3.174 -1.7749 -0.5552 -2.0093
 2913SOL    HW220199   3.142   0.134   3.116  1.4867  0.2324 -3.1905
 2914SOL     OW20200   4.229   4.603   6.222  0.1826 -0.2404 -0.1065
 2914SOL    HW120201   4.153   4.546   6.231  1.3063 -1.6664  0.4998
 2914SOL    HW220202   4.246   4.600   6.128  0.9027 -1.4426  0.0521
 2915SOL     OW20203   4.040   3.504  12.073 -0.1141  0.0703  0.0142
 2915SOL    HW120204   4.125   3.470  12.102  0.8948  2.1440 -0.4854
 2915SOL    HW220205   3.984   3.489  12.149 -0.9523 -0.4551 -0.7169
 2916SOL     OW20206   2.631   4.624   2.879 -0.5413  0.8422 -0.0351
 2916SOL    HW120207   2.558   4.657   2.930  0.6716  1.1740  1.4924
 2916SOL    HW220208   2.575   4.567   2.826  0.1556 -1.9532  2.2446
 2917SOL     OW20209   1.401   1.275  12.831 -0.4598 -0.3379 -0.1708
 2917SOL    HW120210   1.458   1.337  12.877 -1.0658 -2.4085  3.4399
 2917SOL    HW220211   1.367   1.333  12.764 -1.1091  1.0598  1.3534
 2918SOL     OW20212   1.075   2.762   2.498  0.2793 -0.1469 -0.5605
 2918SOL    HW120213   0.979   2.766   2.492  0.2416 -0.6294 -0.3114
 2918SOL    HW220214   1.094   2.766   2.592 -0.2235  1.5526 -0.5381
 2919SOL     OW20215   3.980   1.813   6.607 -0.3162  0.3319 -0.2316
 2919SOL    HW120216   4.048   1.759   6.647 -1.6200 -0.6707  0.6382
 2919SOL    HW220217   4.011   1.814   6.516  0.6779 -0.6460  0.0976
 2920SOL     OW20218   4.459   2.218   1.695  0.0401  0.1477  0.1534
 2920SOL    HW120219   4.399   2.185   1.763  0.4445 -2.3886 -0.7338
 2920SOL    HW220220   4.416   2.189   1.615 -0.3579  0.0795  0.3868
 2921SOL     OW20221   2.764   2.924   4.353 -0.3191 -0.6770 -0.2566
 2921SOL    HW120222   2.716   2.927   4.436  0.7998  1.1589  0.3339
 2921SOL    HW220223   2.745   3.005   4.306  0.0139  0.6407  1.8691
 2922SOL     OW20224   4.493   2.365  14.338 -0.1492 -0.3017  0.1503
 2922SOL    HW120225   4.415   2.310  14.342 -0.9219  1.0402  3.2585
 2922SOL    HW220226   4.561   2.298  14.329 -0.0102 -0.1403 -0.0375
 2923SOL     OW20227   4.064   2.629   4.519 -0.5601 -0.3828  0.0911
 2923SOL    HW120228   3.976   2.633   4.556 -0.5695  0.3119 -0.0060
 2923SOL    HW220229   4.087   2.720   4.503 -1.7561  0.1454  1.4386
 2924SOL     OW20230   2.584   0.010  17.696 -0.4910 -0.2108 -0.0143
 2924SOL    HW120231   2.576   4.709  17.604 -1.9668 -2.3791  0.6913
 2924SOL    HW220232   2.599   4.650   0.044  0.3379  0.1887  0.4680
 2925SOL     OW20233   0.121   4.379   4.007  0.1059 -0.4799 -0.0899
 2925SOL    HW120234   0.090   4.434   4.079  1.2071 -1.9891  1.5286
 2925SOL    HW220235   0.124   4.292   4.045  1.1396 -0.9280 -1.2317
 2926SOL     OW20236   1.861   3.260  10.514  0.2402  0.3663  0.2898
 2926SOL    HW120237   1.897   3.192  10.571  1.1989  0.7241  0.1129
 2926SOL    HW220238   1.860   3.336  10.571 -1.5011 -1.1530  2.2623
 2927SOL     OW20239   0.733   1.676   6.501 -0.1431  0.5314  0.4978
 2927SOL    HW120240   0.680   1.628   6.564 -0.2265  0.7004  0.5561
 2927SOL    HW220241   0.679   1.722   6.437 -0.1452  2.0587  1.5884
 2928SOL     OW20242   1.146   0.764   6.579 -0.6174 -0.0619  0.5158
 2928SOL    HW120243   1.153   0.772   6.674 -1.2393  0.6442  0.5042
 2928SOL    HW220244   1.070   0.817   6.557  0.8125  2.0524  0.6795
 2929SOL     OW20245   3.510   0.424   2.437  0.0931  0.0781 -0.0083
 2929SOL    HW120246   3.439   0.360   2.443 -1.5203  1.9505  0.8571
 2929SOL    HW220247   3.558   0.411   2.519  2.2120  0.4455 -1.1755
 2930SOL     OW20248   4.434   0.627  13.016 -0.4435  0.5387  0.1731
 2930SOL    HW120249   4.369   0.563  13.043 -0.6506  0.5352 -0.3510
 2930SOL    HW220250   4.430   0.605  12.923  1.6098  0.8101  0.0023
 2931SOL     OW20251   0.334   0.144   6.961 -0.4849 -0.2773 -0.3090
 2931SOL    HW120252   0.264   0.079   6.968 -0.5645 -0.1726 -0.1389
 2931SOL    HW220253   0.391   0.092   7.017 -0.9712  0.9066  1.2949
 2932SOL     OW20254   2.299   0.789   9.635 -0.1148 -0.4114  0.3878
 2932SOL    HW120255   2.230   0.753   9.579 -0.4088 -0.0001  0.4888
 2932SOL    HW220256   2.269   0.879   9.622 -1.8378 -0.9053  0.9079
 2933SOL     OW20257   4.565   4.041   9.073 -0.8348  0.6705  0.3809
 2933SOL    HW120258   4.639   4.089   9.110 -0.2622 -0.4242  0.6636
 2933SOL    HW220259   4.576   4.050   8.979  0.9166  0.4509  0.5685
 2934SOL     OW20260   4.546   3.752   4.990 -0.2241 -0.8908  0.8923
 2934SOL    HW120261   4.553   3.658   5.007 -0.0375 -0.8381  1.1085
 2934SOL    HW220262   4.567   3.760   4.897 -0.2704 -2.8359  0.7263
 2935SOL     OW20263   1.458   2.308   8.656 -0.4509  0.0077 -0.2879
 2935SOL    HW120264   1.522   2.276   8.719 -1.2920  0.8783  1.0203
 2935SOL    HW220265   1.376   2.265   8.680  0.2344 -0.4465  1.2701
 2936SOL     OW20266   2.535   4.257   5.401 -0.3599  0.4241 -0.2707
 2936SOL    HW120267   2.514   4.328   5.461  3.0731  2.3909 -1.3504
 2936SOL    HW220268   2.550   4.311   5.323 -1.9795  0.9586 -0.2095
 2937SOL     OW20269   2.857   1.323  16.469  0.3941 -0.0324 -0.0026
 2937SOL    HW120270   2.785   1.353  16.526  2.2607  1.5312  1.5263
 2937SOL    HW220271   2.865   1.228  16.483 -0.8142 -0.0960  0.3449
 2938SOL     OW20272   2.942   2.670   0.090  0.2357 -0.3859 -0.2706
 2938SOL    HW120273   2.922   2.759   0.059  0.6864 -0.2049 -0.0297
 2938SOL    HW220274   2.854   2.643   0.118  0.7249 -2.4557 -0.7508
 2939SOL     OW20275   2.877   3.497   0.984 -0.5426 -0.5864 -0.2165
 2939SOL    HW120276   2.942   3.562   1.008 -1.5749  1.2121 -2.2839
 2939SOL    HW220277   2.882   3.454   1.069  3.6781  0.1657 -0.0969
 2940SOL     OW20278   2.070   0.312  11.114  0.5828 -0.0995 -0.2064
 2940SOL    HW120279   2.059   0.218  11.098 -0.5804 -0.2267  1.3477
 2940SOL    HW220280   2.087   0.300  11.208  0.6826  1.4371 -0.0320
 2941SOL     OW20281   0.898   2.696  15.347  0.3624  0.3474 -0.4995
 2941SOL    HW120282   0.804   2.702  15.366  0.2406 -1.5160 -0.5531
 2941SOL    HW220283   0.914   2.790  15.346  0.4399  0.3635  1.6671
 2942SOL     OW20284   0.942   1.541  16.090 -0.2923 -0.0640 -0.3294
 2942SOL    HW120285   0.941   1.602  16.016 -0.0726  0.0407 -0.2466
 2942SOL    HW220286   0.900   1.467  16.047  1.5537 -1.6286  0.5903
 2943SOL     OW20287   3.357   1.274   9.882 -0.3822 -0.1282  0.0768
 2943SOL    HW120288   3.359   1.370   9.885  1.2397 -0.1411 -1.2127
 2943SOL    HW220289   3.322   1.253   9.969  0.4348  3.2217  1.2214
 2944SOL     OW20290   0.264   2.914  10.025 -0.1671 -0.3153 -0.3878
 2944SOL    HW120291   0.198   2.854   9.990 -0.0896 -1.3805  1.2818
 2944SOL    HW220292   0.232   3.002  10.006 -1.7632 -0.6351  0.8356
 2945SOL     OW20293   0.289   2.230   0.233  0.0750 -0.1021 -0.0537
 2945SOL    HW120294   0.212   2.285   0.218 -2.1791 -2.9832  0.9745
 2945SOL    HW220295   0.259   2.149   0.193  2.2627 -1.1410  0.4002
 2946SOL     OW20296   0.339   3.025   4.002 -0.0993 -0.0829  0.7812
 2946SOL    HW120297   0.258   3.036   4.051 -0.0405 -2.3573  1.3956
 2946SOL    HW220298   0.311   3.032   3.911  1.1139  0.2717  0.4257
 2947SOL     OW20299   0.747   2.797  17.517  0.0454 -0.0455  0.2261
 2947SOL    HW120300   0.829   2.829  17.555 -0.7124  1.7343  0.3688
 2947SOL    HW220301   0.724   2.870  17.459  0.1845 -0.7958 -0.7743
 2948SOL     OW20302   3.419   2.231   8.000  0.3643  0.4204 -1.0954
 2948SOL    HW120303   3.503   2.236   8.046 -0.8943 -2.5344  1.5673
 2948SOL    HW220304   3.453   2.197   7.918  0.2367  1.9458 -1.7713
 2949SOL     OW20305   0.114   3.039   4.170  0.1349  0.1627  0.2423
 2949SOL    HW120306   0.084   2.980   4.101 -0.6355 -1.6062  2.1017
 2949SOL    HW220307   0.109   2.981   4.245  0.1685 -0.1524 -0.0006
 2950SOL     OW20308   4.481   1.007  15.144 -0.0329 -0.0270 -0.0458
 2950SOL    HW120309   4.515   1.087  15.104 -1.2901  0.8542  0.6247
 2950SOL    HW220310   4.385   1.012  15.138 -0.0351  0.6457  0.5394
 2951SOL     OW20311   4.574   3.172   7.602  0.1584 -0.1488  0.0301
 2951SOL    HW120312   4.533   3.136   7.681  3.4934 -1.5059  1.1638
 2951SOL    HW220313   4.662   3.145   7.629 -0.2529 -0.6383  0.8777
 2952SOL     OW20314   3.161   2.473   5.754 -0.0518  0.5637 -0.1998
 2952SOL    HW120315   3.219   2.540   5.718 -1.1870  1.5730 -0.1418
 2952SOL    HW220316   3.075   2.516   5.754  0.8390  2.3550 -2.0174
 2953SOL     OW20317   4.464   3.403   2.611  0.7439  0.3961 -0.4462
 2953SOL    HW120318   4.397   3.337   2.597  0.1041  1.4856 -2.5183
 2953SOL    HW220319   4.429   3.452   2.685  1.5000 -1.6961  1.2890
 2954SOL     OW20320   1.562   3.574   4.905 -0.3697 -0.0642 -0.2537
 2954SOL    HW120321   1.484   3.592   4.957  0.0544  0.3052  0.2456
 2954SOL    HW220322   1.553   3.480   4.918 -2.6829 -0.0202 -1.4811
 2955SOL     OW20323   0.245   3.238   5.929 -0.3328 -0.1894  0.3262
 2955SOL    HW120324   0.190   3.234   6.007  1.2292 -0.5005  1.4076
 2955SOL    HW220325   0.173   3.246   5.866  1.9365 -0.1801 -2.2510
 2956SOL     OW20326   1.641   4.671   7.343  0.9034 -0.5128  0.4353
 2956SOL    HW120327   1.598   4.662   7.258 -0.5463 -0.7964  1.1875
 2956SOL    HW220328   1.648   4.576   7.358  3.9156 -0.4372 -0.7056
 2957SOL     OW20329   3.218   2.648   0.028 -0.2461 -0.1571 -0.3194
 2957SOL    HW120330   3.127   2.662   0.055 -0.0992 -0.6013  0.3991
 2957SOL    HW220331   3.254   2.735   0.048 -2.1887  0.0341  2.3961
 2958SOL     OW20332   3.197   2.148   8.784 -0.2646 -0.2701  0.8437
 2958SOL    HW120333   3.111   2.118   8.812 -0.1478 -2.7059 -1.4286
 2958SOL    HW220334   3.238   2.065   8.809 -1.1270 -0.3610  1.9579
 2959SOL     OW20335   4.102   4.098   7.541 -0.1107 -0.6169 -0.0088
 2959SOL    HW120336   4.164   4.043   7.493 -0.3279  0.1124 -1.1189
 2959SOL    HW220337   4.122   4.180   7.496 -1.0334 -0.4733 -0.1416
 2960SOL     OW20338   3.091   1.688   4.392 -0.0286 -0.5033  0.3093
 2960SOL    HW120339   3.054   1.765   4.348  1.6373 -1.0036 -2.0038
 2960SOL    HW220340   3.042   1.625   4.339 -0.9865  0.0027  0.5959
 2961SOL     OW20341   1.548   1.880   5.963  0.2092 -0.4662 -0.7870
 2961SOL    HW120342   1.557   1.822   5.888 -1.0770  0.7896 -1.9247
 2961SOL    HW220343   1.599   1.830   6.027 -1.6936 -1.3873  0.0270
 2962SOL     OW20344   1.669   1.808  13.230 -0.0649  0.1507 -0.0227
 2962SOL    HW120345   1.588   1.845  13.195 -1.2065 -2.1572  0.1949
 2962SOL    HW220346   1.660   1.832  13.323 -1.2147  0.9140 -0.3297
 2963SOL     OW20347   3.910   3.040  15.048 -0.2115  0.7858 -0.2070
 2963SOL    HW120348   3.999   3.069  15.068  1.4042 -3.3539 -1.4479
 2963SOL    HW220349   3.920   2.954  15.008 -1.0543 -0.4482  2.2743
 2964SOL     OW20350   4.360   0.307   3.342  0.6016  0.0990 -0.3600
 2964SOL    HW120351   4.377   0.214   3.324 -0.7469 -0.7138  2.6457
 2964SOL    HW220352   4.400   0.326   3.427  0.2368 -0.9388  0.0487
 2965SOL     OW20353   3.127   3.481  13.781 -0.1433  0.0520 -0.6291
 2965SOL    HW120354   3.065   3.497  13.852 -0.0381 -1.1258 -0.2639
 2965SOL    HW220355   3.084   3.521  13.706 -0.2451  0.4335 -0.3673
 2966SOL     OW20356   4.358   2.985  12.398 -0.1855 -0.7870 -0.0984
 2966SOL    HW120357   4.353   2.893  12.423 -1.6869 -1.3224 -2.3570
 2966SOL    HW220358   4.310   2.994  12.316 -1.1776 -1.6316  0.3920
 2967SOL     OW20359   0.461   4.431   8.827  0.8023  0.2606  0.1937
 2967SOL    HW120360   0.551   4.415   8.798  1.2567  1.5851  0.8634
 2967SOL    HW220361   0.448   4.524   8.809 -0.9743  0.1863  1.0663
 2968SOL     OW20362   2.167   3.137   1.435 -0.4845  0.0175 -0.6546
 2968SOL    HW120363   2.181   3.231   1.448  0.8252 -0.0907 -1.3866
 2968SOL    HW220364   2.241   3.106   1.385  0.0710 -2.5120  1.7293
 2969SOL     OW20365   3.102   2.726   4.987  0.4087  0.5452  0.2350
 2969SOL    HW120366   3.031   2.790   4.981  0.2621  0.3278 -0.3355
 2969SOL    HW220367   3.104   2.717   5.082 -1.4827 -0.0046  0.2237
 2970SOL     OW20368   1.531   1.953   4.048  0.3139 -0.4091 -0.4879
 2970SOL    HW120369   1.604   1.911   4.001 -2.4308 -2.6645 -2.6862
 2970SOL    HW220370   1.583   2.030   4.073 -2.3866  1.0989  0.3783
 2971SOL     OW20371   3.392   0.462   0.867  0.3341 -0.0641  0.6556
 2971SOL    HW120372   3.354   0.539   0.910  0.4747  1.3187 -1.7075
 2971SOL    HW220373   3.427   0.505   0.789  1.8784 -3.2212 -0.3926
 2972SOL     OW20374   3.879   1.342   6.112 -0.9430 -0.5941  0.7696
 2972SOL    HW120375   3.818   1.273   6.087  0.1977 -1.5065  0.5298
 2972SOL    HW220376   3.855   1.414   6.053 -0.6123 -0.6829  0.5299
 2973SOL     OW20377   4.679   0.213  13.756 -0.3878  0.4301  0.0268
 2973SOL    HW120378   4.676   0.224  13.851  1.0266  0.7082  0.0352
 2973SOL    HW220379   4.614   0.143  13.748 -0.1641  0.2574 -0.2854
 2974SOL     OW20380   2.449   2.258   3.627  0.1312 -0.2400  0.0978
 2974SOL    HW120381   2.413   2.297   3.547  1.2316  2.1425  0.7662
 2974SOL    HW220382   2.453   2.334   3.686  1.1187 -0.2324  0.0175
 2975SOL     OW20383   2.908   2.303   2.928  0.1104 -0.2633  0.1010
 2975SOL    HW120384   2.891   2.235   2.862  2.0850  1.4402 -2.1624
 2975SOL    HW220385   2.887   2.379   2.874  0.7790  0.0396  0.2666
 2976SOL     OW20386   3.796   1.220   0.036 -0.0529  0.9339  0.2383
 2976SOL    HW120387   3.708   1.185   0.025  1.1625 -1.4762 -1.6402
 2976SOL    HW220388   3.772   1.312   0.047  0.5766  0.8767  2.1947
 2977SOL     OW20389   4.673   1.085   4.721  0.8191  0.2884 -0.2180
 2977SOL    HW120390   4.626   1.123   4.646 -0.0527 -1.2861 -0.4716
 2977SOL    HW220391   0.027   1.140   4.724  1.0189  0.0071 -0.2861
 2978SOL     OW20392   0.804   1.918   0.927 -0.1497 -0.2764 -0.0867
 2978SOL    HW120393   0.712   1.902   0.906 -0.3317 -0.8493  1.1125
 2978SOL    HW220394   0.817   1.880   1.014 -0.8535  0.5201  0.3601
 2979SOL     OW20395   3.919   1.159   7.572  0.1924  0.5522  0.0619
 2979SOL    HW120396   3.829   1.129   7.577  0.5711 -0.8527 -1.3805
 2979SOL    HW220397   3.965   1.075   7.580 -1.3471 -0.1750  1.2021
 2980SOL     OW20398   1.808   4.614   8.472  0.5019 -0.5398  0.1479
 2980SOL    HW120399   1.884   4.661   8.506 -0.0441  0.8247 -0.4975
 2980SOL    HW220400   1.798   4.549   8.541 -1.7538 -0.1317  0.2170
 2981SOL     OW20401   0.098   0.699  16.769  0.1243 -0.1001 -0.8782
 2981SOL    HW120402   0.167   0.645  16.731 -0.1215 -1.1106  0.1440
 2981SOL    HW220403   0.088   0.757  16.693 -0.5196  1.9232  0.7293
 2982SOL     OW20404   3.030   3.454  12.356 -0.1592  0.1454  0.2845
 2982SOL    HW120405   3.039   3.535  12.406  0.1789 -0.0113  0.4742
 2982SOL    HW220406   2.984   3.495  12.283  1.4792 -1.6666 -1.7831
 2983SOL     OW20407   2.356   3.343   9.596 -0.3550  0.5449  0.1835
 2983SOL    HW120408   2.316   3.283   9.532 -0.5391  0.0013  0.8062
 2983SOL    HW220409   2.438   3.376   9.561 -0.3261 -0.8056 -1.0274
 2984SOL     OW20410   0.912   0.944   2.479 -0.3278  0.0979  0.2961
 2984SOL    HW120411   0.986   0.903   2.522 -0.2659 -0.0884  0.0136
 2984SOL    HW220412   0.955   1.020   2.438  1.4845 -0.0812  1.8890
 2985SOL     OW20413   2.744   0.770   8.168  0.5858  0.1693  0.0544
 2985SOL    HW120414   2.752   0.796   8.259  0.9839  0.0772  0.0463
 2985SOL    HW220415   2.801   0.694   8.163  1.8146  1.2669 -2.5345
 2986SOL     OW20416   4.178   2.935   2.131  0.1976  0.1973  0.4037
 2986SOL    HW120417   4.248   3.000   2.139 -0.8414  1.2115  1.2303
 2986SOL    HW220418   4.129   2.983   2.064  0.5652 -0.9553 -0.6895
 2987SOL     OW20419   0.336   1.292   2.475  0.8240 -0.0219  0.5477
 2987SOL    HW120420   0.269   1.340   2.426 -0.9065 -0.6679  2.2947
 2987SOL    HW220421   0.318   1.295   2.569 -1.7453 -1.5837  0.1227
 2988SOL     OW20422   2.264   4.259  16.541  0.0813  0.5597  0.3168
 2988SOL    HW120423   2.340   4.231  16.593 -1.5461 -1.7136  1.4417
 2988SOL    HW220424   2.313   4.314  16.480 -1.2089 -0.4227 -1.5780
 2989SOL     OW20425   4.441   0.013   7.009 -0.4282 -0.1693 -0.4741
 2989SOL    HW120426   4.512   4.673   7.019  0.8309  1.0510 -1.5156
 2989SOL    HW220427   4.491   0.093   7.024 -0.8966 -0.2408  1.3836
 2990SOL     OW20428   1.056   1.504  11.447 -0.1291  0.5395  0.8925
 2990SOL    HW120429   1.036   1.577  11.388 -1.7318  0.4571  1.3490
 2990SOL    HW220430   1.151   1.508  11.435  0.0003 -0.8937  1.5126
 2991SOL     OW20431   3.802   1.475   5.846 -0.8534  0.3649 -0.0362
 2991SOL    HW120432   3.846   1.401   5.805  0.1248 -0.2360  2.1017
 2991SOL    HW220433   3.710   1.453   5.830 -0.4174 -1.8615  0.5722
 2992SOL     OW20434   1.074   3.699   2.633  0.5138  0.6882  0.2058
 2992SOL    HW120435   1.138   3.646   2.680  0.5604 -0.0013 -0.6424
 2992SOL    HW220436   1.011   3.719   2.702  0.3709 -1.0725  0.5717
 2993SOL     OW20437   0.049   0.098   2.158 -0.3612  0.0854  0.4972
 2993SOL    HW120438   0.076   0.167   2.097 -0.5258 -1.8162 -1.7346
 2993SOL    HW220439   4.679   0.111   2.147 -0.7039 -1.2704  1.7154
 2994SOL     OW20440   4.025   1.058   6.535 -0.1923  1.1337 -0.1296
 2994SOL    HW120441   3.982   1.066   6.450  0.1662 -2.8373 -0.6713
 2994SOL    HW220442   4.106   1.095   6.502  0.5780 -2.0993 -1.7814
 2995SOL     OW20443   1.964   1.251   3.566  0.6814  0.6290 -0.5053
 2995SOL    HW120444   1.957   1.296   3.482  1.7717  0.0472 -0.9021
 2995SOL    HW220445   2.056   1.226   3.576  0.3291 -0.6300 -0.3060
 2996SOL     OW20446   1.707   0.816   0.555  0.1865  0.6473  0.2222
 2996SOL    HW120447   1.668   0.843   0.638  1.4234  1.5838  0.4982
 2996SOL    HW220448   1.787   0.771   0.580  1.3067  2.0976 -0.6941
 2997SOL     OW20449   1.254   2.417   5.509 -0.3961  0.3679 -0.5892
 2997SOL    HW120450   1.180   2.460   5.466  1.0364  3.0314 -0.3712
 2997SOL    HW220451   1.224   2.406   5.600  0.6416 -0.4420 -0.3534
 2998SOL     OW20452   0.619   2.146   7.675 -0.0352 -0.2521 -0.6661
 2998SOL    HW120453   0.647   2.223   7.725  0.2640 -1.2409  0.7133
 2998SOL    HW220454   0.563   2.185   7.608 -2.7567 -2.2961  0.4156
 2999SOL     OW20455   3.327   0.117  13.914 -0.1524 -0.2713 -0.1969
 2999SOL    HW120456   3.351   0.060  13.987  3.0781  0.4357 -0.6988
 2999SOL    HW220457   3.276   0.177  13.967  0.1239  0.7591 -1.1090
 3000SOL     OW20458   1.607   2.778   4.971 -0.2428  0.6435  0.7242
 3000SOL    HW120459   1.532   2.719   4.973  0.2847  0.0359  2.3280
 3000SOL    HW220460   1.569   2.846   4.915 -0.2205  1.1234  1.2776
 3001SOL     OW20461   4.264   0.188   8.311  0.0710 -0.3319 -0.3138
 3001SOL    HW120462   4.238   0.278   8.330 -0.4832 -0.1689 -1.8893
 3001SOL    HW220463   4.262   0.196   8.216  0.5864 -1.1658 -0.4022
 3002SOL     OW20464   1.249   2.817   7.325 -0.4757 -0.1945 -0.0581
 3002SOL    HW120465   1.311   2.870   7.374 -2.2397  2.1888 -0.3860
 3002SOL    HW220466   1.307   2.749   7.292 -0.7739  0.2265 -1.4705
 3003SOL     OW20467   1.008   2.206   3.398 -0.0897  0.4050  0.0893
 3003SOL    HW120468   0.960   2.205   3.481  0.6297  0.9274  0.5249
 3003SOL    HW220469   1.065   2.283   3.404  0.0075  0.4362 -1.2459
 3004SOL     OW20470   1.176   4.086   5.867 -0.0763  0.1793  0.0930
 3004SOL    HW120471   1.268   4.063   5.856 -0.0452 -0.9347  2.6411
 3004SOL    HW220472   1.176   4.092   5.962 -0.9961 -1.6531  0.2142
 3005SOL     OW20473   1.872   2.150   6.545 -0.0363  0.1581 -0.4664
 3005SOL    HW120474   1.806   2.182   6.483 -1.3621 -0.2130  0.7590
 3005SOL    HW220475   1.917   2.233   6.561  1.1758 -0.7342  0.6835
 3006SOL     OW20476   2.444   4.023   2.504 -0.8764 -0.3491  0.4342
 3006SOL    HW120477   2.421   3.939   2.463 -0.7049  0.4990 -1.4273
 3006SOL    HW220478   2.513   3.995   2.563 -0.3039  0.6804  0.2463
 3007SOL     OW20479   3.315   1.396   1.266  0.3610 -0.0464 -0.4434
 3007SOL    HW120480   3.384   1.450   1.302 -0.3023  0.7579 -0.3923
 3007SOL    HW220481   3.346   1.309   1.292  0.0060 -0.3262 -0.9392
 3008SOL     OW20482   4.579   3.060   7.178  0.2877  0.3562  0.2498
 3008SOL    HW120483   4.506   3.121   7.181 -0.9001 -1.0543  0.1517
 3008SOL    HW220484   4.538   2.985   7.222  1.1345 -0.0635  0.3240
 3009SOL     OW20485   3.012   3.961   3.404 -0.4147  0.5989  0.1900
 3009SOL    HW120486   3.022   3.869   3.378 -0.2268  0.6294  0.1491
 3009SOL    HW220487   2.992   4.009   3.323 -2.5424 -2.0340 -0.8390
 3010SOL     OW20488   2.463   3.332   2.150  0.4032 -0.4950 -0.2522
 3010SOL    HW120489   2.388   3.387   2.175  1.2065 -0.2545  1.6694
 3010SOL    HW220490   2.433   3.245   2.176  0.6339  0.1566  2.1997
 3011SOL     OW20491   2.138   3.546   8.931 -0.3417  0.9266  0.2979
 3011SOL    HW120492   2.170   3.476   8.874  2.6852  2.4153  0.1639
 3011SOL    HW220493   2.217   3.600   8.932  1.1755 -1.1880 -3.1205
 3012SOL     OW20494   1.846   2.914   8.160 -0.4226 -0.7429 -0.1328
 3012SOL    HW120495   1.905   2.942   8.090 -0.9575 -0.1325 -0.3395
 3012SOL    HW220496   1.795   2.844   8.119 -2.7694  0.9190 -0.0440
 3013SOL     OW20497   2.115   2.934  17.288  0.0259  0.8301 -0.6354
 3013SOL    HW120498   2.145   2.888  17.367 -0.6485  1.0694 -0.2422
 3013SOL    HW220499   2.022   2.915  17.287  0.8956 -3.7401  2.4028
 3014SOL     OW20500   1.202   2.394  12.504  0.0536 -0.3618  0.0839
 3014SOL    HW120501   1.154   2.374  12.584  2.2613 -0.0267  1.5047
 3014SOL    HW220502   1.202   2.308  12.462  1.9535 -0.2386 -0.1592
 3015SOL     OW20503   2.640   0.873   2.604  0.3195 -0.3515  0.5017
 3015SOL    HW120504   2.674   0.856   2.517 -2.4656 -0.3192 -0.5936
 3015SOL    HW220505   2.549   0.860   2.578  0.8652  0.2469 -1.6384
 3016SOL     OW20506   3.579   3.957   8.958 -0.4030  0.3063  0.3716
 3016SOL    HW120507   3.611   3.897   9.025  1.4543  1.9696  0.9540
 3016SOL    HW220508   3.577   3.910   8.874 -1.0308 -0.3216  0.7409
 3017SOL     OW20509   0.596   2.353   4.640 -0.0926  0.6795  0.1752
 3017SOL    HW120510   0.610   2.393   4.726  1.6930  2.2187 -0.8376
 3017SOL    HW220511   0.502   2.370   4.636  0.0662  1.5943  0.4132
 3018SOL     OW20512   1.653   0.489   5.806 -0.1188  0.5687  0.5005
 3018SOL    HW120513   1.567   0.532   5.809 -1.1576 -1.4682 -0.0788
 3018SOL    HW220514   1.624   0.407   5.764  1.9540  0.0605  0.0411
 3019SOL     OW20515   2.857   1.342   7.209  0.3425  0.1129 -0.1718
 3019SOL    HW120516   2.830   1.332   7.300  0.1279 -0.0349 -0.2497
 3019SOL    HW220517   2.796   1.280   7.168  1.9485 -0.7185 -1.3069
 3020SOL     OW20518   0.801   0.561   3.739  0.1401 -0.5037  0.3784
 3020SOL    HW120519   0.842   0.590   3.658 -1.1220  1.3807  0.3968
 3020SOL    HW220520   0.817   0.467   3.740  0.0635 -0.5169  0.4317
 3021SOL     OW20521   3.597   0.691  15.776  0.6063  0.1196 -0.0942
 3021SOL    HW120522   3.550   0.686  15.692  3.5770 -0.9047 -1.6847
 3021SOL    HW220523   3.587   0.599  15.801  1.0457 -0.0726 -0.6248
 3022SOL     OW20524   3.372   3.379   2.563  0.0444  0.5870  0.0341
 3022SOL    HW120525   3.322   3.379   2.645 -2.3422  1.4857 -1.4146
 3022SOL    HW220526   3.361   3.471   2.541  0.9199  1.0037  1.3243
 3023SOL     OW20527   1.441   0.159  13.826  0.1475 -0.0275 -0.3295
 3023SOL    HW120528   1.355   0.119  13.815  0.3180 -0.5247  0.1508
 3023SOL    HW220529   1.441   0.234  13.765  2.0813 -0.6217 -1.0561
 3024SOL     OW20530   2.024   3.036   1.653  0.2169 -0.1434  0.2909
 3024SOL    HW120531   1.934   3.065   1.639  0.3820 -0.3378 -1.1661
 3024SOL    HW220532   2.076   3.064   1.577  1.8308  0.2901  1.5375
 3025SOL     OW20533   1.952   1.410  15.224  0.4553 -0.0595 -0.2432
 3025SOL    HW120534   1.907   1.355  15.159 -1.9643 -0.6792  1.9739
 3025SOL    HW220535   2.040   1.373  15.224  0.2893 -0.4620 -0.3496
 3026SOL     OW20536   3.721   3.983   5.564 -0.2501  0.0274  0.1431
 3026SOL    HW120537   3.700   4.058   5.509  0.9609  0.4086  0.1906
 3026SOL    HW220538   3.695   3.912   5.506  0.9789  1.7618 -2.5108
 3027SOL     OW20539   2.065   0.758   8.008  0.6030  0.4405 -0.2634
 3027SOL    HW120540   2.150   0.792   7.978  1.3787 -1.7022 -0.5326
 3027SOL    HW220541   2.098   0.701   8.078 -3.5115 -1.8505 -0.1874
 3028SOL     OW20542   3.705   2.739  14.277  0.0210 -0.7633  0.4402
 3028SOL    HW120543   3.683   2.831  14.289  0.5671 -0.5149 -0.5069
 3028SOL    HW220544   3.673   2.724  14.188 -1.1014  0.2627  0.6740
 3029SOL     OW20545   3.945   2.783   5.998 -0.0783  0.3500 -0.1626
 3029SOL    HW120546   3.876   2.748   6.055 -1.4487  2.5302 -0.4914
 3029SOL    HW220547   4.002   2.827   6.061 -1.3899 -0.0102  1.3018
 3030SOL     OW20548   3.269   4.561   3.215  0.1281  0.5961 -0.0800
 3030SOL    HW120549   3.323   4.486   3.191 -1.7712 -1.1648  1.0982
 3030SOL    HW220550   3.299   4.569   3.306 -2.5834  0.7734  0.8075
 3031SOL     OW20551   2.430   1.549   4.181 -0.2829 -0.4290 -0.4336
 3031SOL    HW120552   2.349   1.508   4.149 -0.6148  0.3737 -0.6272
 3031SOL    HW220553   2.422   1.631   4.132  2.0918  0.0591  0.0185
 3032SOL     OW20554   3.289   0.112   9.364  0.0293  0.5510 -0.3650
 3032SOL    HW120555   3.338   0.183   9.405 -0.4268  0.2920  0.6194
 3032SOL    HW220556   3.237   0.090   9.442 -1.2867  1.5979 -0.9412
 3033SOL     OW20557   1.724   2.696  11.073 -0.1646  0.4686  0.1639
 3033SOL    HW120558   1.669   2.638  11.020  1.6731 -2.5291  1.5887
 3033SOL    HW220559   1.798   2.644  11.104 -0.8528 -0.0198  0.9612
 3034SOL     OW20560   4.366   0.884   9.107  0.0013 -0.2275 -1.1544
 3034SOL    HW120561   4.363   0.975   9.134 -0.6351 -1.1445  1.7972
 3034SOL    HW220562   4.439   0.846   9.156  1.3713  0.2102 -2.8192
 3035SOL     OW20563   1.825   4.419   9.395  0.0698 -0.3279  0.4369
 3035SOL    HW120564   1.872   4.435   9.313  0.5811  0.5882  0.9162
 3035SOL    HW220565   1.895   4.412   9.459 -0.4782  5.3411  1.5980
 3036SOL     OW20566   4.645   0.744   4.410  0.3276 -0.6526 -0.3427
 3036SOL    HW120567   4.716   0.807   4.399 -0.6603  0.1927 -1.9396
 3036SOL    HW220568   4.693   0.682   4.464  3.9693  2.1827 -0.2924
 3037SOL     OW20569   2.179   0.008   4.515  0.3552 -0.1800 -0.0171
 3037SOL    HW120570   2.085   0.024   4.520  0.1380 -1.6322  0.6108
 3037SOL    HW220571   2.187   4.664   4.582  1.1083 -1.4450 -1.3686
 3038SOL     OW20572   1.358   0.219   5.372 -0.0538 -0.0954  0.1683
 3038SOL    HW120573   1.335   0.295   5.318  1.7120  1.1421  1.1452
 3038SOL    HW220574   1.363   0.265   5.456  1.8229  0.5025 -0.2631
 3039SOL     OW20575   4.718   2.632   2.730  0.4831 -0.3526 -0.0926
 3039SOL    HW120576   4.660   2.696   2.687 -1.5524 -1.0193  1.6841
 3039SOL    HW220577   0.082   2.668   2.720 -0.6731  2.7116  0.8970
 3040SOL     OW20578   3.148   4.562   5.256  0.0984  0.1508 -0.0759
 3040SOL    HW120579   3.109   4.633   5.308  2.3650 -1.6035  4.0092
 3040SOL    HW220580   3.105   4.580   5.172  0.7889  1.2642 -0.2009
 3041SOL     OW20581   2.927   2.771  12.745  0.1628  0.0295  0.1656
 3041SOL    HW120582   2.990   2.803  12.810  0.6127 -1.8329  0.6473
 3041SOL    HW220583   2.893   2.695  12.792  0.3583  0.3943  0.8928
 3042SOL     OW20584   0.388   2.958   2.967 -0.1770  0.4348  0.0809
 3042SOL    HW120585   0.388   2.975   3.061 -1.5515 -0.0105  0.1556
 3042SOL    HW220586   0.362   3.043   2.932 -1.1342  0.1291  0.0427
 3043SOL     OW20587   2.457   1.628   5.302 -0.4654  0.0689 -0.2815
 3043SOL    HW120588   2.409   1.550   5.273  0.2684 -1.0328  1.4829
 3043SOL    HW220589   2.544   1.588   5.299 -0.1242  0.6643  1.7506
 3044SOL     OW20590   4.504   0.558   8.091 -0.5703 -0.4977 -0.1798
 3044SOL    HW120591   4.452   0.628   8.130 -2.4848 -2.7221  1.2858
 3044SOL    HW220592   4.581   0.610   8.070 -0.0290 -0.5920  1.5777
 3045SOL     OW20593   2.645   1.135   4.080 -0.1071  0.6441  0.5059
 3045SOL    HW120594   2.640   1.227   4.106  0.0816 -0.1848  3.4212
 3045SOL    HW220595   2.737   1.110   4.094 -0.6012 -1.9568 -0.8595
 3046SOL     OW20596   1.833   1.254   0.867 -0.0593  0.0171  0.2925
 3046SOL    HW120597   1.865   1.207   0.790  0.4984 -0.2957  0.7186
 3046SOL    HW220598   1.798   1.180   0.917 -0.5563  1.9118  2.7538
 3047SOL     OW20599   2.777   0.361   4.915  0.0215  0.5475 -0.3444
 3047SOL    HW120600   2.704   0.351   4.854 -1.0286 -1.8766  1.3234
 3047SOL    HW220601   2.778   0.455   4.934  1.2304  0.5187 -0.2428
 3048SOL     OW20602   1.555   0.747  10.569 -0.5900 -0.4413  0.0582
 3048SOL    HW120603   1.562   0.663  10.615  0.1762 -0.2557  0.2799
 3048SOL    HW220604   1.635   0.797  10.583 -0.7140 -0.3576  0.4649
 3049SOL     OW20605   3.251   4.007   6.781 -0.5788  0.0272  0.3882
 3049SOL    HW120606   3.278   4.089   6.822 -1.0264  0.5014 -0.2754
 3049SOL    HW220607   3.201   4.033   6.704 -0.7560  2.0278  1.1803
 3050SOL     OW20608   1.189   1.813   6.051  0.6598 -0.7853 -0.8246
 3050SOL    HW120609   1.245   1.874   6.099 -0.1095  0.1701 -1.1611
 3050SOL    HW220610   1.159   1.875   5.985 -2.0667  0.2665  1.4301
 3051SOL     OW20611   1.290   3.659   7.145  0.3679  0.1311 -0.3571
 3051SOL    HW120612   1.377   3.620   7.141  0.0762 -0.3876 -2.0141
 3051SOL    HW220613   1.305   3.753   7.139  0.4868  0.1709  0.6676
 3052SOL     OW20614   0.615   2.881   5.306  0.2451  0.3776  0.2342
 3052SOL    HW120615   0.568   2.840   5.233  0.9594 -0.8845  0.4815
 3052SOL    HW220616   0.557   2.875   5.381  0.5108  0.4052  0.4393
 3053SOL     OW20617   0.110   0.361   1.755  0.5415 -0.2800  0.0722
 3053SOL    HW120618   0.025   0.396   1.729 -0.3085 -1.3736  1.3781
 3053SOL    HW220619   0.082   0.271   1.770 -1.7568 -0.0147 -2.5542
 3054SOL     OW20620   4.086   1.951   2.243  0.5013 -0.6029  0.1007
 3054SOL    HW120621   4.131   1.981   2.164 -2.5708  1.0424 -1.0298
 3054SOL    HW220622   4.080   1.858   2.223 -0.7345 -0.4152 -0.4118
 3055SOL     OW20623   3.809   1.239  12.207  0.0075  0.1937 -0.1757
 3055SOL    HW120624   3.798   1.297  12.131  0.5008  0.0495 -0.3533
 3055SOL    HW220625   3.895   1.206  12.183  0.2393 -0.4702  1.6157
 3056SOL     OW20626   3.013   0.275   3.827 -0.1728  0.1493  0.6016
 3056SOL    HW120627   3.073   0.200   3.828 -0.7595 -0.3222  0.7171
 3056SOL    HW220628   2.970   0.243   3.748  1.5577 -2.5627  0.7158
 3057SOL     OW20629   0.741   0.705   6.599  0.7465  0.2494  0.2107
 3057SOL    HW120630   0.725   0.768   6.669  1.0769  0.1736  0.3540
 3057SOL    HW220631   0.678   0.634   6.612  0.6707  0.4389  0.9088
 3058SOL     OW20632   4.278   2.946   8.761 -0.0581  0.0045  0.1308
 3058SOL    HW120633   4.333   2.910   8.830 -0.4471 -0.3153  0.2725
 3058SOL    HW220634   4.193   2.938   8.804 -0.1385  2.7141  0.5310
 3059SOL     OW20635   1.805   2.285  10.907  0.2176 -0.3711  0.8919
 3059SOL    HW120636   1.802   2.377  10.880 -0.9917 -0.0787  2.0585
 3059SOL    HW220637   1.772   2.294  10.996  0.5460 -0.1421  0.9911
 3060SOL     OW20638   2.992   2.872   7.389  0.3466  0.4797  0.5752
 3060SOL    HW120639   2.914   2.818   7.398  0.6273 -0.1331 -0.6955
 3060SOL    HW220640   2.988   2.901   7.298  0.4871 -1.0018  0.1076
 3061SOL     OW20641   4.109   0.315   6.140  0.2974 -0.3614 -0.4423
 3061SOL    HW120642   4.121   0.369   6.061 -0.4174  0.5142  0.0547
 3061SOL    HW220643   4.160   0.358   6.208 -1.1265  0.9604 -0.2192
 3062SOL     OW20644   3.667   3.841  14.639  0.2313  0.2539 -0.6212
 3062SOL    HW120645   3.719   3.770  14.677  0.1886 -0.4289 -1.8495
 3062SOL    HW220646   3.586   3.829  14.688  0.6802  1.3472  0.4004
 3063SOL     OW20647   4.329   4.328   8.080  0.1162 -0.1554  0.4722
 3063SOL    HW120648   4.362   4.417   8.065 -0.3222 -0.2050 -0.7612
 3063SOL    HW220649   4.385   4.272   8.026 -2.9319 -1.3305 -1.4272
 3064SOL     OW20650   4.666   0.340   2.455 -0.5301 -0.0297  0.1455
 3064SOL    HW120651   4.697   0.430   2.442 -0.0987 -0.1359  0.4357
 3064SOL    HW220652   0.020   0.296   2.490  0.1108  0.5436 -0.5635
 3065SOL     OW20653   2.098   3.512   9.750  0.0490 -0.4028 -0.3259
 3065SOL    HW120654   2.072   3.572   9.679  2.0842  1.7759  0.7625
 3065SOL    HW220655   2.167   3.565   9.789 -1.0016  0.5777  0.2236
 3066SOL     OW20656   1.140   0.822   5.028 -0.3156 -0.4410 -0.0937
 3066SOL    HW120657   1.127   0.832   5.123  1.3520 -0.2487  0.1156
 3066SOL    HW220658   1.231   0.793   5.015 -0.4898 -0.6729 -0.7887
 3067SOL     OW20659   0.695   2.967  17.283  0.1236 -0.1996  0.4400
 3067SOL    HW120660   0.729   3.055  17.295  1.2019 -0.6136  0.3868
 3067SOL    HW220661   0.712   2.952  17.190  0.2268  0.0638  0.4178
 3068SOL     OW20662   1.115   1.140  12.637  0.4447 -0.5858  0.3122
 3068SOL    HW120663   1.065   1.221  12.628  0.6011 -0.3321  1.8399
 3068SOL    HW220664   1.193   1.157  12.583  1.3390  0.0170  1.8141
 3069SOL     OW20665   0.452   2.205   1.928 -0.2768  0.6527  0.1109
 3069SOL    HW120666   0.395   2.261   1.982  0.2971  1.1219  0.2331
 3069SOL    HW220667   0.484   2.156   2.004  0.6517  0.6447 -0.2894
 3070SOL     OW20668   4.443   0.766   0.963  0.3227 -0.7868  0.2672
 3070SOL    HW120669   4.499   0.697   1.000  0.5495 -0.7960 -0.0897
 3070SOL    HW220670   4.485   0.781   0.878 -1.3701  1.3587 -0.1935
 3071SOL     OW20671   2.527   2.373   2.877  0.1508  0.4988  0.1757
 3071SOL    HW120672   2.554   2.436   2.943 -0.1288 -2.0199  2.6815
 3071SOL    HW220673   2.541   2.291   2.924 -0.4598  0.8257  0.9305
 3072SOL     OW20674   1.595   2.183  10.668 -0.0895  0.0565 -0.0302
 3072SOL    HW120675   1.622   2.141  10.750 -0.9124 -3.0232 -1.3320
 3072SOL    HW220676   1.673   2.234  10.644  0.3509 -1.2135 -1.3346
 3073SOL     OW20677   2.393   2.769  10.108 -0.0024 -0.1421 -0.6471
 3073SOL    HW120678   2.354   2.750  10.023 -3.3554 -1.2588  1.1154
 3073SOL    HW220679   2.460   2.836  10.099 -0.7970  1.0709  2.3924
 3074SOL     OW20680   1.455   2.362  17.657  0.2990  0.0739 -0.3118
 3074SOL    HW120681   1.374   2.323  17.625 -0.6475  0.3254  1.7396
 3074SOL    HW220682   1.522   2.355  17.589  0.4224  1.2601 -0.3144
 3075SOL     OW20683   0.057   2.184   6.283 -0.1154  0.5131  0.0540
 3075SOL    HW120684   0.150   2.205   6.273 -0.2055  0.4387 -0.8764
 3075SOL    HW220685   0.024   2.262   6.328  0.4334 -0.5363  2.2743
 3076SOL     OW20686   1.378   2.932  14.076  0.1857  0.0674  0.7312
 3076SOL    HW120687   1.460   2.965  14.039  0.8923  1.0777  3.2647
 3076SOL    HW220688   1.375   2.958  14.168 -0.8608  1.8020  0.1852
 3077SOL     OW20689   2.655   0.577   5.770 -0.0960  0.3315  0.1409
 3077SOL    HW120690   2.690   0.638   5.705  1.7121 -2.5128 -1.5726
 3077SOL    HW220691   2.578   0.548   5.722 -1.4824  3.9244  0.2083
 3078SOL     OW20692   2.213   3.789   6.145  0.1003 -0.2763 -0.4716
 3078SOL    HW120693   2.290   3.748   6.184 -1.3431 -2.1363  0.3816
 3078SOL    HW220694   2.253   3.809   6.059  1.5212 -0.2026  0.1992
 3079SOL     OW20695   2.230   1.243   5.704 -0.2664 -0.0767  0.5681
 3079SOL    HW120696   2.211   1.302   5.631 -2.1784  1.3043  2.1727
 3079SOL    HW220697   2.309   1.286   5.739  0.5143 -0.9995 -0.0588
 3080SOL     OW20698   3.930   3.339   0.537  0.0368  0.4011 -0.3735
 3080SOL    HW120699   3.868   3.308   0.471 -2.6251  0.9962  1.8446
 3080SOL    HW220700   3.888   3.405   0.593 -2.4283 -0.9901 -0.5790
 3081SOL     OW20701   0.519   0.322  17.501 -0.0419 -0.2372 -0.1832
 3081SOL    HW120702   0.442   0.312  17.556  0.4733  2.4788  0.9964
 3081SOL    HW220703   0.578   0.264  17.550  1.3711  1.5134  0.1735
 3082SOL     OW20704   4.147   0.340   1.979 -0.1387  0.5757 -0.0275
 3082SOL    HW120705   4.059   0.377   1.977 -0.6427 -0.5984  0.5682
 3082SOL    HW220706   4.190   0.396   2.045  0.0940  0.7179 -0.3023
 3083SOL     OW20707   1.358   4.625   5.370 -0.6384 -0.3031  0.4679
 3083SOL    HW120708   1.321   4.592   5.288  2.1084  0.5239 -1.0740
 3083SOL    HW220709   1.378   4.716   5.347 -0.5559 -0.5085 -0.2612
 3084SOL     OW20710   2.426   1.754   7.164  1.1665 -0.7700 -0.1261
 3084SOL    HW120711   2.512   1.796   7.163 -0.3781  2.4419  0.4280
 3084SOL    HW220712   2.432   1.687   7.231 -0.6346 -0.4110  0.3782
 3085SOL     OW20713   2.456   1.776  11.221  0.4963 -0.0603  0.1723
 3085SOL    HW120714   2.528   1.809  11.168  1.1094 -0.9499  0.4438
 3085SOL    HW220715   2.500   1.756  11.304 -1.0244 -0.5431  0.8546
 3086SOL     OW20716   2.365   2.111   5.366  0.1365 -0.3182  0.6449
 3086SOL    HW120717   2.290   2.103   5.424 -1.5518 -2.7328 -1.8789
 3086SOL    HW220718   2.385   2.019   5.350 -1.4288 -1.0813  3.0972
 3087SOL     OW20719   4.620   0.508   9.405 -0.5588 -0.3622  0.0191
 3087SOL    HW120720   4.640   0.559   9.483 -0.9795 -1.3912  0.8001
 3087SOL    HW220721   4.607   0.421   9.443 -3.0692  0.1934  0.4205
 3088SOL     OW20722   2.650   1.938   5.854 -0.0463  0.5059 -0.2690
 3088SOL    HW120723   2.587   1.953   5.784 -0.5916 -2.1177 -0.3364
 3088SOL    HW220724   2.696   2.022   5.851  1.1942 -0.0546  2.2226
 3089SOL     OW20725   0.348   1.083   0.359  0.0326  0.2815  0.0466
 3089SOL    HW120726   0.278   1.115   0.303  3.1231  0.6738 -3.5907
 3089SOL    HW220727   0.373   1.165   0.402 -1.2547 -0.0645  1.4644
 3090SOL     OW20728   2.574   3.573  10.851 -0.3331  0.9743 -0.0130
 3090SOL    HW120729   2.575   3.605  10.942 -1.7272  0.6325  0.1195
 3090SOL    HW220730   2.667   3.553  10.838 -0.3293  0.1452  1.2387
 3091SOL     OW20731   4.173   0.494   7.066  0.3178  0.2229  0.6216
 3091SOL    HW120732   4.209   0.583   7.066 -2.1898  1.2212  2.4227
 3091SOL    HW220733   4.185   0.465   6.975  1.6588 -1.1392  1.2253
 3092SOL     OW20734   1.368   1.695   4.472  0.4521  0.4962  0.7351
 3092SOL    HW120735   1.398   1.618   4.424 -1.2654  0.5425 -0.3894
 3092SOL    HW220736   1.320   1.748   4.409 -0.3201 -1.0115  0.0578
 3093SOL     OW20737   1.624   1.590  12.272  0.4946 -0.2583 -0.5601
 3093SOL    HW120738   1.707   1.542  12.271 -0.0051 -1.1366 -0.1848
 3093SOL    HW220739   1.657   1.680  12.267 -0.7137  0.2087 -0.1262
 3094SOL     OW20740   1.979   4.398   2.249  0.1778  0.3066 -0.1848
 3094SOL    HW120741   2.028   4.449   2.314  1.2519 -0.3987 -0.4535
 3094SOL    HW220742   1.970   4.317   2.299 -1.4238  0.7885  0.3203
 3095SOL     OW20743   1.328   2.965   8.478 -0.0134  0.2966  0.1905
 3095SOL    HW120744   1.243   2.996   8.446  0.0262 -0.3778 -0.5587
 3095SOL    HW220745   1.310   2.872   8.483 -2.3290  0.8210  1.9178
 3096SOL     OW20746   1.008   1.370  15.801  0.2617  0.0689  0.3960
 3096SOL    HW120747   0.978   1.333  15.718  1.7100 -1.0078  0.3404
 3096SOL    HW220748   1.058   1.292  15.825  0.2409  0.7360  2.5875
 3097SOL     OW20749   3.599   3.498   9.153  0.1912  0.3014  0.5026
 3097SOL    HW120750   3.683   3.465   9.185 -0.0815 -2.3819 -1.5327
 3097SOL    HW220751   3.550   3.500   9.235  0.2543  5.3960  0.4248
 3098SOL     OW20752   3.063   2.705   5.267  0.6781  0.2330 -0.6327
 3098SOL    HW120753   3.105   2.651   5.333 -0.2200 -0.7509 -0.8777
 3098SOL    HW220754   3.007   2.752   5.328  1.7613  0.2358  0.3611
 3099SOL     OW20755   4.217   4.255   5.000  0.0215  0.0076  0.3578
 3099SOL    HW120756   4.194   4.332   4.948  0.3007 -0.2513 -0.1517
 3099SOL    HW220757   4.180   4.274   5.086  1.1948 -0.0994  0.8869
 3100SOL     OW20758   0.152   1.755   6.163 -0.0753 -0.5373  0.3471
 3100SOL    HW120759   0.218   1.807   6.209 -0.5787  1.4817 -1.2195
 3100SOL    HW220760   0.072   1.788   6.205 -1.8535 -1.0270 -2.6876
 3101SOL     OW20761   3.489   3.767   6.727  0.1819 -0.0530  0.3445
 3101SOL    HW120762   3.559   3.703   6.716  0.2525 -0.4788  3.0414
 3101SOL    HW220763   3.524   3.853   6.702  3.1783 -2.0825 -2.3679
 3102SOL     OW20764   1.846   4.393   5.089 -0.4550 -0.0881  0.5436
 3102SOL    HW120765   1.849   4.477   5.042 -0.4680  0.0724  0.8272
 3102SOL    HW220766   1.908   4.342   5.038  0.4186  2.1582 -0.6318
 3103SOL     OW20767   3.290   4.027   9.457  0.1826  0.2297  0.0756
 3103SOL    HW120768   3.273   4.066   9.542 -1.3441 -0.1295 -0.0701
 3103SOL    HW220769   3.337   3.944   9.472  2.7465  1.6354 -0.0842
 3104SOL     OW20770   4.502   0.417   1.967  0.1167  0.1611 -0.3316
 3104SOL    HW120771   4.527   0.449   1.880  0.0550  2.0289  0.3405
 3104SOL    HW220772   4.509   0.501   2.013 -3.9998 -0.2277  0.9873
 3105SOL     OW20773   0.162   2.053   8.181 -0.2348 -0.1649  0.6971
 3105SOL    HW120774   0.224   2.002   8.129 -0.8923 -0.7915  0.5259
 3105SOL    HW220775   0.182   2.143   8.153  0.2542 -0.5327 -0.1272
 3106SOL     OW20776   0.501   0.172   9.770  0.5508  0.5398 -0.0573
 3106SOL    HW120777   0.501   0.117   9.849  2.3479  1.4224  0.5480
 3106SOL    HW220778   0.538   0.254   9.803  2.5188  0.0138 -0.9356
 3107SOL     OW20779   2.267   2.346   6.376 -0.1319  0.0061 -0.2149
 3107SOL    HW120780   2.324   2.415   6.411  3.5849 -3.6304  0.9042
 3107SOL    HW220781   2.185   2.351   6.425  0.2824  0.7325  0.4065
 3108SOL     OW20782   3.740   2.255   5.274  0.1062  0.0263  0.1346
 3108SOL    HW120783   3.678   2.297   5.215 -1.2409  0.6826  2.0129
 3108SOL    HW220784   3.801   2.213   5.214  1.4320 -0.2290  1.6570
 3109SOL     OW20785   0.207   1.437   0.936  0.2698 -0.3561 -0.2034
 3109SOL    HW120786   0.182   1.357   0.891 -2.3478  0.4603 -0.2246
 3109SOL    HW220787   0.145   1.435   1.009 -0.1078 -0.7490 -0.5339
 3110SOL     OW20788   2.489   2.897  13.230 -0.0720  0.6399 -0.5752
 3110SOL    HW120789   2.461   2.949  13.305  0.2812 -3.5140  2.4703
 3110SOL    HW220790   2.405   2.893  13.184 -1.8627 -0.8280  2.8516
 3111SOL     OW20791   0.458   1.750   3.719 -0.2061  0.2899 -0.1408
 3111SOL    HW120792   0.468   1.704   3.635  1.1522  2.1175 -0.9824
 3111SOL    HW220793   0.441   1.841   3.695 -0.8274 -0.4309 -2.4360
 3112SOL     OW20794   0.545   3.660  10.364 -0.2780 -0.3884 -0.0234
 3112SOL    HW120795   0.507   3.744  10.338 -2.1743 -0.6478  1.8146
 3112SOL    HW220796   0.538   3.615  10.280  2.5307 -2.6879  0.9949
 3113SOL     OW20797   0.308   4.486   7.985  0.4106 -0.2237  0.0111
 3113SOL    HW120798   0.393   4.443   7.994  0.6289  0.2285  0.1046
 3113SOL    HW220799   0.250   4.420   8.022 -1.0413  1.8715  1.5164
 3114SOL     OW20800   0.212   1.901   3.939 -0.2368  0.6586 -0.2171
 3114SOL    HW120801   0.252   1.907   4.026 -0.5427  0.8567 -0.0909
 3114SOL    HW220802   0.271   1.944   3.878  0.4529 -0.1960 -0.1464
 3115SOL     OW20803   3.153   2.348  13.760  0.3220  0.2774  0.5586
 3115SOL    HW120804   3.099   2.343  13.681 -2.7227  0.3799  2.6658
 3115SOL    HW220805   3.225   2.401  13.724 -1.2454  2.7553  1.1157
 3116SOL     OW20806   4.180   3.074   6.898  0.1911  0.0392 -0.1561
 3116SOL    HW120807   4.239   3.022   6.844  0.1283 -0.4587  0.2568
 3116SOL    HW220808   4.181   3.029   6.982  1.1903  0.8901  0.2910
 3117SOL     OW20809   2.952   0.004  14.886  0.1658  0.2600 -0.2878
 3117SOL    HW120810   2.904   0.087  14.879 -1.1691 -0.3986  1.0718
 3117SOL    HW220811   2.882   4.673  14.922 -0.6086  1.4849  0.0911
 3118SOL     OW20812   0.278   1.544   5.633  0.0553 -0.0433  0.3750
 3118SOL    HW120813   0.344   1.548   5.564  0.1433  2.0218  0.5634
 3118SOL    HW220814   0.198   1.557   5.582  0.3060  1.6472  0.4059
 3119SOL     OW20815   0.388   2.965  17.689  0.0611 -0.3604  0.4872
 3119SOL    HW120816   0.390   3.051  17.647 -0.0676 -0.7006 -0.2148
 3119SOL    HW220817   0.411   2.919  17.609  2.4019  2.0359 -0.2271
 3120SOL     OW20818   0.716   1.251   5.295 -0.1831  0.2288  0.0765
 3120SOL    HW120819   0.646   1.292   5.244 -0.3146 -0.0946 -0.0055
 3120SOL    HW220820   0.689   1.266   5.386  0.6275  1.4927  0.0993
 3121SOL     OW20821   2.868   2.888   0.299  0.1464 -0.1849  0.0498
 3121SOL    HW120822   2.928   2.945   0.250 -1.2980  0.2769 -1.1859
 3121SOL    HW220823   2.901   2.903   0.387 -1.8747  0.5325  0.6903
 3122SOL     OW20824   3.845   1.474   4.898 -0.2092  0.3500 -0.3972
 3122SOL    HW120825   3.927   1.508   4.863 -0.3009  1.5814  0.5733
 3122SOL    HW220826   3.877   1.421   4.971  1.0451 -0.6160 -1.6628
 3123SOL     OW20827   2.030   3.581   6.279 -0.6787 -0.6355 -0.3103
 3123SOL    HW120828   2.088   3.641   6.325 -1.1826 -1.5982  1.5586
 3123SOL    HW220829   2.078   3.571   6.196 -0.5419  0.0424 -0.3100
 3124SOL     OW20830   3.690   3.206   2.100 -0.0961 -0.3277 -0.6295
 3124SOL    HW120831   3.687   3.249   2.015 -0.9989  0.5801 -0.1397
 3124SOL    HW220832   3.608   3.158   2.108  0.4232 -0.8109  1.6719
 3125SOL     OW20833   3.438   2.645   7.965  0.1343 -0.4341  0.3131
 3125SOL    HW120834   3.416   2.602   7.882  0.0972  1.0698 -0.4528
 3125SOL    HW220835   3.459   2.733   7.933 -1.4916 -0.2289 -0.1735
 3126SOL     OW20836   0.065   0.431   0.022  0.4631 -0.5104  0.2856
 3126SOL    HW120837   0.016   0.399   0.097 -0.9160 -1.0393 -0.8459
 3126SOL    HW220838   4.719   0.433  17.652 -0.6970  0.9929  1.5557
 3127SOL     OW20839   2.356   1.085  14.013  0.2860  0.5893 -0.4109
 3127SOL    HW120840   2.383   1.038  14.092 -2.0583  0.8156  0.5486
 3127SOL    HW220841   2.393   1.171  14.034  0.2794  0.2765  0.9369
 3128SOL     OW20842   0.891   1.618   8.392 -0.3216  0.4680 -0.3980
 3128SOL    HW120843   0.949   1.693   8.403  1.4206 -1.0822  0.9976
 3128SOL    HW220844   0.945   1.556   8.343  1.6791  1.8173  0.1509
 3129SOL     OW20845   4.716   1.694   4.530  0.0807  0.1276  0.2647
 3129SOL    HW120846   0.004   1.788   4.543 -0.7664  0.8389 -4.1270
 3129SOL    HW220847   0.070   1.667   4.481 -0.2310 -0.4911  0.1093
 3130SOL     OW20848   0.694   2.029   6.846  0.4985  0.3965  0.3910
 3130SOL    HW120849   0.683   1.934   6.843  0.0295  0.5182 -2.0136
 3130SOL    HW220850   0.749   2.027   6.768 -0.2725  1.1736 -0.1708
 3131SOL     OW20851   1.246   1.366   8.491 -0.1612 -0.0868 -0.0223
 3131SOL    HW120852   1.244   1.453   8.452  0.1173 -1.1888 -2.4699
 3131SOL    HW220853   1.340   1.355   8.502 -0.2113 -0.9310 -0.4427
 3132SOL     OW20854   4.474   3.522   6.096  0.4425 -0.3748 -0.0326
 3132SOL    HW120855   4.424   3.541   6.017  0.0937  1.2813  0.5887
 3132SOL    HW220856   4.402   3.544   6.157 -1.2326  0.5178 -2.3456
 3133SOL     OW20857   1.547   0.491  10.708 -0.1463  0.5176 -0.2686
 3133SOL    HW120858   1.471   0.461  10.758  0.1770 -0.0713 -0.1267
 3133SOL    HW220859   1.564   0.408  10.663  0.3856  0.3338  0.2930
 3134SOL     OW20860   4.238   2.509   7.128  0.1261  0.2206  0.3014
 3134SOL    HW120861   4.156   2.510   7.179 -0.3385  0.9900 -0.4667
 3134SOL    HW220862   4.230   2.598   7.093 -2.3500 -0.6763 -1.4312
 3135SOL     OW20863   1.428   4.085   9.459 -0.0224 -0.2056 -0.1244
 3135SOL    HW120864   1.468   4.001   9.481  1.3923  0.5423  0.1238
 3135SOL    HW220865   1.374   4.059   9.384 -0.1872  4.0836 -1.4728
 3136SOL     OW20866   0.426   3.937   5.471  0.2394 -0.1599  0.4410
 3136SOL    HW120867   0.443   4.014   5.525 -0.2642  0.3657 -0.1598
 3136SOL    HW220868   0.333   3.921   5.484  0.4767 -1.6951  0.2722
 3137SOL     OW20869   2.110   2.664   1.872 -0.5188 -0.3956 -0.0059
 3137SOL    HW120870   2.147   2.749   1.898 -0.6360 -0.5202  0.5709
 3137SOL    HW220871   2.106   2.676   1.777 -1.8175 -1.2550 -0.0543
 3138SOL     OW20872   0.191   0.120   3.198  0.6315 -0.1346 -0.0517
 3138SOL    HW120873   0.208   0.061   3.271 -0.7630 -1.4920 -0.8134
 3138SOL    HW220874   0.238   0.073   3.129  2.4003 -0.6957  1.5236
 3139SOL     OW20875   2.844   2.339   4.441 -0.6701  0.0131 -0.3414
 3139SOL    HW120876   2.893   2.301   4.514  0.8182  1.4236 -0.6037
 3139SOL    HW220877   2.829   2.258   4.392  1.0976 -1.4637  1.5326
 3140SOL     OW20878   1.955   3.804   4.695  0.1053  0.4479  0.5405
 3140SOL    HW120879   1.901   3.736   4.737 -0.8239  0.4353 -0.6752
 3140SOL    HW220880   1.944   3.793   4.601 -0.4056  1.3395  0.4990
 3141SOL     OW20881   3.763   0.522   9.961  0.1100 -0.7361  0.0526
 3141SOL    HW120882   3.715   0.514  10.044 -0.5201 -1.2144 -0.3548
 3141SOL    HW220883   3.843   0.470   9.966  1.4340  1.3461  0.2015
 3142SOL     OW20884   2.195   2.925  14.269  0.1306 -0.4768  0.4948
 3142SOL    HW120885   2.268   2.939  14.209  0.2831 -2.5321  0.2173
 3142SOL    HW220886   2.157   2.847  14.228 -1.3060  0.6832 -0.4159
 3143SOL     OW20887   1.527   1.267   5.491 -0.3079 -0.6296  0.1170
 3143SOL    HW120888   1.460   1.278   5.423 -0.1885  2.1209  0.4308
 3143SOL    HW220889   1.474   1.219   5.554 -3.2908  2.2673 -0.1457
 3144SOL     OW20890   4.280   3.705   3.757 -0.1074  0.4575  0.0826
 3144SOL    HW120891   4.328   3.626   3.781 -0.0142 -0.2400 -2.4877
 3144SOL    HW220892   4.349   3.754   3.713  1.2381 -0.6463  0.9897
 3145SOL     OW20893   1.805   2.592   6.240 -0.6902  0.1405 -0.3088
 3145SOL    HW120894   1.884   2.581   6.293 -0.7457 -0.2119 -0.3013
 3145SOL    HW220895   1.828   2.664   6.181  1.2649 -1.3263 -1.3514
 3146SOL     OW20896   2.805   0.574   2.984 -0.1887  0.2656 -0.3361
 3146SOL    HW120897   2.874   0.552   3.046 -1.0713 -0.9236  0.2139
 3146SOL    HW220898   2.769   0.655   3.022  0.2920  0.4564 -0.2876
 3147SOL     OW20899   3.994   0.777  14.596 -0.3970 -0.1327 -0.1377
 3147SOL    HW120900   3.945   0.696  14.592 -1.8225  0.5964  2.3643
 3147SOL    HW220901   3.926   0.834  14.631 -0.5742 -0.9944  0.9265
 3148SOL     OW20902   3.005   3.842  11.705 -0.3053  0.1738  0.1817
 3148SOL    HW120903   2.911   3.863  11.707 -0.1961  1.0671 -4.2915
 3148SOL    HW220904   2.998   3.748  11.689 -0.6775 -0.0097  1.4150
 3149SOL     OW20905   2.068   0.321   7.467 -0.2636 -0.2212 -0.4376
 3149SOL    HW120906   2.021   0.326   7.550  1.4566 -1.6866  0.6398
 3149SOL    HW220907   2.044   0.399   7.417 -2.1426 -0.8329 -0.4596
 3150SOL     OW20908   1.892   2.161   0.528 -0.5139 -0.5674 -0.0540
 3150SOL    HW120909   1.819   2.112   0.491  0.5675  1.0019 -4.2299
 3150SOL    HW220910   1.893   2.147   0.623 -2.1049  1.8408  0.3064
 3151SOL     OW20911   0.653   0.471  15.962 -0.3778 -0.3393  0.5165
 3151SOL    HW120912   0.749   0.467  15.955 -0.3288 -0.7431  1.4823
 3151SOL    HW220913   0.641   0.428  16.046 -2.5618  2.6475  1.7268
 3152SOL     OW20914   1.614   1.995   2.064 -0.2559  0.1389  0.4467
 3152SOL    HW120915   1.699   1.960   2.090 -0.6895 -0.4946  0.9990
 3152SOL    HW220916   1.574   2.003   2.151 -0.2405  1.5712  0.3212
 3153SOL     OW20917   3.070   3.714   8.902 -0.2949 -0.0934  0.3632
 3153SOL    HW120918   3.146   3.724   8.959  0.7805  0.5050 -1.1772
 3153SOL    HW220919   3.111   3.677   8.824  1.8928  0.8235  1.0827
 3154SOL     OW20920   4.372   0.634   3.536 -0.0126 -0.5064 -0.1603
 3154SOL    HW120921   4.369   0.728   3.518  1.2334  0.0161  2.3333
 3154SOL    HW220922   4.283   0.607   3.513 -0.7145  2.5678 -1.0492
 3155SOL     OW20923   1.173   2.174   7.965 -0.8720  0.5883 -0.0073
 3155SOL    HW120924   1.263   2.185   7.934 -1.2342  2.8612 -0.2795
 3155SOL    HW220925   1.140   2.260   7.938  0.2999  1.7411  2.1874
 3156SOL     OW20926   3.771   4.271   4.010  0.3776  0.0997  0.0414
 3156SOL    HW120927   3.686   4.311   4.028  0.7366  0.9803 -0.1930
 3156SOL    HW220928   3.822   4.341   3.969  0.6352  0.1204  0.3965
 3157SOL     OW20929   0.771   2.382   1.706 -0.4945  0.5990  0.4137
 3157SOL    HW120930   0.759   2.469   1.666  1.2046  0.4666 -0.3585
 3157SOL    HW220931   0.838   2.400   1.772 -0.2155 -1.3323  0.6609
 3158SOL     OW20932   1.536   1.519   7.062  0.6450 -0.4106  0.1861
 3158SOL    HW120933   1.553   1.447   7.001  0.1546  1.2439 -1.9430
 3158SOL    HW220934   1.618   1.568   7.063 -0.2385  1.1257 -0.8751
 3159SOL     OW20935   2.744   2.212   3.678 -0.4070  0.9706 -0.2596
 3159SOL    HW120936   2.649   2.223   3.667 -0.4808 -0.0059 -0.5854
 3159SOL    HW220937   2.770   2.226   3.587  1.0772 -1.1539 -0.1608
 3160SOL     OW20938   3.007   3.671   4.045 -0.6062  0.4849  0.1637
 3160SOL    HW120939   2.930   3.699   3.995  0.7656  2.5278 -0.8385
 3160SOL    HW220940   3.029   3.754   4.087 -0.4745  0.5836 -0.0976
 3161SOL     OW20941   4.092   4.430   5.209  0.2922  0.2024 -0.2388
 3161SOL    HW120942   4.023   4.401   5.150 -1.9089  1.9707  1.5001
 3161SOL    HW220943   4.060   4.397   5.293  1.9953 -1.6283 -0.3078
 3162SOL     OW20944   2.771   3.576  16.715  0.5862 -0.1282 -0.8086
 3162SOL    HW120945   2.725   3.521  16.651  1.3017 -1.6832  0.0222
 3162SOL    HW220946   2.796   3.510  16.780  1.4706  2.0922  1.1348
 3163SOL     OW20947   1.310   4.600   6.273 -0.3223 -0.4102 -0.6484
 3163SOL    HW120948   1.298   4.688   6.310  0.7655  0.7555 -3.1187
 3163SOL    HW220949   1.387   4.569   6.322  0.7766 -0.9837 -2.7408
 3164SOL     OW20950   4.542   3.467   8.102  0.6886 -0.2911  0.1552
 3164SOL    HW120951   4.609   3.440   8.164  2.3857  1.4388 -0.9235
 3164SOL    HW220952   4.572   3.411   8.030  0.7532  1.4290 -1.1625
 3165SOL     OW20953   2.448   2.810   9.599  0.4015 -0.2376 -0.5156
 3165SOL    HW120954   2.529   2.819   9.649  0.7163 -0.8415 -0.9151
 3165SOL    HW220955   2.415   2.899   9.612  1.5545  0.3531 -1.7292
 3166SOL     OW20956   3.617   2.067  14.469 -0.0906  0.3241 -0.0658
 3166SOL    HW120957   3.643   2.127  14.400  1.9995 -2.6276 -1.8383
 3166SOL    HW220958   3.695   2.012  14.472  0.8552  1.5591 -2.6752
 3167SOL     OW20959   1.420   3.734   6.303  0.6073 -0.4630 -0.1445
 3167SOL    HW120960   1.324   3.740   6.299  0.7265  1.6690  0.6332
 3167SOL    HW220961   1.425   3.646   6.341 -2.3867 -0.3340  0.5268
 3168SOL     OW20962   0.960   0.822   7.022 -0.0924  0.3536  0.1636
 3168SOL    HW120963   1.021   0.852   7.090  0.8917  2.4320 -1.6257
 3168SOL    HW220964   0.883   0.879   7.025 -0.6649 -0.2392 -3.1791
 3169SOL     OW20965   1.887   0.633   1.962 -0.1982  0.3080 -0.3134
 3169SOL    HW120966   1.819   0.567   1.979  2.0372 -1.6440  1.1237
 3169SOL    HW220967   1.845   0.666   1.883  2.1666  2.5776 -0.6141
 3170SOL     OW20968   1.977   3.903  17.066  0.0839  0.0884  0.3683
 3170SOL    HW120969   1.900   3.960  17.074 -1.2704 -1.2308 -3.0382
 3170SOL    HW220970   1.988   3.900  16.971 -2.0477 -0.7947  0.1328
 3171SOL     OW20971   0.202   0.069  15.025 -0.5142 -0.2838 -0.3141
 3171SOL    HW120972   0.174   0.041  15.113  0.6701  0.7792  0.3998
 3171SOL    HW220973   0.132   0.132  15.008  0.4534  0.3568 -1.8806
 3172SOL     OW20974   0.924   3.487   7.618 -1.1335  0.0313  0.2225
 3172SOL    HW120975   0.876   3.469   7.699 -1.5439  1.7737  0.3576
 3172SOL    HW220976   0.847   3.490   7.561 -0.0813 -0.4239 -1.2384
 3173SOL     OW20977   3.003   3.827  10.076  0.5315 -0.4057 -0.1613
 3173SOL    HW120978   2.965   3.845  10.162  0.1807 -2.3146  0.0899
 3173SOL    HW220979   3.046   3.745  10.101  0.5877 -0.6793 -1.1587
 3174SOL     OW20980   0.216   4.560  14.121 -0.3492  0.1713 -0.6578
 3174SOL    HW120981   0.276   4.632  14.139 -0.2625 -0.1433  0.2986
 3174SOL    HW220982   0.270   4.500  14.070 -0.0058 -1.2276  1.3533
 3175SOL     OW20983   2.411   2.147   9.836 -0.2367  0.3639  0.1542
 3175SOL    HW120984   2.379   2.178   9.921 -1.9089  0.6142 -0.5775
 3175SOL    HW220985   2.442   2.058   9.854 -1.8988 -0.3213 -0.4056
 3176SOL     OW20986   1.253   0.582   5.690 -0.1215  0.6399  0.1300
 3176SOL    HW120987   1.202   0.641   5.634  1.0665  0.9422 -0.6256
 3176SOL    HW220988   1.307   0.649   5.732  1.1994 -1.5627  1.9291
 3177SOL     OW20989   4.608   4.615  11.712  0.0685 -0.5829 -0.4661
 3177SOL    HW120990   4.538   4.668  11.751  0.0620  0.3347 -1.7413
 3177SOL    HW220991   4.576   4.602  11.623 -1.3096  0.6783 -0.1495
 3178SOL     OW20992   1.193   1.830   4.316  0.5070 -0.8410  0.3075
 3178SOL    HW120993   1.187   1.883   4.236 -2.4776  0.9739  1.7679
 3178SOL    HW220994   1.173   1.741   4.286  0.3440 -0.6752 -0.0710
 3179SOL     OW20995   1.873   3.216   2.079  0.7579  0.3373 -0.4253
 3179SOL    HW120996   1.927   3.267   2.140 -0.0111  0.1835  0.3842
 3179SOL    HW220997   1.884   3.128   2.114  2.2324 -0.1859 -2.2226
 3180SOL     OW20998   0.559   3.825   0.260 -0.0615 -0.1566  0.3016
 3180SOL    HW120999   0.546   3.759   0.328 -1.7891 -1.6199 -1.4364
 3180SOL    HW221000   0.504   3.887   0.308 -1.1866 -2.0511  1.4809
 3181SOL     OW21001   2.864   2.395   7.173 -0.3125 -0.1263 -0.2045
 3181SOL    HW121002   2.798   2.464   7.175 -0.3265 -0.1534  0.2768
 3181SOL    HW221003   2.841   2.331   7.241  0.7597  0.3923  0.6534
 3182SOL     OW21004   0.952   1.117   8.557 -0.0692 -0.9154 -0.2995
 3182SOL    HW121005   0.896   1.042   8.575 -1.1053 -0.3900 -1.3188
 3182SOL    HW221006   1.032   1.076   8.591  0.4017 -0.5901 -0.9979
 3183SOL     OW21007   2.478   0.818  14.640  0.2901  0.3832 -0.3745
 3183SOL    HW121008   2.491   0.723  14.642  3.3804  0.7506 -2.4285
 3183SOL    HW221009   2.566   0.852  14.649  0.4101 -0.5515  1.9369
 3184SOL     OW21010   1.710   3.824   8.250 -0.1098 -0.5033 -0.0374
 3184SOL    HW121011   1.625   3.858   8.277  0.7637  1.9868 -0.4274
 3184SOL    HW221012   1.736   3.791   8.336 -1.1745  1.1100  0.8943
 3185SOL     OW21013   0.579   4.629   2.886 -0.3919 -0.2389  0.4482
 3185SOL    HW121014   0.572   4.675   2.802 -1.2717  0.9827  1.1935
 3185SOL    HW221015   0.654   4.578   2.858 -0.4560 -0.4439  0.6537
 3186SOL     OW21016   0.484   3.723   2.335  0.7308 -0.3654  0.2623
 3186SOL    HW121017   0.395   3.739   2.303  0.3552 -1.3053  0.8040
 3186SOL    HW221018   0.515   3.650   2.282  1.5282  0.5211 -0.4780
 3187SOL     OW21019   2.964   2.526   4.850 -0.2085  0.0335  0.2637
 3187SOL    HW121020   2.876   2.562   4.858 -0.0036  0.5149  0.3782
 3187SOL    HW221021   3.010   2.608   4.871  0.7754 -0.4171 -0.1117
 3188SOL     OW21022   0.583   3.312   7.177 -0.5763  0.2167 -0.7108
 3188SOL    HW121023   0.573   3.260   7.097  4.0933  1.6231 -2.2039
 3188SOL    HW221024   0.646   3.378   7.149  0.5040 -0.5191 -0.0007
 3189SOL     OW21025   4.614   2.641   0.193  0.1181  0.2343 -0.0084
 3189SOL    HW121026   4.553   2.620   0.122  0.0089  0.1340  0.1146
 3189SOL    HW221027   4.557   2.695   0.248 -0.5167  0.9999 -1.4175
 3190SOL     OW21028   0.929   1.874  17.060 -0.1621 -0.2539  0.3230
 3190SOL    HW121029   0.995   1.880  17.129 -0.8812 -0.6041  1.0417
 3190SOL    HW221030   0.959   1.947  17.006  1.5817 -1.5295 -0.4541
 3191SOL     OW21031   2.480   4.549   7.736 -0.6351  0.2341  0.2069
 3191SOL    HW121032   2.402   4.496   7.755 -1.6295  2.0588  1.1450
 3191SOL    HW221033   2.437   4.634   7.738  1.1106  1.0131  3.0334
 3192SOL     OW21034   2.696   0.753  11.658  0.2199 -0.5028  0.0376
 3192SOL    HW121035   2.763   0.739  11.591  0.8259  0.0410  0.5259
 3192SOL    HW221036   2.621   0.783  11.606  0.8345  1.1632  0.1345
 3193SOL     OW21037   3.635   1.227   2.202 -0.1478  0.1554 -0.5002
 3193SOL    HW121038   3.651   1.146   2.250  0.5519  1.1682  0.9922
 3193SOL    HW221039   3.589   1.201   2.122 -0.8775 -3.8241  1.2288
 3194SOL     OW21040   0.733   2.239   2.894 -0.3843 -0.3448  0.4933
 3194SOL    HW121041   0.761   2.147   2.888  2.6072  0.7971 -2.5961
 3194SOL    HW221042   0.753   2.260   2.985 -0.6991  0.4330  0.3763
 3195SOL     OW21043   3.132   2.938   2.505  0.3353 -0.1797 -0.2319
 3195SOL    HW121044   3.142   2.899   2.592 -3.1560 -0.8213 -0.1079
 3195SOL    HW221045   3.113   3.028   2.531 -2.1214 -0.9761  0.7020
 3196SOL     OW21046   4.581   2.185   2.483  0.4643  0.7290  0.3130
 3196SOL    HW121047   4.598   2.273   2.450 -1.5319  0.8814 -0.3505
 3196SOL    HW221048   4.612   2.125   2.416 -1.1063  1.9924 -1.5494
 3197SOL     OW21049   2.468   3.126   1.750 -0.1224 -0.9011 -0.1025
 3197SOL    HW121050   2.544   3.157   1.798  0.6777 -4.1121  0.6469
 3197SOL    HW221051   2.411   3.203   1.741 -0.1442 -0.5793  2.8391
 3198SOL     OW21052   3.946   0.240   5.046 -0.1976 -0.1618  0.1605
 3198SOL    HW121053   3.892   0.287   5.110 -0.3949  0.8339 -0.7354
 3198SOL    HW221054   4.029   0.231   5.092  0.7918  0.0940 -1.5758
 3199SOL     OW21055   3.501   2.435  15.483  0.1373 -0.4753  0.1942
 3199SOL    HW121056   3.574   2.395  15.530  0.4996 -2.2505 -1.9168
 3199SOL    HW221057   3.546   2.498  15.427  0.4952 -0.9832 -0.0877
 3200SOL     OW21058   1.793   2.467   4.293  0.3141  0.7085  0.0095
 3200SOL    HW121059   1.774   2.384   4.337  0.0119  0.0521 -1.3504
 3200SOL    HW221060   1.704   2.482   4.260 -0.1673 -1.8550  0.1201
 3201SOL     OW21061   0.644   4.097   7.152  0.4297 -0.2745 -0.8009
 3201SOL    HW121062   0.725   4.148   7.155 -0.7599  1.4999  0.7318
 3201SOL    HW221063   0.601   4.138   7.227 -1.6526  0.2739 -2.3007
 3202SOL     OW21064   3.734   3.883   0.442 -0.2250 -0.9875 -0.5274
 3202SOL    HW121065   3.716   3.925   0.357 -2.7058  1.4138  1.1549
 3202SOL    HW221066   3.826   3.896   0.461 -0.3716 -1.6913  0.6491
 3203SOL     OW21067   0.495   1.944   6.539 -0.1292  0.1134  1.1210
 3203SOL    HW121068   0.544   1.876   6.585  0.4868 -1.3489 -1.6886
 3203SOL    HW221069   0.480   2.012   6.605 -1.4840  1.2787 -0.3841
 3204SOL     OW21070   3.084   0.833   8.044  0.8095 -0.1229 -0.3066
 3204SOL    HW121071   3.113   0.762   7.987 -0.5120  1.2244 -2.6645
 3204SOL    HW221072   3.164   0.885   8.049  0.4517  0.3630  0.3790
 3205SOL     OW21073   2.660   3.634   8.589 -0.5120 -0.4867 -0.0504
 3205SOL    HW121074   2.710   3.601   8.664  0.9285  1.3135 -0.2105
 3205SOL    HW221075   2.710   3.712   8.566 -0.7001  0.6089  3.2860
 3206SOL     OW21076   2.449   4.204   2.931 -0.0874  0.1419 -0.7780
 3206SOL    HW121077   2.357   4.183   2.914 -0.3903 -0.7845  2.0567
 3206SOL    HW221078   2.450   4.186   3.025 -1.7120 -0.7691 -0.9436
 3207SOL     OW21079   1.640   0.900   4.128  0.4111  0.1150  0.0963
 3207SOL    HW121080   1.716   0.857   4.167  0.0892  0.3287  0.9644
 3207SOL    HW221081   1.670   0.909   4.038  3.0642 -0.5728  0.9304
 3208SOL     OW21082   0.880   3.402   7.897  0.5470 -0.7097  0.2942
 3208SOL    HW121083   0.870   3.385   7.991  1.8376  0.1953  0.5894
 3208SOL    HW221084   0.849   3.322   7.855 -0.1750 -1.0963  1.5451
 3209SOL     OW21085   3.957   3.891  11.927  0.9910  0.3616 -0.4853
 3209SOL    HW121086   3.873   3.845  11.938  1.0198  0.2296 -0.8115
 3209SOL    HW221087   3.935   3.930  11.842  0.3642  2.7534  0.7743
 3210SOL     OW21088   2.883   3.852   0.334  0.7940 -0.3965 -0.5217
 3210SOL    HW121089   2.807   3.824   0.385 -1.5247  2.5652 -2.3475
 3210SOL    HW221090   2.862   3.938   0.297  0.8666 -0.7760 -1.4494
 3211SOL     OW21091   0.869   1.570   5.368  0.0164  0.3715  0.0771
 3211SOL    HW121092   0.801   1.542   5.430 -2.5358  0.7238 -2.5480
 3211SOL    HW221093   0.818   1.601   5.293 -0.5680 -0.4706  0.1304
 3212SOL     OW21094   4.529   4.244   6.757  0.1692  0.5748  0.2548
 3212SOL    HW121095   4.568   4.294   6.685  0.1565  2.4091  1.5281
 3212SOL    HW221096   4.568   4.157   6.749 -1.1007 -0.1244  1.5084
 3213SOL     OW21097   2.825   0.259   1.730 -0.3229  0.8152 -0.4028
 3213SOL    HW121098   2.731   0.244   1.720 -0.1966 -0.1059 -0.2484
 3213SOL    HW221099   2.828   0.330   1.794  1.4691  0.1715  0.2298
 3214SOL     OW21100   1.198   2.553   6.835  0.0116 -0.3967 -0.2013
 3214SOL    HW121101   1.227   2.618   6.899 -0.1763  0.4540 -0.9767
 3214SOL    HW221102   1.198   2.606   6.755  0.6580 -1.0222 -0.6129
 3215SOL     OW21103   1.849   0.757   7.605 -0.1814  0.2574 -0.1707
 3215SOL    HW121104   1.761   0.796   7.608  0.6851  2.1074  0.8874
 3215SOL    HW221105   1.825   0.671   7.571 -0.2843  0.5626 -0.8705
 3216SOL     OW21106   2.668   2.016   2.023 -0.3138  0.6874  0.6265
 3216SOL    HW121107   2.750   2.024   2.071  0.8413  1.2388 -1.4581
 3216SOL    HW221108   2.662   2.106   1.992  0.3319  0.2629 -0.7228
 3217SOL     OW21109   0.632   1.555   8.329  0.4910 -0.0381  0.1712
 3217SOL    HW121110   0.591   1.633   8.365 -0.9600 -0.3227 -0.8479
 3217SOL    HW221111   0.722   1.572   8.356 -0.4003  1.8659  1.9405
 3218SOL     OW21112   1.455   2.563   4.967  0.0313 -0.3037  0.3522
 3218SOL    HW121113   1.442   2.558   4.873  1.0516 -0.0417  0.2019
 3218SOL    HW221114   1.528   2.502   4.979  1.2490  0.7610 -1.6955
 3219SOL     OW21115   1.935   0.043   2.189 -0.8414 -0.1839  0.1203
 3219SOL    HW121116   1.978   4.707   2.127 -1.0339  0.7962 -0.9596
 3219SOL    HW221117   1.955   0.128   2.150  0.9622 -0.7695 -0.2337
 3220SOL     OW21118   2.281   1.331  11.356 -0.6992 -0.6523  0.6069
 3220SOL    HW121119   2.330   1.403  11.317 -1.2308 -0.9638 -0.6341
 3220SOL    HW221120   2.293   1.348  11.449  2.5831 -0.7677  0.1766
 3221SOL     OW21121   0.794   1.765   7.872 -0.1275  0.6602  0.7349
 3221SOL    HW121122   0.817   1.834   7.810  0.4138 -1.5577 -1.5348
 3221SOL    HW221123   0.710   1.736   7.837 -0.0231  0.1289  0.9290
 3222SOL     OW21124   0.728   2.583   5.412 -0.8881  0.1705  0.2688
 3222SOL    HW121125   0.684   2.638   5.477  1.4068  0.2847  1.7210
 3222SOL    HW221126   0.733   2.505   5.466  0.3072  0.2934  0.3432
 3223SOL     OW21127   2.569   3.412   0.672  0.0534 -0.2645  0.2906
 3223SOL    HW121128   2.494   3.382   0.620 -1.2321  2.0563  0.8197
 3223SOL    HW221129   2.627   3.455   0.610 -1.5491 -1.7622 -2.2641
 3224SOL     OW21130   4.476   4.007   2.796  0.0752 -0.3254  0.0956
 3224SOL    HW121131   4.449   3.988   2.706 -1.6806 -0.2610  0.5933
 3224SOL    HW221132   4.562   4.046   2.787 -0.3403  0.0620 -2.1154
 3225SOL     OW21133   0.952   2.114  15.975 -0.2142 -0.7339 -0.2338
 3225SOL    HW121134   0.999   2.131  15.893  0.8042 -0.5697  0.3910
 3225SOL    HW221135   0.929   2.023  15.957 -1.0769 -0.5042 -0.2598
 3226SOL     OW21136   0.163   3.518   0.976  0.1917  0.3639  0.0825
 3226SOL    HW121137   0.154   3.567   0.895 -1.9377  0.0390  0.1179
 3226SOL    HW221138   0.076   3.519   1.017 -0.4683 -1.5353 -1.3305
 3227SOL     OW21139   1.397   1.148   3.547  0.0378  0.0939  0.4406
 3227SOL    HW121140   1.477   1.198   3.526 -1.1286  1.9973  0.5484
 3227SOL    HW221141   1.437   1.062   3.564 -1.7735 -0.8326 -0.0166
 3228SOL     OW21142   0.578   2.073  14.634 -0.0857 -0.7540 -0.1219
 3228SOL    HW121143   0.490   2.095  14.604  0.2510 -1.1731 -1.4022
 3228SOL    HW221144   0.597   2.017  14.559  0.9114  1.4595 -1.5362
 3229SOL     OW21145   2.494   3.190   5.611  0.0999  0.1548 -0.0174
 3229SOL    HW121146   2.520   3.210   5.522 -1.7970  1.1432 -0.3547
 3229SOL    HW221147   2.577   3.159   5.646 -1.2395 -0.7992  2.3340
 3230SOL     OW21148   3.920   0.312   6.876  0.1743 -0.0890  0.1898
 3230SOL    HW121149   3.866   0.344   6.948  1.6345  1.5761  0.5497
 3230SOL    HW221150   3.908   0.386   6.816 -0.8732  2.5331  3.5845
 3231SOL     OW21151   1.978   0.241   6.014  0.6844  0.3768  0.1343
 3231SOL    HW121152   1.889   0.221   6.042  0.4946 -0.3975 -1.0229
 3231SOL    HW221153   1.959   0.315   5.957  1.6106  2.6165  2.7312
 3232SOL     OW21154   2.480   4.261   8.746  0.4236  0.3436  0.3987
 3232SOL    HW121155   2.528   4.321   8.803 -1.7291  0.8272  1.6777
 3232SOL    HW221156   2.540   4.252   8.672 -1.1823 -0.2570 -0.8381
 3233SOL     OW21157   1.719   3.275   6.832 -0.2653  0.5196  0.0429
 3233SOL    HW121158   1.747   3.263   6.923  1.6569 -3.5226 -1.0615
 3233SOL    HW221159   1.705   3.182   6.816  1.1287  0.6281 -1.7456
 3234SOL     OW21160   0.399   2.294  15.781 -0.4046 -0.1935  0.1068
 3234SOL    HW121161   0.359   2.236  15.717  2.6871  0.3205 -2.2888
 3234SOL    HW221162   0.384   2.378  15.739 -0.5267 -1.0888 -1.6423
 3235SOL     OW21163   3.950   3.297   6.931 -0.1393 -0.7042  0.7500
 3235SOL    HW121164   3.967   3.246   7.010  0.1769 -2.7458 -0.6011
 3235SOL    HW221165   4.016   3.254   6.876 -0.1841 -2.9678  2.4838
 3236SOL     OW21166   2.603   3.327   6.508  0.2463  0.3079  0.6648
 3236SOL    HW121167   2.619   3.233   6.499  1.6022  0.3949  2.0913
 3236SOL    HW221168   2.520   3.327   6.459  0.5971 -0.8880  0.0775
 3237SOL     OW21169   0.959   3.394   6.936  0.0420  0.1665  0.9481
 3237SOL    HW121170   1.007   3.314   6.957  1.9467  1.2337  0.6265
 3237SOL    HW221171   0.926   3.359   6.854  2.4020 -2.0077  0.9351
 3238SOL     OW21172   0.823   2.672   7.800 -0.3135  0.1312 -0.2998
 3238SOL    HW121173   0.912   2.700   7.821 -0.3966  1.3798 -1.6391
 3238SOL    HW221174   0.839   2.623   7.719 -1.7996  0.0133 -0.5133
 3239SOL     OW21175   2.100   2.410  12.852 -0.4477  0.5067  0.2873
 3239SOL    HW121176   2.127   2.319  12.852  1.1624  0.9730 -3.4190
 3239SOL    HW221177   2.148   2.447  12.926 -0.9822 -1.0569  1.3986
 3240SOL     OW21178   0.705   2.312  17.409 -0.0834 -0.0647 -0.8575
 3240SOL    HW121179   0.767   2.267  17.351  0.6702  0.6189 -0.5898
 3240SOL    HW221180   0.753   2.394  17.421  0.9834 -0.7466 -0.4493
 3241SOL     OW21181   2.204   4.719   8.951  0.2396 -0.5025  0.4894
 3241SOL    HW121182   2.286   4.718   8.902 -0.4078 -0.7744 -0.5973
 3241SOL    HW221183   2.197   0.086   8.980 -1.5325 -0.5885  0.3569
 3242SOL     OW21184   2.906   1.081  11.617  0.0508 -0.9198  0.0607
 3242SOL    HW121185   2.866   1.020  11.555 -2.2558  2.2443 -1.5381
 3242SOL    HW221186   2.842   1.152  11.620  0.2827 -0.7285  0.6630
 3243SOL     OW21187   2.120   2.207   2.041  0.1473  0.3575  0.1315
 3243SOL    HW121188   2.117   2.300   2.063  0.0891 -0.4916  3.6200
 3243SOL    HW221189   2.033   2.198   2.001  0.7723 -0.3108 -1.0775
 3244SOL     OW21190   1.434   2.042  12.136 -0.0208  0.1102  0.3521
 3244SOL    HW121191   1.492   1.980  12.093  0.2192  1.1140 -0.7802
 3244SOL    HW221192   1.414   2.016  12.226 -0.7077 -2.3478 -0.5382
 3245SOL     OW21193   0.892   2.187   3.635 -0.2118  0.1582 -0.3797
 3245SOL    HW121194   0.941   2.186   3.718  3.1877 -0.0179 -2.4065
 3245SOL    HW221195   0.820   2.125   3.645  0.4438 -0.8140 -1.7749
 3246SOL     OW21196   0.092   4.016  16.670  0.1171 -0.8297 -0.7135
 3246SOL    HW121197   0.100   4.071  16.748 -0.2886  0.4804 -1.6018
 3246SOL    HW221198   0.058   3.939  16.716  1.4433 -0.7288  0.4454
 3247SOL     OW21199   0.236   4.389  14.364  0.2335  0.5822  0.4397
 3247SOL    HW121200   0.235   4.337  14.284  0.2621 -2.3735  2.3818
 3247SOL    HW221201   0.205   4.477  14.339 -2.5021 -0.4714  0.0848
 3248SOL     OW21202   3.426   1.026   7.082 -0.1751  0.7071 -0.2066
 3248SOL    HW121203   3.407   0.939   7.118  0.8849  0.0938 -1.0928
 3248SOL    HW221204   3.397   1.084   7.151 -0.6396 -0.5687  0.6751
 3249SOL     OW21205   3.910   4.600   8.530 -0.4489 -0.3689 -0.0190
 3249SOL    HW121206   3.969   4.666   8.494  0.7607 -0.4690  1.7991
 3249SOL    HW221207   3.825   4.642   8.519 -0.3022 -0.3547 -1.1106
 3250SOL     OW21208   2.574   4.040   5.096  0.0563 -0.0629  0.0936
 3250SOL    HW121209   2.617   3.955   5.104  1.4529  0.5835 -0.6547
 3250SOL    HW221210   2.631   4.074   5.028  0.0987 -0.3729 -0.0252
 3251SOL     OW21211   4.296   2.468   3.224  0.0804 -0.2340  0.5069
 3251SOL    HW121212   4.386   2.473   3.190 -0.7832  1.6084 -1.5395
 3251SOL    HW221213   4.321   2.452   3.315  0.5350 -1.6386  0.1384
 3252SOL     OW21214   3.915   1.182   8.466 -0.4840  0.1880 -0.2960
 3252SOL    HW121215   4.010   1.175   8.456 -0.3894 -0.2840  1.0394
 3252SOL    HW221216   3.901   1.248   8.534 -0.3577  1.6434 -1.6682
 3253SOL     OW21217   2.307   1.564   3.746  0.8554  0.2923  0.0545
 3253SOL    HW121218   2.280   1.495   3.807  0.1043 -0.3600 -1.0093
 3253SOL    HW221219   2.400   1.576   3.764  0.9773  0.4905 -0.7033
 3254SOL     OW21220   2.560   1.722   3.613 -0.0087  0.0478 -0.6489
 3254SOL    HW121221   2.563   1.699   3.520 -1.9602  0.5461 -0.8469
 3254SOL    HW221222   2.493   1.791   3.609 -0.0739 -0.0714 -1.5384
 3255SOL     OW21223   1.619   2.953   5.216  0.1915  0.3211 -0.5615
 3255SOL    HW121224   1.543   2.896   5.228  0.5731  0.0272  0.5606
 3255SOL    HW221225   1.670   2.891   5.164 -0.7617 -1.6688  0.8664
 3256SOL     OW21226   4.370   1.131  12.917  0.4785  0.2712 -0.3697
 3256SOL    HW121227   4.369   1.064  12.985  0.7240 -1.7648 -2.3721
 3256SOL    HW221228   4.279   1.155  12.898 -0.3112 -1.4309  1.2688
 3257SOL     OW21229   1.927   3.961   7.806 -0.1125 -0.3377 -0.3722
 3257SOL    HW121230   1.986   3.998   7.872 -2.5118  1.4237  0.8025
 3257SOL    HW221231   1.906   3.872   7.834 -1.8478  0.4653  0.8763
 3258SOL     OW21232   4.260   0.039  14.320 -0.5720  0.9155 -0.1160
 3258SOL    HW121233   4.192   0.053  14.254 -0.3679  0.2041 -0.4843
 3258SOL    HW221234   4.205   0.029  14.398 -0.2887  0.1220 -0.0201
 3259SOL     OW21235   1.616   0.064   7.727  0.3102  0.7904  0.1555
 3259SOL    HW121236   1.632   0.104   7.642  0.2572 -0.8078 -0.6049
 3259SOL    HW221237   1.569   4.707   7.708  3.1826 -0.6018 -0.9219
 3260SOL     OW21238   0.299   3.375   2.709  0.1123  0.0672  0.9544
 3260SOL    HW121239   0.370   3.426   2.668  0.9258 -1.1400  0.8833
 3260SOL    HW221240   0.251   3.342   2.633  2.4178 -1.5428  0.2120
 3261SOL     OW21241   0.857   1.221   3.482  0.0814 -0.2327  0.2725
 3261SOL    HW121242   0.943   1.243   3.445 -0.6666 -1.7040 -2.3048
 3261SOL    HW221243   0.870   1.253   3.572  0.5527  0.1814  0.0577
 3262SOL     OW21244   0.404   1.894   3.072  0.0942  0.2618 -0.3837
 3262SOL    HW121245   0.390   1.892   3.166 -1.2568  4.6303 -0.4512
 3262SOL    HW221246   0.498   1.874   3.070 -0.0376 -0.2067 -1.6564
 3263SOL     OW21247   1.984   1.165   6.532 -0.0855  0.3345 -0.1697
 3263SOL    HW121248   2.000   1.188   6.440 -0.0025 -0.2304 -0.2973
 3263SOL    HW221249   2.004   1.249   6.573 -1.9378 -0.0869  1.5840
 3264SOL     OW21250   2.497   4.205   4.525  0.6352 -0.6954 -0.5162
 3264SOL    HW121251   2.439   4.181   4.597 -0.2188 -1.2964 -1.3952
 3264SOL    HW221252   2.483   4.131   4.465  2.4956 -2.5280  1.3022
 3265SOL     OW21253   1.038   1.631   9.096  0.4738 -0.5663  0.5061
 3265SOL    HW121254   1.076   1.587   9.020 -1.7630  0.0490 -0.9955
 3265SOL    HW221255   1.082   1.579   9.162  0.7129 -1.4902 -0.3770
 3266SOL     OW21256   3.687   3.339  12.858 -0.0291  0.1328 -0.3443
 3266SOL    HW121257   3.752   3.356  12.790  0.6362 -0.0704  0.2460
 3266SOL    HW221258   3.736   3.389  12.923  0.6587 -0.6712 -0.2461
 3267SOL     OW21259   3.475   3.689   6.004 -0.4161 -0.2536 -0.0975
 3267SOL    HW121260   3.556   3.725   6.039  0.2429 -1.2666 -0.5705
 3267SOL    HW221261   3.420   3.767   6.009  0.3262  0.4517 -3.1293
 3268SOL     OW21262   1.302   3.952   3.503 -0.6899  0.2619  0.3301
 3268SOL    HW121263   1.378   3.896   3.517  0.8453  1.6191 -2.6954
 3268SOL    HW221264   1.349   4.031   3.477  0.4126 -0.8373 -1.0331
 3269SOL     OW21265   3.649   1.532   4.718 -0.0362 -0.1169 -0.1190
 3269SOL    HW121266   3.599   1.450   4.714  0.3901 -0.3258 -1.1803
 3269SOL    HW221267   3.715   1.512   4.784 -1.2164  0.0585  1.1136
 3270SOL     OW21268   3.958   2.876  15.295 -0.5657 -0.9324  0.1064
 3270SOL    HW121269   3.914   2.923  15.224 -1.6403 -1.3412  0.5017
 3270SOL    HW221270   3.943   2.932  15.371  0.3401  1.3078 -1.3409
 3271SOL     OW21271   2.261   3.204  13.324 -0.2249  0.1724  0.6347
 3271SOL    HW121272   2.219   3.264  13.385  1.0451  0.9336  0.7473
 3271SOL    HW221273   2.226   3.120  13.355  0.5769 -0.3067  0.2318
 3272SOL     OW21274   0.678   2.606   2.523 -0.0209  0.5469  0.1772
 3272SOL    HW121275   0.649   2.529   2.572 -3.2705  1.1294 -0.7686
 3272SOL    HW221276   0.759   2.565   2.493  0.7411  0.6939  2.0731
 3273SOL     OW21277   3.829   4.051  14.551  0.6868 -0.8271 -0.7285
 3273SOL    HW121278   3.885   4.001  14.491  1.9283  1.1339 -1.2138
 3273SOL    HW221279   3.771   3.983  14.584  1.1150 -0.3027  1.1060
 3274SOL     OW21280   2.644   3.442  13.861  0.0589 -0.2352  0.2194
 3274SOL    HW121281   2.668   3.478  13.946 -1.0675 -2.2017  1.3821
 3274SOL    HW221282   2.617   3.352  13.883 -1.4263  0.1923  0.1297
 3275SOL     OW21283   4.410   1.605  10.891  0.1580  0.0261 -0.1236
 3275SOL    HW121284   4.470   1.587  10.819 -0.2525 -0.4631 -0.3379
 3275SOL    HW221285   4.330   1.585  10.844 -0.6111  0.6369  0.9338
 3276SOL     OW21286   4.026   0.799   6.420 -0.2771  0.0116  0.5524
 3276SOL    HW121287   4.096   0.815   6.356  0.4667 -0.9490  1.1173
 3276SOL    HW221288   4.037   0.871   6.482 -3.0346  1.7770 -1.0217
 3277SOL     OW21289   2.405   1.055   7.756 -0.0572  0.5412  0.0285
 3277SOL    HW121290   2.325   1.062   7.704  0.0273 -0.4887 -0.2327
 3277SOL    HW221291   2.470   1.019   7.695 -0.3994  0.9271 -0.5736
 3278SOL     OW21292   2.095   0.842   4.706  0.8679  0.2346 -0.6536
 3278SOL    HW121293   2.091   0.800   4.792  0.9707  0.8502 -0.3508
 3278SOL    HW221294   2.086   0.762   4.654 -2.0920 -0.2816  0.6652
 3279SOL     OW21295   2.471   1.975   9.149 -0.2805 -0.1704  0.1066
 3279SOL    HW121296   2.523   2.035   9.095  1.9695  0.9435  3.5924
 3279SOL    HW221297   2.407   2.036   9.186  0.2198  0.9696 -0.8895
 3280SOL     OW21298   1.671   2.871   8.526 -0.1805  0.2397  0.5984
 3280SOL    HW121299   1.609   2.912   8.465 -2.5071 -0.8076  2.2701
 3280SOL    HW221300   1.627   2.886   8.609 -1.1534  1.9562 -0.2237
 3281SOL     OW21301   4.505   3.178  17.588 -0.3286  0.3945  0.3721
 3281SOL    HW121302   4.534   3.169  17.497 -2.8226 -1.6246 -0.2367
 3281SOL    HW221303   4.582   3.220  17.627  0.5039 -0.0733 -0.7614
 3282SOL     OW21304   3.783   3.663  14.134  0.0914  0.4025  1.1504
 3282SOL    HW121305   3.706   3.720  14.132  0.2661  0.6456  1.3510
 3282SOL    HW221306   3.856   3.716  14.103  0.3847 -0.4381  0.4095
 3283SOL     OW21307   2.522   1.369   7.023 -0.5811  0.1933  0.9149
 3283SOL    HW121308   2.544   1.385   6.932  0.2234 -0.5622  0.9684
 3283SOL    HW221309   2.549   1.453   7.058  0.6595 -0.0650  0.5531
 3284SOL     OW21310   0.133   4.654   0.748  0.2033 -0.6324 -0.2213
 3284SOL    HW121311   0.058   4.625   0.801  0.8995 -1.7652  0.1374
 3284SOL    HW221312   0.209   4.618   0.795  0.5051  0.9267  0.5056
 3285SOL     OW21313   4.112   3.503   1.636  0.1744  0.0730  0.4302
 3285SOL    HW121314   4.208   3.505   1.645  0.3832  0.3871 -1.9683
 3285SOL    HW221315   4.091   3.503   1.730  1.0764 -0.7719  0.6298
 3286SOL     OW21316   3.553   4.101   5.327 -0.5289 -0.4060 -0.0095
 3286SOL    HW121317   3.493   4.172   5.304  0.3008  0.2474 -0.1436
 3286SOL    HW221318   3.492   4.027   5.328  0.4952 -1.2289  0.7368
 3287SOL     OW21319   0.612   0.966   1.451  0.2853  0.3108 -0.2236
 3287SOL    HW121320   0.684   0.926   1.500  0.4122  0.9903  0.1484
 3287SOL    HW221321   0.568   0.992   1.532 -3.2235  0.6756 -2.2329
 3288SOL     OW21322   2.053   3.202   5.440  0.3897 -0.6037 -0.3765
 3288SOL    HW121323   2.122   3.151   5.483  0.3134 -0.2520  0.1661
 3288SOL    HW221324   1.997   3.135   5.400 -1.5012 -0.0244  1.2704
 3289SOL     OW21325   3.999   2.452   3.933  0.4217  0.2120 -0.6427
 3289SOL    HW121326   4.083   2.407   3.919 -0.0300 -0.8227 -0.0532
 3289SOL    HW221327   3.957   2.366   3.942  0.3028  0.3865  0.4478
 3290SOL     OW21328   2.428   0.849   5.614 -0.1958  0.0466  0.0303
 3290SOL    HW121329   2.366   0.775   5.616  0.7813 -0.7866 -0.2283
 3290SOL    HW221330   2.480   0.821   5.539 -0.7860  0.2185 -0.4465
 3291SOL     OW21331   0.390   2.567   4.532  0.9656 -0.5603  0.3082
 3291SOL    HW121332   0.302   2.550   4.564  2.0500 -2.0478  2.4476
 3291SOL    HW221333   0.380   2.561   4.437  0.2021  1.3157  0.2782
 3292SOL     OW21334   0.035   2.019   3.081  0.0599 -0.2400  0.6104
 3292SOL    HW121335   4.670   2.052   3.097  1.1017  3.1986 -0.7275
 3292SOL    HW221336   0.062   2.077   3.010  0.5928 -0.2601  0.7981
 3293SOL     OW21337   2.652   3.612  11.564 -0.1346  0.3031 -0.3301
 3293SOL    HW121338   2.682   3.696  11.597 -0.0606  0.9003 -1.8965
 3293SOL    HW221339   2.590   3.587  11.632  1.5257  3.0880  2.2158
 3294SOL     OW21340   0.755   2.446   4.173 -0.1108  0.3758 -0.1963
 3294SOL    HW121341   0.750   2.451   4.268  0.6254  1.0093 -0.1872
 3294SOL    HW221342   0.723   2.535   4.157 -1.6418 -0.3541 -1.1402
 3295SOL     OW21343   3.942   2.286   4.785  0.2993 -0.0049 -0.2119
 3295SOL    HW121344   3.933   2.216   4.721  0.6578 -0.5810  0.3753
 3295SOL    HW221345   4.023   2.334   4.768  1.2744 -0.9591  1.8089
 3296SOL     OW21346   0.833   1.739   5.834  0.1109 -0.1204 -0.0727
 3296SOL    HW121347   0.898   1.721   5.766  0.7679 -1.0983  0.8066
 3296SOL    HW221348   0.792   1.818   5.800 -1.3194 -0.7759  0.1510
 3297SOL     OW21349   3.995   2.042   2.975  0.6051  0.2237 -0.1375
 3297SOL    HW121350   4.019   2.064   2.886 -0.5709 -2.7474 -1.1872
 3297SOL    HW221351   4.068   2.074   3.027  0.5920 -0.7442  0.4850
 3298SOL     OW21352   3.076   1.222   6.632 -0.4353 -0.2327 -0.6550
 3298SOL    HW121353   3.101   1.195   6.720 -1.4779  3.1610  0.6758
 3298SOL    HW221354   3.063   1.317   6.635 -2.1617 -0.5205  1.3958
 3299SOL     OW21355   1.649   1.258  12.082  0.5312 -0.8694  0.1135
 3299SOL    HW121356   1.565   1.219  12.057  0.5939 -2.8268  3.0231
 3299SOL    HW221357   1.677   1.317  12.012 -1.4647 -2.1106 -1.7240
 3300SOL     OW21358   1.649   3.824   7.269 -0.2872  0.9324  0.3570
 3300SOL    HW121359   1.720   3.796   7.326  1.3863  4.4663  0.0263
 3300SOL    HW221360   1.661   3.762   7.198 -0.1409 -0.8673  1.9677
 3301SOL     OW21361   1.937   2.198   8.885  0.1077  0.0722 -0.0588
 3301SOL    HW121362   1.954   2.220   8.976 -1.8679 -0.0959  0.3364
 3301SOL    HW221363   2.014   2.144   8.864  0.1565 -0.2917  1.0600
 3302SOL     OW21364   0.809   4.084  17.598  0.3094  0.0246 -0.6235
 3302SOL    HW121365   0.849   4.018  17.655  0.1164 -0.4034 -0.9720
 3302SOL    HW221366   0.823   4.158  17.656  4.1105 -0.9597 -0.2613
 3303SOL     OW21367   3.706   0.982   2.332  0.3513 -0.2585  0.5784
 3303SOL    HW121368   3.794   0.954   2.356 -0.2887 -2.2506  0.5620
 3303SOL    HW221369   3.657   0.983   2.414  2.5644 -2.6667  1.9143
 3304SOL     OW21370   2.680   1.041  17.586 -0.2641  0.0715 -0.1651
 3304SOL    HW121371   2.675   1.030  17.491 -2.6799 -0.4823  0.0255
 3304SOL    HW221372   2.667   1.135  17.591  1.3624  0.2418  0.7420
 3305SOL     OW21373   1.054   2.082   6.812  0.1130 -0.1538 -0.4951
 3305SOL    HW121374   0.971   2.074   6.766  0.0237 -2.3774  0.0443
 3305SOL    HW221375   1.088   2.162   6.773 -0.7048 -0.4694 -1.8546
 3306SOL     OW21376   2.342   3.280  10.197  0.3112  0.0158 -0.4096
 3306SOL    HW121377   2.309   3.219  10.132  1.2791 -1.4945  0.5250
 3306SOL    HW221378   2.396   3.224  10.254 -1.4721 -0.0639  1.1999
 3307SOL     OW21379   1.564   4.181  13.016  0.3757 -0.5191 -0.3825
 3307SOL    HW121380   1.645   4.156  13.060  0.4158  2.2342  1.1087
 3307SOL    HW221381   1.558   4.128  12.937 -2.2540 -0.5096 -0.2080
 3308SOL     OW21382   0.382   4.536   3.607 -0.4504  0.1649 -0.4752
 3308SOL    HW121383   0.300   4.524   3.656  1.0002 -0.7942  1.6923
 3308SOL    HW221384   0.444   4.484   3.657  0.3934  0.0200 -1.6666
 3309SOL     OW21385   4.308   2.147   1.392 -0.2035  0.5944 -0.0190
 3309SOL    HW121386   4.248   2.136   1.318  0.2642  1.3438 -0.5065
 3309SOL    HW221387   4.358   2.066   1.385 -2.1219 -0.3377 -2.9706
 3310SOL     OW21388   0.017   2.180   5.438 -0.5658 -0.2138  0.2842
 3310SOL    HW121389   0.005   2.208   5.529 -3.0002  2.9541 -1.0245
 3310SOL    HW221390   4.656   2.139   5.419 -0.6389  0.0245  0.1093
 3311SOL     OW21391   4.373   1.476   4.034 -0.4964 -0.0119 -0.9820
 3311SOL    HW121392   4.451   1.528   4.013 -0.8624  0.7640 -0.4219
 3311SOL    HW221393   4.314   1.500   3.962 -0.1258 -0.7436 -1.5346
 3312SOL     OW21394   1.813   3.561  11.280  0.5257 -0.3041 -0.5226
 3312SOL    HW121395   1.866   3.483  11.298 -0.0217 -0.4950  0.2452
 3312SOL    HW221396   1.816   3.556  11.185 -0.1470 -0.0745 -0.5557
 3313SOL     OW21397   1.030   0.762  16.034  0.3534 -0.3045 -0.1290
 3313SOL    HW121398   1.053   0.752  15.941 -0.9239  0.3827 -0.5247
 3313SOL    HW221399   0.946   0.808  16.028 -1.0430 -2.9317 -0.6521
 3314SOL     OW21400   4.636   2.052   4.725  0.2304 -0.6315 -0.7204
 3314SOL    HW121401   4.722   2.084   4.696 -0.4625  2.1245  0.2579
 3314SOL    HW221402   4.596   2.137   4.705 -0.6678 -0.7017  0.7556
 3315SOL     OW21403   4.688   4.262   7.819  0.3312  0.2758 -0.2212
 3315SOL    HW121404   4.627   4.202   7.862 -0.6148 -0.2064 -2.2338
 3315SOL    HW221405   4.688   4.216   7.735 -0.1845  0.3269 -0.2492
 3316SOL     OW21406   3.679   2.690  10.674  0.1834 -0.6158  0.4198
 3316SOL    HW121407   3.771   2.708  10.689 -0.1841  1.1047  0.6114
 3316SOL    HW221408   3.662   2.634  10.749 -1.7961 -0.7417 -0.1248
 3317SOL     OW21409   1.088   0.560   8.562 -0.0473  0.1598 -0.0324
 3317SOL    HW121410   1.079   0.627   8.495  0.2134  0.9907  0.7665
 3317SOL    HW221411   0.999   0.528   8.576 -0.4005  0.3264 -1.9284
 3318SOL     OW21412   1.360   1.504  12.688  0.4625  0.3496  0.3389
 3318SOL    HW121413   1.337   1.569  12.754 -0.9545  1.3710 -1.1517
 3318SOL    HW221414   1.275   1.492  12.646  0.2818 -0.9663  1.0980
 3319SOL     OW21415   4.233   0.122   2.485  0.1933  0.1017 -0.3070
 3319SOL    HW121416   4.326   0.102   2.473 -0.5214 -2.1310 -2.4487
 3319SOL    HW221417   4.232   0.147   2.577  1.9265  1.8583 -0.7873
 3320SOL     OW21418   3.139   0.555   4.522  0.2294  0.0510  0.2494
 3320SOL    HW121419   3.190   0.589   4.449 -1.2423 -1.2637 -1.3977
 3320SOL    HW221420   3.133   0.637   4.570  0.7755 -0.7710  1.7221
 3321SOL     OW21421   2.530   4.015   7.141 -0.1193 -0.0977  0.7722
 3321SOL    HW121422   2.483   3.932   7.147  1.4101 -0.9879  0.5173
 3321SOL    HW221423   2.525   4.037   7.234 -0.5008 -1.0978  0.9864
 3322SOL     OW21424   4.437   2.464   8.862  0.1716  0.3556 -0.1589
 3322SOL    HW121425   4.379   2.449   8.787  0.5291  2.1123 -0.7954
 3322SOL    HW221426   4.388   2.410   8.924 -0.0864  0.6364 -0.1163
 3323SOL     OW21427   4.568   3.847   4.086  0.3150 -0.2485  0.7926
 3323SOL    HW121428   4.570   3.940   4.108  3.4093 -0.2132  0.3787
 3323SOL    HW221429   4.647   3.810   4.126  0.0621 -0.2645  1.2749
 3324SOL     OW21430   4.450   1.460   0.028  0.0379 -0.1780 -0.2391
 3324SOL    HW121431   4.430   1.366   0.035 -2.4987  0.3131 -1.0083
 3324SOL    HW221432   4.388   1.483  17.656 -0.2187 -0.7112 -0.1877
 3325SOL     OW21433   2.672   4.173   7.513  0.5996  0.1523  0.3077
 3325SOL    HW121434   2.633   4.135   7.591 -1.2419  2.9313  0.7282
 3325SOL    HW221435   2.604   4.161   7.447 -0.3315 -1.9274  1.6737
 3326SOL     OW21436   2.397   0.509   6.563  0.3305 -0.4287 -0.2902
 3326SOL    HW121437   2.394   0.442   6.496 -0.1859 -0.3278 -0.3694
 3326SOL    HW221438   2.487   0.542   6.561  1.0427 -2.4765 -1.5486
 3327SOL     OW21439   2.108   3.822   5.671 -0.2643  0.5876 -0.3134
 3327SOL    HW121440   2.038   3.839   5.608 -0.2400  1.5057 -0.0806
 3327SOL    HW221441   2.095   3.896   5.729 -0.9700 -1.1773  1.7978
 3328SOL     OW21442   0.874   3.161  14.764 -0.2529  0.3053  0.1130
 3328SOL    HW121443   0.962   3.197  14.759  0.2787 -0.6870  2.5680
 3328SOL    HW221444   0.828   3.244  14.773  0.6154  0.7315  0.5757
 3329SOL     OW21445   2.653   1.157   9.333 -0.0129  0.3907  0.5069
 3329SOL    HW121446   2.734   1.209   9.339  0.3259 -0.1408  0.5421
 3329SOL    HW221447   2.602   1.170   9.253  0.7066 -0.2483 -0.0565
 3330SOL     OW21448   4.218   2.284   0.350  0.5590 -0.0898 -0.2392
 3330SOL    HW121449   4.165   2.262   0.426 -2.3687 -1.8954 -2.8129
 3330SOL    HW221450   4.204   2.379   0.346  0.4166 -0.0980  0.0252
 3331SOL     OW21451   2.037   2.154  10.053 -0.0022  0.6715  0.3101
 3331SOL    HW121452   2.067   2.190   9.969 -0.7240  1.4509  0.3882
 3331SOL    HW221453   2.118   2.166  10.104  0.3293  0.1828 -0.1044
 3332SOL     OW21454   1.860   1.025   9.040  0.0759  0.8989 -0.2204
 3332SOL    HW121455   1.901   0.998   9.122  2.6043  0.9971 -1.4587
 3332SOL    HW221456   1.772   1.012   9.076 -1.1216  2.3998 -2.6308
 3333SOL     OW21457   4.305   2.782   6.218  0.1709 -0.2309 -0.5140
 3333SOL    HW121458   4.335   2.703   6.172  0.4464  1.0893 -2.6217
 3333SOL    HW221459   4.306   2.839   6.141 -0.7017 -0.9461 -1.0666
 3334SOL     OW21460   3.841   2.351  10.232  0.5807 -0.2837 -0.1295
 3334SOL    HW121461   3.847   2.376  10.324 -3.4447  0.8515 -0.1404
 3334SOL    HW221462   3.932   2.358  10.205  0.9753 -2.3653  0.6546
 3335SOL     OW21463   0.105   2.334   5.048 -0.0800  0.1062  0.0150
 3335SOL    HW121464   0.158   2.254   5.046 -1.6713 -0.9140 -0.8960
 3335SOL    HW221465   0.167   2.407   5.048 -1.3882  1.2122 -0.3562
 3336SOL     OW21466   1.992   0.448   0.723  0.1962 -0.3467 -0.2827
 3336SOL    HW121467   1.954   0.482   0.641  2.1262 -1.4363 -1.6217
 3336SOL    HW221468   2.082   0.480   0.713  0.4960 -1.3823 -0.8636
 3337SOL     OW21469   2.751   2.782   3.281  0.4588 -0.3579 -0.0256
 3337SOL    HW121470   2.822   2.752   3.223  1.3592  2.5832 -0.4140
 3337SOL    HW221471   2.758   2.716   3.351 -0.6442  1.6870  1.9998
 3338SOL     OW21472   0.335   0.581  15.576 -0.4686  0.2916 -0.1145
 3338SOL    HW121473   0.401   0.585  15.507  1.5084 -0.0365  1.7673
 3338SOL    HW221474   0.376   0.635  15.644 -1.5882  1.4333 -0.3363
 3339SOL     OW21475   3.483   4.699   8.491 -0.8325 -0.3475 -0.7366
 3339SOL    HW121476   3.573   4.709   8.459 -0.1654 -0.5709  1.0668
 3339SOL    HW221477   3.499   4.715   8.584 -2.0440  0.4396 -0.6687
 3340SOL     OW21478   0.122   3.943   3.471 -0.6666 -0.1244  0.0936
 3340SOL    HW121479   0.102   4.021   3.418 -0.0595  0.8748  1.3502
 3340SOL    HW221480   0.070   3.879   3.423  0.2327  0.4036 -1.5890
 3341SOL     OW21481   3.598   4.214  13.232  0.6776 -0.3070  0.0052
 3341SOL    HW121482   3.591   4.144  13.167 -0.7627 -0.9707  0.8670
 3341SOL    HW221483   3.548   4.168  13.300  2.0320 -1.3957  0.2576
 3342SOL     OW21484   2.973   2.015   0.496  0.9159  0.6170  0.0434
 3342SOL    HW121485   3.060   2.028   0.535 -0.3598  1.2735  2.6334
 3342SOL    HW221486   2.917   2.048   0.566 -0.9973 -2.0088 -0.2240
 3343SOL     OW21487   2.329   2.047   7.591  0.6242 -0.2162 -0.0531
 3343SOL    HW121488   2.416   2.069   7.624  0.1762  0.5764  0.6070
 3343SOL    HW221489   2.298   1.992   7.664 -0.9163  0.2148 -0.3843
 3344SOL     OW21490   3.377   0.080   2.289 -0.1010 -0.1255 -0.5506
 3344SOL    HW121491   3.311   0.077   2.358 -0.0775  3.5342 -0.3902
 3344SOL    HW221492   3.345   0.139   2.221 -0.6802 -0.9256 -0.9750
 3345SOL     OW21493   3.157   3.308  15.525 -0.0333  0.3774  0.1072
 3345SOL    HW121494   3.064   3.326  15.540 -0.2901 -1.0499  0.2157
 3345SOL    HW221495   3.158   3.272  15.437 -2.2024 -3.0486  1.4783
 3346SOL     OW21496   0.734   0.179   9.223  0.2111 -0.5715  0.3594
 3346SOL    HW121497   0.745   0.211   9.134 -0.4780 -2.9304 -0.5885
 3346SOL    HW221498   0.769   0.091   9.211 -0.8319 -0.7896 -1.0999
 3347SOL     OW21499   2.828   1.209   8.263 -0.5172  0.1953  0.0161
 3347SOL    HW121500   2.832   1.226   8.169  2.2404 -0.1283  0.0726
 3347SOL    HW221501   2.791   1.291   8.295 -0.1375  1.5360 -2.9369
 3348SOL     OW21502   3.058   4.317   5.542 -0.4295 -0.1559  0.4328
 3348SOL    HW121503   2.987   4.259   5.569  0.0207 -1.7225 -1.6502
 3348SOL    HW221504   3.131   4.294   5.599  0.0192  0.1528 -0.0152
 3349SOL     OW21505   4.381   1.676   2.321 -0.8746  0.2696  0.1211
 3349SOL    HW121506   4.352   1.754   2.368  0.0776  0.0089  1.1396
 3349SOL    HW221507   4.308   1.617   2.340  0.4615 -1.6431 -0.7486
 3350SOL     OW21508   3.850   0.647  15.648 -0.2828  0.1596  0.3470
 3350SOL    HW121509   3.915   0.597  15.697 -0.5426  0.3141  0.8517
 3350SOL    HW221510   3.780   0.661  15.712  1.4292 -0.8640  2.4035
 3351SOL     OW21511   0.566   3.760   7.334  0.3242  0.5257 -0.4248
 3351SOL    HW121512   0.545   3.790   7.245  0.0711 -2.3300 -1.3351
 3351SOL    HW221513   0.526   3.673   7.335  0.3788  0.5416  1.6151
 3352SOL     OW21514   1.408   0.380  10.908 -0.5334 -0.2419 -0.3022
 3352SOL    HW121515   1.369   0.315  10.967 -0.8682 -0.1140 -0.3802
 3352SOL    HW221516   1.429   0.453  10.966 -0.2600 -0.9383  0.4818
 3353SOL     OW21517   4.518   0.298   6.682  0.1332  0.0400 -0.0413
 3353SOL    HW121518   4.485   0.369   6.627  0.8481  1.2368  1.0611
 3353SOL    HW221519   4.562   0.344   6.754  1.0491 -2.1347  0.8069
 3354SOL     OW21520   4.502   2.649  16.710 -0.4918  0.3340 -0.2650
 3354SOL    HW121521   4.574   2.597  16.746  0.2993  0.0823 -2.2580
 3354SOL    HW221522   4.430   2.586  16.715 -0.7267  0.6151 -0.0903
 3355SOL     OW21523   3.208   2.438  14.991 -0.1148  0.1165 -0.3801
 3355SOL    HW121524   3.234   2.401  15.075  3.5089  0.3890 -1.3627
 3355SOL    HW221525   3.120   2.465  15.014  0.4717  0.5747  1.3085
 3356SOL     OW21526   1.809   3.312   3.951  0.2989 -0.1471 -0.3472
 3356SOL    HW121527   1.744   3.376   3.922  0.0884  0.0688  0.6046
 3356SOL    HW221528   1.784   3.240   3.892 -2.3052  0.6783 -0.2619
 3357SOL     OW21529   3.823   4.155   0.713 -0.2108  0.6159  0.4910
 3357SOL    HW121530   3.869   4.085   0.666  0.6587 -0.6006  3.1433
 3357SOL    HW221531   3.831   4.225   0.648  0.6861 -0.1609 -0.2427
 3358SOL     OW21532   4.322   4.701   9.188 -0.0393 -0.1859 -0.1837
 3358SOL    HW121533   4.324   4.629   9.125  0.9298 -1.7362  1.6264
 3358SOL    HW221534   4.296   4.657   9.269 -1.3192  1.7930  0.4903
 3359SOL     OW21535   3.808   2.890  13.450  0.0685 -0.1640  0.3858
 3359SOL    HW121536   3.836   2.870  13.540 -1.8021 -2.6901  0.4094
 3359SOL    HW221537   3.713   2.885  13.447  0.2346 -1.8501 -2.2648
 3360SOL     OW21538   0.040   3.457   4.740  0.2276  0.1489  0.3002
 3360SOL    HW121539   0.108   3.412   4.690  0.0406 -0.6430  0.7685
 3360SOL    HW221540   0.042   3.427   4.831 -1.2056 -0.3293  0.1593
 3361SOL     OW21541   4.255   0.759   6.658  0.1117  0.6495 -0.8600
 3361SOL    HW121542   4.290   0.842   6.628  0.2175  0.8933 -0.0800
 3361SOL    HW221543   4.166   0.772   6.624 -0.1952  1.3169  0.2017
 3362SOL     OW21544   3.133   2.668   4.564  0.4050  0.8352 -0.3462
 3362SOL    HW121545   3.104   2.596   4.509  2.0712  1.3797 -1.9723
 3362SOL    HW221546   3.178   2.609   4.625 -0.2601 -0.4686 -1.1292
 3363SOL     OW21547   2.013   1.975   3.553  0.4191  0.4332  0.5238
 3363SOL    HW121548   2.067   1.897   3.552 -1.1843 -0.6707 -0.1139
 3363SOL    HW221549   1.928   1.934   3.568  0.6638 -0.0077  0.6947
 3364SOL     OW21550   1.387   2.694   2.354 -0.0559  0.1269 -0.8236
 3364SOL    HW121551   1.349   2.661   2.435  0.3077  1.1398 -0.2521
 3364SOL    HW221552   1.456   2.633   2.329  2.2794  2.3695  0.2247
 3365SOL     OW21553   0.938   0.817   1.208  0.0975  0.8626  0.0157
 3365SOL    HW121554   0.875   0.884   1.182 -0.6784 -0.1115 -0.6370
 3365SOL    HW221555   0.877   0.743   1.210 -1.3635  2.0758 -0.1503
 3366SOL     OW21556   0.549   4.113  12.284 -0.0575 -0.2169 -0.0074
 3366SOL    HW121557   0.588   4.031  12.314 -0.7627  0.6071  3.1689
 3366SOL    HW221558   0.559   4.157  12.368  1.4785  1.2078 -0.9401
 3367SOL     OW21559   1.312   3.534   2.530 -0.1062 -0.0243 -0.0858
 3367SOL    HW121560   1.308   3.497   2.619 -0.8276 -0.0780 -0.1466
 3367SOL    HW221561   1.273   3.462   2.481 -0.5471 -1.2261  1.9931
 3368SOL     OW21562   4.212   1.651   5.032  0.0799 -0.2622 -0.0943
 3368SOL    HW121563   4.293   1.601   5.023  0.4123  0.2548  0.0581
 3368SOL    HW221564   4.190   1.658   4.939 -0.5862 -1.7541 -0.0548
 3369SOL     OW21565   0.149   1.254   4.731 -0.4149  0.6299 -0.2959
 3369SOL    HW121566   0.108   1.334   4.763  0.2156  1.6012 -1.8905
 3369SOL    HW221567   0.232   1.286   4.695 -0.2032 -0.0835 -0.4507
 3370SOL     OW21568   2.931   1.704   6.620  0.0209 -0.3329 -0.3091
 3370SOL    HW121569   3.022   1.731   6.633  0.1398  0.0897 -1.9355
 3370SOL    HW221570   2.880   1.779   6.651 -1.8366 -0.9163 -1.9205
 3371SOL     OW21571   0.426   3.423   3.661 -0.2664 -0.0984  0.8016
 3371SOL    HW121572   0.519   3.444   3.650 -1.4712  3.3988 -2.5275
 3371SOL    HW221573   0.422   3.399   3.754 -1.5563 -1.2887  0.4425
 3372SOL     OW21574   0.763   3.975  10.249  0.3440  1.1705  0.4855
 3372SOL    HW121575   0.833   4.041  10.251  0.9557  0.5993 -2.2895
 3372SOL    HW221576   0.803   3.910  10.307  0.3735  0.6859 -0.0708
 3373SOL     OW21577   3.049   2.991  11.496  0.1192  0.1244 -0.3523
 3373SOL    HW121578   3.076   2.986  11.588 -1.1832  0.9448  0.0745
 3373SOL    HW221579   3.067   2.907  11.453 -1.7733  0.6717 -2.1782
 3374SOL     OW21580   0.475   2.763   4.745 -0.3182 -0.5330 -0.0680
 3374SOL    HW121581   0.385   2.793   4.762  0.0837  0.6574 -0.0480
 3374SOL    HW221582   0.460   2.694   4.680  1.4441 -1.4900  0.5514
 3375SOL     OW21583   2.048   0.329   8.704  0.0004 -0.6480 -0.3121
 3375SOL    HW121584   2.074   0.407   8.655 -0.5309 -0.3399 -0.1045
 3375SOL    HW221585   1.975   0.305   8.646 -0.2821 -0.5636  0.0061
 3376SOL     OW21586   2.255   0.411  14.514  0.4841 -0.3573 -0.1770
 3376SOL    HW121587   2.256   0.349  14.586  2.2750  0.4552  0.4869
 3376SOL    HW221588   2.234   0.495  14.555 -0.9814 -0.5185 -0.5933
 3377SOL     OW21589   1.955   0.522   7.287  0.0232  0.2840 -0.2379
 3377SOL    HW121590   1.993   0.605   7.261 -0.1760  0.6207  0.5360
 3377SOL    HW221591   1.941   0.465   7.212  0.6193 -0.0025 -0.1330
 3378SOL     OW21592   0.226   1.220   9.070 -0.1776  0.1525  0.4669
 3378SOL    HW121593   0.153   1.242   9.127 -1.3437  0.3181 -1.0868
 3378SOL    HW221594   0.227   1.303   9.021 -0.8321 -0.7720 -1.1134
 3379SOL     OW21595   3.157   2.276   7.966  0.2703 -0.3013  0.3819
 3379SOL    HW121596   3.145   2.238   7.879  1.2814 -1.5781  0.7928
 3379SOL    HW221597   3.250   2.256   7.979  0.4344  0.2263  0.0546
 3380SOL     OW21598   2.257   4.138   5.436  0.2655 -0.1256  0.4560
 3380SOL    HW121599   2.337   4.089   5.416  0.6651  0.0604  1.6002
 3380SOL    HW221600   2.277   4.179   5.520  0.1870  2.1557 -0.6264
 3381SOL     OW21601   4.485   2.968   4.121  0.3436 -0.0303  0.0213
 3381SOL    HW121602   4.427   2.934   4.189  0.0208 -2.2023 -1.3467
 3381SOL    HW221603   4.552   2.901   4.123 -0.4753 -0.8091  1.1842
 3382SOL     OW21604   1.506   0.702  12.316 -0.1642 -0.0073  0.4215
 3382SOL    HW121605   1.458   0.619  12.322 -1.9599  0.8630 -2.0489
 3382SOL    HW221606   1.565   0.682  12.389  0.7090 -1.4440 -0.6561
 3383SOL     OW21607   2.758   2.967   3.893  0.0949 -0.2035  0.0555
 3383SOL    HW121608   2.709   3.023   3.953  0.3929  0.9719 -0.8207
 3383SOL    HW221609   2.847   3.000   3.903  0.9858 -2.0945 -1.6850
 3384SOL     OW21610   0.254   0.319  15.872 -0.8469  0.0233  0.3098
 3384SOL    HW121611   0.159   0.303  15.871 -0.3079 -3.0944 -0.4988
 3384SOL    HW221612   0.295   0.253  15.927 -0.9996  1.1954  1.8316
 3385SOL     OW21613   2.832   0.861   6.335 -0.1263  0.2436  0.1442
 3385SOL    HW121614   2.885   0.792   6.296  2.7135  1.8968  1.1208
 3385SOL    HW221615   2.818   0.908   6.253  0.0232  0.4404  0.2324
 3386SOL     OW21616   1.432   2.492   7.795 -0.7140  0.1625  0.0943
 3386SOL    HW121617   1.356   2.468   7.741 -0.3542 -0.5680 -0.0943
 3386SOL    HW221618   1.396   2.498   7.883  0.6957 -1.5338  0.7997
 3387SOL     OW21619   4.518   0.641   0.217 -0.0160 -0.1299  0.3184
 3387SOL    HW121620   4.477   0.588   0.150  1.6959 -0.9413 -0.0907
 3387SOL    HW221621   4.569   0.573   0.261  1.4529 -0.6664 -2.2179
 3388SOL     OW21622   1.049   3.000   2.936  0.4487 -0.5636  0.3095
 3388SOL    HW121623   0.975   2.969   2.989 -0.3439  1.2005  0.2163
 3388SOL    HW221624   1.101   3.041   3.004 -1.3090  0.3846  1.0812
 3389SOL     OW21625   3.120   1.264   4.870 -0.1511 -0.0732  0.4861
 3389SOL    HW121626   3.051   1.284   4.806  1.0720  0.2053 -0.7415
 3389SOL    HW221627   3.106   1.338   4.929  0.8945  1.7542 -1.5494
 3390SOL     OW21628   2.613   1.003   7.575 -0.7232 -0.2526 -0.0503
 3390SOL    HW121629   2.688   1.021   7.631 -2.3314  1.0790  1.6831
 3390SOL    HW221630   2.623   0.913   7.544  2.6767  0.6520 -1.6030
 3391SOL     OW21631   4.294   3.285   4.641  0.6027 -0.3049 -0.2228
 3391SOL    HW121632   4.316   3.233   4.718 -1.0970  0.9470  1.1155
 3391SOL    HW221633   4.377   3.330   4.625  1.3155 -0.8353  1.9352
 3392SOL     OW21634   3.429   2.992  11.535 -0.0746  0.1390  0.4700
 3392SOL    HW121635   3.425   2.978  11.629 -2.8356  0.0514  0.3400
 3392SOL    HW221636   3.433   2.904  11.498 -0.1928 -0.3613  1.6601
 3393SOL     OW21637   3.184   3.181  15.796 -0.2991 -0.4199 -0.3124
 3393SOL    HW121638   3.272   3.215  15.813 -0.8409 -0.3430  2.2769
 3393SOL    HW221639   3.165   3.212  15.707 -1.2137 -0.2517 -0.0603
 3394SOL     OW21640   0.129   2.192   3.653  0.4448 -0.7220 -0.2966
 3394SOL    HW121641   0.071   2.246   3.600  0.5150  0.0480  0.4173
 3394SOL    HW221642   0.211   2.190   3.604  0.8100  1.8877  0.2006
 3395SOL     OW21643   1.480   0.732   5.321 -0.7229 -0.1555 -0.3208
 3395SOL    HW121644   1.561   0.688   5.297  1.2428  2.3625  1.5838
 3395SOL    HW221645   1.421   0.710   5.249  1.5237 -2.1454 -1.5307
 3396SOL     OW21646   3.168   0.807   5.927  0.0340 -0.4038 -0.4462
 3396SOL    HW121647   3.140   0.896   5.904  1.6958  0.0201 -0.8530
 3396SOL    HW221648   3.229   0.788   5.856  1.4638 -1.6815  1.1339
 3397SOL     OW21649   1.222   4.579   6.003  0.2310 -0.6333 -0.1324
 3397SOL    HW121650   1.274   4.568   6.082  2.0524  0.3944 -1.2119
 3397SOL    HW221651   1.150   4.634   6.034  0.5306  0.3056 -1.0862
 3398SOL     OW21652   3.465   1.273   9.390 -0.2108 -0.1778 -0.6911
 3398SOL    HW121653   3.376   1.238   9.398  0.8350 -2.6727  0.0607
 3398SOL    HW221654   3.479   1.255   9.297  0.4906  1.6986 -0.9385
 3399SOL     OW21655   0.976   0.058   4.127 -0.1112 -0.2679 -0.3352
 3399SOL    HW121656   0.996   0.120   4.057  1.7103 -0.2253  0.2256
 3399SOL    HW221657   1.017   4.707   4.083 -2.9597 -1.1935 -1.4087
 3400SOL     OW21658   2.309   2.033   2.889  0.3790 -0.3638  0.0634
 3400SOL    HW121659   2.216   2.015   2.901  0.4245  1.8963  3.8024
 3400SOL    HW221660   2.300   2.128   2.887 -0.1163 -0.3955  0.8835
 3401SOL     OW21661   0.618   3.688  11.155 -0.6512  0.1451  0.4503
 3401SOL    HW121662   0.695   3.642  11.121 -0.0959  0.9384  0.6286
 3401SOL    HW221663   0.658   3.774  11.144  0.2210 -0.4605 -1.1511
 3402SOL     OW21664   2.840   0.145   3.394  0.1740  0.2550  0.2957
 3402SOL    HW121665   2.811   0.089   3.322  4.7540 -3.0567  1.0448
 3402SOL    HW221666   2.781   0.220   3.389 -1.5541 -1.1075  0.1805
 3403SOL     OW21667   3.530   0.523   7.193 -0.0969 -0.2009  0.1188
 3403SOL    HW121668   3.611   0.479   7.168  1.0972  0.7752  2.2080
 3403SOL    HW221669   3.488   0.511   7.108 -2.6395  0.2861  1.3333
 3404SOL     OW21670   1.912   3.540  10.188  0.0814  0.4923  0.2835
 3404SOL    HW121671   1.948   3.475  10.248  1.6691 -1.7294 -3.0929
 3404SOL    HW221672   1.912   3.485  10.109 -0.7420  0.7816  0.0796
 3405SOL     OW21673   4.062   1.622   4.781  0.1340  0.1954  0.3126
 3405SOL    HW121674   4.147   1.649   4.747  0.3580 -2.2851 -1.0510
 3405SOL    HW221675   4.001   1.647   4.712 -0.6408 -1.8878  0.2257
 3406SOL     OW21676   2.011   0.681   5.976  0.5115 -0.3069  0.1159
 3406SOL    HW121677   1.936   0.676   6.035 -0.1642 -2.8252 -0.9815
 3406SOL    HW221678   1.995   0.773   5.955  0.4761 -0.2785  0.2655
 3407SOL     OW21679   1.790   2.342  15.657 -0.4017 -0.1137 -0.5031
 3407SOL    HW121680   1.813   2.366  15.746  0.4902  0.7075 -0.9620
 3407SOL    HW221681   1.803   2.247  15.665  1.3784  0.2760  1.1022
 3408SOL     OW21682   3.680   0.616   3.224  0.4177 -0.0778 -0.3276
 3408SOL    HW121683   3.633   0.565   3.158  0.3981 -1.9278  1.1176
 3408SOL    HW221684   3.767   0.577   3.221 -0.1755 -1.3288 -1.6118
 3409SOL     OW21685   2.400   4.696   7.419 -0.0573  0.1452 -0.3806
 3409SOL    HW121686   2.333   4.718   7.484 -1.5842 -1.8210 -1.3179
 3409SOL    HW221687   2.346   4.690   7.340 -1.3746 -0.1043  0.5424
 3410SOL     OW21688   2.542   3.867   0.777 -0.0211 -0.3229  0.5351
 3410SOL    HW121689   2.488   3.942   0.754  1.0411  0.0388 -0.7552
 3410SOL    HW221690   2.486   3.837   0.849  1.3870 -3.2976  0.4201
 3411SOL     OW21691   0.484   1.101   9.895  0.4610 -0.1107 -0.2967
 3411SOL    HW121692   0.569   1.105   9.940  0.3112  1.5931 -0.1549
 3411SOL    HW221693   0.510   1.093   9.804  0.1751  1.8979 -0.5582
 3412SOL     OW21694   1.981   3.174   2.736  0.5208  0.0044  0.4476
 3412SOL    HW121695   1.994   3.090   2.779  1.4487  0.3435  0.8454
 3412SOL    HW221696   1.895   3.199   2.771  0.0200  2.5736 -2.6495
 3413SOL     OW21697   1.575   2.781  12.679 -0.5247 -0.4304 -0.2635
 3413SOL    HW121698   1.622   2.702  12.704 -1.4122  0.0109  2.8432
 3413SOL    HW221699   1.488   2.746  12.660 -1.7165  1.6047  1.4115
 3414SOL     OW21700   4.517   0.753   3.961 -0.2336  0.2962 -0.3811
 3414SOL    HW121701   4.520   0.828   4.021  1.4505  0.1937 -0.3386
 3414SOL    HW221702   4.602   0.750   3.918 -1.0535  0.6801 -2.0101
 3415SOL     OW21703   1.171   4.127   6.143  0.7159  0.2552 -0.0462
 3415SOL    HW121704   1.196   4.218   6.159  0.4668  0.1892  0.7566
 3415SOL    HW221705   1.078   4.131   6.166  0.2343 -0.2671 -1.8800
 3416SOL     OW21706   0.805   1.261   7.510  0.4472  0.4992  0.0314
 3416SOL    HW121707   0.780   1.330   7.573  0.1511  1.0877 -0.7288
 3416SOL    HW221708   0.853   1.199   7.565  0.8188 -0.2177 -1.1147
 3417SOL     OW21709   4.203   0.161   3.161  0.7169 -0.5885  0.1006
 3417SOL    HW121710   4.228   0.097   3.228 -2.2736 -0.1618  1.6363
 3417SOL    HW221711   4.246   0.242   3.187 -0.0699 -0.4630  1.0042
 3418SOL     OW21712   3.310   0.690   5.145 -0.4641 -0.0376  0.2087
 3418SOL    HW121713   3.396   0.710   5.107  0.7363 -1.1336  2.3240
 3418SOL    HW221714   3.261   0.743   5.083 -0.3874 -1.6938 -1.2340
 3419SOL     OW21715   3.288   0.639  15.373 -0.1876 -0.3971 -0.3194
 3419SOL    HW121716   3.328   0.648  15.287  0.9054  1.1428  0.3661
 3419SOL    HW221717   3.205   0.686  15.365  2.4099  3.8766 -1.9469
 3420SOL     OW21718   0.874   1.273   5.065  0.2283 -0.3245  0.4177
 3420SOL    HW121719   0.823   1.239   5.139 -2.2084 -1.8783 -1.9855
 3420SOL    HW221720   0.816   1.264   4.990 -1.3518  1.9365  1.3864
 3421SOL     OW21721   3.743   1.514   1.479 -0.7913 -0.3045 -0.3730
 3421SOL    HW121722   3.787   1.597   1.461 -1.4291  0.2367  0.5604
 3421SOL    HW221723   3.815   1.455   1.503 -0.5065  0.4033  0.4911
 3422SOL     OW21724   0.851   0.235   8.972  0.3190  0.6508  0.2939
 3422SOL    HW121725   0.850   0.311   8.914 -0.4813  0.4962  0.0982
 3422SOL    HW221726   0.938   0.249   9.008 -0.1458 -1.4504  2.2055
 3423SOL     OW21727   0.709   4.546   0.005  0.0348 -0.6283  0.5269
 3423SOL    HW121728   0.694   4.502   0.089  1.1602 -2.0149  0.0010
 3423SOL    HW221729   0.786   4.495  17.677 -0.3334 -1.2349  0.6106
 3424SOL     OW21730   2.338   2.773   3.789 -0.5383 -0.0261 -0.5276
 3424SOL    HW121731   2.308   2.842   3.847  0.7106  1.3343 -1.4901
 3424SOL    HW221732   2.285   2.793   3.712 -0.9889  0.2232 -0.1436
 3425SOL     OW21733   2.301   3.073   8.191 -0.0356  0.1602 -0.1751
 3425SOL    HW121734   2.375   3.072   8.251  0.2198 -0.0187 -0.4962
 3425SOL    HW221735   2.251   3.149   8.223 -0.9563 -0.6324  0.2748
 3426SOL     OW21736   0.478   0.812   9.131 -0.5864 -0.2387  0.3252
 3426SOL    HW121737   0.388   0.843   9.120  0.6167  2.8554 -0.7851
 3426SOL    HW221738   0.511   0.865   9.203 -0.3846  0.0619  0.0085
 3427SOL     OW21739   2.942   4.354   8.345 -0.3207 -0.3230  0.0241
 3427SOL    HW121740   3.022   4.391   8.384 -0.0989 -0.2971 -0.4565
 3427SOL    HW221741   2.875   4.394   8.399  0.2572 -2.2322  2.1667
 3428SOL     OW21742   2.882   3.689   6.513 -0.1637  0.4685  0.2512
 3428SOL    HW121743   2.917   3.602   6.534 -0.0464  0.6846  0.9411
 3428SOL    HW221744   2.962   3.743   6.517  0.1103  0.0094  0.9050
 3429SOL     OW21745   1.043   1.162   2.682  0.0570  0.6554  0.2093
 3429SOL    HW121746   1.033   1.167   2.586 -2.2267  0.2173  0.4231
 3429SOL    HW221747   1.073   1.076   2.711 -1.3222 -0.3235 -1.2174
 3430SOL     OW21748   0.094   0.654  15.666  0.7090  0.4787 -0.0753
 3430SOL    HW121749   0.185   0.634  15.646  0.3699 -0.1213 -1.0149
 3430SOL    HW221750   0.050   0.600  15.600 -0.9680  2.0411 -0.2623
 3431SOL     OW21751   1.120   4.620   3.950  0.0573  0.5051  0.0274
 3431SOL    HW121752   1.183   4.594   3.883 -0.8331  0.5083 -0.8095
 3431SOL    HW221753   1.079   4.536   3.971  2.7818 -0.1270  2.7865
 3432SOL     OW21754   2.271   4.548   8.397  0.0819  0.4314 -0.5957
 3432SOL    HW121755   2.334   4.552   8.468  0.8874 -0.8869 -1.2483
 3432SOL    HW221756   2.324   4.538   8.318  0.8984  0.2955 -0.0273
 3433SOL     OW21757   0.319   4.626   2.682 -0.0351 -0.1400 -0.2747
 3433SOL    HW121758   0.320   4.720   2.699  1.7131 -0.2854  0.4309
 3433SOL    HW221759   0.354   4.621   2.593  0.4744 -1.9235  0.0129
 3434SOL     OW21760   2.134   4.460  15.079 -0.4713 -0.0768  0.1888
 3434SOL    HW121761   2.175   4.544  15.100 -1.7486  0.0508  2.1239
 3434SOL    HW221762   2.213   4.417  15.045 -1.2376 -1.3002 -0.0396
 3435SOL     OW21763   3.006   0.462  10.531 -0.0740 -0.2826  0.4569
 3435SOL    HW121764   2.977   0.548  10.562 -0.0553 -0.4480  0.9348
 3435SOL    HW221765   3.100   0.476  10.543 -0.1804  2.7181 -2.2130
 3436SOL     OW21766   1.516   0.229  12.636 -0.1428  0.0491 -0.8293
 3436SOL    HW121767   1.534   0.181  12.555  1.9486 -0.6206  0.0238
 3436SOL    HW221768   1.522   0.159  12.700  1.4665  0.2342 -0.7739
 3437SOL     OW21769   4.082   3.818   6.566 -0.4291 -0.2675 -0.4570
 3437SOL    HW121770   4.021   3.836   6.638  0.6093  0.0207  0.3513
 3437SOL    HW221771   4.145   3.889   6.576 -0.9332  0.0640  0.3903
 3438SOL     OW21772   3.830   0.471  16.778  0.4886  0.1056 -0.0003
 3438SOL    HW121773   3.740   0.459  16.749  0.3908  2.0062 -0.4386
 3438SOL    HW221774   3.834   0.566  16.791  1.4309 -0.1732  1.8317
 3439SOL     OW21775   2.236   4.382   7.615 -0.5862  0.0592 -0.8231
 3439SOL    HW121776   2.152   4.425   7.628 -1.3771 -2.4216  2.3742
 3439SOL    HW221777   2.222   4.306   7.671 -1.1649  0.7545 -0.0216
 3440SOL     OW21778   1.581   1.982  15.351  0.4977 -0.2295 -0.5247
 3440SOL    HW121779   1.572   2.063  15.401 -0.5738  0.5122 -1.9254
 3440SOL    HW221780   1.535   1.917  15.405 -0.6596 -0.4400 -1.7693
 3441SOL     OW21781   4.395   4.514   3.785 -0.2989 -0.0162  0.3157
 3441SOL    HW121782   4.427   4.428   3.756  0.0437 -0.2837  1.4970
 3441SOL    HW221783   4.320   4.480   3.835 -0.5392  1.1097  0.7035
 3442SOL     OW21784   2.107   3.501   2.961  0.0117 -0.0485 -0.5133
 3442SOL    HW121785   2.125   3.580   3.011  0.4447 -1.1547  1.0955
 3442SOL    HW221786   2.059   3.464   3.035  1.2856 -0.3489  0.1566
 3443SOL     OW21787   0.171   0.179   2.832 -0.0048  0.1520 -0.3629
 3443SOL    HW121788   0.095   0.223   2.870  0.7610  1.0900  0.1098
 3443SOL    HW221789   0.239   0.185   2.900 -0.0982 -0.9680 -0.1787
 3444SOL     OW21790   2.079   3.159   7.776 -0.7680 -0.1830 -0.5058
 3444SOL    HW121791   2.064   3.154   7.681 -0.8589  0.5630 -0.5257
 3444SOL    HW221792   2.156   3.213   7.793 -1.2733 -0.0287  1.2428
 3445SOL     OW21793   4.340   1.653   0.952 -0.0198 -0.4574 -0.5359
 3445SOL    HW121794   4.365   1.564   0.973 -1.4870 -0.2715  1.9682
 3445SOL    HW221795   4.425   1.693   0.931 -0.3740  0.9708  0.6836
 3446SOL     OW21796   3.576   2.141   4.723 -0.0098 -0.1278 -0.2480
 3446SOL    HW121797   3.633   2.064   4.729  2.0211  1.0994 -3.6060
 3446SOL    HW221798   3.491   2.107   4.749 -0.6560  2.7066  1.3293
 3447SOL     OW21799   3.483   2.516   9.268 -0.1019 -0.5518 -0.4889
 3447SOL    HW121800   3.413   2.563   9.313 -0.7922 -2.6470  0.6010
 3447SOL    HW221801   3.456   2.428   9.293 -1.7038 -0.5748 -2.2558
 3448SOL     OW21802   1.937   0.644   3.004  0.3398  0.4912  0.5021
 3448SOL    HW121803   1.863   0.613   2.952  3.2874 -0.4089 -3.2044
 3448SOL    HW221804   1.994   0.681   2.936 -0.4422 -1.1817 -1.0734
 3449SOL     OW21805   0.107   3.051   8.252  0.0155  0.1074  0.6035
 3449SOL    HW121806   0.120   3.051   8.346  1.7402 -1.7934  0.3624
 3449SOL    HW221807   0.158   3.125   8.219 -0.5393  0.0062 -0.5024
 3450SOL     OW21808   4.370   1.208   0.001  0.2673  0.2157  0.2220
 3450SOL    HW121809   4.333   1.173  17.617 -0.3665 -1.9803  1.4666
 3450SOL    HW221810   4.342   1.139   0.061  2.1923 -0.8820 -0.1247
 3451SOL     OW21811   2.226   2.787  10.805  0.1886 -0.3501 -0.2681
 3451SOL    HW121812   2.265   2.868  10.836 -0.2520 -0.4566  0.5856
 3451SOL    HW221813   2.269   2.731  10.871  0.4612 -0.0160 -0.1594
 3452SOL     OW21814   0.245   1.093   3.072 -0.2386 -0.0378  0.3364
 3452SOL    HW121815   0.204   1.058   3.151 -1.3493 -0.0489 -0.2323
 3452SOL    HW221816   0.172   1.111   3.013  0.3369  0.6868 -0.1484
 3453SOL     OW21817   1.367   0.085   3.686  0.1599  0.2027  0.1062
 3453SOL    HW121818   1.335   0.155   3.630  3.0176  1.2491 -0.2414
 3453SOL    HW221819   1.430   0.127   3.745 -4.1537 -0.7956  5.4281
 3454SOL     OW21820   1.217   3.627   6.864 -0.2685  0.5468  0.2036
 3454SOL    HW121821   1.245   3.654   6.951 -0.6904  0.2721  0.4256
 3454SOL    HW221822   1.254   3.703   6.819 -0.4191  0.6908  0.3242
 3455SOL     OW21823   2.136   4.038  16.431 -0.5463 -0.1278  0.5933
 3455SOL    HW121824   2.173   4.114  16.475 -1.9251  1.5217 -1.1031
 3455SOL    HW221825   2.188   3.971  16.476 -1.3660 -1.2029 -0.0434
 3456SOL     OW21826   1.418   0.866  14.165  0.0020  0.0520 -0.3578
 3456SOL    HW121827   1.399   0.885  14.256  0.3046  0.4629 -0.3779
 3456SOL    HW221828   1.337   0.903  14.130 -0.0799 -0.1397 -0.3713
 3457SOL     OW21829   3.872   0.660   2.496  0.4847 -0.2703 -0.3886
 3457SOL    HW121830   3.879   0.619   2.410  3.1743  0.7450 -0.6726
 3457SOL    HW221831   3.906   0.748   2.478  2.4422 -1.1348 -0.9686
 3458SOL     OW21832   1.988   1.012  12.074 -0.3546 -0.4576 -0.1428
 3458SOL    HW121833   1.979   1.030  12.167  0.3404  1.2171 -0.4015
 3458SOL    HW221834   2.064   0.955  12.060  2.0110  2.4826  0.8724
 3459SOL     OW21835   0.570   1.286   6.367 -0.6073  0.3249 -0.2679
 3459SOL    HW121836   0.529   1.371   6.355  0.4917  1.1404  1.7587
 3459SOL    HW221837   0.555   1.275   6.461 -1.5038  0.6995 -0.3742
 3460SOL     OW21838   0.927   1.804   2.113  0.7252 -0.0414 -0.3332
 3460SOL    HW121839   1.008   1.756   2.098 -0.5120 -2.8559  2.0258
 3460SOL    HW221840   0.860   1.761   2.059  0.1512  0.6546 -0.1667
 3461SOL     OW21841   3.357   0.152   9.091 -0.1868 -0.5151 -0.3691
 3461SOL    HW121842   3.329   0.146   9.183  1.7868  0.9638  0.3375
 3461SOL    HW221843   3.272   0.133   9.053  0.3670  2.3715 -3.0137
 3462SOL     OW21844   4.226   3.940   0.868  0.1987  0.0361 -0.4140
 3462SOL    HW121845   4.277   3.859   0.865 -0.6678 -0.5359  0.8786
 3462SOL    HW221846   4.256   3.972   0.783  0.7143 -1.7607 -0.9150
 3463SOL     OW21847   3.012   2.017   7.037  0.5913  0.3551  0.0419
 3463SOL    HW121848   3.000   1.924   7.056 -1.9971  0.8954  1.0550
 3463SOL    HW221849   3.087   2.035   7.095  1.7442  0.9399 -1.6158
 3464SOL     OW21850   0.836   0.529   8.581 -0.1423  0.1673  0.0002
 3464SOL    HW121851   0.835   0.495   8.670 -0.1161 -2.2905 -0.9291
 3464SOL    HW221852   0.740   0.531   8.577 -0.1465 -1.8564 -1.0319
 3465SOL     OW21853   0.435   0.984   1.948 -0.1371 -0.3356  0.3657
 3465SOL    HW121854   0.487   1.028   2.015 -0.3416  1.4384 -0.6598
 3465SOL    HW221855   0.488   0.913   1.911 -0.2057 -0.4814  0.5425
 3466SOL     OW21856   3.809   0.478   7.552 -0.5443 -0.2809 -0.2246
 3466SOL    HW121857   3.725   0.463   7.594  0.6722 -0.3318  2.1880
 3466SOL    HW221858   3.806   0.423   7.473  1.6173 -1.4065  0.4633
 3467SOL     OW21859   4.545   0.233  12.332  0.7483 -0.3731 -0.2528
 3467SOL    HW121860   4.546   0.138  12.329 -1.3154 -0.4783  2.7278
 3467SOL    HW221861   4.474   0.242  12.395  1.3797 -0.6677  0.4945
 3468SOL     OW21862   1.345   1.222   4.472 -0.2907 -0.4478 -0.6406
 3468SOL    HW121863   1.322   1.185   4.557  0.5528  2.1356  0.6959
 3468SOL    HW221864   1.272   1.199   4.415  1.1079 -2.8105 -1.5139
 3469SOL     OW21865   2.487   1.674   4.415  0.1578  0.2196  0.4938
 3469SOL    HW121866   2.576   1.640   4.420 -0.3473 -1.0934  0.3909
 3469SOL    HW221867   2.456   1.638   4.332 -2.4169  0.1828  1.4891
 3470SOL     OW21868   0.802   0.471   2.574 -0.6239  0.1599  0.0773
 3470SOL    HW121869   0.880   0.488   2.628  0.4702  0.5241 -1.6053
 3470SOL    HW221870   0.839   0.483   2.487 -0.3747 -0.6715  0.0716
 3471SOL     OW21871   3.868   3.905   5.998  0.3642  0.4204  0.4379
 3471SOL    HW121872   3.805   3.848   6.042  0.7644 -0.3763 -0.0156
 3471SOL    HW221873   3.935   3.840   5.976 -1.1652 -0.3474 -2.0095
 3472SOL     OW21874   4.296   3.388   6.492 -0.0435  0.2689 -0.5482
 3472SOL    HW121875   4.215   3.424   6.528 -2.4970 -1.2011 -4.6166
 3472SOL    HW221876   4.309   3.451   6.422 -0.5820  2.7317  1.5814
 3473SOL     OW21877   0.712   1.461   1.141  0.0483  0.1639 -0.2288
 3473SOL    HW121878   0.635   1.517   1.130 -0.9927 -1.8434 -2.9607
 3473SOL    HW221879   0.677   1.377   1.112 -0.8460 -0.5235  2.7851
 3474SOL     OW21880   3.294   3.801   4.980  0.0319 -1.0536  0.0505
 3474SOL    HW121881   3.314   3.767   4.893 -0.5946 -3.5011  0.8788
 3474SOL    HW221882   3.216   3.751   5.003  0.0924 -0.8236  0.7675
 3475SOL     OW21883   1.565   3.018   2.203  0.0249  0.3645 -0.1765
 3475SOL    HW121884   1.637   3.068   2.163 -0.6022  2.7265  1.7181
 3475SOL    HW221885   1.496   3.044   2.142 -1.0116  1.6512  1.5647
 3476SOL     OW21886   1.007   4.518   8.090 -0.2749  0.1685  0.2636
 3476SOL    HW121887   0.937   4.460   8.121  2.0704 -1.1307  3.0422
 3476SOL    HW221888   1.023   4.488   8.000  0.7240 -3.0174  1.5028
 3477SOL     OW21889   1.729   4.212   9.167  0.5253 -0.2753 -0.3717
 3477SOL    HW121890   1.683   4.287   9.129  0.6502 -0.0106 -0.0069
 3477SOL    HW221891   1.730   4.231   9.261  2.2618  1.7042 -0.8023
 3478SOL     OW21892   3.072   0.464   6.236  0.0780 -0.4544  0.1447
 3478SOL    HW121893   3.144   0.420   6.192  1.5735  0.1722  1.9471
 3478SOL    HW221894   3.105   0.553   6.224  0.9863 -1.0795 -1.9082
 3479SOL     OW21895   4.250   3.518   6.257  0.2489  0.1176 -0.1368
 3479SOL    HW121896   4.192   3.590   6.281  1.3165  0.7117  0.6613
 3479SOL    HW221897   4.180   3.461   6.223  1.7270 -1.0986 -1.1640
 3480SOL     OW21898   3.466   1.229   6.247 -0.0682  0.4127 -0.2693
 3480SOL    HW121899   3.535   1.185   6.197  1.4595  0.3922  1.8424
 3480SOL    HW221900   3.436   1.159   6.306 -0.3809  0.5283 -0.2898
 3481SOL     OW21901   3.897   1.286   6.630 -0.1298  0.7927  0.2833
 3481SOL    HW121902   3.947   1.205   6.619 -1.6836 -0.4142  2.0137
 3481SOL    HW221903   3.964   1.353   6.645 -1.0581  1.9805 -0.8750
 3482SOL     OW21904   4.481   1.316  10.589  0.1828 -0.4582 -0.0893
 3482SOL    HW121905   4.516   1.233  10.621 -2.3275 -1.6140 -0.3351
 3482SOL    HW221906   4.398   1.313  10.637  0.7455 -0.1864  0.9019
 3483SOL     OW21907   2.854   0.972   5.624  0.8283 -0.6020  0.1652
 3483SOL    HW121908   2.881   0.885   5.593  0.4210 -0.0475 -1.7420
 3483SOL    HW221909   2.849   0.957   5.719 -0.4920  1.8718  0.4791
 3484SOL     OW21910   2.270   4.067   7.020  0.3317  0.7161 -0.1233
 3484SOL    HW121911   2.358   4.067   7.055  0.4431 -2.1998 -0.4019
 3484SOL    HW221912   2.277   4.151   6.974  0.9563  1.3985  1.2300
 3485SOL     OW21913   3.383   1.693   7.709  0.1602  0.0865  0.3036
 3485SOL    HW121914   3.461   1.645   7.734  0.7053  0.1541 -1.2429
 3485SOL    HW221915   3.425   1.764   7.659  0.5725  0.6377  1.4239
 3486SOL     OW21916   2.826   1.719  12.833 -0.4384  0.2994 -0.6613
 3486SOL    HW121917   2.861   1.733  12.745 -0.0323 -2.3211 -0.9396
 3486SOL    HW221918   2.900   1.749  12.886 -1.9012 -0.7823  2.0004
 3487SOL     OW21919   4.207   0.362   6.821 -0.1670 -0.1053 -0.3952
 3487SOL    HW121920   4.123   0.339   6.860  0.2134  2.8861  2.2103
 3487SOL    HW221921   4.234   0.279   6.783  3.4323  0.8123  0.1009
 3488SOL     OW21922   2.946   2.010   4.835 -0.3991  0.0568 -0.6076
 3488SOL    HW121923   2.992   1.959   4.768 -2.7339 -0.9122 -1.5032
 3488SOL    HW221924   2.977   1.957   4.908  2.7159  1.9806 -0.5312
 3489SOL     OW21925   4.435   2.827   1.970  0.3719  0.1766 -0.3549
 3489SOL    HW121926   4.509   2.783   1.927 -1.2114 -1.5769 -1.2630
 3489SOL    HW221927   4.360   2.793   1.922  0.5906  0.3654 -0.8294
 3490SOL     OW21928   0.683   3.111   7.508 -0.0218 -0.0985 -0.6443
 3490SOL    HW121929   0.686   3.168   7.584 -0.0600  0.4329 -1.0419
 3490SOL    HW221930   0.748   3.160   7.458 -0.4661  1.6869  0.5393
 3491SOL     OW21931   3.813   3.115   4.871  0.1998 -0.3247  0.3791
 3491SOL    HW121932   3.787   3.093   4.782  0.2550  0.0182  0.2781
 3491SOL    HW221933   3.860   3.199   4.863  1.3486 -0.8340  1.7019
 3492SOL     OW21934   0.684   4.712  11.236 -0.6547 -0.2411 -0.5793
 3492SOL    HW121935   0.744   0.040  11.289  0.9925 -0.4745 -2.2244
 3492SOL    HW221936   0.637   0.053  11.183 -0.4600 -1.2050 -1.9308
 3493SOL     OW21937   2.607   3.023   9.056  0.5183  0.0443  0.6757
 3493SOL    HW121938   2.605   3.118   9.069  0.9138  0.2561 -0.7259
 3493SOL    HW221939   2.701   3.007   9.051  0.5596  0.0646  1.5132
 3494SOL     OW21940   2.985   3.671   7.104 -0.2384 -0.2346  0.1757
 3494SOL    HW121941   2.930   3.651   7.029  0.6824 -2.1372 -0.0152
 3494SOL    HW221942   3.038   3.742   7.070 -2.0395  1.4626  0.9234
 3495SOL     OW21943   3.946   0.572   4.459  0.0360  0.2830  0.2384
 3495SOL    HW121944   3.941   0.653   4.509  0.6447  0.1771  0.4732
 3495SOL    HW221945   4.040   0.555   4.449 -0.4851 -1.0943 -2.3890
 3496SOL     OW21946   4.200   3.642   6.893 -0.2725 -0.0379 -0.0843
 3496SOL    HW121947   4.112   3.674   6.914 -1.4336 -3.6707  0.4880
 3496SOL    HW221948   4.247   3.704   6.949 -1.3708 -1.1782  2.0802
 3497SOL     OW21949   4.374   2.920   6.768 -0.1184  0.2495  0.3348
 3497SOL    HW121950   4.443   2.868   6.807 -0.3395  0.7896  1.4572
 3497SOL    HW221951   4.357   2.879   6.683 -0.0501  0.6610  0.1229
 3498SOL     OW21952   1.511   3.899   6.966  0.1152 -0.7630  0.1542
 3498SOL    HW121953   1.533   3.808   6.987 -1.4620 -0.9750  0.8833
 3498SOL    HW221954   1.594   3.935   6.997 -1.5439  0.4533  3.1176
 3499SOL     OW21955   4.354   1.750   6.389 -0.5083  0.6914  0.0549
 3499SOL    HW121956   4.338   1.727   6.298  2.0246  1.4267 -0.5659
 3499SOL    HW221957   4.440   1.710   6.402 -0.6021 -0.0939 -1.7834
 3500SOL     OW21958   4.009   3.646   7.721 -0.2283 -0.7919  0.3796
 3500SOL    HW121959   3.979   3.569   7.673 -0.6831 -2.0821  2.7706
 3500SOL    HW221960   3.931   3.656   7.776  0.4226 -0.8398  1.3126
 3501SOL     OW21961   0.018   1.574   6.024 -0.5336 -0.2207  0.2914
 3501SOL    HW121962   0.063   1.633   6.084 -0.9485  0.4118 -0.0069
 3501SOL    HW221963   4.684   1.641   5.985  0.9020  1.8995  1.8729
 3502SOL     OW21964   1.331   3.119  16.684  0.0296  0.1231  0.0757
 3502SOL    HW121965   1.275   3.153  16.614 -0.5787 -0.1619  0.4207
 3502SOL    HW221966   1.415   3.119  16.640  0.7384  0.5082  1.4390
 3503SOL     OW21967   0.713   3.324   3.282  0.1272  0.1771 -0.1297
 3503SOL    HW121968   0.687   3.260   3.216 -0.1244 -1.7129  1.8060
 3503SOL    HW221969   0.632   3.371   3.303 -0.4272 -0.7713 -0.1740
 3504SOL     OW21970   0.596   4.286   1.059 -0.8609  0.2379 -0.1322
 3504SOL    HW121971   0.684   4.295   1.023 -0.6239 -0.0936  0.3592
 3504SOL    HW221972   0.546   4.349   1.008 -0.1455  2.5275  1.9652
 3505SOL     OW21973   4.616   0.180  10.238  0.5628 -0.1864 -0.2929
 3505SOL    HW121974   4.685   0.142  10.182  0.1050 -1.2680 -0.1315
 3505SOL    HW221975   4.632   0.274  10.243 -0.6719 -0.0039  0.1636
 3506SOL     OW21976   0.018   2.809   7.113 -0.1972  0.5803  0.3075
 3506SOL    HW121977   0.106   2.827   7.147  0.9308  0.0038 -2.2834
 3506SOL    HW221978   4.687   2.844   7.183  0.9435  0.5032  1.2348
 3507SOL     OW21979   4.119   3.519   1.926 -0.3009 -0.2393 -0.2961
 3507SOL    HW121980   4.164   3.449   1.973 -1.1480 -1.1069 -0.7734
 3507SOL    HW221981   4.085   3.576   1.994 -1.1379  0.0647 -0.9656
 3508SOL     OW21982   0.055   4.248   9.114 -0.4676 -0.2509  0.5027
 3508SOL    HW121983   0.097   4.229   9.197  0.1535 -0.4126  0.1499
 3508SOL    HW221984   0.135   4.275   9.069 -0.1409 -1.4035  0.3855
 3509SOL     OW21985   4.580   0.465   4.047 -0.5901  0.3121  0.3225
 3509SOL    HW121986   4.627   0.535   4.093  0.5676 -2.0819  2.7658
 3509SOL    HW221987   4.506   0.513   4.009 -1.9368 -0.9041  1.4704
 3510SOL     OW21988   1.479   2.300   3.407  0.6007  0.4467 -0.6469
 3510SOL    HW121989   1.533   2.280   3.331  0.6317 -0.9208 -0.2681
 3510SOL    HW221990   1.539   2.348   3.464  0.1414 -1.2679  1.2789
 3511SOL     OW21991   0.006   1.271  17.519 -0.4254 -0.8283  0.2453
 3511SOL    HW121992   0.062   1.301  17.591  2.2505 -1.0150 -1.7635
 3511SOL    HW221993   0.042   1.184  17.502  0.0120 -1.0286  2.2226
 3512SOL     OW21994   4.034   1.475  11.871  0.1505 -0.3446  0.1915
 3512SOL    HW121995   4.108   1.533  11.890 -0.3882  0.3458  0.1698
 3512SOL    HW221996   4.050   1.436  11.785  0.4099 -0.2739  0.2063
 3513SOL     OW21997   1.622   3.213  16.126  0.2287 -0.2269 -0.3239
 3513SOL    HW121998   1.598   3.299  16.160  1.6630  0.2465 -0.5285
 3513SOL    HW221999   1.650   3.245  16.040  1.8371 -0.2790  0.1948
 3514SOL     OW22000   2.436   2.320   7.917  0.1460  0.2200 -0.0567
 3514SOL    HW122001   2.447   2.303   8.010  0.7134 -0.8661 -0.3261
 3514SOL    HW222002   2.413   2.229   7.898  0.0312 -0.0874  1.6211
 3515SOL     OW22003   0.920   1.052   5.661  0.4011 -0.0201 -0.0680
 3515SOL    HW122004   1.004   1.040   5.705 -0.2615  0.5031  1.3483
 3515SOL    HW222005   0.864   0.992   5.711  0.2539  0.9184  0.9075
 3516SOL     OW22006   1.004   2.609  12.028 -0.2226  0.2638  0.2177
 3516SOL    HW122007   0.950   2.532  12.007 -1.9009  1.3904  0.4136
 3516SOL    HW222008   0.936   2.675  12.013 -0.0698  0.5212  0.6729
 3517SOL     OW22009   3.406   0.215   8.041  0.2992  0.8009 -0.2483
 3517SOL    HW122010   3.355   0.151   7.992  0.4777  1.3772 -1.1898
 3517SOL    HW222011   3.448   0.165   8.110  0.6048 -0.1849 -1.1545
 3518SOL     OW22012   1.200   3.791   1.362 -0.2704  0.0922 -0.1363
 3518SOL    HW122013   1.287   3.775   1.325 -1.6619 -3.4752 -1.9261
 3518SOL    HW222014   1.216   3.780   1.456 -0.9007 -1.1603 -0.1679
 3519SOL     OW22015   3.876   0.327   5.954 -0.3069 -0.3227 -0.0432
 3519SOL    HW122016   3.929   0.286   5.885 -1.4029 -0.8201 -0.5781
 3519SOL    HW222017   3.879   0.262   6.024  0.9534 -1.8509 -1.4848
 3520SOL     OW22018   4.553   2.878  15.125  0.4449 -0.1017 -1.1448
 3520SOL    HW122019   4.581   2.845  15.211 -0.4009  0.4193 -0.6677
 3520SOL    HW222020   4.481   2.817  15.106 -0.3801  0.3854  0.4088
 3521SOL     OW22021   0.883   2.544   5.866 -0.0094  0.0656  0.2636
 3521SOL    HW122022   0.905   2.614   5.805  1.2590  1.2896  2.0897
 3521SOL    HW222023   0.885   2.474   5.801 -1.3760 -0.1175  0.4261
 3522SOL     OW22024   4.104   2.775   2.315  0.1675 -0.1649 -0.3522
 3522SOL    HW122025   4.136   2.822   2.239 -0.5516  0.7695 -0.0736
 3522SOL    HW222026   4.139   2.826   2.388 -0.8438 -1.2277  0.8771
 3523SOL     OW22027   1.866   2.787   6.531 -0.2565  0.3858 -0.1592
 3523SOL    HW122028   1.941   2.833   6.492 -1.1559  0.6994 -1.4945
 3523SOL    HW222029   1.889   2.787   6.624 -1.5577  0.3981  0.1594
 3524SOL     OW22030   0.035   1.563   1.641 -0.3802 -0.0322  0.4355
 3524SOL    HW122031   0.048   1.643   1.690  0.5835  0.8970 -1.3384
 3524SOL    HW222032   0.037   1.495   1.708 -1.7789 -0.3074  0.1897
 3525SOL     OW22033   4.395   1.313   0.617  0.4632  0.0770  0.0310
 3525SOL    HW122034   4.314   1.330   0.664  0.6415  2.0551 -0.3678
 3525SOL    HW222035   4.418   1.402   0.590 -1.4141  0.3726 -0.5854
 3526SOL     OW22036   2.229   4.349  12.808 -0.3458  0.3022 -0.2295
 3526SOL    HW122037   2.257   4.265  12.844  2.0020  1.2415  0.1193
 3526SOL    HW222038   2.262   4.415  12.869  0.6215  0.1503 -0.5985
 3527SOL     OW22039   2.962   2.001   5.668  0.6492  0.1198  0.3600
 3527SOL    HW122040   2.995   1.971   5.753  2.4656 -2.8177 -1.3621
 3527SOL    HW222041   3.000   1.939   5.605 -0.0822  2.5867 -2.4969
 3528SOL     OW22042   2.298   2.332   8.541 -0.4977 -0.9956  0.1570
 3528SOL    HW122043   2.235   2.344   8.612 -2.0773 -0.9721 -1.2412
 3528SOL    HW222044   2.263   2.249   8.509  0.8695 -0.6087 -2.3818
 3529SOL     OW22045   3.320   1.043   1.691  0.1598 -0.3432  0.2312
 3529SOL    HW122046   3.290   0.985   1.761 -0.0619  0.6576  0.9679
 3529SOL    HW222047   3.235   1.057   1.650 -0.7866 -2.7967  1.3297
 3530SOL     OW22048   4.287   3.565  10.092 -0.4562  0.2865 -0.7332
 3530SOL    HW122049   4.273   3.659  10.101  2.7823  0.5031  1.7570
 3530SOL    HW222050   4.374   3.549  10.128 -1.2601 -0.4826  0.9184
 3531SOL     OW22051   4.127   3.545   6.621 -0.2630  0.4992  0.4179
 3531SOL    HW122052   4.120   3.638   6.600 -1.7952  0.5798  1.3369
 3531SOL    HW222053   4.159   3.553   6.711 -0.2999 -1.7819  0.6333
 3532SOL     OW22054   2.044   4.352  16.362  0.1746 -0.4575 -0.0381
 3532SOL    HW122055   2.074   4.314  16.279 -0.8659 -2.0594  0.3376
 3532SOL    HW222056   2.124   4.352  16.413  1.3590 -2.1514 -1.9187
 3533SOL     OW22057   2.586   1.720   9.155  0.2455 -0.1744  0.4176
 3533SOL    HW122058   2.573   1.814   9.144 -1.1658 -0.7181 -2.5320
 3533SOL    HW222059   2.528   1.696   9.227 -0.9631 -1.3162 -0.9509
 3534SOL     OW22060   2.048   1.063   7.765  0.3346 -0.1478  0.0767
 3534SOL    HW122061   2.053   1.030   7.855  3.0715 -3.0939 -1.1463
 3534SOL    HW222062   2.058   1.158   7.777 -0.0803 -0.2954  1.6148
 3535SOL     OW22063   0.983   2.916   9.956  0.4858  0.4889  0.2075
 3535SOL    HW122064   0.898   2.944   9.922  0.0099 -0.6645  0.4288
 3535SOL    HW222065   1.010   2.859   9.884  2.1607  0.6856  0.6921
 3536SOL     OW22066   0.258   1.710   9.575 -0.1397 -0.2244  0.3024
 3536SOL    HW122067   0.290   1.695   9.664  2.8469 -0.3303 -0.7815
 3536SOL    HW222068   0.274   1.803   9.559 -0.6602 -0.0995  0.5251
 3537SOL     OW22069   4.328   3.782   4.294 -0.1978 -0.3376  0.1643
 3537SOL    HW122070   4.387   3.787   4.219 -1.6886  1.7838 -0.8570
 3537SOL    HW222071   4.252   3.755   4.241 -0.3381  1.3131 -0.4603
 3538SOL     OW22072   1.021   0.495   9.138 -0.0093  0.2676  0.2831
 3538SOL    HW122073   0.967   0.480   9.216 -0.7812  4.4337  0.5934
 3538SOL    HW222074   1.057   0.580   9.162 -0.0177  0.3758 -0.0814
 3539SOL     OW22075   2.881   4.505   9.937 -0.5779  0.2039 -0.3209
 3539SOL    HW122076   2.957   4.448   9.928 -0.1755  1.0402 -2.0827
 3539SOL    HW222077   2.832   4.439   9.986  2.3893 -2.4463 -0.9264
 3540SOL     OW22078   2.027   2.584   7.195  0.4756  0.5459 -0.3398
 3540SOL    HW122079   2.051   2.642   7.267  1.6555  0.7829 -0.9225
 3540SOL    HW222080   1.970   2.521   7.240  1.2024  0.1462  0.0231
 3541SOL     OW22081   3.330   2.937   5.865  0.1426 -0.3142  0.1422
 3541SOL    HW122082   3.352   2.870   5.930  1.1503  1.1448  1.3134
 3541SOL    HW222083   3.374   3.020   5.884 -0.5468  1.0130 -4.0526
 3542SOL     OW22084   4.461   4.125   7.927  0.1473  0.0777 -0.5175
 3542SOL    HW122085   4.522   4.051   7.925 -0.9036 -0.7986 -0.1035
 3542SOL    HW222086   4.378   4.082   7.906  1.2197 -2.4693  0.4479
 3543SOL     OW22087   4.505   3.907   0.592 -0.6730 -0.0743  0.6365
 3543SOL    HW122088   4.545   3.827   0.626  0.0414 -0.2325 -0.5912
 3543SOL    HW222089   4.557   3.923   0.513 -0.6007 -0.2574  0.6465
 3544SOL     OW22090   2.083   0.498  16.548  0.2253  0.0968  0.3224
 3544SOL    HW122091   2.076   0.433  16.479 -0.1573 -0.1750  0.6194
 3544SOL    HW222092   2.004   0.551  16.538 -0.0324 -0.3462  0.0049
 3545SOL     OW22093   1.687   0.275   9.143 -0.0617 -0.2065  0.0106
 3545SOL    HW122094   1.723   0.186   9.149 -0.0050 -0.2056 -0.3054
 3545SOL    HW222095   1.640   0.280   9.226 -1.2885  0.0719 -0.6961
 3546SOL     OW22096   0.486   3.941   1.687  0.2642 -0.6232 -0.0237
 3546SOL    HW122097   0.464   4.012   1.626 -0.4964 -1.2988 -0.5496
 3546SOL    HW222098   0.526   3.875   1.631  0.2897 -0.7723  0.1712
 3547SOL     OW22099   4.356   1.171  10.875  0.0110  0.1000 -0.4559
 3547SOL    HW122100   4.391   1.248  10.920 -0.9162  0.0034  0.4177
 3547SOL    HW222101   4.289   1.215  10.822 -0.1644 -1.5990 -1.6315
 3548SOL     OW22102   2.275   2.306   5.757  0.1320 -0.1432  0.4371
 3548SOL    HW122103   2.323   2.269   5.831 -0.0773  2.6240  1.9589
 3548SOL    HW222104   2.186   2.271   5.761  0.1776  0.0439  3.2792
 3549SOL     OW22105   4.714   2.106  17.251  0.2316 -0.1735  0.4786
 3549SOL    HW122106   4.662   2.114  17.172  0.8798 -0.1566  0.0526
 3549SOL    HW222107   0.078   2.137  17.228  0.7203 -2.3045 -0.5923
 3550SOL     OW22108   2.684   3.655   1.564  0.4843 -0.0896 -0.0965
 3550SOL    HW122109   2.622   3.606   1.510  0.3648  2.0080 -1.8324
 3550SOL    HW222110   2.737   3.696   1.496  1.1305  0.8834  1.0067
 3551SOL     OW22111   1.186   1.844  10.611  0.2052 -0.0175 -0.8461
 3551SOL    HW122112   1.255   1.911  10.603  0.9097 -0.6716 -0.2237
 3551SOL    HW222113   1.239   1.794  10.672 -0.2774 -2.6703 -2.6207
 3552SOL     OW22114   4.205   0.439   7.913 -0.6860  0.2435 -0.6982
 3552SOL    HW122115   4.206   0.525   7.955 -1.1785  0.1575 -0.5169
 3552SOL    HW222116   4.189   0.380   7.986  0.5880  1.0405  0.2200
 3553SOL     OW22117   0.446   3.657   2.701 -0.2869 -0.2680 -0.8272
 3553SOL    HW122118   0.473   3.607   2.624  0.1221 -2.5930  0.8300
 3553SOL    HW222119   0.395   3.730   2.667  0.3598  0.8198  0.5409
 3554SOL     OW22120   4.283   3.769   8.813 -0.1233  0.4508 -0.2131
 3554SOL    HW122121   4.216   3.838   8.811  0.6516  1.2144  0.1035
 3554SOL    HW222122   4.291   3.768   8.908 -0.2911  0.8504 -0.1946
 3555SOL     OW22123   4.499   0.156   2.147  0.0209  0.0804 -0.0258
 3555SOL    HW122124   4.459   0.132   2.063 -0.5333 -2.3122  0.9324
 3555SOL    HW222125   4.477   0.249   2.147 -0.5755 -0.0524 -1.2178
 3556SOL     OW22126   3.993   1.152   8.044 -0.2616 -0.7227 -0.2821
 3556SOL    HW122127   4.025   1.199   7.967 -0.5207 -0.1071 -0.0123
 3556SOL    HW222128   3.903   1.185   8.037 -0.9269 -2.1453  1.4692
 3557SOL     OW22129   1.616   1.531  12.560 -0.0001  0.1824  0.1452
 3557SOL    HW122130   1.533   1.493  12.591  0.1572  2.4322  3.4009
 3557SOL    HW222131   1.606   1.527  12.465  3.1049  1.0674 -0.2152
 3558SOL     OW22132   4.590   4.376   1.982  0.4125  0.8207  0.6494
 3558SOL    HW122133   4.509   4.427   1.983 -1.2073 -1.7215  0.6518
 3558SOL    HW222134   4.593   4.349   1.890  1.5255 -0.8775  1.1820
 3559SOL     OW22135   0.678   3.080   2.847  0.2031  0.0482 -0.3073
 3559SOL    HW122136   0.743   3.017   2.879  1.0535  0.6162 -0.9157
 3559SOL    HW222137   0.636   3.118   2.925  0.0265 -1.9241  0.5638
 3560SOL     OW22138   0.597   2.532   6.773 -0.3454 -0.3733 -0.3034
 3560SOL    HW122139   0.590   2.569   6.684 -1.6022 -0.7482 -0.3618
 3560SOL    HW222140   0.677   2.480   6.776  0.6931  1.1171 -2.1593
 3561SOL     OW22141   1.814   2.202   1.343 -0.5493 -0.6570 -0.6811
 3561SOL    HW122142   1.872   2.133   1.311  0.9688  1.1686 -1.8688
 3561SOL    HW222143   1.837   2.257   1.268  0.0859  1.8393  1.3395
 3562SOL     OW22144   4.504   4.610   4.921  0.2946  0.0798 -0.3806
 3562SOL    HW122145   4.473   4.693   4.958  0.2947 -0.0328 -0.1272
 3562SOL    HW222146   4.451   4.549   4.972  0.7479 -1.1370 -1.3606
 3563SOL     OW22147   0.501   0.965   5.155  0.3833  0.1487 -0.1227
 3563SOL    HW122148   0.477   0.898   5.091  1.4349 -0.1448 -0.2112
 3563SOL    HW222149   0.521   1.046   5.109  0.7341 -0.0429 -0.3166
 3564SOL     OW22150   1.437   2.870   3.192 -0.3126 -0.1961 -0.5222
 3564SOL    HW122151   1.479   2.797   3.145  1.2659 -0.5010  1.3784
 3564SOL    HW222152   1.458   2.857   3.284  1.2107  1.5822 -0.6113
 3565SOL     OW22153   4.000   0.071   2.343  0.2503  0.1025  1.0034
 3565SOL    HW122154   3.967   4.705   2.339  1.8052 -0.4309 -0.0811
 3565SOL    HW222155   4.068   0.066   2.410  0.5446  0.7033  0.7499
 3566SOL     OW22156   1.471   1.962   2.789  0.3214 -0.2602 -0.0401
 3566SOL    HW122157   1.436   2.011   2.715  1.5915 -1.3342 -1.3568
 3566SOL    HW222158   1.562   1.974   2.763  0.6859 -0.4617  1.1582
 3567SOL     OW22159   4.605   0.460  17.496 -0.3947 -0.0836  0.0127
 3567SOL    HW122160   4.592   0.546  17.534 -1.1289 -1.5414  3.0584
 3567SOL    HW222161   4.573   0.468  17.406  1.1250 -1.3261 -0.6450
 3568SOL     OW22162   0.775   1.746   7.338 -0.1879  0.3550 -0.0057
 3568SOL    HW122163   0.809   1.718   7.423  2.5025  1.2729 -0.7790
 3568SOL    HW222164   0.687   1.714   7.357 -0.2517  0.6815  0.2604
 3569SOL     OW22165   2.609   1.750   8.897 -0.2394  0.4102  0.1608
 3569SOL    HW122166   2.592   1.718   8.986  0.3210  4.9408  1.9056
 3569SOL    HW222167   2.704   1.756   8.902  0.0067 -1.7150 -1.9150
 3570SOL     OW22168   1.541   0.020   6.577 -0.3698  0.2291  0.2324
 3570SOL    HW122169   1.619   0.036   6.631 -0.8449 -0.0281  0.9940
 3570SOL    HW222170   1.497   4.687   6.640 -0.6483  0.6022  0.3710
 3571SOL     OW22171   1.212   0.596  12.161 -0.6456 -0.3032  0.2009
 3571SOL    HW122172   1.163   0.673  12.190  0.1611 -0.3229  1.6302
 3571SOL    HW222173   1.150   0.538  12.118  1.2109 -2.6090  0.6236
 3572SOL     OW22174   0.150   2.223   8.841 -0.4369  0.4112  0.3237
 3572SOL    HW122175   0.106   2.308   8.844 -0.2684  0.4611  1.4303
 3572SOL    HW222176   0.243   2.246   8.841  0.5412 -3.5827 -0.4843
 3573SOL     OW22177   0.344   2.536   0.379  0.1392  0.2033 -0.9070
 3573SOL    HW122178   0.369   2.497   0.295 -0.4658 -0.6485 -0.6780
 3573SOL    HW222179   0.419   2.595   0.391 -0.1005  0.2172  0.4761
 3574SOL     OW22180   1.473   2.156   6.801  0.0263  0.5501  0.0174
 3574SOL    HW122181   1.483   2.160   6.706 -1.2036 -1.8754 -0.2182
 3574SOL    HW222182   1.426   2.073   6.812  0.1520  0.4148 -0.4870
 3575SOL     OW22183   3.029   0.799   6.890 -0.1324  1.0366  0.1978
 3575SOL    HW122184   3.017   0.784   6.984 -2.4406 -0.0414 -0.2609
 3575SOL    HW222185   3.038   0.892   6.870  0.2422  1.0549  0.4559
 3576SOL     OW22186   2.926   3.584   3.674  0.0624  0.7949  0.6071
 3576SOL    HW122187   2.972   3.668   3.670 -0.7816  1.2512  0.5607
 3576SOL    HW222188   2.847   3.595   3.622  0.1045  1.3944  0.6764
 3577SOL     OW22189   4.408   0.115  16.342  0.1587 -0.0045  0.1225
 3577SOL    HW122190   4.471   0.179  16.373  0.2617  0.2249 -0.5636
 3577SOL    HW222191   4.417   0.063  16.422 -1.3204 -2.2342 -1.1615
 3578SOL     OW22192   3.346   0.778   0.191 -0.3135 -0.5298 -0.1055
 3578SOL    HW122193   3.322   0.799   0.100 -3.6613  0.6959  1.0623
 3578SOL    HW222194   3.436   0.810   0.194 -0.1498 -0.8825 -1.2491
 3579SOL     OW22195   0.367   1.477   4.884 -0.5576 -0.1093  0.1046
 3579SOL    HW122196   0.299   1.538   4.855 -0.4211 -0.2013 -0.4081
 3579SOL    HW222197   0.346   1.467   4.977  1.3172 -0.7888  0.4581
 3580SOL     OW22198   3.441   1.908   9.019  0.2445  0.0941  0.3411
 3580SOL    HW122199   3.350   1.924   9.042  0.6544 -0.8449  2.6298
 3580SOL    HW222200   3.464   1.831   9.070  1.7792 -0.1151 -0.6789
 3581SOL     OW22201   4.333   2.408   6.277 -0.6590  0.0716  0.3471
 3581SOL    HW122202   4.240   2.433   6.273 -0.5102  0.5433 -0.2112
 3581SOL    HW222203   4.364   2.449   6.196  0.5568 -0.4727  0.5456
 3582SOL     OW22204   1.781   1.024   7.705  0.0132 -0.1888  0.1092
 3582SOL    HW122205   1.748   0.973   7.780  0.2430 -1.2485 -0.5131
 3582SOL    HW222206   1.875   1.015   7.714  0.2171  1.9303  0.0880
 3583SOL     OW22207   3.999   0.907   7.465 -0.1668 -0.1959  0.0063
 3583SOL    HW122208   3.962   0.907   7.377 -0.7205 -0.6152  0.2314
 3583SOL    HW222209   4.011   0.814   7.488 -2.2754  0.0723  2.3181
 3584SOL     OW22210   2.683   4.101  14.375 -0.0788  0.0687 -0.2105
 3584SOL    HW122211   2.697   4.188  14.336  1.9528  0.8234  2.2087
 3584SOL    HW222212   2.721   4.049  14.304 -3.4678 -0.1891 -1.8631
 3585SOL     OW22213   1.612   2.657   2.623  0.1602  0.1977 -0.4146
 3585SOL    HW122214   1.640   2.719   2.557  3.2018 -0.1427  0.5541
 3585SOL    HW222215   1.521   2.648   2.596 -0.5902 -2.8592  3.1324
 3586SOL     OW22216   3.214   1.495   6.750 -0.5727  0.1734 -0.1036
 3586SOL    HW122217   3.121   1.475   6.763 -1.0737  1.3806 -1.8487
 3586SOL    HW222218   3.205   1.587   6.725  3.5304  0.3627 -0.9207
 3587SOL     OW22219   2.261   1.317   4.737 -0.2249 -0.1863  0.8167
 3587SOL    HW122220   2.281   1.223   4.730 -0.0001 -0.2796  2.5716
 3587SOL    HW222221   2.276   1.341   4.646  1.5002  0.0210  1.1512
 3588SOL     OW22222   4.244   4.302  10.385  0.2010 -0.3340  0.5488
 3588SOL    HW122223   4.212   4.213  10.371  1.7279 -1.0616  1.7012
 3588SOL    HW222224   4.233   4.302  10.480  0.0866 -0.5222  0.5351
 3589SOL     OW22225   1.707   2.265   8.163  0.3534  0.3799 -0.3530
 3589SOL    HW122226   1.678   2.205   8.231  0.9012 -0.1166 -0.5625
 3589SOL    HW222227   1.778   2.306   8.212 -0.7432  0.0417  1.4907
 3590SOL     OW22228   4.627   1.175   1.979 -0.1183  0.0859  0.0380
 3590SOL    HW122229   4.707   1.127   1.960 -0.2891 -1.2150  2.4895
 3590SOL    HW222230   4.647   1.268   1.990 -1.0814  0.2695  0.2821
 3591SOL     OW22231   4.321   4.312  10.115  0.2821 -0.4570  0.1914
 3591SOL    HW122232   4.404   4.357  10.105 -2.0275  3.4313 -1.6430
 3591SOL    HW222233   4.322   4.298  10.210 -0.7584 -1.5609  0.0395
 3592SOL     OW22234   1.265   0.242  15.036 -0.3562 -0.2210 -0.0847
 3592SOL    HW122235   1.234   0.205  14.954  0.4720  0.4420 -0.6874
 3592SOL    HW222236   1.360   0.240  15.030 -0.3666  0.7953 -0.6027
 3593SOL     OW22237   0.915   1.521  14.690 -0.0242  0.6533  0.7912
 3593SOL    HW122238   0.971   1.544  14.765  0.6099 -2.6065  1.3382
 3593SOL    HW222239   0.938   1.428  14.688 -0.2078  0.6471 -0.6366
 3594SOL     OW22240   3.423   4.090  16.904  0.0287 -0.5114 -0.1462
 3594SOL    HW122241   3.504   4.043  16.884 -0.9485 -1.9585 -0.7030
 3594SOL    HW222242   3.362   4.039  16.850  0.3529 -0.3073 -0.7108
 3595SOL     OW22243   3.477   3.805   9.400  0.3315 -0.8588 -0.3231
 3595SOL    HW122244   3.554   3.862   9.408  0.9330 -1.2010 -3.9362
 3595SOL    HW222245   3.462   3.785   9.493  2.9260 -1.9680 -0.1450
 3596SOL     OW22246   1.928   1.414  10.183  0.1232 -0.3490 -0.0678
 3596SOL    HW122247   1.979   1.378  10.111  1.8960 -0.0315  1.0288
 3596SOL    HW222248   1.835   1.403  10.164  0.2211 -0.4329 -0.4854
 3597SOL     OW22249   3.886   1.143   3.522  0.1911 -0.0706  0.1861
 3597SOL    HW122250   3.850   1.134   3.434  1.2994 -0.1318 -0.2591
 3597SOL    HW222251   3.902   1.237   3.537 -2.4931  0.1740  1.4647
 3598SOL     OW22252   2.697   1.991   6.255 -0.4923  0.1044 -0.0090
 3598SOL    HW122253   2.700   1.922   6.189 -0.0582  2.4560 -2.4437
 3598SOL    HW222254   2.786   1.995   6.292  0.5493  1.5391 -2.6547
 3599SOL     OW22255   2.463   0.334   9.799  0.3652 -0.4271 -0.3739
 3599SOL    HW122256   2.369   0.341   9.813  0.5315 -2.2361  1.6491
 3599SOL    HW222257   2.474   0.419   9.756 -2.0558 -0.3966 -0.9253
 3600SOL     OW22258   2.901   2.056   5.238  0.4937  0.2457  0.0300
 3600SOL    HW122259   2.993   2.068   5.216  0.4414  1.2827  0.3828
 3600SOL    HW222260   2.906   1.973   5.285  2.2245  1.0373  1.2131
 3601SOL     OW22261   3.556   2.281  10.164  0.2578 -0.6151  0.2008
 3601SOL    HW122262   3.651   2.295  10.168  0.8249 -3.6973 -2.2353
 3601SOL    HW222263   3.544   2.258  10.072 -0.9380  0.8202 -0.0026
 3602SOL     OW22264   2.413   0.257  14.008  0.0632 -0.3830  0.1209
 3602SOL    HW122265   2.354   0.290  14.075 -0.0211 -1.2170  0.4567
 3602SOL    HW222266   2.491   0.252  14.063  0.4608 -1.5299 -0.5477
 3603SOL     OW22267   0.807   3.454  14.809  0.2221  1.0729 -0.1386
 3603SOL    HW122268   0.759   3.536  14.798 -2.3030 -0.6216 -1.5456
 3603SOL    HW222269   0.886   3.499  14.839 -0.3692  1.8635  0.2331
 3604SOL     OW22270   2.042   4.171   6.857 -0.3370 -0.0522 -0.2528
 3604SOL    HW122271   2.020   4.083   6.825  0.4542 -1.1883  2.2706
 3604SOL    HW222272   2.123   4.150   6.903 -0.9975  0.1192  1.0084
 3605SOL     OW22273   3.565   1.717   9.189 -0.8087  0.2756 -0.0149
 3605SOL    HW122274   3.651   1.712   9.148 -2.1549 -1.1668 -2.5925
 3605SOL    HW222275   3.561   1.651   9.258 -2.3685  0.1369 -0.2379
 3606SOL     OW22276   2.842   3.424  11.082  0.0145  0.0254 -0.5170
 3606SOL    HW122277   2.888   3.358  11.134  0.6406  0.9839  0.1392
 3606SOL    HW222278   2.750   3.417  11.110  0.9040 -0.2683  2.3010
 3607SOL     OW22279   0.905   4.068   3.893 -0.3023 -0.0577  0.4618
 3607SOL    HW122280   0.988   4.116   3.890 -0.7498  0.5908 -1.9011
 3607SOL    HW222281   0.917   4.041   3.802  2.5025  0.5406  0.6430
 3608SOL     OW22282   2.374   0.233   8.381  0.0402  0.6889 -0.2548
 3608SOL    HW122283   2.300   0.280   8.341 -0.3153  0.4755  0.1485
 3608SOL    HW222284   2.346   0.230   8.472  1.5624  1.0348  0.2101
 3609SOL     OW22285   1.411   3.148   2.486 -0.5080 -0.3634  0.3339
 3609SOL    HW122286   1.372   3.073   2.441  0.4129 -0.8890  0.4162
 3609SOL    HW222287   1.327   3.184   2.517  1.2590  1.5737  2.8260
 3610SOL     OW22288   1.006   4.638   3.376  0.4241 -0.8500  0.2132
 3610SOL    HW122289   0.997   4.624   3.281 -3.1369 -2.4007  0.7895
 3610SOL    HW222290   1.062   4.716   3.372 -1.4614  0.5481  0.7926
 3611SOL     OW22291   0.049   1.602   1.201 -0.1812  0.3007 -0.2037
 3611SOL    HW122292   0.082   1.512   1.208  2.5104  1.2441 -0.8843
 3611SOL    HW222293   0.115   1.650   1.251  0.2490 -0.9292  0.4052
 3612SOL     OW22294   0.550   3.250   4.626  0.4202 -0.0315 -0.0522
 3612SOL    HW122295   0.574   3.161   4.654 -0.9592 -0.4110 -0.0813
 3612SOL    HW222296   0.582   3.289   4.707 -1.3106 -2.4101  1.7696
 3613SOL     OW22297   2.834   0.036  16.384  0.1274 -0.3863 -0.0944
 3613SOL    HW122298   2.863   0.092  16.312 -1.0284 -1.4614 -1.3901
 3613SOL    HW222299   2.769   0.095  16.421  2.7567  1.0582  2.2400
 3614SOL     OW22300   1.157   1.677   4.723  0.5234 -0.1219 -0.1246
 3614SOL    HW122301   1.157   1.644   4.813 -1.5169 -2.4219 -0.9610
 3614SOL    HW222302   1.215   1.753   4.726 -0.7075  0.8437 -0.4279
 3615SOL     OW22303   3.986   0.136   8.799 -0.0185  0.1472 -0.3583
 3615SOL    HW122304   3.949   0.221   8.821 -0.2394 -0.7393  2.7198
 3615SOL    HW222305   4.033   0.165   8.721  1.8207 -0.0303  0.6788
 3616SOL     OW22306   4.690   1.933   3.546  0.3123  0.3887 -0.2749
 3616SOL    HW122307   4.714   1.960   3.634 -0.9986  0.8414 -0.0592
 3616SOL    HW222308   0.033   1.984   3.499  1.1858  0.1654  0.7197
 3617SOL     OW22309   2.510   3.642   9.149 -0.2567  0.0574 -0.3422
 3617SOL    HW122310   2.522   3.684   9.064  0.7201  2.0803  0.7968
 3617SOL    HW222311   2.537   3.711   9.209 -0.9646 -0.3521  0.4484
 3618SOL     OW22312   0.313   2.601   2.194  0.2842 -0.2506 -0.1025
 3618SOL    HW122313   0.325   2.695   2.212  0.9841 -1.1339  3.9713
 3618SOL    HW222314   0.404   2.571   2.199 -0.0113 -1.3244 -1.5268
 3619SOL     OW22315   0.340   0.553   8.610  0.4457  0.0154 -0.5599
 3619SOL    HW122316   0.279   0.565   8.683 -1.4480  2.3158 -2.5116
 3619SOL    HW222317   0.371   0.469   8.645 -2.0704 -0.3066  0.8966
 3620SOL     OW22318   3.648   4.462   6.641  0.2177  0.5293 -0.1769
 3620SOL    HW122319   3.714   4.468   6.709  0.4852 -1.4826 -0.2505
 3620SOL    HW222320   3.695   4.481   6.560 -1.9426  1.0233 -1.3311
 3621SOL     OW22321   1.554   1.910   0.607 -0.1700 -0.1462  0.3120
 3621SOL    HW122322   1.486   1.975   0.623 -0.8323 -0.3284 -1.7978
 3621SOL    HW222323   1.587   1.944   0.525 -0.1928  0.5639  0.6021
 3622SOL     OW22324   0.805   1.396  11.516  0.0987  0.1076  0.3558
 3622SOL    HW122325   0.814   1.301  11.503  0.2820  0.2070 -0.2382
 3622SOL    HW222326   0.864   1.450  11.463 -0.2585 -0.2969 -0.4466
 3623SOL     OW22327   1.152   4.224   3.517 -0.0712 -0.6799  0.1821
 3623SOL    HW122328   1.227   4.194   3.465 -0.3639  0.4624 -0.8886
 3623SOL    HW222329   1.171   4.315   3.538 -1.0181 -0.4932  0.2198
 3624SOL     OW22330   2.469   1.738   6.440 -0.7907  0.3452 -0.0394
 3624SOL    HW122331   2.506   1.777   6.519 -0.2313  0.5902 -0.4183
 3624SOL    HW222332   2.427   1.817   6.406  0.8214  1.6318  0.9929
 3625SOL     OW22333   3.121   4.137   6.562  0.0532  0.4812 -0.6629
 3625SOL    HW122334   3.155   4.204   6.503 -1.0818  2.7095  1.2548
 3625SOL    HW222335   3.050   4.179   6.610  1.0160  0.2471  0.9456
 3626SOL     OW22336   1.713   1.429   2.276 -0.0834  0.4622 -0.1283
 3626SOL    HW122337   1.715   1.408   2.370  0.9057  1.8615  0.1661
 3626SOL    HW222338   1.659   1.508   2.284 -2.3600 -1.3067  2.0711
 3627SOL     OW22339   4.496   0.518   7.640  0.2295  0.1216 -0.4244
 3627SOL    HW122340   4.528   0.607   7.654  0.8749  0.2130 -2.5236
 3627SOL    HW222341   4.505   0.491   7.731 -3.1015 -0.3366 -0.2224
 3628SOL     OW22342   2.266   2.702   5.074  0.0903 -0.1118  0.0408
 3628SOL    HW122343   2.208   2.641   5.121  0.2176  0.6533  1.1893
 3628SOL    HW222344   2.199   2.732   5.014 -0.7150 -0.0607  0.9611
 3629SOL     OW22345   3.408   0.340   3.863  0.4691  0.4547 -0.1143
 3629SOL    HW122346   3.461   0.328   3.784  0.0522  1.8182 -0.6042
 3629SOL    HW222347   3.330   0.378   3.823  1.1085 -1.6566 -3.3717
 3630SOL     OW22348   4.587   1.548  10.673  0.4138 -0.0844 -0.0152
 3630SOL    HW122349   4.566   1.461  10.637 -1.2363  0.7211 -1.0192
 3630SOL    HW222350   4.665   1.566  10.620 -1.1092  2.0233 -1.5160
 3631SOL     OW22351   1.086   3.587   7.927  0.2705 -0.3538  0.5333
 3631SOL    HW122352   1.076   3.565   8.020 -2.7406  0.2017  0.3301
 3631SOL    HW222353   1.023   3.524   7.890 -0.7897 -0.5366  2.6238
 3632SOL     OW22354   4.579   3.133   6.062 -0.2829 -0.3865 -0.4458
 3632SOL    HW122355   4.661   3.100   6.099  0.7357  2.4827 -0.1610
 3632SOL    HW222356   4.542   3.197   6.123 -0.3622 -0.7120 -0.1475
 3633SOL     OW22357   1.061   0.635  15.783 -0.0339 -0.0338  0.0224
 3633SOL    HW122358   1.145   0.665  15.747  0.6810 -0.6105  1.1993
 3633SOL    HW222359   1.066   0.542  15.762 -2.2947 -0.1225 -0.1093
 3634SOL     OW22360   4.694   0.185   7.985  0.0862 -0.5168 -0.2732
 3634SOL    HW122361   0.049   0.145   7.947  1.3359 -0.0211  1.7487
 3634SOL    HW222362   0.020   0.204   8.065 -0.7490 -1.8001  0.5545
 3635SOL     OW22363   2.961   2.952  16.329 -0.4223  0.1289 -0.3206
 3635SOL    HW122364   2.880   2.902  16.326 -0.6943  0.6154 -0.8791
 3635SOL    HW222365   2.994   2.918  16.413 -1.3091  1.7185  0.6566
 3636SOL     OW22366   1.864   0.596   0.261 -0.3354 -0.6630 -0.0704
 3636SOL    HW122367   1.809   0.546   0.201 -3.4587  4.2552 -1.3767
 3636SOL    HW222368   1.842   0.685   0.234 -1.8615 -0.2669  2.4878
 3637SOL     OW22369   4.380   1.850   5.332  0.3869  0.3277 -0.2669
 3637SOL    HW122370   4.390   1.759   5.304 -0.1312 -0.0985  0.9812
 3637SOL    HW222371   4.298   1.878   5.290 -0.3454 -0.5017  0.6363
 3638SOL     OW22372   4.439   1.115   3.861  0.3907 -0.3632 -0.0375
 3638SOL    HW122373   4.390   1.040   3.828  0.0852  0.3690 -1.2401
 3638SOL    HW222374   4.429   1.167   3.781  2.5405  2.1921  1.3593
 3639SOL     OW22375   0.679   1.735   6.117  0.0857 -0.0195 -0.4850
 3639SOL    HW122376   0.620   1.741   6.042 -0.7760  1.7577  0.3445
 3639SOL    HW222377   0.617   1.728   6.190 -0.7921  0.2661 -1.1999
 3640SOL     OW22378   2.447   4.396   9.037  0.0069 -0.0666  0.0168
 3640SOL    HW122379   2.464   4.444   9.118  0.4849  0.7798 -0.5745
 3640SOL    HW222380   2.473   4.464   8.975  0.9066 -1.2571 -0.8986
 3641SOL     OW22381   4.489   0.255   5.920 -0.3887  0.4229  0.3682
 3641SOL    HW122382   4.571   0.275   5.875 -0.8707 -1.0424 -1.1679
 3641SOL    HW222383   4.432   0.240   5.845  2.2007 -0.5963 -1.3876
 3642SOL     OW22384   4.573   0.976   3.037 -0.2495 -0.2121 -0.2376
 3642SOL    HW122385   4.583   1.052   2.981 -0.6847 -1.0533 -1.4561
 3642SOL    HW222386   4.658   0.933   3.026 -0.6243 -1.3283  1.1853
 3643SOL     OW22387   4.220   2.010  12.018  0.1090  0.0363 -0.0996
 3643SOL    HW122388   4.208   1.915  12.026  0.9955 -0.2229 -1.7218
 3643SOL    HW222389   4.312   2.011  11.994  0.2350  0.3193  0.4113
 3644SOL     OW22390   2.533   4.643  13.287  0.3197 -0.6593  1.2418
 3644SOL    HW122391   2.517   0.005  13.327 -0.6827  0.5593 -1.7592
 3644SOL    HW222392   2.539   4.662  13.193  0.3078 -1.0821  1.1527
 3645SOL     OW22393   0.060   0.912   0.793 -0.1218  0.0061  0.4698
 3645SOL    HW122394   4.714   0.854   0.761 -1.4829  1.5261  0.6332
 3645SOL    HW222395   0.121   0.912   0.720 -0.6462  0.9892  0.0272
 3646SOL     OW22396   2.147   3.910   5.294  0.0069  0.3104 -0.4099
 3646SOL    HW122397   2.189   3.972   5.354 -1.1914  1.2748 -0.5759
 3646SOL    HW222398   2.173   3.946   5.210 -0.0208  1.0446 -0.0998
 3647SOL     OW22399   3.118   0.330   4.090 -0.0368 -0.5303 -0.1499
 3647SOL    HW122400   3.200   0.281   4.085  1.2865  1.4893  1.5721
 3647SOL    HW222401   3.093   0.329   3.997 -1.6867 -1.7393  0.3245
 3648SOL     OW22402   1.694   0.441   0.135  0.2595 -0.0931 -0.3865
 3648SOL    HW122403   1.632   0.474   0.201 -0.9252 -2.5368 -0.2669
 3648SOL    HW222404   1.640   0.413   0.061  1.0339 -1.4552 -0.4220
 3649SOL     OW22405   0.631   2.114  15.610  0.7771 -0.2980 -0.3414
 3649SOL    HW122406   0.684   2.134  15.688 -1.3055  2.1843  0.4650
 3649SOL    HW222407   0.606   2.022  15.608 -0.7946  0.1136 -0.1805
 3650SOL     OW22408   0.679   3.285   2.364 -0.0560  0.2285 -0.0324
 3650SOL    HW122409   0.762   3.283   2.316 -0.3779 -0.3523 -0.5557
 3650SOL    HW222410   0.710   3.240   2.442  1.1270  1.8887  0.4624
 3651SOL     OW22411   2.260   3.480   7.544  0.1921  0.6916  0.0409
 3651SOL    HW122412   2.337   3.526   7.510  0.6189  0.1502  0.2740
 3651SOL    HW222413   2.296   3.455   7.629 -1.2196 -0.9529  0.1423
 3652SOL     OW22414   1.360   0.947   0.441 -0.4784  0.1218  1.0121
 3652SOL    HW122415   1.388   1.032   0.474  0.6583 -0.5863  1.8502
 3652SOL    HW222416   1.331   0.967   0.352 -2.7678 -3.4171  0.9650
 3653SOL     OW22417   2.976   2.261   8.182 -0.1379  0.1332  0.5309
 3653SOL    HW122418   3.017   2.271   8.096 -1.6762  0.5861 -0.1398
 3653SOL    HW222419   3.037   2.301   8.243  0.2569 -0.2276  0.3749
 3654SOL     OW22420   3.597   3.845  13.909 -0.3679 -0.2886  0.5712
 3654SOL    HW122421   3.582   3.755  13.880 -0.3328 -1.6727  4.9465
 3654SOL    HW222422   3.578   3.841  14.003  1.4806  2.4095  1.0530
 3655SOL     OW22423   1.662   1.993   0.371  0.3136  0.1567  0.4121
 3655SOL    HW122424   1.726   2.034   0.314  0.1132 -1.2778 -0.8597
 3655SOL    HW222425   1.631   1.917   0.321  2.6568 -0.4368 -0.1395
 3656SOL     OW22426   1.798   2.712  14.082  0.6745 -0.0143 -0.9368
 3656SOL    HW122427   1.873   2.746  14.133  0.2814 -2.5654  1.3020
 3656SOL    HW222428   1.763   2.794  14.046 -0.2093  0.6482  1.4454
 3657SOL     OW22429   0.909   0.802   4.876 -0.1834 -0.1610  0.7821
 3657SOL    HW122430   0.926   0.862   4.803  1.3361  3.3119  4.0054
 3657SOL    HW222431   0.976   0.819   4.943 -0.6205  2.1355  0.6477
 3658SOL     OW22432   1.677   3.110   8.301  0.4454 -0.2270 -0.4215
 3658SOL    HW122433   1.723   3.087   8.382 -1.5037  0.0846  0.7893
 3658SOL    HW222434   1.723   3.049   8.244 -0.3558  0.6938 -2.0312
 3659SOL     OW22435   2.226   2.609   7.012 -0.0671  0.2479  0.4270
 3659SOL    HW122436   2.294   2.557   7.054 -0.5277 -0.3332  0.4556
 3659SOL    HW222437   2.150   2.586   7.065 -1.3365  2.4289 -0.4208
 3660SOL     OW22438   2.320   0.258  17.136  0.8074 -0.1628  0.0426
 3660SOL    HW122439   2.409   0.232  17.111  0.9880  1.1853 -0.7302
 3660SOL    HW222440   2.296   0.187  17.195  0.1257 -0.1600 -0.2376
 3661SOL     OW22441   0.203   2.623   7.988 -0.1472  0.5694  0.1330
 3661SOL    HW122442   0.112   2.593   7.994  0.1783 -0.5012 -0.1243
 3661SOL    HW222443   0.222   2.658   8.075  1.9296 -2.4380  0.9336
 3662SOL     OW22444   1.864   2.167   5.402  0.7051 -0.1168  0.3197
 3662SOL    HW122445   1.774   2.189   5.380  0.9175 -1.1475 -1.5425
 3662SOL    HW222446   1.875   2.227   5.476  1.0335 -0.5626  0.6327
 3663SOL     OW22447   3.812   3.887  15.810 -0.4124 -0.0114 -0.4262
 3663SOL    HW122448   3.845   3.969  15.846  1.6102 -0.8182 -0.4178
 3663SOL    HW222449   3.768   3.845  15.884  0.5979  0.8900  0.6905
 3664SOL     OW22450   2.830   3.303   6.380 -0.6770  0.0675  0.2838
 3664SOL    HW122451   2.906   3.295   6.438  0.3613 -0.3669 -1.1523
 3664SOL    HW222452   2.767   3.358   6.427  0.6737 -0.3269  2.5413
 3665SOL     OW22453   3.070   0.395   8.403 -0.0813 -0.4833 -0.3559
 3665SOL    HW122454   3.142   0.340   8.434  0.6615  0.1352 -0.9588
 3665SOL    HW222455   2.996   0.358   8.449  0.1147 -1.6857 -1.0003
 3666SOL     OW22456   1.578   4.090   6.663 -0.1093  0.0098  0.4797
 3666SOL    HW122457   1.659   4.055   6.625 -0.8965 -1.2552 -0.0153
 3666SOL    HW222458   1.512   4.024   6.644 -0.1732  1.1452 -3.1162
 3667SOL     OW22459   1.617   0.860   8.914 -0.2282 -0.0558  0.1585
 3667SOL    HW122460   1.605   0.886   9.005 -0.9937 -2.2239  0.6822
 3667SOL    HW222461   1.647   0.944   8.878  2.0609 -0.3306  1.4217
 3668SOL     OW22462   2.723   1.771   7.453  0.2287  0.2598 -0.1990
 3668SOL    HW122463   2.657   1.737   7.514  1.2613  0.9139  1.2868
 3668SOL    HW222464   2.795   1.712   7.474  0.8181  1.4298  1.0684
 3669SOL     OW22465   2.065   3.882   2.938  0.2005 -0.6542  0.0007
 3669SOL    HW122466   2.109   3.855   3.019 -1.5253  0.5063  1.3067
 3669SOL    HW222467   2.027   3.808   2.890 -4.9530  1.3859  0.9969
 3670SOL     OW22468   2.489   2.800   8.474  0.5817  0.7184  0.3859
 3670SOL    HW122469   2.497   2.849   8.392  1.5816  1.5168  0.9625
 3670SOL    HW222470   2.515   2.711   8.450  2.2214  1.4207 -0.4655
 3671SOL     OW22471   0.209   4.074   5.954  0.1981 -0.0582 -0.0776
 3671SOL    HW122472   0.278   4.109   6.009  1.7667 -0.3940 -1.8457
 3671SOL    HW222473   0.208   3.980   5.972  0.3316 -0.5013 -2.4122
 3672SOL     OW22474   0.524   0.009   4.801 -0.7292 -0.3436 -0.0622
 3672SOL    HW122475   0.509   0.099   4.830 -2.5112 -0.1617 -1.5090
 3672SOL    HW222476   0.538   4.694   4.887 -0.9172  1.1719  0.6636
 3673SOL     OW22477   2.510   2.232   0.836  0.0117 -0.3004 -0.2266
 3673SOL    HW122478   2.442   2.199   0.894  0.3751  0.9238  0.8837
 3673SOL    HW222479   2.590   2.209   0.883  0.0221 -0.2552 -0.2230
 3674SOL     OW22480   0.428   1.122  10.837  0.2356 -0.3288  0.1064
 3674SOL    HW122481   0.473   1.169  10.767  0.7270  0.4830  0.9699
 3674SOL    HW222482   0.379   1.195  10.875 -0.3891 -1.3768  1.3203
 3675SOL     OW22483   3.384   0.980   2.436 -0.7996 -0.3141 -0.2470
 3675SOL    HW122484   3.446   0.953   2.504 -0.4353  1.4245  0.0967
 3675SOL    HW222485   3.315   0.915   2.453 -0.4404 -0.6763 -0.1622
 3676SOL     OW22486   1.261   2.936   2.381  0.5207 -0.1640 -0.0907
 3676SOL    HW122487   1.325   2.866   2.366 -0.0490 -1.4607  3.4120
 3676SOL    HW222488   1.199   2.885   2.434 -0.2018 -0.5024 -1.2514
 3677SOL     OW22489   1.090   4.103   8.716 -0.1115  0.0997 -0.8027
 3677SOL    HW122490   0.997   4.087   8.700 -0.3981  1.8961 -0.9356
 3677SOL    HW222491   1.095   4.100   8.811  0.1777  2.3826 -0.7550
 3678SOL     OW22492   0.317   2.739  17.532 -0.2427 -0.1242  0.1322
 3678SOL    HW122493   0.390   2.686  17.566 -2.2945 -2.2755  1.1757
 3678SOL    HW222494   0.348   2.784  17.454 -0.1471 -0.1388  0.1617
 3679SOL     OW22495   2.146   0.581  12.847  0.1493 -0.0535 -0.2151
 3679SOL    HW122496   2.236   0.602  12.873 -0.3168  1.7869 -0.1312
 3679SOL    HW222497   2.106   0.667  12.841  1.4184  0.5482 -0.1543
 3680SOL     OW22498   4.589   2.736   7.575  0.9394  0.9399 -0.6595
 3680SOL    HW122499   4.620   2.803   7.515  3.0644 -0.8044 -1.4922
 3680SOL    HW222500   4.643   2.750   7.653 -0.7298  0.5252  0.5829
 3681SOL     OW22501   3.952   0.945  10.916  0.0623 -0.2021 -0.2260
 3681SOL    HW122502   3.914   0.994  10.989 -2.3433 -0.9475 -0.9679
 3681SOL    HW222503   3.887   0.877  10.896 -1.2909  1.2260 -0.6078
 3682SOL     OW22504   3.371   2.612   6.510  0.0316 -0.2769  0.1213
 3682SOL    HW122505   3.408   2.566   6.585  0.9159 -0.8793 -0.6911
 3682SOL    HW222506   3.310   2.672   6.553  1.0413  0.8158  0.0272
 3683SOL     OW22507   2.075   3.116   5.930  0.0824 -0.0080 -0.4025
 3683SOL    HW122508   2.070   3.209   5.906  0.4720  0.3174  0.7522
 3683SOL    HW222509   1.987   3.103   5.964  0.8763 -4.5708 -0.1351
 3684SOL     OW22510   0.945   1.419   4.380  0.1758 -0.1115 -0.1129
 3684SOL    HW122511   1.014   1.427   4.446 -0.5799 -0.1178  0.6874
 3684SOL    HW222512   0.972   1.337   4.339 -2.4236 -1.4868  0.9558
 3685SOL     OW22513   2.613   3.201  13.298  0.5978  0.5167 -0.2636
 3685SOL    HW122514   2.694   3.230  13.339  1.2138 -1.2043 -0.2675
 3685SOL    HW222515   2.558   3.211  13.376  0.4070 -1.1042 -0.1860
 3686SOL     OW22516   2.455   3.367   5.888  0.0522  0.1134  0.2361
 3686SOL    HW122517   2.378   3.330   5.843 -1.5386  2.3392  1.1353
 3686SOL    HW222518   2.403   3.416   5.952  2.3118  1.2853  1.1399
 3687SOL     OW22519   4.271   0.543   2.163  0.1621 -0.4856  0.0094
 3687SOL    HW122520   4.253   0.609   2.229  1.0296  1.6377 -1.8645
 3687SOL    HW222521   4.362   0.567   2.146 -0.4408 -0.2155 -2.9214
 3688SOL     OW22522   1.391   2.009   7.636  0.1930  0.3270 -0.0442
 3688SOL    HW122523   1.380   2.103   7.622 -0.0053 -0.0632 -2.4928
 3688SOL    HW222524   1.303   1.982   7.662 -0.0715  0.1761 -1.1233
 3689SOL     OW22525   3.229   4.448   2.252 -0.2731 -0.2842 -0.3837
 3689SOL    HW122526   3.159   4.392   2.286 -0.1790 -0.5988 -0.7080
 3689SOL    HW222527   3.175   4.526   2.239  0.8738  0.9119  2.2163
 3690SOL     OW22528   1.126   1.954  17.244 -0.0384  0.2469  0.0877
 3690SOL    HW122529   1.217   1.976  17.264 -0.0890  1.0317 -0.5378
 3690SOL    HW222530   1.099   1.927  17.331 -0.8866 -0.8434 -0.5055
 3691SOL     OW22531   3.568   0.839   8.495  0.4828 -0.1000 -0.2373
 3691SOL    HW122532   3.660   0.814   8.497  0.2398 -1.1463 -2.0061
 3691SOL    HW222533   3.532   0.751   8.504 -1.7681  0.8716  0.3749
 3692SOL     OW22534   3.357   2.820   3.176 -0.7075 -0.8282 -0.0517
 3692SOL    HW122535   3.437   2.783   3.214 -0.1187  0.7030  0.2441
 3692SOL    HW222536   3.361   2.914   3.194 -0.8758 -0.8324  0.0008
 3693SOL     OW22537   0.345   4.664  17.079  0.1048 -0.4217 -0.1510
 3693SOL    HW122538   0.347   4.592  17.142  0.3793 -1.0735 -0.9051
 3693SOL    HW222539   0.285   4.718  17.131 -0.1181 -0.0721 -0.7755
 3694SOL     OW22540   0.770   1.769  13.330 -0.4886 -0.1113  0.2166
 3694SOL    HW122541   0.851   1.723  13.353  0.2454  0.5125 -1.1232
 3694SOL    HW222542   0.755   1.745  13.239  0.4382  0.9688 -0.2311
 3695SOL     OW22543   0.379   0.075  12.339  0.1006 -0.1134  0.4460
 3695SOL    HW122544   0.414   0.024  12.266 -1.2664  1.4534 -1.3180
 3695SOL    HW222545   0.351   0.007  12.400 -0.0664 -0.4278  0.0259
 3696SOL     OW22546   2.325   2.076  13.497 -0.2759  0.4530  0.1940
 3696SOL    HW122547   2.393   2.071  13.429 -0.6513 -2.5010  0.0329
 3696SOL    HW222548   2.378   2.080  13.577  1.3893 -2.4092 -0.7913
 3697SOL     OW22549   1.509   4.418   3.431 -0.1750 -0.1911  0.1190
 3697SOL    HW122550   1.602   4.439   3.435  0.1156 -1.2087 -1.2659
 3697SOL    HW222551   1.468   4.493   3.387 -0.5312 -2.7266 -3.8875
 3698SOL     OW22552   0.096   4.117   4.158 -0.2262 -0.1662 -1.1639
 3698SOL    HW122553   0.129   4.052   4.095  0.4515  0.5034 -1.5002
 3698SOL    HW222554   0.164   4.119   4.225 -0.7075 -2.9067 -0.5739
 3699SOL     OW22555   4.245   3.161  10.109 -0.3147  0.0288 -0.2894
 3699SOL    HW122556   4.187   3.217  10.161 -0.6880 -0.1267 -0.5421
 3699SOL    HW222557   4.183   3.098  10.074  0.9769 -0.8256 -1.0379
 3700SOL     OW22558   2.285   2.835   1.378  0.5779  0.0401 -0.2794
 3700SOL    HW122559   2.337   2.904   1.336 -1.7401  2.9686  1.6388
 3700SOL    HW222560   2.194   2.852   1.351  0.7775  0.6157 -0.5780
 3701SOL     OW22561   2.285   3.440  13.149  0.8849 -0.2836 -0.1169
 3701SOL    HW122562   2.242   3.404  13.071  0.6214  0.7397 -0.4511
 3701SOL    HW222563   2.288   3.373  13.217 -0.1587  0.6124  0.8279
 3702SOL     OW22564   2.772   4.081   8.706  0.2369  0.4301  0.4338
 3702SOL    HW122565   2.750   4.162   8.661 -0.0336 -0.2877 -0.7180
 3702SOL    HW222566   2.867   4.096   8.709  0.1598  0.2842  3.9471
 3703SOL     OW22567   1.750   4.302   4.227 -0.0308 -0.0851 -0.7347
 3703SOL    HW122568   1.761   4.280   4.134  1.0031  0.9270 -0.8449
 3703SOL    HW222569   1.677   4.364   4.220 -1.7047 -1.7235  2.3711
 3704SOL     OW22570   2.273   3.145   8.861  0.7095  0.3850  0.3327
 3704SOL    HW122571   2.341   3.187   8.913 -0.5280  2.3765  0.3350
 3704SOL    HW222572   2.299   3.056   8.883  0.4878  0.4450  0.8462
 3705SOL     OW22573   1.351   1.211   3.835  0.1559 -0.2252 -0.4117
 3705SOL    HW122574   1.317   1.122   3.839 -1.6916  0.5359  1.1447
 3705SOL    HW222575   1.420   1.202   3.769  0.8394 -0.7685  0.3811
 3706SOL     OW22576   3.192   4.075   9.715 -0.1233  0.1043  0.2667
 3706SOL    HW122577   3.110   4.043   9.752  1.4750 -3.5824  0.6869
 3706SOL    HW222578   3.253   4.050   9.785 -0.5267  0.7433  0.8462
 3707SOL     OW22579   1.976   1.810   0.733  0.0210 -0.2515  0.2840
 3707SOL    HW122580   2.066   1.839   0.718 -0.0745  0.1524  0.5127
 3707SOL    HW222581   1.960   1.752   0.658  0.1643 -0.7980  0.6717
 3708SOL     OW22582   0.130   1.362   5.063  0.3361 -0.1584 -0.0324
 3708SOL    HW122583   0.186   1.285   5.056 -0.9635 -1.1096  0.1141
 3708SOL    HW222584   0.070   1.352   4.989 -0.0679 -2.0635  0.5452
 3709SOL     OW22585   0.073   0.705   6.083  0.1611  0.1382  0.4417
 3709SOL    HW122586   0.165   0.703   6.058 -0.2262  0.2146 -0.9670
 3709SOL    HW222587   0.085   0.657   6.166  0.8625  1.4923  1.1291
 3710SOL     OW22588   3.944   0.581   0.721 -0.0529 -0.1888  0.7527
 3710SOL    HW122589   3.867   0.632   0.748 -0.1008  0.0966  0.0609
 3710SOL    HW222590   4.008   0.604   0.789  0.0052  2.2867 -0.1272
 3711SOL     OW22591   1.193   1.801   9.554 -0.0783 -0.0202  0.4927
 3711SOL    HW122592   1.177   1.820   9.646  0.8811 -0.0617  0.6652
 3711SOL    HW222593   1.129   1.862   9.516  0.1257  0.0402  0.2406
 3712SOL     OW22594   2.897   1.748   8.884  0.1549  0.3574 -0.1029
 3712SOL    HW122595   2.913   1.734   8.977 -2.2400  0.2412  0.2814
 3712SOL    HW222596   2.934   1.666   8.852 -1.2542  0.6887 -2.5891
 3713SOL     OW22597   1.148   2.413   1.776 -0.5772  0.7329 -0.0353
 3713SOL    HW122598   1.175   2.493   1.729 -0.4529  0.4879 -0.3824
 3713SOL    HW222599   1.225   2.358   1.760  0.0273  1.2560  1.1150
 3714SOL     OW22600   3.577   1.541   9.384  0.1889 -0.4153  0.7861
 3714SOL    HW122601   3.662   1.502   9.368  0.0553  0.7654 -2.9276
 3714SOL    HW222602   3.522   1.467   9.408  2.8997 -2.5723  0.3053
 3715SOL     OW22603   1.722   4.196  15.507  0.2293 -0.4388 -0.0134
 3715SOL    HW122604   1.806   4.237  15.527 -0.9483  1.7659  0.4844
 3715SOL    HW222605   1.670   4.208  15.587 -1.7395 -2.7824 -0.9648
 3716SOL     OW22606   4.713   2.001   8.843 -0.1671  0.5833 -0.6955
 3716SOL    HW122607   0.036   1.964   8.768  1.5697 -0.4298  0.8889
 3716SOL    HW222608   0.048   2.073   8.868  0.5238  0.6274 -2.4550
 3717SOL     OW22609   4.664   2.328  12.751  0.2893  1.0241 -0.1325
 3717SOL    HW122610   4.581   2.372  12.733 -0.5004 -0.7334 -0.7948
 3717SOL    HW222611   4.669   2.288  12.664  0.2134 -1.6684  1.1224
 3718SOL     OW22612   1.191   1.381   7.509  0.4430 -0.2083  0.5346
 3718SOL    HW122613   1.131   1.387   7.584  1.6342 -0.7843  1.5293
 3718SOL    HW222614   1.164   1.453   7.452 -0.5416  1.1696  2.7195
 3719SOL     OW22615   4.590   1.651   6.464 -0.2524  0.1911 -0.0328
 3719SOL    HW122616   4.646   1.580   6.493  1.0724  0.5715 -1.6904
 3719SOL    HW222617   4.572   1.705   6.542 -2.9626 -0.9165  0.1032
 3720SOL     OW22618   1.894   0.712   8.949 -0.0955 -0.1116 -0.0709
 3720SOL    HW122619   1.816   0.657   8.949 -0.4063  0.3066  1.2974
 3720SOL    HW222620   1.857   0.800   8.959 -0.0879 -0.0947 -0.1889
 3721SOL     OW22621   2.966   1.116   4.089  0.2556  0.3693 -0.4603
 3721SOL    HW122622   2.979   1.092   3.997  0.6220  0.1936 -0.3651
 3721SOL    HW222623   2.983   1.035   4.138  1.3668 -0.4563 -2.2098
 3722SOL     OW22624   1.304   3.426   1.876 -0.2887  0.1595 -0.2341
 3722SOL    HW122625   1.257   3.504   1.845 -1.5375  0.1331  1.5839
 3722SOL    HW222626   1.252   3.357   1.835 -0.4545 -1.5028  2.7197
 3723SOL     OW22627   1.665   2.602   1.304 -0.5804 -0.1322 -0.4035
 3723SOL    HW122628   1.639   2.516   1.270 -0.8088 -0.7290  1.2457
 3723SOL    HW222629   1.678   2.654   1.225 -2.2974 -0.2779 -0.7932
 3724SOL     OW22630   2.919   0.378   5.250 -0.7385  0.4550 -0.0097
 3724SOL    HW122631   2.839   0.350   5.205 -1.1124  0.5079  0.6229
 3724SOL    HW222632   2.954   0.450   5.197  1.7356  0.3781  1.5062
 3725SOL     OW22633   3.243   2.382   6.009 -0.0776 -0.6125  0.0194
 3725SOL    HW122634   3.306   2.450   6.032 -0.3092 -0.1254 -0.8233
 3725SOL    HW222635   3.213   2.408   5.922  0.9034 -0.1506 -0.1731
 3726SOL     OW22636   2.748   2.025   7.545  0.5833 -0.6617  0.9174
 3726SOL    HW122637   2.750   1.932   7.526 -1.6774 -0.7682  1.2160
 3726SOL    HW222638   2.681   2.028   7.613  1.0670  2.3950  1.2890
 3727SOL     OW22639   1.821   4.190   9.589 -0.0830 -0.0910 -0.0617
 3727SOL    HW122640   1.884   4.231   9.649  0.1905 -2.2050  1.0747
 3727SOL    HW222641   1.883   4.135   9.541 -1.6237 -1.4115 -0.5270
 3728SOL     OW22642   2.749   4.184   2.929  0.2295  0.3483  0.6000
 3728SOL    HW122643   2.734   4.155   2.839  0.9493 -1.2801  1.0032
 3728SOL    HW222644   2.659   4.208   2.952  0.3160  0.9555  0.3049
 3729SOL     OW22645   1.648   0.578   5.167 -0.2402  0.3232  0.2945
 3729SOL    HW122646   1.649   0.512   5.098 -0.1829 -1.3669  1.9073
 3729SOL    HW222647   1.636   0.518   5.241 -0.3295  0.9477  0.7851
 3730SOL     OW22648   1.120   3.887  13.994 -0.6923 -0.0532 -0.2493
 3730SOL    HW122649   1.155   3.922  13.912 -2.6318 -0.9244 -1.4377
 3730SOL    HW222650   1.109   3.962  14.052 -1.2489 -0.5645  0.3087
 3731SOL     OW22651   2.771   4.058   4.771  0.4465 -0.3159  0.0377
 3731SOL    HW122652   2.840   4.006   4.811  1.2214  0.7522  0.1085
 3731SOL    HW222653   2.716   3.993   4.726 -1.0106  0.4308  0.7368
 3732SOL     OW22654   0.671   1.741   3.465  0.2838  0.1978  0.4649
 3732SOL    HW122655   0.612   1.669   3.488  0.0818  0.1982 -0.0465
 3732SOL    HW222656   0.725   1.705   3.395 -1.0024 -2.2423  0.7149
 3733SOL     OW22657   3.259   4.073   5.009  0.3099 -0.3706 -0.0348
 3733SOL    HW122658   3.245   4.138   4.940 -1.3071 -1.5016 -0.7629
 3733SOL    HW222659   3.240   3.990   4.966  0.3102  0.9234 -2.5673
 3734SOL     OW22660   2.245   4.430   5.025 -0.3567 -0.2034  0.7423
 3734SOL    HW122661   2.237   4.335   5.029  0.0658 -0.2157  1.3530
 3734SOL    HW222662   2.323   4.459   5.073  1.1428 -2.2061 -0.4996
 3735SOL     OW22663   3.661   4.161  10.261  0.4653  0.3187 -0.1314
 3735SOL    HW122664   3.631   4.217  10.190 -2.0211  1.4395  1.7827
 3735SOL    HW222665   3.749   4.196  10.271  0.0253  1.3472  0.1367
 3736SOL     OW22666   4.092   3.398  11.115 -0.0994 -0.0717 -0.0520
 3736SOL    HW122667   4.038   3.452  11.059 -0.5856 -0.8342 -0.3209
 3736SOL    HW222668   4.025   3.369  11.177  0.5047  0.3050  0.7803
 3737SOL     OW22669   4.330   1.400   2.103 -0.2375 -0.2432 -0.0874
 3737SOL    HW122670   4.393   1.461   2.142 -1.6112  1.9692 -1.2682
 3737SOL    HW222671   4.311   1.341   2.176 -0.1580 -1.8559 -1.3685
 3738SOL     OW22672   2.304   3.673   5.332 -0.0090  0.3131  0.4052
 3738SOL    HW122673   2.371   3.740   5.348 -0.7575  0.9160  1.0035
 3738SOL    HW222674   2.236   3.729   5.296 -1.0153 -1.4127 -0.3739
 3739SOL     OW22675   2.504   4.350   6.462  0.4666  0.0666  0.0835
 3739SOL    HW122676   2.533   4.419   6.522  0.4702 -0.9998  1.3159
 3739SOL    HW222677   2.449   4.403   6.404  2.7654  0.4638 -1.7578
 3740SOL     OW22678   2.234   2.339   0.883 -0.4512  0.1788  0.0990
 3740SOL    HW122679   2.229   2.396   0.806 -1.8422  1.4328  1.1189
 3740SOL    HW222680   2.169   2.383   0.938 -1.6633 -1.5844  0.0827
 3741SOL     OW22681   0.373   3.621  10.799 -0.3680 -0.1437 -0.1754
 3741SOL    HW122682   0.378   3.694  10.860 -0.0358 -0.0329 -0.3353
 3741SOL    HW222683   0.372   3.542  10.854 -5.8801 -1.0378 -1.4801
 3742SOL     OW22684   3.933   0.866   5.491 -0.4203  0.0640 -0.6099
 3742SOL    HW122685   3.997   0.902   5.429  0.0096  0.6419  0.1621
 3742SOL    HW222686   3.889   0.944   5.525 -2.3492 -0.0445 -2.8889
 3743SOL     OW22687   0.089   3.296   2.988 -0.4293  0.3073 -0.2083
 3743SOL    HW122688   0.077   3.213   2.941 -3.5562  0.5057  0.2827
 3743SOL    HW222689   0.016   3.302   3.048  0.2327 -1.7221  0.8005
 3744SOL     OW22690   2.799   3.865   8.557 -0.1538 -0.5886  0.1655
 3744SOL    HW122691   2.756   3.915   8.488 -0.7762 -0.8319  0.3763
 3744SOL    HW222692   2.791   3.926   8.630  1.6754  0.3588 -0.4164
 3745SOL     OW22693   3.959   2.429  17.018  0.0578  0.2605  0.2132
 3745SOL    HW122694   4.013   2.503  16.992 -0.6251  0.7702  0.2452
 3745SOL    HW222695   3.867   2.450  17.002 -0.1665  0.7651  2.1209
 3746SOL     OW22696   1.932   2.071   0.817  0.1270 -0.1752  0.3674
 3746SOL    HW122697   1.925   1.976   0.806  1.5259 -0.2116 -0.2197
 3746SOL    HW222698   2.008   2.092   0.762 -0.0734 -1.3510 -0.3656
 3747SOL     OW22699   0.490   4.070   9.089  0.1149 -0.0786 -0.7703
 3747SOL    HW122700   0.405   4.083   9.047  0.2801  1.4326 -0.6512
 3747SOL    HW222701   0.474   4.091   9.181 -1.8697 -1.3606 -0.8183
 3748SOL     OW22702   2.694   1.095   2.201 -0.2514  0.1080 -0.2413
 3748SOL    HW122703   2.778   1.063   2.168 -0.2635  0.5486 -0.6827
 3748SOL    HW222704   2.663   1.142   2.124  0.3050 -1.2179 -1.2875
 3749SOL     OW22705   3.310   3.529   6.250  0.3902 -0.5821 -0.3012
 3749SOL    HW122706   3.284   3.620   6.265 -0.0290 -0.7145 -0.2226
 3749SOL    HW222707   3.314   3.498   6.340  0.3325  2.4677  0.7571
 3750SOL     OW22708   2.181   2.883   5.868  0.2603  0.1649 -0.4907
 3750SOL    HW122709   2.151   2.969   5.898 -1.0380 -0.3651 -0.2557
 3750SOL    HW222710   2.130   2.876   5.787  1.0312 -1.8606 -0.7927
 3751SOL     OW22711   4.520   2.522   7.259 -0.3442  0.0925 -0.4099
 3751SOL    HW122712   4.430   2.527   7.228 -0.0248  0.4200 -1.2631
 3751SOL    HW222713   4.509   2.546   7.352  1.9184  0.5256 -0.2619
 3752SOL     OW22714   0.644   2.443   6.014  0.3472 -0.3203 -0.3745
 3752SOL    HW122715   0.727   2.446   5.967  0.0623  0.9336 -0.8197
 3752SOL    HW222716   0.634   2.349   6.025 -0.5688  0.0224  1.8052
 3753SOL     OW22717   0.004   1.208   0.467 -0.2537  0.2027 -0.0444
 3753SOL    HW122718   0.047   1.228   0.384  1.5536 -0.4201  0.7601
 3753SOL    HW222719   4.647   1.178   0.424 -0.2850 -0.4813  0.4992
 3754SOL     OW22720   0.238   0.768   4.622  0.3359  0.1859 -0.3048
 3754SOL    HW122721   0.274   0.785   4.709  0.4892  2.0112 -0.7347
 3754SOL    HW222722   0.219   0.858   4.595 -0.3695 -0.0280 -0.5380
 3755SOL     OW22723   1.615   2.557   2.313 -0.7977  0.2506  0.4708
 3755SOL    HW122724   1.692   2.503   2.326 -0.2599  0.8872 -0.0670
 3755SOL    HW222725   1.639   2.609   2.236  0.2075 -2.6712 -1.1947
 3756SOL     OW22726   3.517   1.333  12.638 -0.1283  0.2235 -0.6855
 3756SOL    HW122727   3.585   1.349  12.704  0.7260  1.4711 -1.8563
 3756SOL    HW222728   3.437   1.335  12.691  0.0426 -0.1214 -0.4135
 3757SOL     OW22729   3.596   0.595   3.570 -0.0862  0.0664 -0.4632
 3757SOL    HW122730   3.670   0.566   3.623 -0.5651 -2.3728 -1.1487
 3757SOL    HW222731   3.640   0.614   3.487 -0.7664 -1.0749 -1.0925
 3758SOL     OW22732   4.068   1.634   9.890  0.4207 -0.2220 -0.5558
 3758SOL    HW122733   4.082   1.729   9.887  1.3655 -0.3345  0.3694
 3758SOL    HW222734   4.068   1.619   9.795 -1.2390 -1.9304 -0.2920
 3759SOL     OW22735   4.449   1.560   1.656  0.1966 -0.2940 -0.3213
 3759SOL    HW122736   4.373   1.566   1.713  2.1190  0.6769  2.1282
 3759SOL    HW222737   4.466   1.467   1.671 -1.8631 -0.6441 -0.1900
 3760SOL     OW22738   4.332   1.132   5.538 -0.2634 -0.1484 -0.3848
 3760SOL    HW122739   4.346   1.104   5.628 -0.0133  1.7529  0.1564
 3760SOL    HW222740   4.270   1.204   5.537  0.5164  0.5490  1.9669
 3761SOL     OW22741   2.643   4.687  17.216 -0.5268 -0.1659 -0.2114
 3761SOL    HW122742   2.636   4.654  17.305  1.6946  0.0483  0.0491
 3761SOL    HW222743   2.716   4.639  17.177  0.3064  0.1766  0.9424
 3762SOL     OW22744   4.051   0.956   4.732  0.2572 -0.1388 -0.1806
 3762SOL    HW122745   4.011   1.027   4.783  2.8325  3.3822 -2.9875
 3762SOL    HW222746   4.140   0.987   4.753 -0.0444  1.3526 -1.0856
 3763SOL     OW22747   0.773   1.609   9.071  0.0863 -0.2135  0.1641
 3763SOL    HW122748   0.749   1.528   9.116  0.8989  0.4784  1.8406
 3763SOL    HW222749   0.861   1.630   9.102 -0.1455  1.2216 -0.1700
 3764SOL     OW22750   4.093   2.933   8.959  0.3580 -0.5051 -0.0694
 3764SOL    HW122751   4.121   2.893   9.041 -0.0902 -0.4584  0.1033
 3764SOL    HW222752   3.999   2.922   8.972  0.2196 -0.1835 -0.8094
 3765SOL     OW22753   4.043   3.833   0.341  0.6757  0.0313 -0.0220
 3765SOL    HW122754   3.994   3.754   0.365 -0.6081  0.9801  0.5134
 3765SOL    HW222755   4.018   3.831   0.249 -2.2131 -0.9074  0.7657
 3766SOL     OW22756   0.845   4.570   6.376  0.4705 -0.5649  0.4073
 3766SOL    HW122757   0.837   4.540   6.285  1.9747  1.6941 -0.4635
 3766SOL    HW222758   0.920   4.629   6.374  1.9338 -2.4594 -0.8024
 3767SOL     OW22759   0.459   1.529   1.045 -0.1602 -0.0678  0.3881
 3767SOL    HW122760   0.495   1.555   0.961  0.2725  0.1986  0.6546
 3767SOL    HW222761   0.392   1.462   1.033  0.2904 -0.4678  0.0989
 3768SOL     OW22762   3.701   3.753   6.153 -0.0455  0.5834  0.3183
 3768SOL    HW122763   3.645   3.746   6.230  2.3294  1.2039  2.1036
 3768SOL    HW222764   3.739   3.665   6.149  0.8244  0.9772 -0.0193
 3769SOL     OW22765   0.821   4.343   2.580  0.5581 -0.5789  0.9640
 3769SOL    HW122766   0.852   4.269   2.633  0.8640  0.1842  1.8595
 3769SOL    HW222767   0.909   4.379   2.570  0.5272 -0.4682  1.0894
 3770SOL     OW22768   0.288   0.788   3.148  0.0672  0.4489  0.9440
 3770SOL    HW122769   0.341   0.733   3.206  0.9375 -0.9557 -1.1883
 3770SOL    HW222770   0.343   0.866   3.156  1.7709 -0.6433 -0.0891
 3771SOL     OW22771   2.115   0.724  13.770  0.2277  0.4349 -0.4867
 3771SOL    HW122772   2.105   0.772  13.853  1.0378  0.2099 -0.2605
 3771SOL    HW222773   2.105   0.801  13.714 -2.4540  0.9742  0.7334
 3772SOL     OW22774   0.313   1.149  14.776  0.5253 -0.0644  0.6124
 3772SOL    HW122775   0.283   1.153  14.866 -0.3314  0.1435  0.3163
 3772SOL    HW222776   0.408   1.150  14.786  0.6448 -0.1430 -0.5362
 3773SOL     OW22777   2.500   1.226   4.434  0.1483 -0.0981  0.4769
 3773SOL    HW122778   2.560   1.200   4.504  2.9061  1.6430 -1.2594
 3773SOL    HW222779   2.497   1.147   4.380  2.1767 -1.5124  2.4023
 3774SOL     OW22780   3.327   0.510  15.986  0.2509 -0.8827 -0.0840
 3774SOL    HW122781   3.294   0.532  15.899 -1.3148 -0.6166  0.5870
 3774SOL    HW222782   3.357   0.598  16.009  2.8170 -1.6867 -0.3801
 3775SOL     OW22783   4.363   4.499   2.338 -0.1848  0.3636 -0.1082
 3775SOL    HW122784   4.307   4.551   2.280 -1.9796 -1.1790  0.2511
 3775SOL    HW222785   4.440   4.552   2.316  0.4865  0.5255  2.6463
 3776SOL     OW22786   0.052   2.530   2.993 -0.3039 -0.7688 -0.0038
 3776SOL    HW122787   0.141   2.553   2.969 -1.1350  3.3513  0.9091
 3776SOL    HW222788   0.007   2.570   2.918  1.1808  1.2043  0.1804
 3777SOL     OW22789   2.134   1.790   4.287 -0.2150  0.2201  0.5105
 3777SOL    HW122790   2.076   1.773   4.212  1.7672 -1.2496 -0.6869
 3777SOL    HW222791   2.106   1.737   4.362  1.4249 -1.5066 -0.0855
 3778SOL     OW22792   1.212   0.885   1.126  0.5917 -0.1133  0.3038
 3778SOL    HW122793   1.156   0.808   1.122 -0.5944  0.7078  1.0556
 3778SOL    HW222794   1.157   0.954   1.089 -1.2121 -2.2499 -0.9371
 3779SOL     OW22795   4.101   1.539   8.239 -0.2971  0.3451  0.1503
 3779SOL    HW122796   4.184   1.493   8.252 -0.1898  0.6218  0.4148
 3779SOL    HW222797   4.121   1.618   8.189 -1.1134 -0.0101 -0.7422
 3780SOL     OW22798   2.099   1.292  12.255 -0.5756 -0.4743 -0.2457
 3780SOL    HW122799   2.085   1.203  12.286 -0.5855  0.1325  1.4690
 3780SOL    HW222800   2.158   1.319  12.325 -4.1034 -0.0933  2.5634
 3781SOL     OW22801   4.653   0.544  15.873 -0.1288  0.2496 -0.4472
 3781SOL    HW122802   4.691   0.591  15.798 -1.1783  0.1676 -1.0315
 3781SOL    HW222803   4.649   0.608  15.944  1.0557 -0.7021  0.4608
 3782SOL     OW22804   2.327   0.197   5.364 -1.0917  0.7805 -0.0328
 3782SOL    HW122805   2.380   0.118   5.375 -0.9644  0.9787  0.7897
 3782SOL    HW222806   2.300   0.219   5.453 -0.8038 -0.9029  0.4730
 3783SOL     OW22807   0.700   2.887   7.986  0.2815 -0.3942 -0.4290
 3783SOL    HW122808   0.697   2.869   8.080 -0.4433 -1.2991 -0.6230
 3783SOL    HW222809   0.769   2.826   7.959  0.1270 -0.7337 -0.0596
 3784SOL     OW22810   2.219   1.183   3.592  0.3049 -0.1899 -0.2338
 3784SOL    HW122811   2.306   1.185   3.632 -0.7892  0.2017  2.1644
 3784SOL    HW222812   2.250   1.149   3.508  1.3653  0.0616  0.0506
 3785SOL     OW22813   1.351   3.842   2.985 -0.2777  0.6222 -0.3323
 3785SOL    HW122814   1.390   3.815   2.902  0.2169 -0.3560  0.2166
 3785SOL    HW222815   1.410   3.913   3.010  1.4040 -1.0558  0.4833
 3786SOL     OW22816   0.587   4.699   6.404 -0.3238  0.0512  0.5572
 3786SOL    HW122817   0.582   4.630   6.338 -2.4511 -1.7092  2.5932
 3786SOL    HW222818   0.680   4.695   6.426 -0.4225  0.4570  1.0470
 3787SOL     OW22819   3.980   2.857  16.674  0.3339  0.4882 -0.2328
 3787SOL    HW122820   4.053   2.856  16.735  0.0347 -0.5426  0.1140
 3787SOL    HW222821   3.902   2.842  16.727  0.2709  0.2763 -0.3819
 3788SOL     OW22822   4.317   3.642   9.118 -0.6130 -0.2500  0.4077
 3788SOL    HW122823   4.318   3.636   9.213  0.5238 -1.7070  0.3082
 3788SOL    HW222824   4.233   3.686   9.104 -0.6545 -0.9249 -1.4691
 3789SOL     OW22825   4.275   4.699   8.823  0.0845 -0.1172  0.1809
 3789SOL    HW122826   4.183   4.710   8.848  0.2762  2.3322 -0.1926
 3789SOL    HW222827   4.272   4.632   8.754  0.6614  1.8748 -1.7781
 3790SOL     OW22828   2.904   3.391  11.403  0.1646 -0.5579  0.1203
 3790SOL    HW122829   2.962   3.328  11.361  0.8928  0.9290 -1.1065
 3790SOL    HW222830   2.856   3.325  11.453 -0.0548 -0.5273 -0.0482
 3791SOL     OW22831   4.423   4.383   7.183 -0.1110  0.1864 -0.2623
 3791SOL    HW122832   4.424   4.395   7.278 -0.4350 -0.7694 -0.1392
 3791SOL    HW222833   4.515   4.363   7.166  0.0548  1.2156 -0.5684
 3792SOL     OW22834   3.580   0.914   2.595  0.0524  0.8020 -0.1252
 3792SOL    HW122835   3.545   0.937   2.681 -0.2382  0.2837 -0.1032
 3792SOL    HW222836   3.613   0.829   2.625 -2.2002 -0.1194 -0.2783
 3793SOL     OW22837   2.237   0.474   7.065 -0.0766 -0.2220  0.0626
 3793SOL    HW122838   2.314   0.475   7.007 -1.4960 -0.7914 -1.8333
 3793SOL    HW222839   2.257   0.400   7.123  1.4201 -0.4388 -0.7171
 3794SOL     OW22840   2.424   3.579   2.739  0.1348  0.2143 -0.1779
 3794SOL    HW122841   2.332   3.603   2.729 -0.0558  0.3584  2.0153
 3794SOL    HW222842   2.438   3.558   2.831  0.9851 -2.3311 -0.8808
 3795SOL     OW22843   4.468   3.154   5.674 -0.0725 -0.2097  0.2570
 3795SOL    HW122844   4.387   3.149   5.624  0.3715 -1.5643 -0.3297
 3795SOL    HW222845   4.432   3.098   5.743  0.0908 -0.7003 -0.0607
 3796SOL     OW22846   0.470   4.418   6.765  0.2861  0.0601 -0.4697
 3796SOL    HW122847   0.463   4.388   6.856  1.8727  0.5730 -0.1821
 3796SOL    HW222848   0.547   4.373   6.732  1.0633  1.6897 -0.8724
 3797SOL     OW22849   3.790   0.345   5.223 -0.0597  0.0747  0.4032
 3797SOL    HW122850   3.811   0.401   5.298 -3.8214  0.6420  1.0320
 3797SOL    HW222851   3.702   0.375   5.201  0.1399 -0.8132 -1.6175
 3798SOL     OW22852   4.017   2.225   8.067  0.0063  0.0202  0.4839
 3798SOL    HW122853   4.037   2.317   8.086  3.2081 -0.5560 -0.1418
 3798SOL    HW222854   4.103   2.194   8.041 -0.0836 -1.2927  1.7347
 3799SOL     OW22855   2.676   2.452   2.620  0.1919 -0.2817 -0.3536
 3799SOL    HW122856   2.614   2.403   2.673 -1.6420 -0.0099 -2.2521
 3799SOL    HW222857   2.743   2.385   2.636 -1.7200 -2.0682  0.1431
 3800SOL     OW22858   0.372   1.468   1.969  0.1857  0.0397  0.1719
 3800SOL    HW122859   0.342   1.534   1.907 -0.4337 -1.8053 -1.4612
 3800SOL    HW222860   0.329   1.388   1.940 -0.2355  0.3929 -0.1834
 3801SOL     OW22861   2.133   1.306   0.646 -0.5816  0.5325 -0.2365
 3801SOL    HW122862   2.158   1.215   0.634  0.1645  0.6623  0.2776
 3801SOL    HW222863   2.081   1.287   0.724 -1.0991  2.8821  0.0102
 3802SOL     OW22864   3.469   0.727  11.367 -0.0308 -0.6551  0.0205
 3802SOL    HW122865   3.502   0.647  11.327 -0.5706 -1.2462  0.7713
 3802SOL    HW222866   3.418   0.769  11.298  1.2682  3.5636  1.6104
 3803SOL     OW22867   4.165   2.541   0.303  0.0066  0.4244 -0.2096
 3803SOL    HW122868   4.214   2.561   0.224  0.3341 -0.5497 -0.2579
 3803SOL    HW222869   4.120   2.625   0.314 -0.8572 -0.1839  0.9442
 3804SOL     OW22870   1.294   1.542   9.847 -0.1240  0.3173 -0.0515
 3804SOL    HW122871   1.339   1.548   9.931 -2.7665  1.9624  1.2602
 3804SOL    HW222872   1.327   1.460   9.811 -2.4197 -0.0207 -1.3583
 3805SOL     OW22873   3.703   0.721   6.675 -0.3913  0.3855  0.1034
 3805SOL    HW122874   3.709   0.791   6.740  1.3183  0.8507 -0.5646
 3805SOL    HW222875   3.613   0.735   6.644 -0.3000 -0.7250 -0.6905
 3806SOL     OW22876   1.878   3.339  12.437  0.2773 -0.5150  0.2504
 3806SOL    HW122877   1.796   3.388  12.433  0.7861  0.4149  1.0033
 3806SOL    HW222878   1.852   3.249  12.455 -0.8922 -0.4392 -0.9961
 3807SOL     OW22879   3.749   1.523  11.755  0.4745 -0.2543 -0.0500
 3807SOL    HW122880   3.814   1.492  11.692  0.1067  1.5916 -1.3535
 3807SOL    HW222881   3.764   1.617  11.766  1.3067 -0.3893 -0.0077
 3808SOL     OW22882   4.631   0.885   8.581  0.2582  0.5634  0.0620
 3808SOL    HW122883   4.703   0.857   8.638  2.3624  1.3376 -2.2148
 3808SOL    HW222884   4.562   0.881   8.647 -1.2380  0.7006 -1.4919
 3809SOL     OW22885   4.560   3.513   3.669  0.6307 -0.4377  0.1947
 3809SOL    HW122886   4.638   3.467   3.698  1.0507  0.3720  0.3493
 3809SOL    HW222887   4.563   3.582   3.735 -1.2473  0.4042 -0.5735
 3810SOL     OW22888   0.731   3.329   4.288 -0.2273  0.3430  0.5072
 3810SOL    HW122889   0.772   3.250   4.324  1.5217  1.3763  0.7784
 3810SOL    HW222890   0.657   3.293   4.239 -0.3143  3.1329 -1.4272
 3811SOL     OW22891   1.921   3.383   2.494 -0.3912 -0.3386  0.0550
 3811SOL    HW122892   1.831   3.353   2.485  0.0303 -1.4818 -0.4261
 3811SOL    HW222893   1.939   3.315   2.558 -1.3220 -1.1483 -0.5434
 3812SOL     OW22894   0.984   3.623  14.584  0.4934 -0.2632  0.0344
 3812SOL    HW122895   1.064   3.596  14.538  0.7164 -1.2137  0.9860
 3812SOL    HW222896   1.012   3.622  14.676  2.2194 -2.4653 -0.4922
 3813SOL     OW22897   0.272   2.381   2.760 -0.0027  0.0417  0.0890
 3813SOL    HW122898   0.308   2.320   2.696 -0.2659  0.2684 -0.2826
 3813SOL    HW222899   0.259   2.460   2.707 -3.3093 -1.5585 -1.5426
 3814SOL     OW22900   3.637   4.106   4.831 -0.2259 -0.0758  0.8708
 3814SOL    HW122901   3.726   4.071   4.823  0.0306  0.4936  1.2380
 3814SOL    HW222902   3.628   4.172   4.761  0.3222 -1.2943 -0.3537
 3815SOL     OW22903   3.583   1.243   4.254  0.3994  0.3956 -0.2003
 3815SOL    HW122904   3.588   1.284   4.168  4.2536 -0.4604 -0.4209
 3815SOL    HW222905   3.606   1.157   4.219 -2.0127 -0.1691 -0.3344
 3816SOL     OW22906   1.032   0.785   1.466  0.0384 -0.0792  0.5214
 3816SOL    HW122907   1.108   0.839   1.445 -0.3994  0.0494 -0.7077
 3816SOL    HW222908   0.987   0.796   1.382 -1.5837 -0.3444  1.3508
 3817SOL     OW22909   1.802   0.208  10.383 -0.1850 -0.3052  0.7532
 3817SOL    HW122910   1.809   0.114  10.367 -2.3928 -0.2758 -0.4171
 3817SOL    HW222911   1.874   0.236  10.326 -1.9735  0.5916 -1.0519
 3818SOL     OW22912   1.473   0.837   7.537 -0.1334  0.2585 -0.1900
 3818SOL    HW122913   1.527   0.906   7.499  1.4936 -1.2143 -0.5801
 3818SOL    HW222914   1.391   0.885   7.532  1.2531  2.3580 -2.8423
 3819SOL     OW22915   2.806   3.778  13.316  0.4319 -0.1509 -0.2220
 3819SOL    HW122916   2.855   3.800  13.396 -1.4171 -0.0286  0.8839
 3819SOL    HW222917   2.727   3.830  13.306  0.4773 -0.1373 -0.5136
 3820SOL     OW22918   0.695   0.700   8.350 -0.3287 -0.1274  0.7024
 3820SOL    HW122919   0.680   0.607   8.334 -0.6845 -0.3828  2.6196
 3820SOL    HW222920   0.659   0.699   8.438  0.5972 -0.6793  1.0700
 3821SOL     OW22921   1.726   3.505   2.064 -0.0486  0.1214 -0.3958
 3821SOL    HW122922   1.790   3.495   2.136  0.1248  1.4480 -0.3732
 3821SOL    HW222923   1.643   3.507   2.112  0.1411  0.4843 -0.0796
 3822SOL     OW22924   3.907   3.475   5.963  0.4807  0.4453 -0.2154
 3822SOL    HW122925   3.875   3.478   6.053 -1.3896  1.1418 -0.9090
 3822SOL    HW222926   3.825   3.454   5.917 -0.8592 -0.8329  2.7208
 3823SOL     OW22927   2.665   1.353   8.446 -0.0092 -0.6157  0.0586
 3823SOL    HW122928   2.695   1.333   8.535  2.5030 -3.5762 -1.4825
 3823SOL    HW222929   2.708   1.438   8.435  0.1752 -1.2183 -3.7667
 3824SOL     OW22930   0.558   4.682  14.637  0.3909  0.2722 -0.6249
 3824SOL    HW122931   0.508   4.712  14.712  0.8085 -1.1682  0.2267
 3824SOL    HW222932   0.590   4.595  14.661  0.5801 -0.0218 -1.9339
 3825SOL     OW22933   3.035   3.078   7.575  0.3581  0.2601 -0.0357
 3825SOL    HW122934   3.119   3.097   7.532  0.0284 -0.2085 -0.8763
 3825SOL    HW222935   2.985   3.019   7.519  2.1743 -0.4559 -0.9124
 3826SOL     OW22936   0.418   0.291  15.635  0.5612 -0.4606 -0.0544
 3826SOL    HW122937   0.403   0.384  15.619  1.4303 -0.0827  1.2659
 3826SOL    HW222938   0.362   0.273  15.711 -0.4368 -1.0826 -0.9455
 3827SOL     OW22939   2.719   1.745   6.112 -0.4139 -0.6169  0.0664
 3827SOL    HW122940   2.735   1.735   6.018  0.6742  0.5826  0.1225
 3827SOL    HW222941   2.812   1.743   6.135  0.7171  2.0850 -4.3179
 3828SOL     OW22942   0.879   4.128   4.463 -0.3216 -0.6214 -0.5984
 3828SOL    HW122943   0.821   4.131   4.539  0.9790 -0.0221  0.3623
 3828SOL    HW222944   0.820   4.123   4.387 -1.6420 -0.7497  0.4409
 3829SOL     OW22945   1.939   0.143   8.307  0.3029 -0.0944  0.5898
 3829SOL    HW122946   2.003   0.128   8.237 -0.8496 -3.1990  0.2199
 3829SOL    HW222947   1.965   0.086   8.379  2.6535 -1.4963 -1.3415
 3830SOL     OW22948   4.243   1.274  10.111  0.0766 -0.5804  0.6053
 3830SOL    HW122949   4.153   1.293  10.138 -0.6540  1.0912 -3.0797
 3830SOL    HW222950   4.241   1.187  10.072  2.6933 -0.1535 -0.4912
 3831SOL     OW22951   2.384   2.647  11.260  0.4731 -0.2082 -0.4029
 3831SOL    HW122952   2.298   2.686  11.274  0.2074 -0.7992 -0.3856
 3831SOL    HW222953   2.372   2.563  11.305  2.7843 -0.6194 -0.5056
 3832SOL     OW22954   1.705   4.572   5.288 -0.6073 -0.3672 -0.0921
 3832SOL    HW122955   1.767   4.516   5.240  1.7831  1.4228  0.9539
 3832SOL    HW222956   1.696   4.528   5.372  0.3980  0.9080  0.6620
 3833SOL     OW22957   2.215   0.900   8.438 -1.0297 -0.4931 -0.0758
 3833SOL    HW122958   2.287   0.859   8.389 -2.4768 -2.0345 -0.9067
 3833SOL    HW222959   2.237   0.883   8.529  0.8380 -1.2860 -0.6520
 3834SOL     OW22960   4.011   2.056   9.116  0.3896  0.3057  0.3500
 3834SOL    HW122961   3.984   2.011   9.036  1.2164 -1.0284  0.8249
 3834SOL    HW222962   3.971   2.138   9.086 -2.4536 -1.3292 -0.3163
 3835SOL     OW22963   0.923   2.594  13.695  0.2213 -0.2375  0.6224
 3835SOL    HW122964   0.969   2.677  13.704  0.1807 -0.3083  1.4273
 3835SOL    HW222965   0.851   2.623  13.639  2.4851  1.0046 -1.6041
 3836SOL     OW22966   0.812   3.751   8.863  0.2527  0.4608  0.2099
 3836SOL    HW122967   0.824   3.672   8.915  1.2437  0.6419  0.2550
 3836SOL    HW222968   0.787   3.813   8.931 -0.2106 -0.4891  0.8954
 3837SOL     OW22969   0.566   4.686   5.242 -0.1020  0.1780 -0.1738
 3837SOL    HW122970   0.486   4.638   5.264  0.1532 -0.1613  0.0215
 3837SOL    HW222971   0.588   4.661   5.152 -1.3552 -0.0619 -0.4068
 3838SOL     OW22972   4.542   0.139   5.531  0.2137  0.0597 -0.3974
 3838SOL    HW122973   4.512   0.175   5.448  1.1736  1.3773 -0.1665
 3838SOL    HW222974   4.607   0.204   5.558  1.0156  0.7677 -3.9688
 3839SOL     OW22975   4.341   4.384   5.517  0.4710  0.3076  0.0259
 3839SOL    HW122976   4.349   4.307   5.574  0.1117  1.3427  1.4885
 3839SOL    HW222977   4.342   4.454   5.583  4.1082  0.8977 -0.6806
 3840SOL     OW22978   3.935   3.536   2.919 -0.0386  0.0506  0.2471
 3840SOL    HW122979   3.942   3.631   2.933 -0.6679  0.2716 -0.9851
 3840SOL    HW222980   3.978   3.531   2.834 -1.5480  1.1027 -0.5732
 3841SOL     OW22981   4.098   2.700  10.992 -0.5038  0.0397  0.2125
 3841SOL    HW122982   4.055   2.781  11.020 -1.1794 -0.4458  0.5920
 3841SOL    HW222983   4.068   2.635  11.056  1.0757  0.6645  1.5760
 3842SOL     OW22984   2.443   4.242   8.139  0.0461  0.5455 -0.8179
 3842SOL    HW122985   2.350   4.235   8.119 -0.4657  2.1648  0.8865
 3842SOL    HW222986   2.486   4.198   8.067  0.0974  1.8663 -1.5887
 3843SOL     OW22987   3.440   2.679  14.982 -0.1763 -0.2346  0.3584
 3843SOL    HW122988   3.400   2.652  14.900  0.9869  0.1595 -0.3347
 3843SOL    HW222989   3.389   2.626  15.042 -2.9236  1.3343 -0.5879
 3844SOL     OW22990   0.950   4.167  10.834  0.5007  0.4269  0.0209
 3844SOL    HW122991   0.922   4.257  10.823 -0.3636 -0.1019 -2.1840
 3844SOL    HW222992   0.867   4.135  10.870  0.6804 -0.7769 -0.5993
 3845SOL     OW22993   3.363   2.353  10.344 -0.2421 -0.1445 -0.2961
 3845SOL    HW122994   3.437   2.342  10.285  1.2227 -0.3677  1.6208
 3845SOL    HW222995   3.408   2.355  10.428 -2.0653 -0.9767  0.7169
 3846SOL     OW22996   3.029   1.001   3.396 -0.0954 -0.2983 -0.1178
 3846SOL    HW122997   3.035   1.024   3.488  0.2336 -2.7661  0.4763
 3846SOL    HW222998   3.074   1.074   3.352 -0.2704 -0.1875 -0.1148
 3847SOL     OW22999   2.420   1.791   0.384 -0.0981  0.5046 -0.3008
 3847SOL    HW123000   2.390   1.876   0.416  0.4724  1.0377 -1.1834
 3847SOL    HW223001   2.483   1.770   0.453  0.7970 -0.6112 -1.4592
 3848SOL     OW23002   0.382   4.670   8.848 -0.2873  0.0028 -0.1558
 3848SOL    HW123003   0.375   0.041   8.837  0.2030  0.1435  0.7349
 3848SOL    HW223004   0.379   4.672   8.944 -2.3324 -1.7601 -0.1988
 3849SOL     OW23005   3.800   2.504   6.905  0.0795  0.6893 -0.2448
 3849SOL    HW123006   3.808   2.498   6.809  0.5331 -0.2269 -0.1461
 3849SOL    HW223007   3.759   2.591   6.911 -0.4907  0.3083  1.2278
 3850SOL     OW23008   1.196   1.946  15.900 -0.1920  0.0791 -0.7083
 3850SOL    HW123009   1.231   2.021  15.949 -0.0570  1.5960 -3.1654
 3850SOL    HW223010   1.253   1.873  15.926 -0.6187 -0.0983 -0.2582
 3851SOL     OW23011   2.692   4.503   1.567 -0.0085  0.0944 -0.2265
 3851SOL    HW123012   2.751   4.519   1.494  0.2493  0.7974  0.1295
 3851SOL    HW223013   2.628   4.574   1.565  2.1692  2.0844  0.3487
 3852SOL     OW23014   2.824   4.370  13.551  0.8213 -0.6731  0.3009
 3852SOL    HW123015   2.802   4.281  13.526  2.6334 -1.6262  2.1744
 3852SOL    HW223016   2.889   4.367  13.621  1.4260  0.0319 -0.2252
 3853SOL     OW23017   0.783   0.940  11.278  0.2213  0.7673  0.0127
 3853SOL    HW123018   0.871   0.904  11.289  0.0034 -0.8634 -3.4802
 3853SOL    HW223019   0.750   0.912  11.192 -1.3509  0.0338  0.8579
 3854SOL     OW23020   3.564   3.606   4.929  0.1662 -0.4915 -0.3496
 3854SOL    HW123021   3.498   3.625   4.862 -0.8611  0.8043  1.0436
 3854SOL    HW223022   3.643   3.602   4.874  1.7249 -1.0126  1.9297
 3855SOL     OW23023   1.097   1.417   0.571  0.4149  0.4404  0.9173
 3855SOL    HW123024   1.149   1.496   0.558 -0.2521  0.8645  0.8595
 3855SOL    HW223025   1.038   1.447   0.640 -0.5832  0.8634 -0.1382
 3856SOL     OW23026   2.581   2.517   8.241 -0.1105 -0.2852 -0.6985
 3856SOL    HW123027   2.605   2.425   8.252  0.6800  0.1788  1.3143
 3856SOL    HW223028   2.492   2.513   8.275  0.1965  0.7587  0.1896
 3857SOL     OW23029   1.631   0.483   4.047  0.1466  0.6370  0.3452
 3857SOL    HW123030   1.699   0.535   4.005  0.1117  0.8703  0.5749
 3857SOL    HW223031   1.569   0.554   4.065 -0.5108  0.2065 -0.2029
 3858SOL     OW23032   1.633   2.164   8.393  0.5789  0.8412  0.3952
 3858SOL    HW123033   1.658   2.139   8.482  0.2867 -2.4614 -0.4140
 3858SOL    HW223034   1.550   2.116   8.386  1.1643 -0.1927  0.4896
 3859SOL     OW23035   3.686   2.873   5.333  0.4557 -0.4506  0.4424
 3859SOL    HW123036   3.706   2.906   5.245  0.3241 -1.4219  0.0442
 3859SOL    HW223037   3.756   2.911   5.386 -0.5416  0.9892  0.7306
 3860SOL     OW23038   4.596   0.311   9.089 -0.0076  0.0844  0.1805
 3860SOL    HW123039   4.662   0.253   9.128 -1.1126 -3.0329 -2.6885
 3860SOL    HW223040   4.530   0.302   9.158  0.2821 -0.3206  0.4087
 3861SOL     OW23041   1.679   4.396  10.921 -0.0712  0.3497  0.2466
 3861SOL    HW123042   1.701   4.402  11.014 -1.7851  1.3702  0.5923
 3861SOL    HW223043   1.584   4.387  10.921 -0.0223 -0.1319 -1.6261
 3862SOL     OW23044   3.628   2.446  15.860  0.3242 -0.6471 -0.1057
 3862SOL    HW123045   3.632   2.472  15.952 -1.3869 -1.4089  0.1681
 3862SOL    HW223046   3.571   2.511  15.820  0.8593  0.3102  0.6720
 3863SOL     OW23047   4.433   4.341   8.777  0.3198 -0.8575 -0.4282
 3863SOL    HW123048   4.448   4.356   8.684  0.1178 -0.8872 -0.4669
 3863SOL    HW223049   4.338   4.355   8.786  0.7671  1.3151  0.9823
 3864SOL     OW23050   4.418   3.239   6.246 -0.3001 -0.0281 -0.3543
 3864SOL    HW123051   4.346   3.200   6.295  2.2557 -2.0147  1.7878
 3864SOL    HW223052   4.389   3.330   6.240 -4.6391 -1.2681  1.7451
 3865SOL     OW23053   3.640   1.887  14.894 -0.1303  0.1090 -0.1363
 3865SOL    HW123054   3.633   1.933  14.978  1.3978  0.0276  0.0404
 3865SOL    HW223055   3.549   1.876  14.866 -0.3926 -1.3412  1.2640
 3866SOL     OW23056   1.728   0.282   0.950 -0.3792 -1.1371 -0.3198
 3866SOL    HW123057   1.666   0.261   0.881 -1.4347 -0.1200  0.3107
 3866SOL    HW223058   1.666   0.310   1.017 -1.0444 -2.4103 -0.4048
 3867SOL     OW23059   1.833   3.517  15.999 -0.0965  0.2505  0.0719
 3867SOL    HW123060   1.859   3.509  15.907  1.8036 -2.6676  0.8858
 3867SOL    HW223061   1.737   3.516  15.990 -0.1001  3.2523 -0.1591
 3868SOL     OW23062   4.614   2.413   6.405  0.4183  0.1003 -0.1931
 3868SOL    HW123063   4.585   2.446   6.320 -0.4913  2.8516  1.1631
 3868SOL    HW223064   4.692   2.468   6.419  0.2166  0.3754 -0.1433
 3869SOL     OW23065   3.421   2.608  14.623  0.0908 -0.5715  0.5599
 3869SOL    HW123066   3.445   2.700  14.634  2.9073 -1.2902  0.4452
 3869SOL    HW223067   3.509   2.574  14.606 -0.6412 -0.6181 -3.1515
 3870SOL     OW23068   3.167   4.574   3.973 -0.2224 -0.2430  1.3352
 3870SOL    HW123069   3.137   4.517   4.044 -0.9562 -0.2210  1.0406
 3870SOL    HW223070   3.142   4.659   4.009 -1.3952 -0.2121  0.4082
 3871SOL     OW23071   0.846   4.029   8.431  0.0263 -0.1579 -0.1266
 3871SOL    HW123072   0.830   4.094   8.499 -0.1280 -0.1664 -0.1545
 3871SOL    HW223073   0.788   4.067   8.365  0.2359  0.1546 -0.1304
 3872SOL     OW23074   2.111   4.562  10.849  0.4688  0.0538  0.3685
 3872SOL    HW123075   2.147   4.473  10.847 -0.0191 -0.1230 -0.6638
 3872SOL    HW223076   2.018   4.554  10.827  0.8311 -2.3476 -0.3192
 3873SOL     OW23077   0.786   2.964  15.187  0.1640  0.8853 -0.2897
 3873SOL    HW123078   0.849   2.971  15.259  0.3579  1.5013 -0.5165
 3873SOL    HW223079   0.713   3.019  15.215 -0.2546  0.0163  0.3138
 3874SOL     OW23080   0.917   0.411   3.096  0.2832 -0.2841 -0.2247
 3874SOL    HW123081   0.945   0.357   3.022 -1.3980  1.1063 -1.8700
 3874SOL    HW223082   1.003   0.420   3.138 -1.0889  1.5075  2.2292
 3875SOL     OW23083   4.416   0.066  10.734  0.1346 -0.7000  0.0373
 3875SOL    HW123084   4.488   0.125  10.711 -1.7886  1.4429 -0.4284
 3875SOL    HW223085   4.355   0.087  10.663 -0.7658 -0.2295  0.9594
 3876SOL     OW23086   1.891   0.218  14.761 -0.4077 -0.2245 -0.6533
 3876SOL    HW123087   1.946   0.276  14.813  1.0657 -1.8174 -0.4525
 3876SOL    HW223088   1.860   0.158  14.829  1.1435 -0.0202  0.2195
 3877SOL     OW23089   1.057   4.347  13.173  0.3194 -0.3352 -0.1316
 3877SOL    HW123090   0.997   4.334  13.099 -0.3544 -0.0662  0.3609
 3877SOL    HW223091   1.078   4.440  13.172 -1.7462  0.1504  0.6911
 3878SOL     OW23092   3.834   3.188  16.673  0.5486 -0.1760  0.1801
 3878SOL    HW123093   3.925   3.201  16.646  0.4908 -0.6249 -0.2483
 3878SOL    HW223094   3.779   3.231  16.607  1.5308  0.4328 -0.2432
 3879SOL     OW23095   0.516   2.055   6.288 -0.2382  0.4931  0.4322
 3879SOL    HW123096   0.565   1.993   6.234 -0.9112  0.4294 -0.1130
 3879SOL    HW223097   0.523   2.017   6.375 -1.7452  0.2595  0.4629
 3880SOL     OW23098   1.969   0.904  13.546 -0.0027 -0.1323 -0.5474
 3880SOL    HW123099   1.944   0.969  13.480  0.4752  1.4509  0.8249
 3880SOL    HW223100   2.062   0.918  13.560 -0.1405  2.5566 -2.2399
 3881SOL     OW23101   4.582   1.790   7.407 -0.1855  0.5701 -0.6819
 3881SOL    HW123102   4.497   1.789   7.363 -0.8601  0.2196  0.6006
 3881SOL    HW223103   4.589   1.881   7.434  0.1998  0.5510 -0.7268
 3882SOL     OW23104   0.704   0.821   2.710 -0.4091 -0.0758 -0.3529
 3882SOL    HW123105   0.650   0.899   2.703  2.1303  1.8330  1.3613
 3882SOL    HW223106   0.660   0.780   2.636 -1.9070  1.0981 -0.1113
 3883SOL     OW23107   4.444   4.385   7.464 -0.3605  0.1626  0.4727
 3883SOL    HW123108   4.418   4.332   7.539 -1.5268 -1.3137 -0.9879
 3883SOL    HW223109   4.387   4.462   7.464 -0.9862 -0.3208 -1.5962
 3884SOL     OW23110   0.629   2.448   4.894 -0.5094 -0.0678  0.2711
 3884SOL    HW123111   0.645   2.543   4.896  1.0230 -0.2820 -2.1409
 3884SOL    HW223112   0.697   2.402   4.943 -1.4778 -0.1898  1.4974
 3885SOL     OW23113   3.339   1.198   3.567  0.1493  0.0122 -0.1507
 3885SOL    HW123114   3.318   1.179   3.475  0.9017 -0.6382 -0.1921
 3885SOL    HW223115   3.428   1.230   3.553 -0.1965  1.0050 -0.0576
 3886SOL     OW23116   3.849   2.369   5.921 -0.4520 -0.7490  0.0946
 3886SOL    HW123117   3.830   2.398   5.832  3.0255  2.8876  0.5564
 3886SOL    HW223118   3.761   2.355   5.955 -0.8811  1.1212 -0.2989
 3887SOL     OW23119   2.821   0.426   1.932  0.3380 -0.0160  0.2897
 3887SOL    HW123120   2.888   0.475   1.979 -0.4072  0.5647  0.7520
 3887SOL    HW223121   2.746   0.439   1.991  0.1396  2.2559 -0.4397
 3888SOL     OW23122   0.411   3.575  11.634 -0.4001 -0.2420 -0.8190
 3888SOL    HW123123   0.319   3.550  11.625 -1.2221  2.2816  0.7865
 3888SOL    HW223124   0.438   3.596  11.544  1.6962  2.3029  0.4177
 3889SOL     OW23125   4.491   4.388   2.572 -0.5246  0.8173  0.1055
 3889SOL    HW123126   4.482   4.467   2.626 -0.9034 -0.9200  2.5721
 3889SOL    HW223127   4.456   4.431   2.493  0.6221  0.3953 -0.6421
 3890SOL     OW23128   2.996   3.688   8.419 -0.1913  0.5373 -0.1157
 3890SOL    HW123129   2.957   3.766   8.460 -1.2757  0.9068 -1.8358
 3890SOL    HW223130   3.059   3.666   8.486  0.2037  1.9189 -0.0254
 3891SOL     OW23131   0.224   0.324   9.093 -0.0840 -0.3109  0.1056
 3891SOL    HW123132   0.160   0.261   9.127 -0.2421 -0.0872  0.2228
 3891SOL    HW223133   0.174   0.404   9.109  2.0009  0.5011  2.6276
 3892SOL     OW23134   3.041   0.790  12.951  0.1646 -0.4424  1.0260
 3892SOL    HW123135   3.117   0.845  12.972  0.5154 -0.1331 -1.0560
 3892SOL    HW223136   3.049   0.767  12.858 -1.0257  0.0989  0.8022
 3893SOL     OW23137   3.380   3.393   7.138 -0.1957 -0.1592  0.0982
 3893SOL    HW123138   3.360   3.438   7.221 -3.4765 -1.9384  0.2904
 3893SOL    HW223139   3.454   3.443   7.103 -0.3202 -0.5680 -0.7431
 3894SOL     OW23140   0.642   2.620  13.806 -0.3429 -0.3560 -0.4632
 3894SOL    HW123141   0.682   2.635  13.720 -0.8255 -0.5091 -0.7128
 3894SOL    HW223142   0.660   2.525  13.807 -2.0866 -0.6575  0.6306
 3895SOL     OW23143   0.977   2.657  10.819  0.0003  0.4388 -0.0972
 3895SOL    HW123144   1.002   2.608  10.741 -1.0785  0.2929 -0.3594
 3895SOL    HW223145   1.055   2.707  10.840  0.2026 -0.0017  0.2071
 3896SOL     OW23146   1.522   3.135  16.986 -0.2726 -0.2526  0.3314
 3896SOL    HW123147   1.493   3.153  16.897  0.5064  0.5899  0.2396
 3896SOL    HW223148   1.601   3.190  16.986  1.0067 -2.0621  2.4500
 3897SOL     OW23149   3.017   1.602   7.308 -0.5950  0.5229  0.0714
 3897SOL    HW123150   3.089   1.542   7.328  0.0620  1.3674  0.2300
 3897SOL    HW223151   2.956   1.574   7.377  1.4003 -0.7118  1.3196
 3898SOL     OW23152   4.224   3.408   7.281  0.2515  0.0944 -0.1145
 3898SOL    HW123153   4.245   3.319   7.253  2.2605  0.6456 -0.3612
 3898SOL    HW223154   4.156   3.393   7.347 -0.1653 -1.2954 -0.8595
 3899SOL     OW23155   1.240   4.525   9.869  0.0242 -0.9048  0.1845
 3899SOL    HW123156   1.193   4.459   9.920  0.5141 -0.1859  1.5582
 3899SOL    HW223157   1.325   4.483   9.856  0.0520 -1.0057  0.7105
 3900SOL     OW23158   1.130   0.512  10.057 -0.0427  0.2377 -0.1169
 3900SOL    HW123159   1.187   0.436  10.062  0.4834  0.7719  2.0212
 3900SOL    HW223160   1.181   0.563  10.119 -0.6652  1.6580 -0.7670
 3901SOL     OW23161   0.147   1.541  10.610  0.0849  0.0175  0.1087
 3901SOL    HW123162   0.142   1.626  10.566 -1.4124 -0.4934 -0.7132
 3901SOL    HW223163   0.217   1.553  10.674 -0.3580  0.2784  0.5360
 3902SOL     OW23164   4.362   0.779   4.370  0.2531 -0.3342  1.0022
 3902SOL    HW123165   4.362   0.862   4.417 -2.5543  0.8057 -1.0028
 3902SOL    HW223166   4.453   0.752   4.375  0.3498 -0.2244 -0.1957
 3903SOL     OW23167   1.548   2.666   3.072 -0.1294 -0.1353 -0.1885
 3903SOL    HW123168   1.586   2.720   3.003  2.3637 -1.9064 -0.2134
 3903SOL    HW223169   1.611   2.594   3.075 -2.0476 -1.8825 -1.5925
 3904SOL     OW23170   2.721   4.210   2.631 -1.0232  0.4373  0.7089
 3904SOL    HW123171   2.751   4.286   2.581 -1.6071 -0.3832 -0.8962
 3904SOL    HW223172   2.687   4.161   2.557 -0.1498 -1.0376  1.2946
 3905SOL     OW23173   1.340   3.029   2.776 -0.2946 -0.3677 -0.3670
 3905SOL    HW123174   1.281   3.063   2.709 -1.8147 -0.5698  0.8731
 3905SOL    HW223175   1.336   3.094   2.846  2.5953  0.3256 -0.8374
 3906SOL     OW23176   1.690   1.989   1.014  0.1568 -0.8441 -0.3811
 3906SOL    HW123177   1.757   1.922   1.032 -0.6331 -1.5754 -0.1344
 3906SOL    HW223178   1.748   2.064   1.025  0.5076 -0.9344 -1.6015
 3907SOL     OW23179   1.131   3.429   1.628 -0.2892 -0.2513  0.0456
 3907SOL    HW123180   1.055   3.453   1.681 -0.4828 -1.2049  0.1952
 3907SOL    HW223181   1.117   3.335   1.620  0.7823 -0.4757  0.8026
 3908SOL     OW23182   1.784   0.308   6.451 -0.5055 -0.0755  0.0274
 3908SOL    HW123183   1.689   0.314   6.458 -0.5513  0.7713 -1.4660
 3908SOL    HW223184   1.799   0.386   6.398  2.8000  1.1709  2.7412
 3909SOL     OW23185   0.130   2.528  13.655 -0.6240 -0.3133  0.5333
 3909SOL    HW123186   0.036   2.532  13.673 -0.5669 -0.8606  0.9620
 3909SOL    HW223187   0.155   2.608  13.700  4.6462 -0.6397 -1.8475
 3910SOL     OW23188   1.827   3.189   7.824  0.0959  0.1581 -0.7135
 3910SOL    HW123189   1.800   3.215   7.913 -1.0391 -1.4136 -0.6076
 3910SOL    HW223190   1.918   3.217   7.821  0.7018 -1.5370  1.7335
 3911SOL     OW23191   4.121   0.840   9.261 -0.0049 -0.1519  0.2995
 3911SOL    HW123192   4.202   0.864   9.217 -0.1785 -0.2966 -0.1011
 3911SOL    HW223193   4.066   0.808   9.190  0.3999 -0.3656  0.0867
 3912SOL     OW23194   1.581   3.111   4.571 -0.4863 -0.5049 -0.0138
 3912SOL    HW123195   1.492   3.106   4.536 -1.5403  2.3300  2.1321
 3912SOL    HW223196   1.618   3.178   4.514 -1.8773  0.8982  0.7088
 3913SOL     OW23197   0.675   3.435   6.632  0.7279 -0.7776  0.2560
 3913SOL    HW123198   0.645   3.512   6.585  1.3660  0.3587  1.7012
 3913SOL    HW223199   0.647   3.458   6.721  0.1405 -0.9298  0.1139
 3914SOL     OW23200   2.362   4.463   0.275 -0.7217  0.4053 -0.5929
 3914SOL    HW123201   2.275   4.453   0.237 -1.8332 -0.8247  2.2863
 3914SOL    HW223202   2.353   4.435   0.366 -0.8573  0.0721 -0.7126
 3915SOL     OW23203   1.293   2.175  11.930 -0.0783  0.3566  0.3874
 3915SOL    HW123204   1.357   2.230  11.884  1.1207  0.0171  1.6682
 3915SOL    HW223205   1.351   2.116  11.979  0.3799 -0.4319 -1.1012
 3916SOL     OW23206   0.302   0.296   9.636  0.4716  0.4440 -0.5213
 3916SOL    HW123207   0.370   0.237   9.668 -0.7717 -0.8798 -0.3280
 3916SOL    HW223208   0.353   0.376   9.648  1.0251 -0.0757  0.6173
 3917SOL     OW23209   0.705   0.989  16.197 -0.2625  0.3178 -0.3908
 3917SOL    HW123210   0.725   1.016  16.286 -3.1973  1.8061 -0.1931
 3917SOL    HW223211   0.619   1.021  16.169 -0.2787 -0.4116 -1.2157
 3918SOL     OW23212   0.417   0.923   4.356  0.4138 -0.0160  0.5466
 3918SOL    HW123213   0.342   0.900   4.301  0.0439  0.5695  0.8086
 3918SOL    HW223214   0.458   0.993   4.306  0.9715 -0.1400  0.8202
 3919SOL     OW23215   1.531   2.285  13.865  0.5414  0.2392 -0.1595
 3919SOL    HW123216   1.616   2.285  13.909 -0.0008 -2.4742  0.8731
 3919SOL    HW223217   1.470   2.328  13.924 -2.2569 -0.4441 -2.5564
 3920SOL     OW23218   2.062   1.692   1.530  1.0768  0.5781  0.5086
 3920SOL    HW123219   1.994   1.759   1.537  0.6016  0.3450 -2.1658
 3920SOL    HW223220   2.025   1.624   1.474 -2.6951  0.7947  2.6950
 3921SOL     OW23221   2.512   2.572   6.427  0.2676 -0.1507 -0.2210
 3921SOL    HW123222   2.573   2.508   6.389 -0.4061 -0.4976 -0.7187
 3921SOL    HW223223   2.502   2.619   6.345  0.3877 -0.2113 -0.2710
 3922SOL     OW23224   0.975   4.269   5.779 -0.4945  0.1083  0.4235
 3922SOL    HW123225   0.903   4.212   5.752  0.4625 -1.1759  0.5656
 3922SOL    HW223226   1.041   4.201   5.794 -0.2953 -0.0046 -0.9623
 3923SOL     OW23227   4.475   0.911  13.052  0.0104  0.0121  0.5130
 3923SOL    HW123228   4.562   0.944  13.027 -0.6113  1.9527  0.9448
 3923SOL    HW223229   4.480   0.816  13.051 -1.6722 -0.0633  0.0588
 3924SOL     OW23230   4.519   0.881   1.575  0.0343 -0.1008  0.7569
 3924SOL    HW123231   4.503   0.795   1.613 -1.0754 -0.0520  0.3884
 3924SOL    HW223232   4.615   0.885   1.583  0.1076 -1.4711  0.5644
 3925SOL     OW23233   2.130   1.604  10.543 -0.2893 -0.3101  0.3303
 3925SOL    HW123234   2.209   1.600  10.597  0.3265  0.6579 -0.5043
 3925SOL    HW223235   2.152   1.571  10.456 -0.2460  0.9998 -0.1566
 3926SOL     OW23236   2.088   2.754   9.201 -0.0372  0.3628  0.9076
 3926SOL    HW123237   2.054   2.785   9.286 -1.1686 -1.3806  1.1090
 3926SOL    HW223238   2.067   2.831   9.148 -0.8534 -0.4658  0.0303
 3927SOL     OW23239   3.549   0.425   5.713  0.3905  0.2551  0.5966
 3927SOL    HW123240   3.456   0.430   5.734 -0.0639  1.7052 -1.7474
 3927SOL    HW223241   3.571   0.331   5.712 -2.1235 -0.3364  0.6018
 3928SOL     OW23242   4.299   4.647   5.972  0.1233  0.7114  0.4080
 3928SOL    HW123243   4.339   4.682   5.892 -0.7180 -1.4057 -0.9230
 3928SOL    HW223244   4.207   4.666   5.957  0.0045  0.8747  1.3075
 3929SOL     OW23245   4.658   4.394  12.504 -0.2107  0.2913 -0.6465
 3929SOL    HW123246   4.711   4.417  12.428 -0.9236  1.5544 -0.7561
 3929SOL    HW223247   4.600   4.330  12.462 -1.8176 -0.4267  2.6598
 3930SOL     OW23248   3.902   1.871  10.548 -0.2008 -0.2118 -0.2000
 3930SOL    HW123249   3.842   1.800  10.571 -1.6830  1.1976  0.2853
 3930SOL    HW223250   3.983   1.824  10.530 -0.1754  0.3579 -1.5857
 3931SOL     OW23251   0.093   0.842   2.981 -0.1447 -0.3404  0.9874
 3931SOL    HW123252   0.179   0.837   3.022  0.0543 -0.1632  0.5988
 3931SOL    HW223253   0.108   0.793   2.900 -0.9246 -2.0979  1.9129
 3932SOL     OW23254   0.203   2.642   3.307  0.0090 -0.5089 -0.2368
 3932SOL    HW123255   0.285   2.608   3.272  1.5014  1.4407  1.3867
 3932SOL    HW223256   0.225   2.628   3.399  0.1243 -1.1861 -0.3686
 3933SOL     OW23257   4.490   1.339   5.792 -0.2791 -0.1601 -0.3197
 3933SOL    HW123258   4.451   1.425   5.807 -0.4057 -0.0715 -1.1351
 3933SOL    HW223259   4.463   1.282   5.863 -1.6486  3.5073  2.0690
 3934SOL     OW23260   4.082   0.375   3.433  0.3726  0.9946 -0.1201
 3934SOL    HW123261   4.091   0.319   3.510  3.4678  2.4725  0.6278
 3934SOL    HW223262   4.102   0.461   3.470  1.2767 -0.2482  2.2554
 3935SOL     OW23263   1.826   4.274   8.872 -0.0268 -0.1552  0.4622
 3935SOL    HW123264   1.804   4.233   8.956 -0.7738  0.9396  0.7943
 3935SOL    HW223265   1.895   4.338   8.889 -2.2880  2.4615 -0.1267
 3936SOL     OW23266   2.501   2.829  14.269  0.3537 -0.4464  0.0718
 3936SOL    HW123267   2.588   2.855  14.298  0.9433 -0.6048 -1.5863
 3936SOL    HW223268   2.464   2.911  14.237  3.3327  1.2853  1.0644
 3937SOL     OW23269   1.053   1.847   8.360  0.5797  0.5543 -0.3835
 3937SOL    HW123270   1.080   1.865   8.270  1.3275  1.0711 -0.0550
 3937SOL    HW223271   1.070   1.933   8.398 -0.2221  0.4329  0.2538
 3938SOL     OW23272   3.752   3.125   5.162 -0.0931 -0.5461 -0.0805
 3938SOL    HW123273   3.751   3.100   5.070  0.7908 -0.2591 -0.1767
 3938SOL    HW223274   3.664   3.154   5.185 -1.1615 -1.5673 -3.0339
 3939SOL     OW23275   2.440   3.040   6.093 -0.4252  0.0937 -0.3524
 3939SOL    HW123276   2.505   3.077   6.152  2.8354  0.3717 -4.1170
 3939SOL    HW223277   2.358   3.041   6.142 -0.5354  0.8784 -0.5516
 3940SOL     OW23278   2.942   3.664  16.537  0.3479  0.0573  0.0666
 3940SOL    HW123279   2.901   3.663  16.451  2.0682 -0.8818 -0.7481
 3940SOL    HW223280   2.876   3.644  16.603  0.2725  0.6148  0.1641
 3941SOL     OW23281   1.310   1.235  12.482 -0.4393  0.3292 -0.5923
 3941SOL    HW123282   1.293   1.289  12.405 -1.5921  1.0594  0.1711
 3941SOL    HW223283   1.403   1.214  12.478 -0.6434 -0.7828  0.3131
 3942SOL     OW23284   3.386   2.448  13.654  0.6633  0.3014  0.1679
 3942SOL    HW123285   3.419   2.358  13.661 -0.2045  0.1128  1.7677
 3942SOL    HW223286   3.466   2.499  13.659  0.0230  1.4969 -1.6904
 3943SOL     OW23287   4.075   4.329   7.418 -0.6545  0.4157 -0.6142
 3943SOL    HW123288   4.131   4.339   7.495  1.2421 -1.5427 -1.7439
 3943SOL    HW223289   4.001   4.378   7.454 -1.2727 -0.9955  0.0470
 3944SOL     OW23290   1.470   4.470   6.736  0.2185 -0.5622 -0.0509
 3944SOL    HW123291   1.484   4.397   6.676 -0.2507 -0.7335  0.0531
 3944SOL    HW223292   1.540   4.453   6.800  0.9748 -0.5812 -0.8895
 3945SOL     OW23293   0.469   2.512  11.737 -0.2376 -1.0073 -0.1567
 3945SOL    HW123294   0.436   2.432  11.696  3.1056 -2.3324 -0.2808
 3945SOL    HW223295   0.434   2.576  11.676 -0.8860 -1.3605 -0.1480
 3946SOL     OW23296   0.075   1.702   8.065  0.3611  0.6523 -0.0852
 3946SOL    HW123297   0.073   1.670   7.975  0.0430 -0.5171  0.3385
 3946SOL    HW223298   0.168   1.695   8.090  0.3977  1.7845  0.1368
 3947SOL     OW23299   2.907   1.251   8.935  0.1262  0.3666 -0.0812
 3947SOL    HW123300   3.000   1.273   8.933  0.1443  0.4107  1.3260
 3947SOL    HW223301   2.889   1.275   9.026  1.4412  0.0965  0.2518
 3948SOL     OW23302   2.370   4.580   6.894 -0.3014  0.1256 -0.5760
 3948SOL    HW123303   2.463   4.573   6.873 -0.4075 -0.8939 -0.7160
 3948SOL    HW223304   2.350   4.672   6.874  0.7110  0.0585 -1.9214
 3949SOL     OW23305   4.427   3.045   8.528 -0.5317  1.2433  0.6449
 3949SOL    HW123306   4.376   3.034   8.608 -1.6114 -0.3315 -0.2656
 3949SOL    HW223307   4.516   3.068   8.555 -0.3991  2.6988 -1.0538
 3950SOL     OW23308   1.088   1.673   3.026 -0.0705  0.7584 -0.2722
 3950SOL    HW123309   1.152   1.719   2.973 -0.2942  0.9190 -0.4002
 3950SOL    HW223310   1.063   1.603   2.965 -0.6036 -0.2104  1.0395
 3951SOL     OW23311   1.174   0.235  14.516  0.2498  0.0007  0.3334
 3951SOL    HW123312   1.080   0.252  14.521  0.3638  0.3302  1.4011
 3951SOL    HW223313   1.174   0.150  14.471 -2.0930  0.2127 -0.0902
 3952SOL     OW23314   0.428   0.256   4.380  0.3977  0.0881 -0.3809
 3952SOL    HW123315   0.492   0.327   4.379  0.6744 -0.1517  0.7436
 3952SOL    HW223316   0.363   0.274   4.448 -1.5002  0.4170 -2.2723
 3953SOL     OW23317   1.120   2.635   4.766  0.0900 -0.3705 -0.0879
 3953SOL    HW123318   1.078   2.704   4.715  0.1511 -1.0859 -1.1068
 3953SOL    HW223319   1.214   2.644   4.747  0.0907  1.3796  0.7446
 3954SOL     OW23320   3.953   1.681  11.624  0.3409  0.0924 -0.0001
 3954SOL    HW123321   3.945   1.709  11.532  0.7055  2.0146  0.5471
 3954SOL    HW223322   3.947   1.587  11.611 -0.6277  0.4857 -2.5283
 3955SOL     OW23323   4.362   4.305   0.784 -0.4112 -0.1394 -0.3706
 3955SOL    HW123324   4.377   4.250   0.861 -0.0776  0.9052  0.2964
 3955SOL    HW223325   4.427   4.374   0.789  0.3577 -1.0300  1.6004
 3956SOL     OW23326   4.262   0.351   5.487 -0.8128 -0.5567 -0.0735
 3956SOL    HW123327   4.275   0.332   5.580 -1.1756  0.3413  0.1534
 3956SOL    HW223328   4.180   0.398   5.481 -0.2644  0.4383  0.2057
 3957SOL     OW23329   2.352   4.508   1.543 -0.2153  0.1072 -0.3892
 3957SOL    HW123330   2.403   4.427   1.541  0.8471  0.8001 -1.7894
 3957SOL    HW223331   2.417   4.576   1.523  0.6258 -1.5946 -3.4136
 3958SOL     OW23332   1.545   3.392  12.710  0.5762 -0.1693  0.3025
 3958SOL    HW123333   1.595   3.452  12.765  0.0632 -1.2025  1.9073
 3958SOL    HW223334   1.516   3.326  12.774 -0.0741  0.0812  0.2665
 3959SOL     OW23335   3.939   3.569  10.981 -0.4133  0.1527  0.0579
 3959SOL    HW123336   3.933   3.573  10.885  0.4984 -1.1809 -0.0476
 3959SOL    HW223337   3.877   3.640  10.998  0.4126  0.7945  0.3921
 3960SOL     OW23338   4.160   0.763   7.787 -0.3434 -0.7418  0.1887
 3960SOL    HW123339   4.190   0.848   7.756  0.6750 -1.5857 -1.1737
 3960SOL    HW223340   4.113   0.723   7.714  1.0751  1.2737 -1.8284
 3961SOL     OW23341   3.494   2.902   0.123  0.0097  0.0749 -0.1209
 3961SOL    HW123342   3.421   2.935   0.174  0.0370  0.2898 -0.2200
 3961SOL    HW223343   3.496   2.809   0.145  0.5523  0.5912  1.9757
 3962SOL     OW23344   1.966   2.727   5.399  0.1838 -0.1169  0.2258
 3962SOL    HW123345   1.989   2.639   5.367 -0.4611  0.0713 -0.7736
 3962SOL    HW223346   2.025   2.786   5.353  1.1835 -0.2090  1.4203
 3963SOL     OW23347   2.020   3.789  12.077 -0.1462  0.5269  0.1401
 3963SOL    HW123348   1.964   3.787  12.155  1.1136  0.1036  1.0263
 3963SOL    HW223349   1.968   3.731  12.021  0.2852  1.3618 -1.1297
 3964SOL     OW23350   3.986   3.008  12.523 -0.3424 -0.3739  0.0930
 3964SOL    HW123351   3.981   3.083  12.463  1.0681  0.7156  1.3333
 3964SOL    HW223352   4.008   3.066  12.597 -0.0794 -0.9624  0.4749
 3965SOL     OW23353   3.469   2.945   7.993 -0.0227 -0.0905  0.1672
 3965SOL    HW123354   3.379   2.975   7.979 -0.0790 -0.4157 -0.1685
 3965SOL    HW223355   3.511   2.999   8.060  1.4790  0.2358 -1.0391
 3966SOL     OW23356   3.560   0.344   2.740  0.1746  0.0524 -0.0695
 3966SOL    HW123357   3.535   0.281   2.808 -1.1670 -0.7608 -1.3039
 3966SOL    HW223358   3.588   0.294   2.663 -0.9622  0.2984 -0.6584
 3967SOL     OW23359   2.768   2.612   6.770 -0.2651  0.1703  0.5405
 3967SOL    HW123360   2.801   2.571   6.690  1.1042  1.5755  0.3663
 3967SOL    HW223361   2.710   2.546   6.808 -1.3845  2.4422  2.7625
 3968SOL     OW23362   4.010   4.514   6.906 -0.1522  0.0472  0.0309
 3968SOL    HW123363   4.070   4.519   6.981 -0.2188 -0.4771  0.1210
 3968SOL    HW223364   4.036   4.588   6.852  0.4123 -0.4466 -0.3847
 3969SOL     OW23365   3.377   1.491   8.699  0.1317  0.0492 -0.7576
 3969SOL    HW123366   3.386   1.418   8.638 -4.2722 -0.2726 -1.0054
 3969SOL    HW223367   3.324   1.557   8.656  0.0276 -0.2793 -1.1281
 3970SOL     OW23368   0.293   4.100  14.779 -0.1328  0.0346  0.0511
 3970SOL    HW123369   0.325   4.117  14.691 -0.2634 -1.6493 -0.3180
 3970SOL    HW223370   0.236   4.024  14.767  1.6928 -1.1605 -1.0428
 3971SOL     OW23371   2.637   4.340  11.031 -0.2549  0.3917  0.2118
 3971SOL    HW123372   2.679   4.426  11.038 -0.0728  0.4747 -1.9038
 3971SOL    HW223373   2.715   4.291  11.058  0.3450  0.8598 -0.6584
 3972SOL     OW23374   0.812   3.980  15.479 -0.3251  0.4007  0.2764
 3972SOL    HW123375   0.783   3.964  15.569  0.9213  1.0940  0.7907
 3972SOL    HW223376   0.752   3.920  15.434 -0.8109  1.6429 -0.7434
 3973SOL     OW23377   1.006   2.885   6.452 -0.2525 -0.6968 -0.4395
 3973SOL    HW123378   0.957   2.809   6.419  1.3061 -1.7988 -0.1853
 3973SOL    HW223379   0.978   2.953   6.390  1.3462  0.8800  0.5887
 3974SOL     OW23380   4.600   0.956   6.430  0.0925 -1.0212  0.6006
 3974SOL    HW123381   4.692   0.965   6.454 -0.0391  2.9142 -0.3541
 3974SOL    HW223382   4.603   1.007   6.349 -0.3310  0.4393  1.5170
 3975SOL     OW23383   3.806   0.731   7.911  0.1451  0.2891  0.7466
 3975SOL    HW123384   3.861   0.664   7.869 -2.2956 -0.1279 -1.7789
 3975SOL    HW223385   3.874   0.788   7.946  0.1551  1.2378 -0.8492
 3976SOL     OW23386   4.373   1.607   6.879 -0.7205 -0.0564 -0.2798
 3976SOL    HW123387   4.387   1.682   6.936  0.9964 -0.5612 -0.0255
 3976SOL    HW223388   4.340   1.640   6.796 -3.3543  0.3523  0.9205
 3977SOL     OW23389   0.382   1.888   2.371  0.2784 -0.0879  0.0192
 3977SOL    HW123390   0.402   1.856   2.283  0.7598 -1.0835  0.4909
 3977SOL    HW223391   0.405   1.812   2.424 -1.2545 -1.1488 -0.8528
 3978SOL     OW23392   1.509   1.886  11.855 -0.6282 -0.2299  0.0240
 3978SOL    HW123393   1.498   1.848  11.942 -0.5473 -2.5564 -0.9617
 3978SOL    HW223394   1.447   1.837  11.800  0.2170 -1.4279  0.1284
 3979SOL     OW23395   3.847   3.607   4.772  0.1869 -0.0726 -1.3634
 3979SOL    HW123396   3.765   3.602   4.722  0.6035  1.1875 -2.1554
 3979SOL    HW223397   3.882   3.687   4.734 -0.9018  1.3109  0.5837
 3980SOL     OW23398   2.829   1.030   7.737 -0.2531 -0.6741 -0.0248
 3980SOL    HW123399   2.911   0.981   7.737 -1.0874 -2.0773  0.3594
 3980SOL    HW223400   2.824   1.045   7.831 -0.0014  1.0218 -0.2913
 3981SOL     OW23401   3.761   4.545   0.864 -0.0185  0.1165 -0.1536
 3981SOL    HW123402   3.786   4.453   0.871  1.2478  0.6121  2.0226
 3981SOL    HW223403   3.849   4.573   0.839  0.2804 -1.7023 -1.1423
 3982SOL     OW23404   2.484   1.583   3.138 -0.0358 -0.1160  0.1118
 3982SOL    HW123405   2.489   1.660   3.082  0.1542 -0.7573 -0.7597
 3982SOL    HW223406   2.467   1.510   3.078 -2.6938 -1.3185  2.3395
 3983SOL     OW23407   2.590   3.062   9.376  0.2425  0.3864  0.2468
 3983SOL    HW123408   2.599   3.116   9.298  0.6176  0.0275  0.0356
 3983SOL    HW223409   2.663   3.100   9.425 -2.0030  2.8355  1.6437
 3984SOL     OW23410   3.081   3.529   7.805  0.0986 -0.1678  0.1617
 3984SOL    HW123411   3.057   3.608   7.853 -0.0800 -0.1145 -0.0161
 3984SOL    HW223412   3.175   3.540   7.822  0.1655  0.4090 -0.5985
 3985SOL     OW23413   0.441   0.467   6.217  0.2321 -0.2169 -0.2807
 3985SOL    HW123414   0.426   0.418   6.299 -1.4964 -0.7822 -0.9363
 3985SOL    HW223415   0.485   0.398   6.167 -1.8697 -1.0834 -0.9396
 3986SOL     OW23416   2.341   1.553  13.764 -0.4472 -0.6067 -0.0539
 3986SOL    HW123417   2.274   1.600  13.814 -0.1944 -2.4968  2.0483
 3986SOL    HW223418   2.377   1.622  13.708 -0.0303  0.3008  1.3233
 3987SOL     OW23419   2.436   4.650   9.464  0.1698  0.1073  0.1718
 3987SOL    HW123420   2.405   4.618   9.548 -2.7086 -0.5031 -1.1463
 3987SOL    HW223421   2.527   4.667   9.490 -0.2480  1.6116  0.6535
 3988SOL     OW23422   1.458   0.861   8.683 -0.1680 -0.6381  0.2559
 3988SOL    HW123423   1.529   0.832   8.742  1.8416  1.7635 -0.9837
 3988SOL    HW223424   1.402   0.784   8.693  0.9988 -1.3686  1.2757
 3989SOL     OW23425   3.898   3.483   5.385  0.0660  0.3076  0.7493
 3989SOL    HW123426   3.876   3.526   5.467  2.1655  0.1771  1.4020
 3989SOL    HW223427   3.817   3.488   5.336  2.0452 -0.8257 -2.6353
 3990SOL     OW23428   1.919   1.171   5.053 -0.5646 -1.1611  0.1072
 3990SOL    HW123429   1.827   1.173   5.078 -0.1828  1.7679  1.2960
 3990SOL    HW223430   1.914   1.243   4.991 -1.4343 -1.7051 -0.4467
 3991SOL     OW23431   0.574   2.247  16.548  0.2276 -0.7166  0.2155
 3991SOL    HW123432   0.558   2.169  16.494 -0.5685 -1.9861  2.2642
 3991SOL    HW223433   0.646   2.213  16.602  1.4971  2.1429  0.3049
 3992SOL     OW23434   3.490   0.314   8.300  0.5228 -0.1866  0.3246
 3992SOL    HW123435   3.454   0.338   8.215  0.2138 -2.2232 -0.1090
 3992SOL    HW223436   3.537   0.397   8.314  0.2524  0.2431 -1.3234
 3993SOL     OW23437   0.748   1.244  12.758  0.5243  0.2778 -0.5759
 3993SOL    HW123438   0.838   1.247  12.725  0.6155 -0.5900 -0.3868
 3993SOL    HW223439   0.712   1.188  12.689  2.9164 -2.3147  0.2787
 3994SOL     OW23440   3.920   0.142   6.233  0.5073  0.4768 -0.5767
 3994SOL    HW123441   3.901   0.170   6.323 -2.0695  0.9268 -1.2496
 3994SOL    HW223442   3.986   0.208   6.211  1.5128 -0.9413 -1.7624
 3995SOL     OW23443   4.402   1.064   2.594  0.0719  0.0053 -0.0348
 3995SOL    HW123444   4.366   1.149   2.570  1.7584  1.0452  1.1203
 3995SOL    HW223445   4.354   1.035   2.671  1.3797  0.6843  1.0544
 3996SOL     OW23446   4.582   1.034  13.311  0.5163 -0.6355  0.1773
 3996SOL    HW123447   4.603   0.987  13.231  1.5866  0.7053 -0.3254
 3996SOL    HW223448   4.665   1.064  13.347  0.2944  0.7570 -0.4724
 3997SOL     OW23449   3.695   3.951   8.437  0.0521 -0.5610  0.2328
 3997SOL    HW123450   3.616   3.898   8.431 -0.8022  0.5947  1.1240
 3997SOL    HW223451   3.671   4.039   8.407  2.5672  0.0198 -0.0178
 3998SOL     OW23452   3.646   2.748   6.634 -0.9041  0.4665  0.2957
 3998SOL    HW123453   3.666   2.837   6.663 -1.7041  0.1921  1.6451
 3998SOL    HW223454   3.601   2.758   6.550  0.0133  0.3379 -0.2077
 3999SOL     OW23455   4.070   2.548  11.977  0.0184 -0.5255  0.3832
 3999SOL    HW123456   4.131   2.484  12.014 -0.2587 -0.9945  0.0301
 3999SOL    HW223457   4.128   2.625  11.972 -1.4269  0.5435  0.1673
 4000SOL     OW23458   4.687   0.886   9.436  0.2019 -0.1411 -0.3894
 4000SOL    HW123459   4.714   0.975   9.415 -0.5888  0.4004  0.8867
 4000SOL    HW223460   4.698   0.877   9.531 -1.2996  2.1803  0.0068
 4001SOL     OW23461   0.925   3.208   2.267 -0.0966  0.1500  0.3963
 4001SOL    HW123462   1.021   3.201   2.267 -0.1819 -0.9738 -1.0684
 4001SOL    HW223463   0.908   3.114   2.270  1.0003 -0.0734 -0.2721
 4002SOL     OW23464   0.593   0.451   6.880  0.2331 -0.0357  0.1582
 4002SOL    HW123465   0.565   0.366   6.915 -2.2606  0.9872  0.6597
 4002SOL    HW223466   0.672   0.481   6.926  0.3960 -1.1787  0.6358
 4003SOL     OW23467   0.588   0.334  16.204  0.0191 -0.2459 -0.1964
 4003SOL    HW123468   0.628   0.290  16.279 -0.4568 -1.3512 -0.5838
 4003SOL    HW223469   0.531   0.397  16.248  0.1986  0.1176 -0.4840
 4004SOL     OW23470   4.039   2.049   5.324  0.0365  0.2746  0.1451
 4004SOL    HW123471   4.077   2.137   5.333 -1.5699  1.0445 -0.5498
 4004SOL    HW223472   4.109   2.002   5.278 -0.5454 -1.3150  0.8995
 4005SOL     OW23473   2.573   4.511  13.552  0.4427 -0.2887 -0.4253
 4005SOL    HW123474   2.553   4.543  13.464  1.4976  2.4081  0.3017
 4005SOL    HW223475   2.662   4.478  13.541  1.0919  0.9480  1.1046
 4006SOL     OW23476   1.186   1.054   8.726 -0.1823 -0.4574 -0.0374
 4006SOL    HW123477   1.252   1.116   8.755 -0.4865 -0.7796  1.3638
 4006SOL    HW223478   1.229   0.975   8.761  1.8914  0.9187  0.4997
 4007SOL     OW23479   3.266   0.538   9.673  0.4695  0.0265 -0.1552
 4007SOL    HW123480   3.179   0.505   9.650  1.2880 -0.9813 -1.8123
 4007SOL    HW223481   3.276   0.518   9.766  1.6113  0.3570 -0.2077
 4008SOL     OW23482   2.619   2.714   3.738 -0.3273 -0.1101  0.5034
 4008SOL    HW123483   2.526   2.727   3.754 -0.3360  0.4232  0.0303
 4008SOL    HW223484   2.647   2.798   3.701 -0.9650 -0.2217 -0.2502
 4009SOL     OW23485   4.631   1.377   9.688 -0.2367  0.0229  0.2889
 4009SOL    HW123486   4.593   1.440   9.627  0.7802 -0.1980 -0.5719
 4009SOL    HW223487   4.715   1.422   9.700  0.1733 -0.6732  0.0292
 4010SOL     OW23488   4.395   1.962   8.148  0.5471  0.4091 -0.0321
 4010SOL    HW123489   4.378   1.952   8.242 -0.8197 -1.2338 -0.4540
 4010SOL    HW223490   4.488   1.943   8.137  0.1731 -0.0457 -2.2521
 4011SOL     OW23491   3.276   1.812   7.922 -0.4258  0.0857  0.1150
 4011SOL    HW123492   3.299   1.727   7.883 -1.3024 -0.0012 -0.2213
 4011SOL    HW223493   3.228   1.853   7.851  1.1600 -1.6569 -2.0034
 4012SOL     OW23494   1.187   2.164   7.168 -0.5286 -0.9332  0.0554
 4012SOL    HW123495   1.181   2.253   7.135 -0.0001 -1.9293 -2.7021
 4012SOL    HW223496   1.095   2.137   7.167 -0.7391 -0.0403 -3.5005
 4013SOL     OW23497   2.421   3.942  13.033  0.2428  0.5810 -0.4973
 4013SOL    HW123498   2.453   3.864  13.079 -1.4867  0.4662  0.5064
 4013SOL    HW223499   2.446   3.929  12.941  2.6455  3.2509 -0.2153
 4014SOL     OW23500   2.472   0.041   9.801 -0.9027 -0.1178  0.6478
 4014SOL    HW123501   2.490   0.125   9.758  0.3414 -0.0358  1.3277
 4014SOL    HW223502   2.558   4.724   9.799 -1.9635 -2.1895 -2.1540
 4015SOL     OW23503   3.454   0.197   6.633  0.1255  0.0257 -0.0870
 4015SOL    HW123504   3.527   0.172   6.690 -1.5999 -0.0460  2.0673
 4015SOL    HW223505   3.409   0.270   6.676  1.0231  0.3935  0.2337
 4016SOL     OW23506   0.887   0.500  10.188 -0.3956 -0.0467 -0.3153
 4016SOL    HW123507   0.813   0.509  10.127 -0.3819  3.8368  0.1895
 4016SOL    HW223508   0.960   0.498  10.126 -1.8423 -2.4030 -1.9506
 4017SOL     OW23509   1.786   2.375  17.114 -0.3245  0.4776 -0.5237
 4017SOL    HW123510   1.741   2.459  17.120  0.5941  1.0365 -1.2914
 4017SOL    HW223511   1.875   2.391  17.148 -0.4647 -0.0697  0.1052
 4018SOL     OW23512   1.863   2.326   2.907  0.1603 -0.4580  0.3345
 4018SOL    HW123513   1.790   2.265   2.915  0.3333 -0.9485 -1.8716
 4018SOL    HW223514   1.838   2.367   2.824  0.7673  2.8030  1.7829
 4019SOL     OW23515   0.647   2.678  11.854 -0.1385 -0.1380 -0.6690
 4019SOL    HW123516   0.655   2.625  11.933 -0.2738 -2.2449 -2.0634
 4019SOL    HW223517   0.603   2.623  11.789 -1.1982 -1.3103  1.0501
 4020SOL     OW23518   3.918   4.066   4.880  0.1428 -0.1173 -0.3046
 4020SOL    HW123519   3.940   4.155   4.854 -2.2559  1.0492  1.5994
 4020SOL    HW223520   3.962   4.056   4.965 -1.8417  1.6510  0.9234
 4021SOL     OW23521   0.421   0.530  15.860  0.0144 -0.4049  0.7161
 4021SOL    HW123522   0.505   0.514  15.903  0.6242 -3.2432 -1.5848
 4021SOL    HW223523   0.377   0.447  15.877 -0.2601 -0.1789  1.1013
 4022SOL     OW23524   2.244   1.197   3.262  0.0163  0.0337 -0.4815
 4022SOL    HW123525   2.317   1.150   3.302  0.1919  1.9724  1.4846
 4022SOL    HW223526   2.251   1.293   3.259 -0.0792  0.1276  1.8010
 4023SOL     OW23527   1.876   0.423  13.598  0.0932  0.3617  0.0376
 4023SOL    HW123528   1.890   0.499  13.541 -0.2044 -0.0844 -0.6413
 4023SOL    HW223529   1.878   0.463  13.685  1.4431  1.6121 -0.5561
 4024SOL     OW23530   4.628   1.598  16.966 -0.1543  0.1566 -0.0182
 4024SOL    HW123531   4.657   1.575  16.877 -0.1388  0.9962 -0.2300
 4024SOL    HW223532   4.564   1.665  16.944 -1.0448 -0.5409  0.4560
 4025SOL     OW23533   3.769   1.804   7.720  0.3316  0.1363 -0.1069
 4025SOL    HW123534   3.723   1.760   7.792  2.0788  0.3957  1.1909
 4025SOL    HW223535   3.854   1.760   7.732  1.9135  2.3952 -3.1143
 4026SOL     OW23536   3.929   3.797   3.000  0.4055 -0.3242  0.7844
 4026SOL    HW123537   4.014   3.839   2.997  0.8034 -1.2831 -1.2362
 4026SOL    HW223538   3.862   3.864   2.986  0.6123  0.5943  4.2783
 4027SOL     OW23539   3.749   4.114   6.672 -1.0083 -0.1783  0.3834
 4027SOL    HW123540   3.825   4.058   6.690 -2.9677 -2.9304  0.0979
 4027SOL    HW223541   3.783   4.201   6.694  0.7657 -0.1089 -2.6515
 4028SOL     OW23542   0.250   0.260   4.150  0.3687  0.0694 -1.0007
 4028SOL    HW123543   0.285   0.348   4.133 -0.8453  1.0808  1.6076
 4028SOL    HW223544   0.313   0.231   4.215 -0.0177 -1.6716 -1.4176
 4029SOL     OW23545   4.387   0.765   4.682 -0.6777  0.1332  0.5897
 4029SOL    HW123546   4.365   0.832   4.618 -0.4002  0.0859  0.4413
 4029SOL    HW223547   4.326   0.786   4.753 -1.3606  2.5251 -0.7075
 4030SOL     OW23548   4.140   1.578   9.550  0.3491 -0.6062 -0.7996
 4030SOL    HW123549   4.119   1.631   9.473 -2.0217  1.3286  1.1585
 4030SOL    HW223550   4.213   1.633   9.576 -1.9680  0.8695  2.5470
 4031SOL     OW23551   2.056   1.453   4.830 -0.1125 -1.0321 -0.1109
 4031SOL    HW123552   2.083   1.544   4.815 -1.0043 -0.3629  2.4434
 4031SOL    HW223553   2.137   1.402   4.832 -0.4210 -1.5815 -1.5820
 4032SOL     OW23554   1.344   2.577   8.955 -0.2619  0.1435  0.4587
 4032SOL    HW123555   1.386   2.517   9.016  1.2870  1.9131  1.1238
 4032SOL    HW223556   1.392   2.562   8.873  1.7194 -4.0727  2.4067
 4033SOL     OW23557   4.656   2.983   6.591 -0.1402 -0.0720 -0.0108
 4033SOL    HW123558   4.591   3.050   6.610  1.7180  2.0236 -1.0076
 4033SOL    HW223559   0.001   3.013   6.650  0.4843  1.0839 -1.3192
 4034SOL     OW23560   2.721   1.707   7.891  0.3354  0.1950  0.3091
 4034SOL    HW123561   2.679   1.793   7.891  1.1098  0.5732  1.9271
 4034SOL    HW223562   2.798   1.724   7.946  0.6559 -0.2347 -0.0080
 4035SOL     OW23563   0.297   0.617   4.958  0.3557 -0.1160  0.3648
 4035SOL    HW123564   0.239   0.596   5.032 -1.9064  0.9258 -1.1085
 4035SOL    HW223565   0.244   0.562   4.901  3.1127 -0.6312 -1.6420
 4036SOL     OW23566   1.151   3.376   2.403  0.1663 -0.0699  0.2848
 4036SOL    HW123567   1.140   3.377   2.308 -0.8032  0.4840  0.3956
 4036SOL    HW223568   1.063   3.352   2.431 -0.0941  2.3803  1.5509
 4037SOL     OW23569   2.227   3.357   8.137  0.2734  0.1082  0.8739
 4037SOL    HW123570   2.302   3.338   8.081  0.4803 -1.0245  1.5375
 4037SOL    HW223571   2.249   3.448   8.155  0.4790  0.2769 -0.2752
 4038SOL     OW23572   3.022   4.642   4.741 -0.1755 -0.3362  0.1549
 4038SOL    HW123573   3.005   4.722   4.791  0.1142 -0.0021 -0.2765
 4038SOL    HW223574   3.114   4.624   4.760  0.4286  0.9926 -1.4507
 4039SOL     OW23575   0.186   1.711  15.724 -0.5959  0.1925  0.5214
 4039SOL    HW123576   0.193   1.712  15.820 -1.1358  1.9444  0.5339
 4039SOL    HW223577   0.243   1.638  15.697  0.5839  0.7997  1.3439
 4040SOL     OW23578   1.015   3.008   1.132  1.1318  0.1711  0.1854
 4040SOL    HW123579   0.947   3.065   1.166  1.3278  0.5195 -0.0119
 4040SOL    HW223580   0.972   2.922   1.132  0.8573  0.3080  1.2316
 4041SOL     OW23581   4.133   1.987   7.727  0.0585  0.1500  0.3345
 4041SOL    HW123582   4.057   2.043   7.715  0.3376  0.4124 -0.2226
 4041SOL    HW223583   4.202   2.050   7.706 -0.0938  0.3322  0.3794
 4042SOL     OW23584   3.413   4.320   8.426  0.1458  0.1035  0.0466
 4042SOL    HW123585   3.352   4.276   8.485 -1.4240  0.0915 -1.5786
 4042SOL    HW223586   3.490   4.263   8.435 -1.1466 -1.6996 -0.2379
 4043SOL     OW23587   0.786   2.102   5.801  0.2603 -0.0634 -0.4142
 4043SOL    HW123588   0.822   2.070   5.719  0.4449 -0.5312 -0.1486
 4043SOL    HW223589   0.868   2.099   5.850  1.3597 -0.5128 -2.2978
 4044SOL     OW23590   1.426   0.966  11.945  0.0777  0.1315 -0.0699
 4044SOL    HW123591   1.459   0.916  12.020  2.8262  0.7717 -0.8828
 4044SOL    HW223592   1.363   0.907  11.903 -0.3676  1.9393 -1.8722
 4045SOL     OW23593   1.907   0.116   5.176  0.2098  0.2694  1.0773
 4045SOL    HW123594   1.958   0.035   5.173 -2.2999 -1.3032  0.1163
 4045SOL    HW223595   1.884   0.129   5.268 -0.7376 -0.1648  0.9045
 4046SOL     OW23596   1.085   0.772   3.160  0.1754  0.6338  0.2452
 4046SOL    HW123597   1.156   0.762   3.097 -0.0725 -0.1628  0.0950
 4046SOL    HW223598   1.127   0.730   3.234 -0.5972  0.5599  0.6456
 4047SOL     OW23599   2.175   0.677   8.976  0.0605  0.1440 -0.4428
 4047SOL    HW123600   2.082   0.698   8.983 -0.3634 -1.8793 -0.2340
 4047SOL    HW223601   2.193   0.642   9.063  1.2903  1.2980 -0.2265
 4048SOL     OW23602   2.680   4.332  10.222  0.2349 -0.4101  0.0007
 4048SOL    HW123603   2.601   4.283  10.199  0.2623 -0.1549 -0.6534
 4048SOL    HW223604   2.631   4.409  10.251  1.4023  1.7861 -3.8063
 4049SOL     OW23605   1.254   0.772  11.877 -0.3922  0.1907  0.5744
 4049SOL    HW123606   1.164   0.746  11.857  0.0373 -1.0719  0.2777
 4049SOL    HW223607   1.268   0.716  11.954  3.3569  0.3396 -0.0308
 4050SOL     OW23608   4.489   1.335   7.954 -0.0774  0.3234  0.6113
 4050SOL    HW123609   4.437   1.404   7.913  1.2971 -0.5500 -2.6028
 4050SOL    HW223610   4.574   1.377   7.938  0.2272 -1.3003 -2.0118
 4051SOL     OW23611   0.668   2.740   2.175 -0.1179  0.0894  0.0848
 4051SOL    HW123612   0.650   2.812   2.235  0.1080  0.6218 -0.4809
 4051SOL    HW223613   0.726   2.785   2.114 -0.2773 -0.4906 -0.4931
 4052SOL     OW23614   1.800   4.318   3.931 -0.0517  0.0063  0.3070
 4052SOL    HW123615   1.712   4.346   3.907 -0.4246 -1.5970 -0.1855
 4052SOL    HW223616   1.822   4.282   3.845 -0.1932  1.8170 -0.4888
 4053SOL     OW23617   1.166   4.042   5.570  0.7376  0.4962 -0.2908
 4053SOL    HW123618   1.081   4.073   5.540  0.2962  0.8940  1.3331
 4053SOL    HW223619   1.224   4.069   5.499  0.7217  0.9048 -0.1477
 4054SOL     OW23620   1.236   1.808   1.333 -0.1527  0.7077 -1.0229
 4054SOL    HW123621   1.289   1.729   1.324  1.2778  1.9593 -3.6136
 4054SOL    HW223622   1.190   1.798   1.249 -0.5445  0.3473 -0.7676
 4055SOL     OW23623   0.161   2.722   0.200  0.4449  0.1958 -0.6485
 4055SOL    HW123624   0.082   2.695   0.152 -0.5037  1.0499  0.4160
 4055SOL    HW223625   0.181   2.641   0.247 -1.6351  0.2164  0.2855
 4056SOL     OW23626   1.143   0.143   0.433  0.5159 -0.5665  0.3456
 4056SOL    HW123627   1.234   0.172   0.439  0.4340 -0.7571  2.6977
 4056SOL    HW223628   1.158   0.053   0.462 -2.9526 -1.4520 -0.5616
 4057SOL     OW23629   0.878   0.234  17.122  0.2527  0.1512 -0.5911
 4057SOL    HW123630   0.973   0.224  17.122  0.5893  3.4995  0.2211
 4057SOL    HW223631   0.863   0.183  17.202 -0.5876 -0.1187 -0.9221
 4058SOL     OW23632   1.965   2.591   3.615  0.0842 -0.4066 -0.8047
 4058SOL    HW123633   1.975   2.640   3.698 -2.4935  2.4675 -2.1866
 4058SOL    HW223634   2.012   2.511   3.639 -0.2973 -0.2820  0.3447
 4059SOL     OW23635   3.686   3.176  14.967 -0.4440  0.1330  0.5028
 4059SOL    HW123636   3.700   3.270  14.979  2.0449 -0.2698  0.7598
 4059SOL    HW223637   3.777   3.148  14.973 -0.9877 -1.4787  1.2781
 4060SOL     OW23638   4.125   0.453   0.557 -0.0774 -0.0824 -0.2196
 4060SOL    HW123639   4.186   0.484   0.624  0.9558  1.3125 -1.8014
 4060SOL    HW223640   4.045   0.473   0.605 -0.0539  0.8163 -0.5633
 4061SOL     OW23641   1.883   0.088  15.781  0.2445 -0.0751  0.7441
 4061SOL    HW123642   1.812   0.079  15.718  1.1006  2.5265 -0.6166
 4061SOL    HW223643   1.891   0.003  15.824  1.5082 -0.0900  0.5045
 4062SOL     OW23644   0.240   4.531   6.562  0.4427 -0.1024 -0.0797
 4062SOL    HW123645   0.315   4.575   6.602  1.3543 -2.7920  1.1347
 4062SOL    HW223646   0.173   4.599   6.564  0.5469 -0.0214  0.6003
 4063SOL     OW23647   1.056   1.209   0.072 -0.4635  0.9240  0.4908
 4063SOL    HW123648   1.132   1.187   0.018 -0.3612  0.0103  1.0173
 4063SOL    HW223649   1.004   1.260   0.010 -2.4566 -1.8270 -0.0912
 4064SOL     OW23650   0.698   2.964   5.983  0.8901 -0.5491  1.0017
 4064SOL    HW123651   0.682   2.989   5.892 -0.0699  2.4495  1.9929
 4064SOL    HW223652   0.608   2.983   6.009  1.0099  1.7290 -0.2654
 4065SOL     OW23653   2.971   4.282   5.961 -0.0838  0.1585 -0.0205
 4065SOL    HW123654   2.961   4.283   6.056 -1.2777  2.2906 -0.1707
 4065SOL    HW223655   2.885   4.250   5.934 -0.2400 -1.0365  1.8808
 4066SOL     OW23656   2.969   4.342   2.251 -0.3411 -0.5022 -0.4129
 4066SOL    HW123657   2.939   4.254   2.274  0.5669 -0.6888  0.0484
 4066SOL    HW223658   2.937   4.353   2.161 -0.1624 -0.8041 -0.5111
 4067SOL     OW23659   3.390   0.702   3.795 -0.2890  0.3503  0.2364
 4067SOL    HW123660   3.343   0.620   3.801  0.6267 -0.2525 -0.6872
 4067SOL    HW223661   3.398   0.711   3.700  1.6155 -1.2857  0.2381
 4068SOL     OW23662   2.430   1.389  11.648 -0.0592 -0.2829  0.3090
 4068SOL    HW123663   2.463   1.315  11.597  1.2291  1.6209 -1.6213
 4068SOL    HW223664   2.486   1.402  11.724 -1.4222  0.8659  1.1250
 4069SOL     OW23665   2.357   2.227   9.301 -0.2296 -0.1685  0.1005
 4069SOL    HW123666   2.414   2.217   9.377  0.0383  1.7916  0.1689
 4069SOL    HW223667   2.320   2.315   9.313 -1.4618 -0.5463 -0.8557
 4070SOL     OW23668   3.031   4.652   4.471  0.3583  0.5398  0.7001
 4070SOL    HW123669   3.012   4.647   4.564 -0.3656 -0.0016  0.5184
 4070SOL    HW223670   3.019   0.023   4.460 -1.2243  0.0246 -2.0539
 4071SOL     OW23671   3.241   2.250   3.703 -0.2300  0.2949 -0.0998
 4071SOL    HW123672   3.221   2.341   3.723 -1.2688 -0.1457  0.8575
 4071SOL    HW223673   3.333   2.265   3.679 -0.4759 -0.1996 -1.3276
 4072SOL     OW23674   4.656   3.057   0.963 -0.2783 -0.7265 -0.1536
 4072SOL    HW123675   0.019   3.059   0.923  0.0970  1.4616  0.7657
 4072SOL    HW223676   4.631   3.149   0.969  1.9725 -0.0181 -1.7880
 4073SOL     OW23677   2.403   4.497  15.936  0.0797 -0.7436 -0.0529
 4073SOL    HW123678   2.335   4.504  15.870  0.4295  2.5552 -0.0671
 4073SOL    HW223679   2.438   4.585  15.953 -0.4674  0.0606 -3.0887
 4074SOL     OW23680   2.762   0.184  14.789  0.9498  0.1528  0.0024
 4074SOL    HW123681   2.733   0.260  14.738  0.2480 -2.0053 -2.7996
 4074SOL    HW223682   2.716   0.117  14.738 -1.7097  3.6165 -2.1351
 4075SOL     OW23683   1.597   0.591   7.264 -0.6707  0.6884 -0.4839
 4075SOL    HW123684   1.591   0.608   7.170 -0.5662  0.7859 -0.4742
 4075SOL    HW223685   1.625   0.678   7.292  1.7641 -0.0759 -0.5402
 4076SOL     OW23686   2.488   0.440   5.592  0.3158  0.6132  0.2058
 4076SOL    HW123687   2.528   0.356   5.572  1.0075  1.2061 -0.8988
 4076SOL    HW223688   2.397   0.412   5.598  0.2479  1.2363  2.1733
 4077SOL     OW23689   1.641   2.125  15.783  0.2249 -0.2376  0.3590
 4077SOL    HW123690   1.671   2.069  15.711  1.6835  0.4353  0.4425
 4077SOL    HW223691   1.676   2.077  15.859 -0.1209  0.8177  1.1820
 4078SOL     OW23692   3.553   0.924   9.948  0.0884  0.3726  0.0333
 4078SOL    HW123693   3.534   0.898   9.858 -0.7628 -5.4445  1.8756
 4078SOL    HW223694   3.575   1.014   9.923 -1.8259  1.3448  1.8988
 4079SOL     OW23695   1.977   1.561   5.203  0.3104  0.3763 -0.4656
 4079SOL    HW123696   1.969   1.617   5.280  1.1879 -0.8348  0.5080
 4079SOL    HW223697   1.976   1.475   5.244 -2.6810  1.0393  0.8259
 4080SOL     OW23698   4.463   3.963  12.350 -0.2065 -0.6398 -0.1253
 4080SOL    HW123699   4.428   3.915  12.275  0.3518 -1.6917  0.3001
 4080SOL    HW223700   4.409   3.930  12.421 -0.6740  1.5585  0.5587
 4081SOL     OW23701   2.270   1.312   7.533 -0.2802 -0.3567 -0.1047
 4081SOL    HW123702   2.181   1.345   7.546  0.5328  2.0129 -0.5184
 4081SOL    HW223703   2.266   1.292   7.439  3.0197  1.7226 -0.6996
 4082SOL     OW23704   1.350   0.604   9.395 -0.3968 -0.1017 -0.0890
 4082SOL    HW123705   1.292   0.537   9.430 -1.7431  1.2739  0.2634
 4082SOL    HW223706   1.314   0.690   9.414  0.2285  0.6954 -2.4154
 4083SOL     OW23707   2.240   3.924   6.618  0.5805 -0.1290 -0.2550
 4083SOL    HW123708   2.236   4.015   6.588 -1.7450 -0.0373  0.3228
 4083SOL    HW223709   2.274   3.926   6.708  0.1058  0.0110 -0.0787
 4084SOL     OW23710   2.761   4.385   3.432  0.4564  0.3472 -0.1149
 4084SOL    HW123711   2.832   4.375   3.494  1.2541  1.1466 -0.8898
 4084SOL    HW223712   2.698   4.435   3.485  0.5821 -1.3675  1.6346
 4085SOL     OW23713   1.498   3.230   5.535 -0.0540 -0.0196 -0.0484
 4085SOL    HW123714   1.424   3.223   5.475  0.3463 -0.7045 -0.4758
 4085SOL    HW223715   1.452   3.268   5.610  1.1259 -0.2918  0.8368
 4086SOL     OW23716   2.164   4.134   7.732 -0.0466  0.5591  0.2001
 4086SOL    HW123717   2.222   4.068   7.771  1.1188  1.4458 -0.0413
 4086SOL    HW223718   2.155   4.077   7.656  1.5483 -1.8677  1.8154
 4087SOL     OW23719   4.235   3.449  13.877 -0.6813 -0.2160  0.0689
 4087SOL    HW123720   4.257   3.446  13.970 -1.1622  2.1345  0.2595
 4087SOL    HW223721   4.247   3.541  13.854  0.7815 -0.6547 -0.9494
 4088SOL     OW23722   3.896   1.068   3.981 -0.3176 -0.1957 -0.0887
 4088SOL    HW123723   3.938   0.982   3.971  1.1196  0.5606 -0.6120
 4088SOL    HW223724   3.839   1.072   3.904 -1.8020  0.1618  1.0502
 4089SOL     OW23725   1.047   1.890   4.018 -0.1016 -0.2849  0.1989
 4089SOL    HW123726   1.109   1.846   3.960  1.4014  2.0728  0.0049
 4089SOL    HW223727   1.029   1.968   3.965 -0.8998 -0.6054  0.0140
 4090SOL     OW23728   0.425   2.773  11.350 -0.0197 -0.1447 -0.1325
 4090SOL    HW123729   0.480   2.827  11.293 -1.7059  0.7853 -0.8621
 4090SOL    HW223730   0.371   2.843  11.385  0.9401  0.3083  0.4384
 4091SOL     OW23731   1.594   3.244  12.954 -0.0799  0.1795  0.0693
 4091SOL    HW123732   1.573   3.234  13.047  2.2860 -1.1517  0.4647
 4091SOL    HW223733   1.685   3.275  12.953  0.2294 -0.8009 -1.5564
 4092SOL     OW23734   0.539   4.441  14.793  0.1258  0.7465 -0.2395
 4092SOL    HW123735   0.469   4.411  14.735  2.4905 -0.5121 -2.4121
 4092SOL    HW223736   0.493   4.473  14.871  0.4876 -0.5353  0.5097
 4093SOL     OW23737   2.922   2.765   5.496  0.1417 -0.1593 -0.2004
 4093SOL    HW123738   2.915   2.690   5.554 -0.3600  0.4226  0.4912
 4093SOL    HW223739   2.835   2.803   5.507 -0.8177 -2.2716 -0.4459
 4094SOL     OW23740   3.858   1.570   3.348  0.0341 -0.3867  0.3475
 4094SOL    HW123741   3.872   1.657   3.311  0.5188 -0.5331  0.1865
 4094SOL    HW223742   3.908   1.515   3.289  1.7203 -0.5111  1.8911
 4095SOL     OW23743   2.478   3.969  11.050 -0.2682  0.0103  0.2512
 4095SOL    HW123744   2.438   3.884  11.066 -2.0481  0.4884 -1.7845
 4095SOL    HW223745   2.570   3.947  11.066 -0.5001 -0.5274  0.8730
 4096SOL     OW23746   1.478   1.354   9.761 -0.2710 -0.3544  0.4542
 4096SOL    HW123747   1.494   1.372   9.668 -0.6274  1.7727  0.8253
 4096SOL    HW223748   1.496   1.261   9.775 -2.6708 -1.0416 -0.9184
 4097SOL     OW23749   3.715   1.380  12.819  0.2298 -0.4781  0.0615
 4097SOL    HW123750   3.776   1.451  12.800 -0.0398  0.0419  1.1137
 4097SOL    HW223751   3.755   1.330  12.890 -1.1965 -0.0455  1.1852
 4098SOL     OW23752   0.181   2.131   1.817  0.1510 -0.4155 -0.6676
 4098SOL    HW123753   0.095   2.159   1.787  0.8391  2.9718  0.5337
 4098SOL    HW223754   0.225   2.098   1.738  0.4391 -1.1789 -0.1911
 4099SOL     OW23755   3.818   4.585   7.167  0.2685 -0.1578  0.4220
 4099SOL    HW123756   3.894   4.586   7.109  0.5254 -0.3613  0.7570
 4099SOL    HW223757   3.807   4.492   7.188  0.0440 -0.5833 -1.5652
 4100SOL     OW23758   2.934   2.285   4.697  0.8977  0.5089  0.1624
 4100SOL    HW123759   2.853   2.264   4.745  0.1604 -3.0887 -2.6893
 4100SOL    HW223760   2.956   2.368   4.738 -0.1512 -0.2577  2.2950
 4101SOL     OW23761   2.462   1.989   3.327 -0.1761 -0.0473 -0.0214
 4101SOL    HW123762   2.423   1.902   3.339 -0.6919  0.0186 -1.1400
 4101SOL    HW223763   2.383   2.043   3.335  0.7778  1.2010  0.9087
 4102SOL     OW23764   4.695   2.379   9.645  0.1376 -0.0345 -0.0672
 4102SOL    HW123765   4.606   2.407   9.624  0.0285 -1.0442 -0.9541
 4102SOL    HW223766   4.671   2.325   9.721  0.8620  0.0466  0.2179
 4103SOL     OW23767   4.013   3.233  12.364 -0.7349  0.2863  0.2409
 4103SOL    HW123768   4.096   3.240  12.315 -0.6278 -0.8282  0.2508
 4103SOL    HW223769   3.973   3.320  12.362  0.3134  0.8380  2.6253
 4104SOL     OW23770   4.670   3.560   7.727  0.5021  0.2819 -0.2359
 4104SOL    HW123771   0.041   3.574   7.731  0.5115 -0.0388  0.7550
 4104SOL    HW223772   4.630   3.647   7.734  0.4874  0.2361  0.2849
 4105SOL     OW23773   0.561   4.229   8.435 -0.2434 -0.4125 -0.0314
 4105SOL    HW123774   0.600   4.316   8.446 -1.5056  0.2654 -0.8071
 4105SOL    HW223775   0.529   4.220   8.525  1.7132 -1.8507  0.5037
 4106SOL     OW23776   1.887   4.228   3.667 -0.1829 -0.5789  0.0203
 4106SOL    HW123777   1.979   4.207   3.655  0.6081  2.6977  0.2798
 4106SOL    HW223778   1.878   4.301   3.605  0.6774 -0.9084 -0.4829
 4107SOL     OW23779   3.743   1.353   5.551  0.3031 -0.3293 -0.1543
 4107SOL    HW123780   3.792   1.399   5.484  0.0744 -1.9208 -1.4020
 4107SOL    HW223781   3.677   1.421   5.566 -0.5580 -1.0606 -0.6205
 4108SOL     OW23782   2.973   3.848  13.542  0.7672  0.0275 -0.3056
 4108SOL    HW123783   2.961   3.894  13.625 -2.1458 -1.6159  0.1648
 4108SOL    HW223784   3.068   3.858  13.535  0.6496 -0.0955 -2.0854
 4109SOL     OW23785   1.874   0.348  15.904 -0.5346  0.9114 -0.9663
 4109SOL    HW123786   1.896   0.295  15.981 -1.5942 -1.2904 -2.1542
 4109SOL    HW223787   1.854   0.273  15.847  1.8796 -0.2621 -0.2651
 4110SOL     OW23788   3.427   2.246   9.227  0.0833 -0.4848  0.1331
 4110SOL    HW123789   3.345   2.211   9.191 -0.7525  0.9328  0.6790
 4110SOL    HW223790   3.455   2.184   9.294  1.4296  0.2564  0.2590
 4111SOL     OW23791   0.092   4.336   6.398  0.0130  0.5761  0.2085
 4111SOL    HW123792   0.085   4.371   6.309  1.6027  0.6740  0.1282
 4111SOL    HW223793   0.179   4.363   6.426  0.6167  0.3358 -1.4338
 4112SOL     OW23794   2.594   0.108   7.830  0.3762 -0.5316  0.3877
 4112SOL    HW123795   2.601   0.141   7.740 -0.0994 -0.9324  0.2071
 4112SOL    HW223796   2.685   0.084   7.847  0.4152 -0.8728 -0.2852
 4113SOL     OW23797   3.212   2.281   4.239  0.1369  0.0076  0.4559
 4113SOL    HW123798   3.150   2.213   4.211  0.2891  0.1826 -0.3071
 4113SOL    HW223799   3.148   2.347   4.263 -0.9119 -0.6669 -0.5156
 4114SOL     OW23800   1.131   3.763   9.559  0.1756 -0.6952  0.3254
 4114SOL    HW123801   1.088   3.681   9.584 -0.0133 -0.4996  0.6429
 4114SOL    HW223802   1.149   3.749   9.466  0.5277  1.4618  0.0645
 4115SOL     OW23803   2.925   3.055   5.341 -0.6525 -0.5880 -0.5692
 4115SOL    HW123804   2.948   3.028   5.430  2.3205 -0.7018 -1.3859
 4115SOL    HW223805   3.005   3.041   5.292 -1.0566 -0.1996 -1.3375
 4116SOL     OW23806   4.597   4.215   4.873  0.0278  0.5244 -0.5152
 4116SOL    HW123807   4.667   4.280   4.878 -0.9518  1.6918 -1.7370
 4116SOL    HW223808   4.582   4.200   4.966  2.0507  0.6073 -0.1918
 4117SOL     OW23809   2.026   2.256   4.738 -0.1127 -0.1115 -0.1477
 4117SOL    HW123810   2.014   2.302   4.654  2.3928 -1.3059 -1.1489
 4117SOL    HW223811   2.121   2.244   4.737 -0.4872 -2.8809 -1.3094
 4118SOL     OW23812   2.208   1.066   0.623 -0.1503 -0.0126  0.1413
 4118SOL    HW123813   2.241   1.003   0.688  0.4802  0.7532  0.5577
 4118SOL    HW223814   2.273   1.063   0.553 -0.1540 -1.3121  0.1940
 4119SOL     OW23815   3.199   3.650   0.944 -0.6279 -0.7806 -0.1866
 4119SOL    HW123816   3.269   3.708   0.914  0.9914 -2.7956 -0.3031
 4119SOL    HW223817   3.230   3.564   0.914 -1.2293 -0.0573 -2.8920
 4120SOL     OW23818   3.323   0.719   8.345  0.2557  0.0298  0.3232
 4120SOL    HW123819   3.246   0.753   8.299  0.7547  3.0870  1.7292
 4120SOL    HW223820   3.286   0.703   8.431  1.2370 -0.2267  0.7054
 4121SOL     OW23821   3.410   0.776   7.204  0.4329 -0.0793 -0.1513
 4121SOL    HW123822   3.468   0.822   7.264 -1.4407  1.0862  0.7706
 4121SOL    HW223823   3.457   0.693   7.207  1.3906  0.4366 -0.8523
 4122SOL     OW23824   2.586   0.230   2.602  0.2285 -0.2159  0.3397
 4122SOL    HW123825   2.622   0.143   2.583  0.3580  0.0962 -0.7961
 4122SOL    HW223826   2.649   0.297   2.576 -0.0107  0.8168  2.3884
 4123SOL     OW23827   3.873   3.993   3.835 -0.3674 -0.2670  0.4945
 4123SOL    HW123828   3.810   4.038   3.892  0.1905  1.3567 -0.1808
 4123SOL    HW223829   3.932   3.950   3.897 -1.1599 -1.1458  0.6344
 4124SOL     OW23830   4.555   0.789   2.374 -0.1452 -0.3250 -0.3127
 4124SOL    HW123831   4.598   0.863   2.331  0.9920 -1.2912 -0.8479
 4124SOL    HW223832   4.617   0.718   2.356  0.5710  0.4145 -0.7723
 4125SOL     OW23833   0.506   2.031   4.283 -0.0402  0.5889 -0.2129
 4125SOL    HW123834   0.595   2.000   4.300 -0.3603 -0.6815 -0.8184
 4125SOL    HW223835   0.505   2.061   4.192 -2.3869  0.6389 -0.1864
 4126SOL     OW23836   2.755   2.579   4.551  0.2690  0.3277 -0.4099
 4126SOL    HW123837   2.797   2.496   4.531 -0.0240  0.2858 -0.8740
 4126SOL    HW223838   2.671   2.573   4.504  0.6324  0.1311 -1.0408
 4127SOL     OW23839   0.109   1.314   6.810  0.7049  0.3002  0.0645
 4127SOL    HW123840   0.200   1.286   6.816  0.4739  0.1255  2.4382
 4127SOL    HW223841   0.080   1.306   6.901 -2.3894  1.4010 -0.8010
 4128SOL     OW23842   0.964   3.171  12.404  0.3936 -0.2480 -0.1108
 4128SOL    HW123843   0.943   3.122  12.324  0.5108 -2.6958  1.3712
 4128SOL    HW223844   1.023   3.238  12.368  0.5473  0.6016  1.7098
 4129SOL     OW23845   3.066   0.094  11.127  0.1175 -0.1030  0.4022
 4129SOL    HW123846   3.018   0.138  11.197 -0.4455  1.3012 -0.8613
 4129SOL    HW223847   3.114   0.169  11.091  1.1255 -1.1468 -0.4482
 4130SOL     OW23848   2.630   4.546   3.632 -0.1692  0.3907  0.0365
 4130SOL    HW123849   2.548   4.595   3.626 -0.6943 -0.0580  3.6694
 4130SOL    HW223850   2.699   4.610   3.651  2.6051 -2.3502 -0.8141
 4131SOL     OW23851   3.392   4.352  16.042 -0.4456 -0.1796 -0.2710
 4131SOL    HW123852   3.411   4.359  15.949  1.4427 -1.4742  0.0201
 4131SOL    HW223853   3.470   4.396  16.077 -0.3034  0.2629 -1.1480
 4132SOL     OW23854   0.976   2.967  11.531 -0.4182 -0.1129  0.4977
 4132SOL    HW123855   0.897   2.926  11.496  0.9529 -1.9090 -0.4817
 4132SOL    HW223856   0.986   2.916  11.612 -2.9621 -1.9791 -0.3701
 4133SOL     OW23857   3.415   0.529   7.448 -0.9490 -0.2155 -0.4311
 4133SOL    HW123858   3.474   0.509   7.376 -1.1590 -1.6707 -0.2126
 4133SOL    HW223859   3.376   0.442   7.458  0.9946 -1.1284 -0.7192
 4134SOL     OW23860   4.042   2.595   7.288 -0.4465  0.6365 -0.0846
 4134SOL    HW123861   4.063   2.648   7.364 -0.0434 -0.2953  0.4492
 4134SOL    HW223862   3.971   2.553   7.336  0.3046  1.1385  1.4403
 4135SOL     OW23863   2.569   3.615   8.208 -0.7951 -0.1585 -0.2035
 4135SOL    HW123864   2.543   3.571   8.289 -0.0859  1.0146  0.6643
 4135SOL    HW223865   2.542   3.552   8.141 -1.9084 -0.5797  0.6541
 4136SOL     OW23866   3.185   1.772   6.737 -0.1990 -1.1850  0.4033
 4136SOL    HW123867   3.206   1.772   6.830  1.2735 -0.3710  0.0647
 4136SOL    HW223868   3.165   1.864   6.723 -0.0616 -1.4429 -1.5864
 4137SOL     OW23869   4.461   2.436   4.040  0.6489 -0.0134 -0.2479
 4137SOL    HW123870   4.422   2.366   4.092 -0.2611  2.1948  2.0707
 4137SOL    HW223871   4.400   2.504   4.070 -0.6091 -0.1454 -2.5084
 4138SOL     OW23872   3.244   3.226   1.051 -0.4071 -0.4810  0.4001
 4138SOL    HW123873   3.224   3.216   0.957  2.0802  0.9755 -0.2903
 4138SOL    HW223874   3.331   3.187   1.045  0.1591  0.4545  2.8945
 4139SOL     OW23875   3.978   4.150   6.987  0.5496 -0.4158 -0.7096
 4139SOL    HW123876   3.894   4.106   6.973  0.4157 -0.6170  0.7567
 4139SOL    HW223877   3.959   4.219   7.050 -0.7743 -1.7999  0.4370
 4140SOL     OW23878   0.637   3.243  14.612  0.7089  0.2472 -0.3775
 4140SOL    HW123879   0.679   3.255  14.527  0.5012 -0.8506 -0.6316
 4140SOL    HW223880   0.549   3.270  14.585  0.1400 -3.3591 -2.1994
 4141SOL     OW23881   0.229   1.330   5.390 -0.2372  0.4647  0.6621
 4141SOL    HW123882   0.280   1.326   5.471 -1.6726  0.8153  1.5721
 4141SOL    HW223883   0.297   1.325   5.322 -0.4328  1.5361  0.3786
 4142SOL     OW23884   4.129   0.696  10.089 -0.3231  0.2695  0.4634
 4142SOL    HW123885   4.212   0.710  10.045 -0.4617 -0.5483 -0.0575
 4142SOL    HW223886   4.143   0.691  10.184 -0.7998 -1.1679  0.4593
 4143SOL     OW23887   2.435   2.478   0.717  0.6331 -0.8787  0.0845
 4143SOL    HW123888   2.441   2.392   0.759  2.9484  0.3101  2.1693
 4143SOL    HW223889   2.524   2.509   0.733  0.4592  0.2627 -1.2147
 4144SOL     OW23890   3.433   3.388   4.161 -0.2143 -0.0525  0.3031
 4144SOL    HW123891   3.413   3.460   4.222  1.6313  0.7047  0.0090
 4144SOL    HW223892   3.505   3.342   4.204  1.0968  3.1812  1.5349
 4145SOL     OW23893   0.161   0.423   4.814  0.1006 -0.2688 -0.1731
 4145SOL    HW123894   0.071   0.404   4.786 -0.1578  3.4386 -1.8984
 4145SOL    HW223895   0.167   0.350   4.876 -0.0999 -0.2393 -0.1187
 4146SOL     OW23896   2.800   1.280   6.357 -0.1158  0.2433 -1.1504
 4146SOL    HW123897   2.848   1.358   6.384 -2.0226  0.6151  1.2150
 4146SOL    HW223898   2.761   1.263   6.443 -0.6408 -1.0792 -1.6465
 4147SOL     OW23899   1.660   4.366   7.374  0.2717 -0.2382  0.0088
 4147SOL    HW123900   1.671   4.283   7.328 -1.9708  0.4002 -1.6911
 4147SOL    HW223901   1.710   4.354   7.454 -1.1311  0.1976  0.9490
 4148SOL     OW23902   0.555   4.244  14.145  0.2695  0.1161  0.4488
 4148SOL    HW123903   0.513   4.158  14.152 -0.0445  0.4584  2.6685
 4148SOL    HW223904   0.561   4.281  14.233 -1.1837 -0.4066  0.7697
 4149SOL     OW23905   2.416   0.931   5.893  0.0028  0.2231 -0.0612
 4149SOL    HW123906   2.421   0.934   5.798  0.4542 -2.2427 -0.1231
 4149SOL    HW223907   2.390   1.022   5.907 -1.4244 -0.0834 -0.7638
 4150SOL     OW23908   4.449   0.708   5.430  0.8374  0.1723 -0.0534
 4150SOL    HW123909   4.501   0.750   5.362  1.3188  0.5265  0.5326
 4150SOL    HW223910   4.503   0.710   5.508 -0.0924  2.7403  0.5240
 4151SOL     OW23911   2.695   3.182   4.698  0.4196  0.0793 -0.3343
 4151SOL    HW123912   2.708   3.247   4.767  1.1301  0.1399 -0.5253
 4151SOL    HW223913   2.774   3.129   4.708 -0.3774 -0.8509  0.9223
 4152SOL     OW23914   0.751   2.124   1.866 -0.2483  0.0079 -0.3932
 4152SOL    HW123915   0.656   2.108   1.867 -0.3099  0.4070  0.1294
 4152SOL    HW223916   0.753   2.209   1.822  1.6654  0.9703  1.6254
 4153SOL     OW23917   0.237   3.944   8.296  0.3489  0.1773 -0.2996
 4153SOL    HW123918   0.306   3.945   8.229  1.5664  0.5179  0.9593
 4153SOL    HW223919   0.279   3.969   8.378 -0.2625  1.8344 -0.5027
 4154SOL     OW23920   3.885   4.382   5.051  0.3795 -0.4312 -0.0958
 4154SOL    HW123921   3.793   4.358   5.035 -0.3594  0.7611  2.2763
 4154SOL    HW223922   3.892   4.452   4.986 -2.3902  0.3926  0.4564
 4155SOL     OW23923   3.245   4.170   0.260  0.1082  0.1600 -0.5216
 4155SOL    HW123924   3.291   4.110   0.319 -1.2027 -1.2533 -0.9447
 4155SOL    HW223925   3.279   4.247   0.304  2.1127 -1.3398  0.5426
 4156SOL     OW23926   2.897   1.620   0.690 -0.0111 -0.3644  0.1851
 4156SOL    HW123927   2.939   1.538   0.665  0.1092 -0.0471 -0.6581
 4156SOL    HW223928   2.913   1.664   0.607 -0.7342  1.4811  1.0098
 4157SOL     OW23929   0.472   1.402   3.909  0.3713  0.3236 -0.3060
 4157SOL    HW123930   0.495   1.495   3.913  1.6296  0.0404 -1.0485
 4157SOL    HW223931   0.379   1.408   3.885  0.4769  0.8633 -0.5705
 4158SOL     OW23932   3.347   3.464   4.590 -0.0137 -0.1092 -0.6905
 4158SOL    HW123933   3.377   3.381   4.553 -0.3397 -0.2794 -0.5714
 4158SOL    HW223934   3.281   3.481   4.522  0.1555 -0.1486 -0.8658
 4159SOL     OW23935   2.928   0.436   9.372 -0.0026 -0.5659  0.3100
 4159SOL    HW123936   2.982   0.416   9.296 -0.3323  2.4576 -0.7070
 4159SOL    HW223937   2.917   0.531   9.373  0.5221 -0.4827 -3.2594
 4160SOL     OW23938   1.730   0.502   8.506  0.4266 -0.2473 -0.0532
 4160SOL    HW123939   1.668   0.574   8.492  2.2146  1.3057 -0.1124
 4160SOL    HW223940   1.671   0.445   8.554  0.1398 -0.8402 -1.0916
 4161SOL     OW23941   2.046   0.978   3.772  0.1621 -0.3323 -0.3713
 4161SOL    HW123942   2.023   1.003   3.682  0.9484 -0.4960 -0.6145
 4161SOL    HW223943   2.114   0.911   3.761  0.1240 -0.8827  2.8151
 4162SOL     OW23944   4.179   2.095   4.944 -0.1916  0.2694 -0.2628
 4162SOL    HW123945   4.213   2.167   4.998  0.3482 -0.7445  0.7488
 4162SOL    HW223946   4.242   2.079   4.874 -0.4585 -2.8947  0.2016
 4163SOL     OW23947   2.581   2.395   9.579 -0.3770 -0.4664  0.0945
 4163SOL    HW123948   2.534   2.311   9.581  0.0368 -0.6664  1.5525
 4163SOL    HW223949   2.605   2.403   9.672 -1.6790 -1.0886  0.4959
 4164SOL     OW23950   0.119   2.852   3.071 -0.2371 -0.1829  0.1798
 4164SOL    HW123951   0.105   2.920   3.137  0.8791  0.4459 -0.2269
 4164SOL    HW223952   0.131   2.778   3.130 -1.2808 -0.5374 -0.0485
 4165SOL     OW23953   0.600   3.146   3.092  0.6135 -0.1299 -0.5316
 4165SOL    HW123954   0.512   3.131   3.127  0.3430  1.5505 -0.4890
 4165SOL    HW223955   0.647   3.068   3.121  1.2543 -0.0008 -1.2325
 4166SOL     OW23956   3.744   3.069   4.626 -0.1760  0.6618 -0.5747
 4166SOL    HW123957   3.797   3.034   4.555 -0.9823 -0.7647 -0.4674
 4166SOL    HW223958   3.694   2.995   4.660 -0.4781  1.0968 -0.0697
 4167SOL     OW23959   3.326   2.859   4.815  0.7701 -0.7742 -0.4941
 4167SOL    HW123960   3.271   2.925   4.774  1.2894  0.8560  1.4294
 4167SOL    HW223961   3.256   2.814   4.862  1.6815  1.4942  3.0965
 4168SOL     OW23962   4.173   4.438   3.926  0.4074  0.1659  0.2813
 4168SOL    HW123963   4.170   4.366   3.988  2.2906 -0.0840  0.0806
 4168SOL    HW223964   4.082   4.441   3.896 -0.3174  0.5832  2.5174
 4169SOL     OW23965   3.306   4.541  17.260  0.0509 -0.8875 -0.7244
 4169SOL    HW123966   3.364   4.525  17.334  0.6375  0.2740 -0.9405
 4169SOL    HW223967   3.318   4.461  17.210  1.9131 -0.2753 -1.2494
 4170SOL     OW23968   0.104   0.258   7.230  0.0929 -0.1375  0.2740
 4170SOL    HW123969   0.150   0.189   7.278  0.3299 -0.7656 -0.8270
 4170SOL    HW223970   0.182   0.304   7.200 -1.5605  2.3452 -0.1454
 4171SOL     OW23971   0.586   3.533   6.877  0.4601  0.5111 -0.3746
 4171SOL    HW123972   0.534   3.613   6.869  0.4558  0.5657  0.2208
 4171SOL    HW223973   0.522   3.467   6.906 -0.2834  1.4760  0.1902
 4172SOL     OW23974   0.010   1.109  15.225 -0.2231 -0.2070  0.0591
 4172SOL    HW123975   0.021   1.101  15.320  1.8421  4.1295  0.1815
 4172SOL    HW223976   4.673   1.036  15.212 -0.2733 -0.1582  0.0191
 4173SOL     OW23977   2.059   0.804  15.947  0.2443 -0.4305  0.1508
 4173SOL    HW123978   2.075   0.711  15.929  0.4223 -0.1055 -1.3597
 4173SOL    HW223979   2.130   0.845  15.898 -2.2130  2.7625 -0.7094
 4174SOL     OW23980   0.206   4.198   5.163  0.0721  0.2154  0.0918
 4174SOL    HW123981   0.293   4.219   5.198 -0.4863  0.6793  1.2058
 4174SOL    HW223982   0.149   4.199   5.240 -1.1225  1.4600 -0.7998
 4175SOL     OW23983   4.503   4.248  12.301  0.4794  0.2644 -0.0441
 4175SOL    HW123984   4.506   4.153  12.294  1.3673  0.0837  2.8878
 4175SOL    HW223985   4.472   4.265  12.212  0.0762  0.9580  0.2309
 4176SOL     OW23986   1.055   2.694   7.157 -0.7173  0.1884  0.8308
 4176SOL    HW123987   1.107   2.740   7.223  0.3066 -0.5945  0.5701
 4176SOL    HW223988   1.119   2.721   7.090  1.1315 -0.9291  2.1607
 4177SOL     OW23989   3.868   1.433  16.953 -0.0348  0.1637  0.2544
 4177SOL    HW123990   3.938   1.390  17.002 -1.5128 -0.0521  2.1839
 4177SOL    HW223991   3.788   1.430  17.005  0.2398  0.4430  0.6979
 4178SOL     OW23992   3.473   2.481   6.707 -0.0744 -0.0286  0.1320
 4178SOL    HW123993   3.423   2.402   6.685  1.1645 -1.0118  0.8872
 4178SOL    HW223994   3.430   2.506   6.788 -0.2527 -0.0644  0.0494
 4179SOL     OW23995   2.168   0.904  15.707  0.2359  0.1140 -0.4957
 4179SOL    HW123996   2.188   0.957  15.629  1.3637 -0.2698 -0.4663
 4179SOL    HW223997   2.168   0.817  15.668  0.7239  0.3314 -0.9905
 4180SOL     OW23998   4.507   3.436   2.337  0.1986 -0.0856 -0.0451
 4180SOL    HW123999   4.558   3.355   2.339 -3.0043 -2.0804  0.8880
 4180SOL    HW224000   4.471   3.432   2.425  0.5472  1.4217  0.1637
 4181SOL     OW24001   0.289   4.153  12.302 -0.0981  0.5574  0.2327
 4181SOL    HW124002   0.294   4.088  12.372 -0.5598 -0.3595 -0.5902
 4181SOL    HW224003   0.380   4.167  12.277  0.6119 -0.0922  2.5122
 4182SOL     OW24004   1.045   2.432   7.912  0.4667  0.0323 -0.2272
 4182SOL    HW124005   1.092   2.494   7.856  0.0126 -0.2791 -0.9520
 4182SOL    HW224006   0.984   2.490   7.957 -0.6258 -0.3253 -1.2463
 4183SOL     OW24007   2.806   0.777   1.263 -0.4655  0.6016  0.1344
 4183SOL    HW124008   2.717   0.762   1.295 -0.4518  1.6588  0.6740
 4183SOL    HW224009   2.827   0.693   1.222 -2.6201  0.6314 -1.0637
 4184SOL     OW24010   1.516   1.218  16.863 -0.3072  0.1170  0.6289
 4184SOL    HW124011   1.510   1.289  16.800 -1.9216  0.2199  0.8933
 4184SOL    HW224012   1.604   1.229  16.898  0.5150  0.6794 -1.6396
 4185SOL     OW24013   2.517   3.404   8.047 -0.3744  0.0250 -0.6178
 4185SOL    HW124014   2.538   3.433   7.958  1.9150  0.4502  0.0579
 4185SOL    HW224015   2.562   3.320   8.047 -0.2146  0.1073 -1.0105
 4186SOL     OW24016   3.483   4.704   2.556  0.0892  0.1255  0.1106
 4186SOL    HW124017   3.489   4.644   2.481  0.5958 -0.9232  0.9946
 4186SOL    HW224018   3.422   0.047   2.525  0.2770 -0.5842 -1.8152
 4187SOL     OW24019   3.273   2.968  16.327 -0.0739 -0.0800  0.2508
 4187SOL    HW124020   3.197   2.990  16.380  1.0068 -0.9913  2.1889
 4187SOL    HW224021   3.343   2.966  16.393 -1.8176 -0.0875  2.1110
 4188SOL     OW24022   2.711   2.537   0.178  0.0904 -0.1764 -0.2335
 4188SOL    HW124023   2.676   2.451   0.203 -0.9185 -0.8509 -3.9194
 4188SOL    HW224024   2.676   2.539   0.089 -2.9791  3.5277  1.1137
 4189SOL     OW24025   1.289   4.239   5.325  0.1087  0.2540  0.3492
 4189SOL    HW124026   1.330   4.242   5.412  1.3210 -1.7253 -0.1613
 4189SOL    HW224027   1.360   4.198   5.276 -1.2634 -1.1259 -0.4590
 4190SOL     OW24028   4.525   1.781   3.700  0.1060 -0.1677 -0.2689
 4190SOL    HW124029   4.450   1.791   3.642 -0.5735  0.3183  0.7064
 4190SOL    HW224030   4.592   1.804   3.635 -0.2110  2.6943  0.4317
 4191SOL     OW24031   3.145   4.585   8.113 -0.1802  0.6088 -0.2903
 4191SOL    HW124032   3.103   4.668   8.089  0.0158  0.7760 -0.0500
 4191SOL    HW224033   3.123   4.579   8.206 -0.8263  0.5945 -0.4448
 4192SOL     OW24034   0.030   3.537   0.396  0.0266  0.3191 -0.3238
 4192SOL    HW124035   0.114   3.508   0.432 -0.1833  0.0175 -0.0698
 4192SOL    HW224036   4.712   3.451   0.407 -1.5435  1.5064  3.2182
 4193SOL     OW24037   1.668   2.208   8.832  0.1497  0.4468  0.0998
 4193SOL    HW124038   1.643   2.116   8.841  2.6756 -0.5015 -2.5845
 4193SOL    HW224039   1.762   2.195   8.827 -0.1302 -2.1320  1.3618
 4194SOL     OW24040   0.405   1.450  10.414  0.8164 -0.5164 -0.3618
 4194SOL    HW124041   0.471   1.475  10.478  1.1573 -0.5681 -0.6892
 4194SOL    HW224042   0.450   1.390  10.355  0.3272 -0.0386 -1.2262
 4195SOL     OW24043   0.781   3.397   9.540 -1.0130  0.0871 -0.1818
 4195SOL    HW124044   0.723   3.434   9.607 -0.3058 -0.9961  1.0284
 4195SOL    HW224045   0.866   3.435   9.563 -1.9629  1.1289  1.6139
 4196SOL     OW24046   2.234   1.467   3.287  0.0809  0.1835  0.2342
 4196SOL    HW124047   2.216   1.536   3.224 -0.3675 -0.2009 -0.0561
 4196SOL    HW224048   2.283   1.520   3.350  0.4120 -0.6336  0.6770
 4197SOL     OW24049   1.821   0.657  11.995  0.2308  0.0162 -0.2030
 4197SOL    HW124050   1.823   0.587  12.060  1.9290  1.3566  1.1838
 4197SOL    HW224051   1.870   0.611  11.927 -2.6203 -1.8565 -0.9539
 4198SOL     OW24052   2.031   3.987   1.521 -0.3624 -0.2999 -0.3313
 4198SOL    HW124053   1.955   4.044   1.508 -0.0025  0.1919 -0.2734
 4198SOL    HW224054   2.059   4.019   1.607 -0.1812 -2.3127  0.3453
 4199SOL     OW24055   3.328   1.529   5.512 -0.8316  0.3831  0.1828
 4199SOL    HW124056   3.349   1.437   5.527 -0.1659  0.6824  1.0766
 4199SOL    HW224057   3.409   1.555   5.468 -0.3778 -1.7282 -0.2311
 4200SOL     OW24058   3.694   4.343  16.983 -0.4435  0.2223 -0.2526
 4200SOL    HW124059   3.711   4.415  17.044  1.5259  0.6290 -1.2513
 4200SOL    HW224060   3.661   4.390  16.906 -0.1559  0.2613 -0.3544
 4201SOL     OW24061   0.602   0.222   7.117 -0.0731  0.3426  0.4793
 4201SOL    HW124062   0.589   0.151   7.180  2.0753  1.0086  1.6782
 4201SOL    HW224063   0.693   0.243   7.135  0.2191  0.3752 -1.0428
 4202SOL     OW24064   3.943   0.662   6.061 -0.4652 -0.2944 -0.4526
 4202SOL    HW124065   4.026   0.642   6.017  0.9647  0.4124  1.9389
 4202SOL    HW224066   3.882   0.601   6.018 -0.8734  1.6043 -2.5866
 4203SOL     OW24067   0.806   3.133   1.238  0.5195  0.3012  0.2067
 4203SOL    HW124068   0.720   3.170   1.218  0.8933  1.8691  1.4915
 4203SOL    HW224069   0.810   3.162   1.329  2.4836 -2.0519  0.8618
 4204SOL     OW24070   1.880   2.489  13.772 -0.1244  0.1913  0.6344
 4204SOL    HW124071   1.910   2.398  13.777 -1.8939 -0.3099  2.4101
 4204SOL    HW224072   1.893   2.504  13.679  0.4060 -3.9447  0.0723
 4205SOL     OW24073   0.733   1.667   5.141  0.4721 -0.3678 -0.2843
 4205SOL    HW124074   0.727   1.645   5.048  4.2245 -1.2291 -0.3155
 4205SOL    HW224075   0.825   1.693   5.142  0.4419 -0.1895 -1.5834
 4206SOL     OW24076   4.149   0.450   9.075  0.5443  0.1293 -0.1679
 4206SOL    HW124077   4.232   0.461   9.120 -0.3350  0.1195  1.4565
 4206SOL    HW224078   4.147   0.356   9.055  0.0805 -0.0188  0.5723
 4207SOL     OW24079   3.560   0.364   7.855 -0.5853  0.0058  0.2499
 4207SOL    HW124080   3.523   0.335   7.938 -3.5247  0.6226 -0.8590
 4207SOL    HW224081   3.562   0.460   7.859 -2.1426  0.0068  1.1708
 4208SOL     OW24082   1.386   1.696   1.067 -0.2742  0.2849 -0.4106
 4208SOL    HW124083   1.451   1.701   0.997  0.4792  1.0189  0.3349
 4208SOL    HW224084   1.414   1.611   1.101  0.7391  1.1369  0.8770
 4209SOL     OW24085   0.556   3.493  13.646  0.0469  0.7550 -0.0214
 4209SOL    HW124086   0.535   3.475  13.738  0.6018  1.0075  0.1549
 4209SOL    HW224087   0.465   3.501  13.616  0.0782  2.2693  0.2765
 4210SOL     OW24088   0.903   1.566   4.171 -0.2064 -0.3383 -0.2939
 4210SOL    HW124089   0.902   1.518   4.254 -2.0347  1.3384  0.6297
 4210SOL    HW224090   0.997   1.562   4.155  0.0371 -1.4373  1.4142
 4211SOL     OW24091   1.212   2.701   8.716 -0.3963  0.1313 -0.7031
 4211SOL    HW124092   1.207   2.693   8.812 -0.0722  2.5685 -0.4819
 4211SOL    HW224093   1.194   2.612   8.685 -2.6454  0.4026 -0.1456
 4212SOL     OW24094   3.073   4.233   3.099  0.3692  0.1404 -0.2427
 4212SOL    HW124095   3.120   4.289   3.161  2.8381 -1.6811 -0.4391
 4212SOL    HW224096   3.024   4.176   3.158  0.5983 -1.8095 -1.9489
 4213SOL     OW24097   3.788   1.755   5.841  0.0880 -0.6263  0.2134
 4213SOL    HW124098   3.861   1.762   5.779 -1.9299 -0.5161 -2.1225
 4213SOL    HW224099   3.757   1.667   5.861 -0.4876 -0.4399  0.1211
 4214SOL     OW24100   0.355   4.124  14.497  0.3709 -0.1237  0.3654
 4214SOL    HW124101   0.313   4.064  14.435 -0.9018  0.6315  0.4925
 4214SOL    HW224102   0.432   4.071  14.518 -0.9396 -2.2580 -0.1087
 4215SOL     OW24103   2.854   3.522  10.839 -0.2457  0.1261  0.3925
 4215SOL    HW124104   2.853   3.504  10.933 -1.3009 -0.0453  0.3522
 4215SOL    HW224105   2.948   3.511  10.824 -0.2951 -1.3834  1.2183
 4216SOL     OW24106   3.083   0.252   5.742 -0.2623  0.0759 -0.1348
 4216SOL    HW124107   3.067   0.346   5.751 -0.7598  0.0239 -0.4630
 4216SOL    HW224108   3.019   0.219   5.805  0.5614 -0.1746  0.5742
 4217SOL     OW24109   2.810   0.271   8.271  0.0344  0.5060  0.4017
 4217SOL    HW124110   2.788   0.190   8.224 -2.5006  0.2629  1.9834
 4217SOL    HW224111   2.855   0.227   8.344 -1.1471  0.3457  1.0389
 4218SOL     OW24112   2.074   2.085   6.872  0.0843 -0.1704  0.2452
 4218SOL    HW124113   2.020   2.056   6.799 -0.7555  2.3118 -0.1354
 4218SOL    HW224114   2.044   2.023   6.939  1.8244 -0.5635  0.6625
 4219SOL     OW24115   4.369   0.428   1.514  0.2913  0.3148 -0.1966
 4219SOL    HW124116   4.369   0.341   1.474 -1.4590  0.2201  0.0034
 4219SOL    HW224117   4.298   0.476   1.472  0.6278  1.5950  0.7170
 4220SOL     OW24118   1.828   2.397   2.416 -0.0334  0.2397 -0.2378
 4220SOL    HW124119   1.789   2.410   2.503 -0.5761  0.8719 -0.5783
 4220SOL    HW224120   1.918   2.407   2.449 -0.7669  0.7196  1.6479
 4221SOL     OW24121   3.245   0.475  13.904 -0.3467  0.0949 -0.1829
 4221SOL    HW124122   3.209   0.399  13.948 -0.7886  0.5746  0.2867
 4221SOL    HW224123   3.170   0.532  13.888 -3.0485 -3.7218 -0.8125
 4222SOL     OW24124   2.130   3.522   3.928 -0.1475 -0.5154  0.1118
 4222SOL    HW124125   2.053   3.477   3.895 -0.3945  1.4611 -2.0300
 4222SOL    HW224126   2.192   3.512   3.856 -0.8867  2.5605 -0.9539
 4223SOL     OW24127   1.512   0.266  13.246  0.0555  0.3803 -0.2707
 4223SOL    HW124128   1.472   0.204  13.185  1.9509 -0.8663 -0.2369
 4223SOL    HW224129   1.570   0.305  13.180  0.0664  1.4000  0.3404
 4224SOL     OW24130   1.471   2.518   5.342 -0.2768  0.1067 -0.5069
 4224SOL    HW124131   1.377   2.500   5.352  0.8236 -2.5483  5.3311
 4224SOL    HW224132   1.494   2.500   5.251  0.2294  1.2598 -0.6002
 4225SOL     OW24133   4.720   3.708   5.835 -0.4030 -0.0004  0.0008
 4225SOL    HW124134   0.011   3.626   5.788  0.5629  0.2703 -0.1642
 4225SOL    HW224135   4.678   3.761   5.768 -1.3730  1.1502  1.5119
 4226SOL     OW24136   2.815   3.395   0.121 -0.2479 -0.2236  0.3053
 4226SOL    HW124137   2.782   3.467   0.174 -0.4608  0.1827 -0.3871
 4226SOL    HW224138   2.885   3.439   0.073  1.8625 -2.7110  1.0696
 4227SOL     OW24139   4.029   3.304   7.448 -0.0263  0.2415 -0.0527
 4227SOL    HW124140   3.962   3.327   7.512 -0.0214 -0.2809  0.1406
 4227SOL    HW224141   4.021   3.209   7.436 -0.3116  0.2937 -0.2709
 4228SOL     OW24142   1.630   3.799   7.768  0.2100 -0.4065  0.0932
 4228SOL    HW124143   1.565   3.867   7.751 -1.9526 -1.8888  2.3242
 4228SOL    HW224144   1.646   3.797   7.863  2.0142  2.9281 -0.1525
 4229SOL     OW24145   2.129   4.046   2.198  0.0734 -0.2826 -0.2369
 4229SOL    HW124146   2.142   4.114   2.263 -2.8227  0.4864 -0.4641
 4229SOL    HW224147   2.186   4.081   2.129 -0.5165  0.5591 -0.2925
 4230SOL     OW24148   2.656   2.881   5.509 -0.3693 -0.1245  0.0163
 4230SOL    HW124149   2.562   2.865   5.509 -0.2247 -1.0246  1.4132
 4230SOL    HW224150   2.674   2.867   5.416 -1.3034  1.1540 -0.3522
 4231SOL     OW24151   3.733   3.790   9.936  0.2620  0.1137  0.3777
 4231SOL    HW124152   3.657   3.735   9.917  0.6900  0.0995 -1.3004
 4231SOL    HW224153   3.778   3.798   9.852  0.6550 -1.4148  0.4363
 4232SOL     OW24154   1.235   2.066   5.180 -0.1544 -0.7869 -0.1417
 4232SOL    HW124155   1.272   2.153   5.162 -0.9438 -0.2757  0.6727
 4232SOL    HW224156   1.263   2.016   5.104 -2.1489  1.2601 -2.2256
 4233SOL     OW24157   4.045   0.724   2.112 -0.0008  0.5429 -1.0023
 4233SOL    HW124158   4.125   0.768   2.141 -0.4762  1.2720 -0.7910
 4233SOL    HW224159   4.065   0.738   2.019 -0.3306 -4.0449 -1.7405
 4234SOL     OW24160   2.889   3.752  14.004  0.0962  0.7781 -0.0806
 4234SOL    HW124161   2.946   3.678  14.022  1.7542  1.8911 -0.7306
 4234SOL    HW224162   2.911   3.776  13.914 -1.2855  0.3348 -0.5383
 4235SOL     OW24163   1.229   0.131  14.758 -0.6179 -0.1316  0.3241
 4235SOL    HW124164   1.194   0.191  14.693  0.4799  1.3933  1.1277
 4235SOL    HW224165   1.230   0.048  14.710 -0.6428  0.5706 -0.8672
 4236SOL     OW24166   2.625   2.740  12.839 -0.1079 -0.3220 -0.0148
 4236SOL    HW124167   2.664   2.827  12.828  0.1133 -0.4723 -0.4068
 4236SOL    HW224168   2.544   2.751  12.889 -0.2476  1.0557 -0.5201
 4237SOL     OW24169   3.096   3.969  16.806 -0.1084  0.2068 -0.1843
 4237SOL    HW124170   3.136   4.056  16.808  1.0844 -0.3090 -1.1000
 4237SOL    HW224171   3.005   3.993  16.787  0.3589  0.6432 -1.8706
 4238SOL     OW24172   4.044   1.048   8.755 -0.3073 -0.5173 -0.3100
 4238SOL    HW124173   4.079   0.959   8.747  1.4826  0.2170 -0.6173
 4238SOL    HW224174   4.036   1.072   8.663  0.7340 -0.1534 -0.2983
 4239SOL     OW24175   3.858   3.125   0.814 -0.0365 -0.4129  0.0013
 4239SOL    HW124176   3.881   3.195   0.876 -1.4798  0.0126  0.0508
 4239SOL    HW224177   3.776   3.155   0.775 -0.5677 -0.3017  1.1948
 4240SOL     OW24178   0.063   2.064  13.710  0.1660  0.6625  0.0675
 4240SOL    HW124179   0.119   2.140  13.695  1.2638 -0.1382  0.1926
 4240SOL    HW224180   0.070   2.067  13.805  0.0266 -0.1014  0.1022
 4241SOL     OW24181   4.254   2.168   7.254  0.3861  0.0180 -0.0344
 4241SOL    HW124182   4.277   2.096   7.312  1.7989 -1.1447 -2.0570
 4241SOL    HW224183   4.162   2.178   7.281  0.3918  1.0039 -0.3851
 4242SOL     OW24184   3.649   2.227  10.928  0.3833 -0.2187  0.5730
 4242SOL    HW124185   3.571   2.172  10.942  0.2885 -0.1504  0.2992
 4242SOL    HW224186   3.703   2.154  10.898 -1.1274 -0.7884 -0.7199
 4243SOL     OW24187   4.706   1.555   5.702 -0.0232 -0.2767  0.1931
 4243SOL    HW124188   4.660   1.598   5.630 -1.1006 -1.7751  0.0020
 4243SOL    HW224189   4.706   1.631   5.760  0.2359  0.1223 -0.3274
 4244SOL     OW24190   4.720   3.736  11.273 -0.1682 -0.4846 -0.3944
 4244SOL    HW124191   0.059   3.727  11.201  0.8159 -0.2829  0.4308
 4244SOL    HW224192   4.648   3.684  11.239 -0.0096  0.2758 -1.9222
 4245SOL     OW24193   0.108   1.208   2.887 -0.0619 -0.6514  0.5953
 4245SOL    HW124194   0.062   1.279   2.931  1.9206  0.5238  0.7997
 4245SOL    HW224195   0.041   1.195   2.820 -1.2824 -0.1897  1.7271
 4246SOL     OW24196   3.137   0.356   7.966 -0.7899  0.4682 -0.4104
 4246SOL    HW124197   3.167   0.266   7.961  0.2596  0.6003  3.1913
 4246SOL    HW224198   3.192   0.392   8.035  0.9620 -0.3710 -1.3792
 4247SOL     OW24199   0.484   0.550   2.748  0.1904 -0.1962  0.3885
 4247SOL    HW124200   0.510   0.459   2.764  0.6764 -0.7540 -3.5088
 4247SOL    HW224201   0.518   0.592   2.827 -2.4249  0.7366  1.0199
 4248SOL     OW24202   1.108   4.404   2.512 -0.4374  0.0740 -0.1278
 4248SOL    HW124203   1.157   4.367   2.439 -1.0753 -1.8698  0.4369
 4248SOL    HW224204   1.159   4.483   2.532  0.8352 -0.3293 -1.7891
 4249SOL     OW24205   1.102   0.608   4.656  0.0851  0.0614 -0.7711
 4249SOL    HW124206   1.192   0.603   4.689 -0.1849 -0.1571 -0.0745
 4249SOL    HW224207   1.106   0.534   4.596 -2.8328 -0.8204  0.1271
 4250SOL     OW24208   2.593   3.005  15.770  0.0574  0.4305 -0.2412
 4250SOL    HW124209   2.663   2.940  15.767 -1.3194 -1.0367 -0.0968
 4250SOL    HW224210   2.526   2.950  15.809 -0.9471  1.9594  0.2136
 4251SOL     OW24211   1.218   2.392   3.432 -0.3979  0.4960 -0.3273
 4251SOL    HW124212   1.214   2.434   3.518 -1.8258 -0.5227  0.0989
 4251SOL    HW224213   1.308   2.360   3.441  0.3858  2.8252  0.0902
 4252SOL     OW24214   1.194   2.135  12.406  0.1953 -0.1031 -0.4040
 4252SOL    HW124215   1.166   2.114  12.317  0.3593 -1.0706 -0.2349
 4252SOL    HW224216   1.163   2.055  12.449  1.9953 -0.9635 -0.7020
 4253SOL     OW24217   0.930   0.978   6.013 -0.4400  0.3946 -0.5689
 4253SOL    HW124218   0.933   0.882   6.013 -0.6504  0.3844 -1.2166
 4253SOL    HW224219   0.890   0.991   6.098  0.6013  1.5615 -0.2557
 4254SOL     OW24220   2.398   3.792   1.002 -0.4677  0.2855 -0.1329
 4254SOL    HW124221   2.448   3.711   0.994  0.5158  0.9364 -0.5724
 4254SOL    HW224222   2.350   3.776   1.083  1.1238  0.8192  0.9292
 4255SOL     OW24223   0.704   1.232  10.391  0.4387 -0.8474 -0.0073
 4255SOL    HW124224   0.756   1.175  10.334  0.2960 -0.9558 -0.0294
 4255SOL    HW224225   0.772   1.296  10.412  1.3557 -1.9627  0.4527
 4256SOL     OW24226   1.604   0.916   0.119  0.5493  0.2912  0.0721
 4256SOL    HW124227   1.688   0.932   0.163  0.3809  0.5441  0.2926
 4256SOL    HW224228   1.558   0.879   0.194 -1.0086  0.6263 -0.7134
 4257SOL     OW24229   1.474   4.645  14.889 -0.2021  0.0255  0.1515
 4257SOL    HW124230   1.464   0.008  14.929  3.5438 -0.1583  1.4693
 4257SOL    HW224231   1.550   4.618  14.941 -0.7231  1.3061  1.5664
 4258SOL     OW24232   4.006   2.167  14.695 -0.2343  0.1927  0.2046
 4258SOL    HW124233   3.988   2.083  14.737 -0.4464 -1.8580 -3.9796
 4258SOL    HW224234   4.091   2.188  14.734 -0.8498  1.9759  0.6083
 4259SOL     OW24235   1.529   4.687   1.433 -0.3564 -0.5507  0.5060
 4259SOL    HW124236   1.451   4.632   1.425 -0.6396  0.2096 -1.8092
 4259SOL    HW224237   1.548   4.688   1.527 -2.2098  3.7158  0.8022
 4260SOL     OW24238   1.512   1.560  15.582 -0.7574 -0.6752 -0.1474
 4260SOL    HW124239   1.513   1.490  15.517 -1.9887  0.8687 -1.8335
 4260SOL    HW224240   1.589   1.612  15.559 -0.9225  0.2907  1.4509
 4261SOL     OW24241   1.296   3.670   2.126  0.3841  0.1768  0.2195
 4261SOL    HW124242   1.350   3.592   2.136 -0.5173 -0.4865 -0.0653
 4261SOL    HW224243   1.354   3.742   2.099  0.0479 -0.1433 -1.3080
 4262SOL     OW24244   1.795   2.158   0.210  0.0490  0.6156  0.1648
 4262SOL    HW124245   1.798   2.249   0.238 -1.9040  1.1713 -1.4201
 4262SOL    HW224246   1.878   2.143   0.163  0.0582  0.1286  0.3344
 4263SOL     OW24247   3.724   1.123   4.757 -0.0438  0.5527  0.3694
 4263SOL    HW124248   3.755   1.209   4.730 -1.0494  0.5662 -0.7360
 4263SOL    HW224249   3.755   1.065   4.687 -1.8843  2.7102 -2.2171
 4264SOL     OW24250   1.475   3.894   7.460 -0.4234  0.2182 -0.1386
 4264SOL    HW124251   1.443   3.804   7.469  0.7162 -0.3098 -1.2404
 4264SOL    HW224252   1.557   3.870   7.415  0.0857  0.9186  0.4162
 4265SOL     OW24253   3.056   1.791  11.678  0.1341 -0.4597 -0.1791
 4265SOL    HW124254   3.112   1.759  11.607 -0.3942 -1.3966 -0.1750
 4265SOL    HW224255   3.119   1.819  11.744  0.7563  0.4224 -1.1514
 4266SOL     OW24256   0.006   1.064   0.996 -0.3543 -0.0053  0.3162
 4266SOL    HW124257   0.049   1.006   1.059 -0.3528 -0.7249 -0.3417
 4266SOL    HW224258   0.028   1.017   0.915 -4.1342 -0.9208 -0.1998
 4267SOL     OW24259   0.692   2.488  14.637 -0.1734 -0.0920  0.1303
 4267SOL    HW124260   0.715   2.400  14.665 -1.0974 -0.4354 -0.1976
 4267SOL    HW224261   0.629   2.473  14.566 -0.5346 -1.0357  0.6538
 4268SOL     OW24262   0.854   0.085   5.204  0.2009  0.1469  0.1853
 4268SOL    HW124263   0.936   0.064   5.248 -0.6665 -0.4783  1.4981
 4268SOL    HW224264   0.825   4.721   5.182  1.4357 -0.4122  0.8018
 4269SOL     OW24265   2.992   3.479  14.036  0.1531 -0.0128  0.7127
 4269SOL    HW124266   2.949   3.400  14.068  1.5390 -1.5696 -1.2264
 4269SOL    HW224267   3.056   3.499  14.104  0.2312  0.6983  0.4292
 4270SOL     OW24268   1.911   1.544   6.362  0.2128  0.2411 -1.0625
 4270SOL    HW124269   1.890   1.521   6.271 -1.7790 -1.3934 -0.1888
 4270SOL    HW224270   1.847   1.615   6.372 -1.3655 -1.2617 -0.5036
 4271SOL     OW24271   0.577   3.274   1.158 -0.9174  0.1450 -0.9080
 4271SOL    HW124272   0.521   3.262   1.081 -1.2817 -1.2919 -0.4128
 4271SOL    HW224273   0.624   3.351   1.124 -0.2962  0.0169 -0.3247
 4272SOL     OW24274   0.084   1.537  16.773 -0.7435 -0.4252  0.2100
 4272SOL    HW124275   0.135   1.612  16.744 -2.6781  0.2360 -1.5266
 4272SOL    HW224276   0.133   1.508  16.849 -0.3245  2.2450  0.9535
 4273SOL     OW24277   0.438   2.022   3.831 -0.1937  0.4494 -0.4615
 4273SOL    HW124278   0.502   2.036   3.900 -1.2198 -3.0746  1.1738
 4273SOL    HW224279   0.475   2.068   3.755  1.5367 -0.7563 -0.3577
 4274SOL     OW24280   0.473   0.773   3.538 -0.6423 -0.3050  0.0976
 4274SOL    HW124281   0.425   0.824   3.603  0.9044  3.1502 -1.4076
 4274SOL    HW224282   0.513   0.697   3.580  0.9010  0.4176 -0.0707
 4275SOL     OW24283   4.548   3.802   2.272  0.0027  0.2530  0.2967
 4275SOL    HW124284   4.459   3.770   2.252  0.0588  2.9730 -4.0986
 4275SOL    HW224285   4.536   3.822   2.365  0.7848 -1.0828  0.6837
 4276SOL     OW24286   1.281   4.057   6.520 -0.1746  0.4796 -1.6914
 4276SOL    HW124287   1.271   4.149   6.493  3.2140  0.6352 -2.4472
 4276SOL    HW224288   1.270   4.012   6.436 -1.1238  0.3988 -1.5140
 4277SOL     OW24289   0.324   0.698   5.983  0.1686  0.2520  0.2059
 4277SOL    HW124290   0.401   0.665   6.029  0.2835  1.3440  0.8114
 4277SOL    HW224291   0.363   0.777   5.944  0.1902 -0.8035 -1.9140
 4278SOL     OW24292   3.958   2.447   4.320 -0.0739 -0.5931  0.3126
 4278SOL    HW124293   3.985   2.519   4.263 -2.1215 -0.3504 -0.3830
 4278SOL    HW224294   4.008   2.474   4.397 -1.6617  1.4656  0.6371
 4279SOL     OW24295   3.603   1.324   1.640  0.4356  0.0071 -0.5278
 4279SOL    HW124296   3.509   1.340   1.641  0.1224 -1.7310 -2.0065
 4279SOL    HW224297   3.635   1.391   1.579  1.0379  0.7670  0.6306
 4280SOL     OW24298   2.005   1.354   2.304  0.5156 -0.1963 -0.1772
 4280SOL    HW124299   1.911   1.371   2.293  0.0394 -1.1301  2.3728
 4280SOL    HW224300   2.010   1.380   2.396  2.2676 -3.1061  0.5481
 4281SOL     OW24301   4.062   2.584   8.917 -0.4944 -0.6570  0.0531
 4281SOL    HW124302   4.032   2.510   8.864  0.7602 -0.6790 -0.6334
 4281SOL    HW224303   4.115   2.629   8.851 -0.4380 -0.4471  0.2435
 4282SOL     OW24304   1.312   0.094   4.608 -0.0480  0.9770  0.0898
 4282SOL    HW124305   1.241   0.149   4.574 -1.6518 -3.3877 -3.5558
 4282SOL    HW224306   1.317   0.027   4.540  2.0038 -0.1195  1.3419
 4283SOL     OW24307   3.530   1.788  10.296  0.2210 -0.0509 -0.5642
 4283SOL    HW124308   3.479   1.821  10.222  2.4538  3.7277 -0.4291
 4283SOL    HW224309   3.582   1.864  10.324 -2.4157  0.4939  2.8949
 4284SOL     OW24310   1.716   3.089   3.540  0.0349 -0.5683  0.1484
 4284SOL    HW124311   1.680   3.175   3.519  1.2473 -0.0889  0.0319
 4284SOL    HW224312   1.809   3.095   3.519  0.2873  1.4230  1.7738
 4285SOL     OW24313   0.219   1.155   6.098 -0.0566 -0.4692  0.2622
 4285SOL    HW124314   0.210   1.250   6.097 -2.1253 -0.6684 -0.1190
 4285SOL    HW224315   0.224   1.137   6.004  2.3578  0.1605  0.2672
 4286SOL     OW24316   2.538   2.161   5.690 -0.0621  0.4675 -0.5590
 4286SOL    HW124317   2.522   2.191   5.779 -0.4759  1.2072 -0.8890
 4286SOL    HW224318   2.461   2.107   5.674  0.7466 -0.0049 -2.9080
 4287SOL     OW24319   0.939   1.638  17.658 -0.5035 -0.6139  0.1981
 4287SOL    HW124320   0.955   1.546  17.638 -1.7354 -0.8521  0.3008
 4287SOL    HW224321   0.983   1.652   0.046 -1.2215  0.7700  0.3339
 4288SOL     OW24322   4.008   2.180  16.976 -0.4722 -0.3084  0.3471
 4288SOL    HW124323   4.001   2.272  17.001  0.1543 -0.3514  0.6704
 4288SOL    HW224324   4.083   2.184  16.917  0.5265  2.3581  1.8160
 4289SOL     OW24325   2.919   0.662  11.810  0.2462 -0.2715  0.2910
 4289SOL    HW124326   2.972   0.717  11.753  0.9789 -0.4257  0.8216
 4289SOL    HW224327   2.834   0.681  11.770  0.8676  1.9940  0.0214
 4290SOL     OW24328   0.513   2.349   4.113 -0.4517 -0.0232  0.1365
 4290SOL    HW124329   0.511   2.393   4.028  0.9664  0.7740  0.5078
 4290SOL    HW224330   0.582   2.395   4.161 -0.2859 -1.1164  0.9514
 4291SOL     OW24331   1.935   0.482  12.686 -0.4065 -0.4717 -0.5936
 4291SOL    HW124332   2.025   0.483  12.720 -1.0029  0.2566  0.9756
 4291SOL    HW224333   1.903   0.572  12.688 -1.7917 -0.9546 -0.7954
 4292SOL     OW24334   1.812   4.548   6.549 -0.2765  0.3303  0.5439
 4292SOL    HW124335   1.877   4.484   6.577 -0.0946  1.5790  2.9749
 4292SOL    HW224336   1.794   4.591   6.633  0.2968  0.6246  0.5190
 4293SOL     OW24337   1.926   4.252  10.874  0.4132  0.1239 -0.4171
 4293SOL    HW124338   1.842   4.208  10.890  0.4286  0.3444  0.3142
 4293SOL    HW224339   1.897   4.343  10.863  1.0619  0.4875  0.8533
 4294SOL     OW24340   3.512   4.500   9.015 -0.1521  0.0804  0.8280
 4294SOL    HW124341   3.504   4.414   9.057  1.8914 -0.0265  0.9940
 4294SOL    HW224342   3.601   4.525   9.042  0.5147  0.0642 -1.3946
 4295SOL     OW24343   0.856   4.250   7.228  0.0714  0.1094  0.3567
 4295SOL    HW124344   0.925   4.185   7.216 -0.3521 -0.2040 -0.4364
 4295SOL    HW224345   0.892   4.284   7.309  1.0687  1.5386 -0.6943
 4296SOL     OW24346   2.654   0.196  13.612 -0.3454  0.0773  0.5221
 4296SOL    HW124347   2.671   0.130  13.680 -1.0101 -1.2698 -0.6251
 4296SOL    HW224348   2.739   0.198  13.568 -0.0464 -1.2144  1.0409
 4297SOL     OW24349   0.157   1.817   9.093  0.5335 -0.4676  0.2011
 4297SOL    HW124350   0.134   1.829   9.001  0.1652 -1.9704  0.0982
 4297SOL    HW224351   0.178   1.724   9.084  3.2716  0.1806 -0.0973
 4298SOL     OW24352   4.059   1.236   9.102 -0.0775 -0.5995 -0.0175
 4298SOL    HW124353   3.970   1.212   9.128 -0.3243 -1.9804 -2.1343
 4298SOL    HW224354   4.059   1.207   9.011 -2.2528 -1.9771  0.4193
 4299SOL     OW24355   3.525   0.429   5.188 -0.0118 -0.4279  0.2464
 4299SOL    HW124356   3.453   0.391   5.137 -0.2661 -0.8955  0.9577
 4299SOL    HW224357   3.523   0.523   5.172 -0.0850 -0.4351  0.2123
 4300SOL     OW24358   3.061   3.869   6.154  1.1356 -0.7152 -0.3829
 4300SOL    HW124359   3.010   3.794   6.124 -0.6521  0.9227 -1.3817
 4300SOL    HW224360   3.069   3.906   6.066 -0.8129  1.2586  0.2551
 4301SOL     OW24361   1.028   4.644   8.376  0.2253  0.8850 -0.1747
 4301SOL    HW124362   1.002   4.552   8.379  1.5617  0.5677  1.9655
 4301SOL    HW224363   0.945   4.684   8.401  0.0844  0.7530 -0.4261
 4302SOL     OW24364   0.338   4.351   4.706  0.1222  0.0840  0.0312
 4302SOL    HW124365   0.370   4.393   4.626 -1.3217 -0.0131 -0.6002
 4302SOL    HW224366   0.418   4.303   4.725 -0.6843 -0.9635  0.8389
 4303SOL     OW24367   2.255   0.922  13.595 -0.5303 -0.0168  0.2441
 4303SOL    HW124368   2.318   0.925  13.667  1.6072 -1.2055 -1.5873
 4303SOL    HW224369   2.292   0.994  13.544  0.1845 -0.5491  0.0151
 4304SOL     OW24370   2.412   3.958   9.104  0.3569 -0.6518  0.0592
 4304SOL    HW124371   2.496   4.002   9.094 -1.0165  1.8226 -0.4316
 4304SOL    HW224372   2.363   3.993   9.030 -2.8384  0.5156  2.7048
 4305SOL     OW24373   1.150   2.733  12.243  0.0697  0.5672 -0.0750
 4305SOL    HW124374   1.218   2.671  12.268 -0.0508 -0.3059 -1.9491
 4305SOL    HW224375   1.099   2.687  12.176 -0.8344 -0.2484  1.1864
 4306SOL     OW24376   3.791   3.796   5.025 -0.0178 -0.3128 -0.0571
 4306SOL    HW124377   3.818   3.836   4.942  0.8396  0.7394  0.7217
 4306SOL    HW224378   3.697   3.813   5.029  0.1995  0.9609 -0.1938
 4307SOL     OW24379   4.164   4.431   3.535  0.1400  0.5133 -0.2762
 4307SOL    HW124380   4.219   4.474   3.469  1.8216 -2.4297 -0.8039
 4307SOL    HW224381   4.119   4.498   3.586 -0.3933 -1.0900  1.3844
 4308SOL     OW24382   0.381   3.230  11.559  0.2195  0.3204 -0.4008
 4308SOL    HW124383   0.376   3.155  11.617  0.5759  1.0624  0.5803
 4308SOL    HW224384   0.288   3.246  11.543 -0.0810  1.1757  2.2240
 4309SOL     OW24385   4.671   0.456   0.324  0.1011 -0.1621 -0.0838
 4309SOL    HW124386   0.034   0.473   0.360  0.3049  0.7259 -0.9986
 4309SOL    HW224387   4.643   0.373   0.363  0.5310 -0.3193 -0.1061
 4310SOL     OW24388   3.699   0.642   1.603  0.1434  0.5104  0.0075
 4310SOL    HW124389   3.642   0.719   1.598  0.7292  0.9091 -0.6554
 4310SOL    HW224390   3.779   0.689   1.627  0.4879 -0.6803  1.1764
 4311SOL     OW24391   0.240   3.859   0.696  0.4494 -0.0591 -0.7753
 4311SOL    HW124392   0.281   3.872   0.781  1.1765 -0.2094 -1.1036
 4311SOL    HW224393   0.198   3.775   0.718  0.1716  0.3899  0.4124
 4312SOL     OW24394   3.661   1.970   4.100  0.0632 -0.7365  0.0983
 4312SOL    HW124395   3.737   2.027   4.096 -2.3180  2.4860  0.2124
 4312SOL    HW224396   3.598   2.034   4.065  0.3161 -0.3082  0.4311
 4313SOL     OW24397   0.682   0.061   3.559  0.4438  0.0603 -0.6913
 4313SOL    HW124398   0.685   0.079   3.465 -0.8417  0.9942 -0.5560
 4313SOL    HW224399   0.727   0.140   3.589 -0.4846  0.2493  0.1960
 4314SOL     OW24400   1.443   2.375   1.352  0.4529  0.1885 -0.1202
 4314SOL    HW124401   1.372   2.311   1.346  0.5340  0.2875 -2.1462
 4314SOL    HW224402   1.482   2.356   1.267 -0.9465  0.0551 -0.7252
 4315SOL     OW24403   3.366   4.107   3.657 -0.5541  0.3880  0.1706
 4315SOL    HW124404   3.330   4.022   3.682  1.2647 -0.0617  1.2747
 4315SOL    HW224405   3.439   4.085   3.599 -2.4612  1.0036 -2.4685
 4316SOL     OW24406   1.680   3.961   2.382 -0.0050 -0.6467  1.2018
 4316SOL    HW124407   1.593   3.946   2.346  1.5928 -3.3053 -1.5693
 4316SOL    HW224408   1.741   3.951   2.310 -1.7513 -1.4325 -0.1677
 4317SOL     OW24409   0.699   2.535   3.323 -0.1881  0.8527  0.0042
 4317SOL    HW124410   0.646   2.614   3.326 -1.4071 -0.0051  0.8359
 4317SOL    HW224411   0.741   2.546   3.409 -1.7915 -0.7188  0.9825
 4318SOL     OW24412   1.940   4.110   8.158 -0.3734  0.0900 -0.4640
 4318SOL    HW124413   1.874   4.106   8.089  0.4957  1.5554 -1.3827
 4318SOL    HW224414   1.881   4.088   8.230  1.7180  0.5280  1.4035
 4319SOL     OW24415   4.053   3.718   9.012 -0.2173  0.0986  0.2052
 4319SOL    HW124416   3.970   3.762   8.995 -0.7450 -0.8021  0.4757
 4319SOL    HW224417   4.046   3.642   8.954 -1.7786  0.2205  0.2441
 4320SOL     OW24418   1.025   0.509   2.730  0.1161  0.6106 -0.3513
 4320SOL    HW124419   1.115   0.483   2.752  0.0161 -0.0320 -0.7029
 4320SOL    HW224420   1.001   0.580   2.790 -0.6852  0.3083 -0.3210
 4321SOL     OW24421   3.710   0.174  13.664 -0.6600 -0.2617 -0.2732
 4321SOL    HW124422   3.732   0.104  13.604 -0.6004  0.3550 -0.9750
 4321SOL    HW224423   3.735   0.140  13.750  2.0543  1.0384 -0.5469
 4322SOL     OW24424   0.306   0.798   3.794  0.1965 -0.0329  0.1891
 4322SOL    HW124425   0.364   0.748   3.851  0.8868  0.8952  0.2834
 4322SOL    HW224426   0.225   0.747   3.783  0.9609 -1.1981 -0.0586
 4323SOL     OW24427   1.974   2.574  17.175 -0.6593  0.0410  0.1120
 4323SOL    HW124428   2.061   2.601  17.203 -0.4562 -0.1274 -0.3544
 4323SOL    HW224429   1.917   2.637  17.217 -2.9645 -2.6568  1.0326
 4324SOL     OW24430   1.147   0.411   6.509  0.6825  0.1643 -0.2822
 4324SOL    HW124431   1.186   0.327   6.533 -0.0693  0.0874  0.6855
 4324SOL    HW224432   1.209   0.471   6.552 -0.0346  0.8219 -0.1581
 4325SOL     OW24433   3.414   2.490  15.206 -0.6318 -0.6968 -0.0858
 4325SOL    HW124434   3.450   2.407  15.238 -3.2731 -0.1838  4.2851
 4325SOL    HW224435   3.354   2.503  15.279 -0.5349  0.4802 -0.2192
 4326SOL     OW24436   1.612   2.199  16.991 -0.1187  0.1072  0.2780
 4326SOL    HW124437   1.656   2.274  17.032  0.6225  0.0961 -0.4776
 4326SOL    HW224438   1.657   2.129  17.038 -0.8844  0.1379  1.0458
 4327SOL     OW24439   1.698   4.519  16.051 -0.2609 -0.6846 -0.4608
 4327SOL    HW124440   1.730   4.439  16.093 -0.7190  0.4947  2.1217
 4327SOL    HW224441   1.746   4.508  15.969  1.3610  1.6661  0.1763
 4328SOL     OW24442   3.795   4.167  16.780 -0.0232  0.1420  0.1931
 4328SOL    HW124443   3.744   4.233  16.827 -0.3962  0.6901 -0.9784
 4328SOL    HW224444   3.742   4.144  16.704  0.0995 -0.0094  0.1532
 4329SOL     OW24445   1.344   1.119   5.653 -0.2590  0.4837 -0.4616
 4329SOL    HW124446   1.361   1.025   5.665 -0.2028  0.8088  2.1088
 4329SOL    HW224447   1.275   1.114   5.587 -1.0915 -0.2796  0.4686
 4330SOL     OW24448   0.019   1.380  16.565 -0.1044 -0.1228  0.0274
 4330SOL    HW124449   0.003   1.455  16.508  0.9293  0.1958  0.1484
 4330SOL    HW224450   0.046   1.420  16.647 -0.1817  1.4828 -0.7351
 4331SOL     OW24451   4.294   1.274   7.196 -0.0710  0.4524  0.1453
 4331SOL    HW124452   4.241   1.215   7.250  2.9833 -1.6672  0.8194
 4331SOL    HW224453   4.340   1.323   7.264  1.4172 -2.3016  1.0996
 4332SOL     OW24454   0.211   0.075   8.558 -0.1143  0.0692  0.0671
 4332SOL    HW124455   0.204   0.166   8.530  0.6386  0.6081  1.6220
 4332SOL    HW224456   0.265   0.038   8.488 -1.1444 -1.2461 -0.0311
 4333SOL     OW24457   3.992   1.094   0.214  0.2153  0.2761  0.1314
 4333SOL    HW124458   3.991   0.998   0.210  1.2704  0.2334  1.0099
 4333SOL    HW224459   3.931   1.123   0.146  0.7338 -0.3042 -0.5816
 4334SOL     OW24460   2.007   0.951   5.950 -0.9557  0.1613  0.2980
 4334SOL    HW124461   2.093   0.967   5.988 -0.7959 -0.2896  0.1309
 4334SOL    HW224462   2.001   1.025   5.889 -0.6961 -0.1452 -0.1017
 4335SOL     OW24463   1.054   1.054   2.983  0.6314 -0.4201  0.0010
 4335SOL    HW124464   0.967   1.094   2.991  0.6708 -0.5336  1.0369
 4335SOL    HW224465   1.043   0.968   2.943  1.5454 -1.1701  1.3709
 4336SOL     OW24466   1.729   1.245   6.519 -0.4080 -0.3568  0.3967
 4336SOL    HW124467   1.815   1.218   6.552  1.2966  2.3098 -1.8559
 4336SOL    HW224468   1.725   1.340   6.535  2.0002 -0.2460  0.3051
 4337SOL     OW24469   0.060   4.714   9.801  0.2037  0.2142  0.2463
 4337SOL    HW124470   0.102   4.702   9.716 -0.1225 -1.1827  0.2901
 4337SOL    HW224471   4.707   4.658   9.792 -0.2651  0.8826  0.0490
 4338SOL     OW24472   0.076   1.888   2.363 -0.0208  0.3479 -0.0099
 4338SOL    HW124473   0.142   1.905   2.430  0.2824 -0.1921 -0.1706
 4338SOL    HW224474   0.040   1.802   2.386  2.0700 -1.0091 -1.8228
 4339SOL     OW24475   4.160   1.124   4.361  0.7662  0.2258 -0.1319
 4339SOL    HW124476   4.197   1.212   4.347 -1.9426  1.2377 -0.9585
 4339SOL    HW224477   4.070   1.140   4.334  0.6527 -0.3023 -0.0492
 4340SOL     OW24478   1.989   0.160   0.713 -0.1702  0.2759  0.5789
 4340SOL    HW124479   1.998   0.255   0.715 -1.0038  0.3429  1.2414
 4340SOL    HW224480   1.899   0.156   0.744 -0.2888  0.3874  0.2435
 4341SOL     OW24481   2.930   1.468   6.742 -0.1027  0.3658 -0.0645
 4341SOL    HW124482   2.932   1.476   6.837  3.0038 -2.5164  0.1193
 4341SOL    HW224483   2.934   1.555   6.703  0.4665  0.7977  0.9589
 4342SOL     OW24484   0.178   0.978   7.069  0.6466  1.0775 -0.2752
 4342SOL    HW124485   0.239   0.916   7.029 -2.1137 -0.5634 -1.9029
 4342SOL    HW224486   0.226   0.997   7.150  0.1298  0.6870  0.1177
 4343SOL     OW24487   4.719   0.927   3.638  0.3914 -0.0116  0.0951
 4343SOL    HW124488   0.002   0.863   3.709 -0.0746  0.1443  0.2785
 4343SOL    HW224489   0.055   0.889   3.574 -0.2170 -1.1182  0.1741
 4344SOL     OW24490   1.531   0.894   0.761 -0.0910 -0.7575 -0.5006
 4344SOL    HW124491   1.442   0.899   0.725  0.3691  1.0095 -1.4528
 4344SOL    HW224492   1.523   0.897   0.856  0.6352 -0.6228 -0.4423
 4345SOL     OW24493   0.022   3.080  17.424 -0.3562 -0.6125 -0.5832
 4345SOL    HW124494   0.062   3.031  17.496 -1.7221 -1.4064 -0.3718
 4345SOL    HW224495   0.025   3.172  17.450 -3.0714 -0.9396  0.8568
 4346SOL     OW24496   1.110   0.866  15.549 -0.3351 -0.3362  0.1196
 4346SOL    HW124497   1.068   0.785  15.522 -0.6589  0.1489 -0.8447
 4346SOL    HW224498   1.057   0.892  15.625 -0.6486 -0.1464 -0.1673
 4347SOL     OW24499   3.724   2.157   7.044  0.1597  0.1918 -0.4127
 4347SOL    HW124500   3.724   2.186   6.953  2.1613  0.6038 -0.2888
 4347SOL    HW224501   3.778   2.220   7.093  1.4154  0.6807 -2.4513
 4348SOL     OW24502   4.034   3.690   5.906  0.0038 -0.0217 -1.0404
 4348SOL    HW124503   4.020   3.694   5.812  0.8963  0.3902 -1.1537
 4348SOL    HW224504   3.987   3.610   5.930 -1.0705  0.4464 -1.6083
 4349SOL     OW24505   3.306   3.867   4.550 -0.5754 -0.3297  0.2320
 4349SOL    HW124506   3.295   3.859   4.455 -1.7543 -0.2731  0.3625
 4349SOL    HW224507   3.349   3.952   4.554  1.4691 -1.2693 -1.9060
 4350SOL     OW24508   1.117   0.174   3.339  0.0880 -0.0776 -0.1937
 4350SOL    HW124509   1.131   0.166   3.245  1.3439  2.1374 -0.2125
 4350SOL    HW224510   1.194   0.228   3.357 -0.0375  0.3243 -0.8961
 4351SOL     OW24511   2.046   0.905   4.420  0.2044  0.4435  0.2914
 4351SOL    HW124512   2.056   0.937   4.509  1.1090  0.3260  0.2334
 4351SOL    HW224513   2.076   0.814   4.421 -0.4933  0.2030 -0.4180
 4352SOL     OW24514   2.989   4.501   3.592  0.1584  0.2254 -0.5079
 4352SOL    HW124515   2.978   4.407   3.582 -2.6645  0.5985 -0.8272
 4352SOL    HW224516   3.076   4.501   3.633 -0.5433 -1.3464  0.9564
 4353SOL     OW24517   3.601   2.425   9.741 -0.9396 -0.5861  0.2368
 4353SOL    HW124518   3.626   2.488   9.809  0.1277 -0.6764 -0.0660
 4353SOL    HW224519   3.568   2.354   9.796 -1.6073 -0.7891 -0.4209
 4354SOL     OW24520   1.807   1.797   6.006  0.3438 -0.3010  0.1534
 4354SOL    HW124521   1.849   1.883   6.011  2.9919 -1.6227  0.7137
 4354SOL    HW224522   1.825   1.772   5.915 -0.7273  1.7640 -0.6430
 4355SOL     OW24523   2.816   3.956  14.186  0.1896  0.1371 -0.2602
 4355SOL    HW124524   2.826   3.882  14.126  1.1852 -0.5067  0.6946
 4355SOL    HW224525   2.879   4.016  14.149 -1.0179  1.8222  0.4209
 4356SOL     OW24526   0.857   1.767   9.536 -0.0570  0.3526 -0.2259
 4356SOL    HW124527   0.914   1.698   9.569  1.2916  1.7284  0.3043
 4356SOL    HW224528   0.917   1.840   9.520  1.1823 -0.3554  1.1838
 4357SOL     OW24529   2.264   3.055  14.777  0.6958 -0.3295  0.3355
 4357SOL    HW124530   2.277   3.099  14.861 -2.3916  0.4687  0.3995
 4357SOL    HW224531   2.222   2.971  14.794  1.1577 -0.6259 -0.0122
 4358SOL     OW24532   1.743   4.397   2.801 -0.7080  0.2109 -0.1511
 4358SOL    HW124533   1.741   4.337   2.727  2.3698 -1.4521  1.1183
 4358SOL    HW224534   1.767   4.478   2.755 -1.6806  1.5460  1.6503
 4359SOL     OW24535   0.709   2.355   6.365 -0.0459 -0.1455  0.5623
 4359SOL    HW124536   0.702   2.309   6.449 -2.3577 -1.4050 -0.3108
 4359SOL    HW224537   0.783   2.304   6.331 -1.5085 -2.2074  0.4571
 4360SOL     OW24538   4.447   3.133  15.067 -0.3447  0.0784  0.1631
 4360SOL    HW124539   4.460   3.040  15.088  1.6597  0.4423  0.5265
 4360SOL    HW224540   4.526   3.172  15.104  2.8483 -3.2068 -3.0888
 4361SOL     OW24541   2.321   2.681   9.081  0.3412 -0.3524  0.4519
 4361SOL    HW124542   2.241   2.693   9.132 -0.9917 -1.1522 -1.4602
 4361SOL    HW224543   2.298   2.620   9.011  1.4547  0.7565 -0.8946
 4362SOL     OW24544   3.858   3.290   3.289  0.2920  0.1896  0.5291
 4362SOL    HW124545   3.847   3.384   3.276 -0.0693  0.0354 -0.3079
 4362SOL    HW224546   3.933   3.287   3.347  0.1711  0.7942  0.7196
 4363SOL     OW24547   3.426   4.465   6.465  0.1398  0.3475  0.1625
 4363SOL    HW124548   3.516   4.466   6.499  1.1226 -1.7981 -2.2998
 4363SOL    HW224549   3.383   4.513   6.535  2.7014  1.4398  1.0134
 4364SOL     OW24550   2.573   4.412   5.165 -0.0134  0.3941  0.2216
 4364SOL    HW124551   2.601   4.363   5.088  0.7893  0.7303  0.2974
 4364SOL    HW224552   2.607   4.500   5.144 -0.3585  0.4968  0.0871
 4365SOL     OW24553   0.716   3.946  10.606 -0.2401 -0.3957 -0.2096
 4365SOL    HW124554   0.771   3.927  10.530  1.1994 -0.7613  0.9247
 4365SOL    HW224555   0.661   3.868  10.604 -0.1903 -0.4096 -1.0357
 4366SOL     OW24556   4.641   3.333   7.868  0.5561 -0.9641 -0.3174
 4366SOL    HW124557   4.621   3.419   7.830  1.6582  0.2380  1.8386
 4366SOL    HW224558   0.013   3.333   7.863  0.6641 -0.3864  1.7860
 4367SOL     OW24559   2.240   3.114   5.610  0.0652 -0.1991  0.7761
 4367SOL    HW124560   2.253   3.023   5.637 -1.4841 -1.4888 -2.8314
 4367SOL    HW224561   2.334   3.134   5.604  0.1456 -0.7498  0.1614
 4368SOL     OW24562   1.090   1.612  12.337 -0.5370  0.0356  0.4500
 4368SOL    HW124563   1.150   1.537  12.337 -1.0318 -0.3657  0.2376
 4368SOL    HW224564   1.019   1.558  12.301 -2.9428  1.9991  2.2357
 4369SOL     OW24565   3.381   2.367   7.502 -0.7472 -0.2651 -0.4671
 4369SOL    HW124566   3.436   2.292   7.525 -0.1878  0.2548 -0.1009
 4369SOL    HW224567   3.348   2.336   7.417 -0.5452 -3.6881  0.7290
 4370SOL     OW24568   0.195   0.826   8.602 -0.2480 -0.3041  0.3104
 4370SOL    HW124569   0.283   0.826   8.565 -0.0199 -1.2221  0.8487
 4370SOL    HW224570   0.208   0.814   8.696 -1.2107 -0.7122  0.3974
 4371SOL     OW24571   2.951   4.321  13.093  0.2560  0.0201 -0.8042
 4371SOL    HW124572   2.950   4.360  13.006 -0.2993 -0.4057 -0.9919
 4371SOL    HW224573   2.947   4.228  13.070  2.2023  0.0857 -1.3847
 4372SOL     OW24574   1.608   2.619  17.323 -0.0352  0.1614  0.6399
 4372SOL    HW124575   1.529   2.571  17.298 -0.1540  0.5606  0.2452
 4372SOL    HW224576   1.568   2.706  17.326  1.1318  0.7366 -0.4682
 4373SOL     OW24577   4.176   2.196   9.316 -0.3534  0.5280 -0.5985
 4373SOL    HW124578   4.175   2.101   9.305  2.1966  0.8958 -3.5777
 4373SOL    HW224579   4.101   2.201   9.376 -1.5597 -0.9008 -2.0064
 4374SOL     OW24580   3.816   4.187   3.489 -0.3409 -0.3137  0.5379
 4374SOL    HW124581   3.897   4.197   3.440 -1.3884  1.2629 -0.8611
 4374SOL    HW224582   3.811   4.271   3.534  0.2015 -0.0228  0.0554
 4375SOL     OW24583   4.405   4.198   5.695 -0.4737  0.3167 -0.2962
 4375SOL    HW124584   4.456   4.124   5.727  2.5932  1.3540 -2.7673
 4375SOL    HW224585   4.414   4.265   5.762 -2.4318  1.5852 -1.2863
 4376SOL     OW24586   0.434   3.743   6.800  0.0481  0.6959 -0.1263
 4376SOL    HW124587   0.371   3.717   6.732 -0.8254  2.2407  0.1074
 4376SOL    HW224588   0.476   3.826   6.778 -0.1562  0.8810  0.1919
 4377SOL     OW24589   0.758   4.473   4.334  0.1773  0.2270  0.1174
 4377SOL    HW124590   0.722   4.507   4.252 -0.1036  0.0999  0.1844
 4377SOL    HW224591   0.811   4.542   4.373 -2.0138  2.3591 -0.6269
 4378SOL     OW24592   3.804   1.382  11.972  0.1899  0.0982  0.2061
 4378SOL    HW124593   3.896   1.404  11.957  0.3597 -0.4789  0.3925
 4378SOL    HW224594   3.773   1.417  11.889 -1.0400 -1.0228  0.1940
 4379SOL     OW24595   3.867   1.726  14.969  0.1787  0.2109 -0.7595
 4379SOL    HW124596   3.891   1.766  15.052 -1.7730  1.4237 -0.7808
 4379SOL    HW224597   3.790   1.777  14.943 -1.3815 -0.7551  2.0375
 4380SOL     OW24598   1.443   3.702  12.065  0.0720 -0.8326  0.6658
 4380SOL    HW124599   1.444   3.711  11.970 -0.0781  1.1394  0.8614
 4380SOL    HW224600   1.349   3.689  12.075 -0.3917  1.6691 -0.5329
 4381SOL     OW24601   3.062   3.819   3.661 -0.0024 -0.1563  0.0100
 4381SOL    HW124602   3.054   3.842   3.568 -0.6309  0.4329  0.2067
 4381SOL    HW224603   3.143   3.865   3.683  0.1502 -0.5076  0.1780
 4382SOL     OW24604   4.697   2.848  16.950  0.0044  0.1073  0.0040
 4382SOL    HW124605   0.068   2.845  16.937  0.1806  0.7558  1.1515
 4382SOL    HW224606   4.693   2.770  17.005  0.3123 -2.3054 -3.3835
 4383SOL     OW24607   0.305   2.519   8.740 -0.8812  0.1206  0.4007
 4383SOL    HW124608   0.378   2.459   8.754  1.3417  2.4144 -1.2752
 4383SOL    HW224609   0.249   2.516   8.817  0.9524  1.0144  1.7866
 4384SOL     OW24610   1.089   2.505  17.542  0.2706 -0.2808 -0.4230
 4384SOL    HW124611   1.123   2.447  17.611  0.6996  1.3051  0.6946
 4384SOL    HW224612   1.126   2.591  17.562  0.4219 -0.7266  1.1849
 4385SOL     OW24613   2.196   0.470   4.875  0.5898  0.0925  0.0859
 4385SOL    HW124614   2.138   0.397   4.898  0.0195  0.5032 -0.0724
 4385SOL    HW224615   2.225   0.434   4.791  0.0690  0.4567 -0.2437
 4386SOL     OW24616   0.320   3.563   3.207  0.4825  0.4654 -0.3054
 4386SOL    HW124617   0.229   3.580   3.231  0.3881 -1.5923  0.7654
 4386SOL    HW224618   0.301   3.547   3.115  2.8431 -0.2146 -0.6619
 4387SOL     OW24619   2.139   3.423   4.544 -0.0189 -0.0785 -0.1930
 4387SOL    HW124620   2.061   3.473   4.522  1.0645  1.3365 -0.8098
 4387SOL    HW224621   2.113   3.372   4.621  2.3570 -0.2938  0.4534
 4388SOL     OW24622   3.419   3.548   5.173  0.3456 -0.0273  0.2439
 4388SOL    HW124623   3.452   3.567   5.085  0.6415  1.5046  0.6949
 4388SOL    HW224624   3.339   3.499   5.155  1.6680 -1.4563 -1.8322
 4389SOL     OW24625   4.626   2.070   2.197  0.5269  0.3649 -0.1266
 4389SOL    HW124626   4.681   2.021   2.257  0.4393  1.7228  1.0609
 4389SOL    HW224627   4.580   2.007   2.141 -0.9018  0.9418  0.3851
 4390SOL     OW24628   0.094   2.926  17.687 -0.3878  0.9842  0.5217
 4390SOL    HW124629   0.102   2.831  17.685 -0.5483  0.9867 -0.3990
 4390SOL    HW224630   0.187   2.951  17.690 -1.0124  3.2977  0.4368
 4391SOL     OW24631   0.933   3.742   5.473 -0.2341 -0.2559 -0.0747
 4391SOL    HW124632   0.840   3.766   5.484  0.0247  0.8372 -0.2987
 4391SOL    HW224633   0.927   3.648   5.459 -0.9495 -0.2318  0.0355
 4392SOL     OW24634   0.382   2.566  15.713 -0.0199  0.0935  0.0307
 4392SOL    HW124635   0.327   2.625  15.764 -0.3980  0.6533 -1.0252
 4392SOL    HW224636   0.463   2.564  15.765 -1.0122  0.8248  1.5901
 4393SOL     OW24637   4.324   0.608   6.275  0.0962 -0.0192  0.3405
 4393SOL    HW124638   4.390   0.549   6.239  1.3472  2.1289 -0.9100
 4393SOL    HW224639   4.275   0.552   6.335  2.0975 -5.1254 -2.8185
 4394SOL     OW24640   3.548   0.867   1.593  0.3427  0.2445 -0.6397
 4394SOL    HW124641   3.463   0.908   1.604  0.0161 -0.2874 -1.1545
 4394SOL    HW224642   3.608   0.941   1.594 -0.5860  0.9544  1.2208
 4395SOL     OW24643   4.709   1.446   1.909 -0.3424  0.1480  0.3202
 4395SOL    HW124644   0.038   1.499   1.970 -3.3615  1.5719  1.6978
 4395SOL    HW224645   4.624   1.473   1.943 -0.6521 -2.4618  1.6261
 4396SOL     OW24646   0.805   0.335   5.281  0.5181 -0.2347  0.0551
 4396SOL    HW124647   0.861   0.327   5.358 -0.1647  0.4379  0.6110
 4396SOL    HW224648   0.821   0.246   5.249 -0.3695 -0.4524  0.2081
 4397SOL     OW24649   2.624   3.350  13.065  0.5449  0.2734  0.1460
 4397SOL    HW124650   2.599   3.417  13.129 -0.5756  0.4680 -0.5037
 4397SOL    HW224651   2.630   3.273  13.121 -1.5981  0.3505  0.4919
 4398SOL     OW24652   2.231   3.343  12.864 -0.2365  0.0534  0.0796
 4398SOL    HW124653   2.299   3.345  12.797 -0.1513 -1.0393  0.1307
 4398SOL    HW224654   2.157   3.352  12.804 -0.6504  1.9114  0.8878
 4399SOL     OW24655   1.441   1.555  15.846 -0.3154  0.0060  0.0002
 4399SOL    HW124656   1.477   1.592  15.765 -2.3129  0.1138 -0.8369
 4399SOL    HW224657   1.523   1.569  15.893 -1.5188  0.8863  1.8191
 4400SOL     OW24658   2.001   1.966   1.861 -0.2500  0.0222  0.1158
 4400SOL    HW124659   1.958   1.978   1.946  1.0803 -1.1824  0.9594
 4400SOL    HW224660   2.008   1.870   1.856 -1.1959 -0.0862  0.8303
 4401SOL     OW24661   3.153   4.288   8.083 -0.0791 -0.2846 -0.3854
 4401SOL    HW124662   3.094   4.243   8.022 -1.6957  1.9283 -0.4967
 4401SOL    HW224663   3.130   4.381   8.083 -1.3363 -0.5915  2.1303
 4402SOL     OW24664   2.402   2.893   7.023 -0.6250  0.2086 -0.0732
 4402SOL    HW124665   2.485   2.848   7.014  0.6133  2.4267  0.2568
 4402SOL    HW224666   2.335   2.833   6.989 -0.9701  0.2245  0.5634
 4403SOL     OW24667   3.843   1.256  16.170  0.0458  0.5216  0.3562
 4403SOL    HW124668   3.804   1.250  16.082 -0.8588  2.3680  0.6129
 4403SOL    HW224669   3.858   1.350  16.185  1.4011  0.2525  0.6757
 4404SOL     OW24670   2.778   3.489   5.312 -0.2354  0.4039 -0.2836
 4404SOL    HW124671   2.833   3.446   5.247  0.4474  2.1478 -0.8541
 4404SOL    HW224672   2.795   3.434   5.388 -1.3453 -0.1089 -0.4061
 4405SOL     OW24673   2.000   3.669  17.179 -0.2143 -0.3885 -0.3386
 4405SOL    HW124674   1.985   3.758  17.146 -2.4129 -0.4157  0.5413
 4405SOL    HW224675   2.094   3.663  17.195 -0.6675 -1.0204  2.1347
 4406SOL     OW24676   1.953   2.594   8.048 -0.6184  0.0319  0.0002
 4406SOL    HW124677   2.014   2.609   7.976  1.7621  1.1626  2.2705
 4406SOL    HW224678   1.882   2.559   7.995 -0.8466  2.9774 -1.6388
 4407SOL     OW24679   1.846   0.519   7.807  0.4145  0.4840 -0.3997
 4407SOL    HW124680   1.772   0.576   7.784  0.2127  1.4028  2.5375
 4407SOL    HW224681   1.833   0.441   7.752 -0.2789  0.4420 -0.1721
 4408SOL     OW24682   3.529   3.565   7.363  0.4622  0.1092 -0.7914
 4408SOL    HW124683   3.546   3.594   7.453  0.7025 -4.4205  0.5974
 4408SOL    HW224684   3.577   3.628   7.308 -0.5693  3.0034  1.6337
 4409SOL     OW24685   4.153   1.185  10.454  0.3010  0.7702 -0.3662
 4409SOL    HW124686   4.211   1.115  10.485 -1.8257 -1.4823 -1.4851
 4409SOL    HW224687   4.164   1.254  10.519  2.4881 -0.2605  0.3498
 4410SOL     OW24688   0.498   2.154   3.097  0.2258  0.3662  0.4524
 4410SOL    HW124689   0.446   2.075   3.082  0.8268  0.4001 -1.7571
 4410SOL    HW224690   0.426   2.216   3.106 -0.0411  0.1102  0.0727
 4411SOL     OW24691   4.672   4.014  11.130 -0.6137 -0.4837 -0.9073
 4411SOL    HW124692   4.657   3.975  11.216 -2.8139  0.6176 -0.7972
 4411SOL    HW224693   0.006   4.084  11.159 -0.6457 -1.1594  0.7819
 4412SOL     OW24694   1.813   4.593   4.853 -0.3319 -0.7456  0.4275
 4412SOL    HW124695   1.883   4.532   4.830 -0.8507 -1.4949  0.8333
 4412SOL    HW224696   1.754   4.607   4.779  1.1206 -2.1008 -1.0128
 4413SOL     OW24697   4.532   4.223   4.428 -0.0531  0.4992 -1.2922
 4413SOL    HW124698   4.595   4.294   4.441  0.0663  0.0992  0.3623
 4413SOL    HW224699   4.460   4.244   4.488 -0.6374  0.5403 -2.0134
 4414SOL     OW24700   0.422   1.611  16.638 -0.1179  0.1267 -0.0930
 4414SOL    HW124701   0.399   1.543  16.702 -0.1693  0.2896  0.0636
 4414SOL    HW224702   0.491   1.658  16.686 -0.7493  0.7254  0.2360
 4415SOL     OW24703   0.886   3.607  11.678 -0.4100 -0.6865 -0.2988
 4415SOL    HW124704   0.818   3.645  11.624  0.6334  1.9562  0.2530
 4415SOL    HW224705   0.967   3.601  11.627 -1.6497  1.3141 -2.4657
 4416SOL     OW24706   2.850   1.768   3.669 -0.3129  0.2428  0.3209
 4416SOL    HW124707   2.754   1.774   3.674 -0.4233  0.5521 -1.8482
 4416SOL    HW224708   2.863   1.780   3.575  0.2458  1.4124  0.5391
 4417SOL     OW24709   2.915   4.368   7.411  0.1733 -0.6012 -0.2472
 4417SOL    HW124710   2.824   4.363   7.438  0.1618  0.5353 -0.0772
 4417SOL    HW224711   2.963   4.330   7.485  0.9007  4.2991  1.7784
 4418SOL     OW24712   4.710   1.253  15.859  0.2587  0.0777  0.3270
 4418SOL    HW124713   4.667   1.187  15.913 -3.5616  0.1219 -2.6845
 4418SOL    HW224714   0.077   1.241  15.888  1.1685  0.8936 -2.1565
 4419SOL     OW24715   2.599   2.543   7.182  0.0379  0.6239  0.2688
 4419SOL    HW124716   2.556   2.521   7.264  2.4584 -1.1080  1.0698
 4419SOL    HW224717   2.559   2.481   7.121  0.3058  0.4358  0.2820
 4420SOL     OW24718   0.134   0.666   6.574 -0.1359  0.0706  0.8023
 4420SOL    HW124719   0.044   0.685   6.547 -0.1371  1.2427  1.6072
 4420SOL    HW224720   0.115   0.576   6.601  0.0317 -0.0400  0.5477
 4421SOL     OW24721   1.461   3.401   6.152 -0.1327  0.5874 -0.1474
 4421SOL    HW124722   1.522   3.408   6.079  0.6172  0.9177  0.5158
 4421SOL    HW224723   1.510   3.437   6.226 -2.2056  0.1658  1.4514
 4422SOL     OW24724   3.250   3.744   0.612 -0.5397  0.5488 -0.0509
 4422SOL    HW124725   3.160   3.776   0.620 -0.3638  1.1012 -0.3085
 4422SOL    HW224726   3.265   3.697   0.694 -0.8468  0.0949 -0.2528
 4423SOL     OW24727   1.789   3.174   1.624 -0.6716 -0.1829  0.1671
 4423SOL    HW124728   1.825   3.250   1.579  0.7289 -0.6607  0.4937
 4423SOL    HW224729   1.767   3.209   1.710 -1.6663  0.4773 -0.3510
 4424SOL     OW24730   1.387   1.063   7.998  0.4357 -0.1029  0.3332
 4424SOL    HW124731   1.378   1.125   8.071  2.5307 -2.2602  2.4090
 4424SOL    HW224732   1.477   1.032   8.000  0.0301 -1.4218 -1.8512
 4425SOL     OW24733   4.592   1.767  10.150 -0.5503  0.1129  0.0820
 4425SOL    HW124734   4.678   1.793  10.117 -0.7313  0.8704  0.2178
 4425SOL    HW224735   4.586   1.675  10.122 -1.8543  0.0600  0.5700
 4426SOL     OW24736   0.660   4.502   8.396 -0.5419  0.2850 -0.0188
 4426SOL    HW124737   0.616   4.555   8.462 -1.2475 -1.3018  0.7787
 4426SOL    HW224738   0.641   4.547   8.313 -1.0871  1.2745  0.6440
 4427SOL     OW24739   2.901   1.611   4.165  0.1342 -0.4548 -0.3430
 4427SOL    HW124740   2.942   1.526   4.150  0.2062 -0.3469 -0.7847
 4427SOL    HW224741   2.828   1.596   4.105 -0.9807  1.9613  0.3942
 4428SOL     OW24742   1.194   0.151  12.544 -0.2502 -0.5752  0.0575
 4428SOL    HW124743   1.184   0.234  12.498 -0.6869 -0.1738  0.8787
 4428SOL    HW224744   1.157   0.183  12.627 -2.9751 -0.7287 -1.0990
 4429SOL     OW24745   2.772   4.155   6.552 -0.6307 -0.1932 -0.1254
 4429SOL    HW124746   2.722   4.211   6.492 -1.3775  0.0095  0.6898
 4429SOL    HW224747   2.708   4.085   6.567 -0.1683 -0.7631 -0.8084
 4430SOL     OW24748   1.053   1.169   2.400 -0.0159  0.4959 -0.9690
 4430SOL    HW124749   1.090   1.250   2.436  0.6047  0.3157 -1.2009
 4430SOL    HW224750   1.134   1.137   2.361  0.9824 -3.0889  3.9927
 4431SOL     OW24751   1.492   0.417   8.685 -0.5823  0.1838  0.4918
 4431SOL    HW124752   1.431   0.490   8.675 -0.3623  0.4996  1.4824
 4431SOL    HW224753   1.473   0.386   8.773  3.0132  0.4585  1.3649
 4432SOL     OW24754   3.590   3.700  13.074 -0.2093 -0.3170 -0.4707
 4432SOL    HW124755   3.537   3.655  13.008 -1.2810 -0.2530  0.3326
 4432SOL    HW224756   3.539   3.780  13.088 -1.3784 -1.7004  3.3268
 4433SOL     OW24757   2.107   2.901   4.886  0.9229  0.8683  0.0095
 4433SOL    HW124758   2.117   2.935   4.975 -0.0291 -2.2623  1.2835
 4433SOL    HW224759   2.025   2.946   4.865  1.4320  2.0728  0.5743
 4434SOL     OW24760   2.834   1.906  11.795  0.3345  0.3264  0.0669
 4434SOL    HW124761   2.896   1.891  11.724 -0.8091  0.6643 -0.9851
 4434SOL    HW224762   2.778   1.973  11.756  2.6390  1.2502 -1.6640
 4435SOL     OW24763   1.819   1.225   5.516  0.1283 -0.0374  0.0974
 4435SOL    HW124764   1.728   1.254   5.513 -0.4267 -2.0892 -2.8523
 4435SOL    HW224765   1.796   1.136   5.540 -1.0130  0.0845 -0.5642
 4436SOL     OW24766   3.676   1.014   6.525  0.4326  0.9567  0.7197
 4436SOL    HW124767   3.661   1.025   6.619 -1.6399 -0.1747  0.5210
 4436SOL    HW224768   3.771   1.018   6.530  0.4866 -2.3549  2.2593
 4437SOL     OW24769   2.949   3.064   3.601 -0.3322  0.5003  0.3008
 4437SOL    HW124770   2.993   3.067   3.517  0.5010 -1.9058  0.6586
 4437SOL    HW224771   3.027   3.050   3.654  0.1335 -0.9530 -0.7639
 4438SOL     OW24772   2.764   2.200   5.943  0.1473  0.0228 -0.4393
 4438SOL    HW124773   2.707   2.198   6.020  2.1017  1.5421  1.0367
 4438SOL    HW224774   2.831   2.257   5.981 -1.0878  3.0004 -2.7940
 4439SOL     OW24775   2.845   1.817  16.447 -0.0487 -0.2263 -0.1183
 4439SOL    HW124776   2.863   1.723  16.435  0.3257  0.1419 -2.3117
 4439SOL    HW224777   2.893   1.849  16.371 -0.1058  1.5610  0.5979
 4440SOL     OW24778   2.499   4.498   1.259  0.4650 -0.0983 -0.3294
 4440SOL    HW124779   2.412   4.537   1.264  1.4896  1.8447  2.3629
 4440SOL    HW224780   2.529   4.508   1.169 -1.2918  0.8778 -0.7933
 4441SOL     OW24781   2.053   4.470   8.881 -0.1636  0.5801 -0.0611
 4441SOL    HW124782   2.082   4.456   8.791 -0.6493  1.1780 -0.3118
 4441SOL    HW224783   2.097   4.553   8.899  2.7101 -1.0450  0.5558
 4442SOL     OW24784   3.151   1.878   8.449 -0.2831  0.0577 -0.0937
 4442SOL    HW124785   3.129   1.968   8.471  0.9474  0.7000 -1.4495
 4442SOL    HW224786   3.146   1.880   8.353  0.3795  1.4850 -0.0949
 4443SOL     OW24787   2.372   0.625   4.699  0.3683 -0.0708  0.1083
 4443SOL    HW124788   2.396   0.683   4.627 -2.4482 -0.6669 -1.3005
 4443SOL    HW224789   2.319   0.555   4.661  1.4797 -1.2894  0.7972
 4444SOL     OW24790   4.273   0.836   4.922  0.4989  0.4371  0.2247
 4444SOL    HW124791   4.303   0.920   4.888  0.9314 -0.0648 -0.6373
 4444SOL    HW224792   4.248   0.869   5.008  1.2645 -0.3264  0.7342
 4445SOL     OW24793   2.527   3.881   1.391  0.2152 -0.6963 -0.4011
 4445SOL    HW124794   2.482   3.941   1.331  1.9387  0.7583 -0.2537
 4445SOL    HW224795   2.619   3.905   1.374  0.5425 -2.3610 -0.9704
 4446SOL     OW24796   2.990   3.590  13.580  0.4627  0.4451 -0.3155
 4446SOL    HW124797   2.957   3.676  13.552 -1.6508  0.0111  0.8805
 4446SOL    HW224798   2.909   3.540  13.579  0.2435  0.8350 -2.2926
 4447SOL     OW24799   2.566   3.663  11.106  0.7486  0.6066 -0.2972
 4447SOL    HW124800   2.644   3.697  11.149  0.0152  1.0240  0.6920
 4447SOL    HW224801   2.509   3.649  11.181  2.2551  1.3640  0.9786
 4448SOL     OW24802   3.349   3.083   3.193 -0.6486 -0.6159  0.1643
 4448SOL    HW124803   3.352   3.136   3.113  1.2977  1.1930  1.4292
 4448SOL    HW224804   3.401   3.136   3.254  2.3934 -2.5908 -0.7534
 4449SOL     OW24805   2.582   1.563  16.445  0.1392 -0.1311 -0.2111
 4449SOL    HW124806   2.649   1.539  16.381 -1.1561 -0.9325 -1.2581
 4449SOL    HW224807   2.627   1.535  16.525 -0.0438 -0.2082 -0.1356
 4450SOL     OW24808   4.022   1.877  10.821  0.2813  0.0054 -0.1870
 4450SOL    HW124809   4.036   1.862  10.728 -1.3859 -0.4486 -0.3625
 4450SOL    HW224810   3.931   1.907  10.823  0.2766  0.0755 -1.9067
 4451SOL     OW24811   3.031   3.111   0.190  0.3913  0.3825 -0.3675
 4451SOL    HW124812   3.097   3.175   0.215  0.0085  1.1325 -1.3007
 4451SOL    HW224813   2.986   3.154   0.118 -1.0895 -0.6320 -0.0582
 4452SOL     OW24814   4.613   4.545  10.722 -0.3076 -0.8984 -0.1679
 4452SOL    HW124815   4.555   4.487  10.674  0.0028 -0.6948 -0.7841
 4452SOL    HW224816   4.547   4.615  10.726 -0.5540 -1.0858 -0.9683
 4453SOL     OW24817   1.088   1.593  14.908  0.3795  0.2664 -0.0375
 4453SOL    HW124818   1.093   1.548  14.993  0.0038  0.2960 -0.0008
 4453SOL    HW224819   1.175   1.571  14.875  1.2277  0.1818  2.2817
 4454SOL     OW24820   1.626   3.007   2.687  0.8851  0.1481 -0.6400
 4454SOL    HW124821   1.667   2.968   2.610 -0.8427  0.4858 -1.7214
 4454SOL    HW224822   1.533   3.023   2.670  0.6213 -0.5395  0.1704
 4455SOL     OW24823   1.590   0.639  13.534  0.3091  0.3942 -0.0924
 4455SOL    HW124824   1.616   0.647  13.442  2.4301  1.4907  0.6153
 4455SOL    HW224825   1.506   0.596  13.516  0.9412 -0.0640 -1.9320
 4456SOL     OW24826   2.962   3.951   2.070  0.0356  0.3189 -0.2388
 4456SOL    HW124827   2.899   3.982   2.005  0.6327 -0.0853 -1.0100
 4456SOL    HW224828   3.015   3.886   2.024  2.1416  0.6766  1.7009
 4457SOL     OW24829   0.436   4.620   0.663 -0.0756 -1.1420  0.1247
 4457SOL    HW124830   0.494   4.656   0.731 -0.9905 -1.2540  0.9669
 4457SOL    HW224831   0.473   4.664   0.587 -3.0139  1.3143  0.1350
 4458SOL     OW24832   0.298   2.727   3.826 -0.3376 -0.4127  0.1066
 4458SOL    HW124833   0.299   2.710   3.920 -1.8130 -0.4927  0.1010
 4458SOL    HW224834   0.209   2.749   3.800 -1.0247 -0.8631  2.1077
 4459SOL     OW24835   1.323   2.297   5.092  0.4437  0.0819 -0.3495
 4459SOL    HW124836   1.263   2.335   5.028 -2.3475  1.4225  3.0966
 4459SOL    HW224837   1.404   2.347   5.081  0.8266  0.0857  2.6129
 4460SOL     OW24838   3.646   3.898   8.003  0.1116  0.3825 -0.1578
 4460SOL    HW124839   3.557   3.918   8.030  0.0560 -0.0357 -0.0307
 4460SOL    HW224840   3.638   3.803   7.999  0.0249  0.3434  0.8736
 4461SOL     OW24841   2.721   2.173   1.011  0.3273 -0.4931 -0.0786
 4461SOL    HW124842   2.815   2.186   1.019  0.3613 -1.4439  1.0581
 4461SOL    HW224843   2.715   2.079   1.028 -0.2710 -0.0741  2.1062
 4462SOL     OW24844   3.567   1.496   5.380 -0.2554 -0.1761 -0.5872
 4462SOL    HW124845   3.577   1.453   5.295  1.4956  0.1019 -0.5225
 4462SOL    HW224846   3.640   1.557   5.377 -0.4356  0.1444  1.5594
 4463SOL     OW24847   0.505   4.594   6.119  0.2718  0.4648  0.0313
 4463SOL    HW124848   0.475   4.683   6.101 -0.4439  0.3884  0.8196
 4463SOL    HW224849   0.424   4.549   6.092  1.3485 -0.3333 -1.8111
 4464SOL     OW24850   3.079   1.648   5.897  0.2335 -0.1188 -0.2557
 4464SOL    HW124851   3.142   1.581   5.872  0.0453 -1.2147  2.1466
 4464SOL    HW224852   3.128   1.730   5.892  0.2932 -0.0322  1.4807
 4465SOL     OW24853   4.131   2.463   4.758 -0.1836  0.1877 -0.8435
 4465SOL    HW124854   4.151   2.544   4.804 -0.6600 -0.7835  1.0611
 4465SOL    HW224855   4.132   2.493   4.667 -0.1443  0.0033 -0.9041
 4466SOL     OW24856   1.363   2.642   1.217  0.3841  0.0067  0.6738
 4466SOL    HW124857   1.387   2.615   1.306 -0.8168  0.5189  1.1576
 4466SOL    HW224858   1.297   2.573   1.210  1.8039 -1.2349 -0.5418
 4467SOL     OW24859   1.304   1.415  12.248 -0.4491 -0.3711 -0.1471
 4467SOL    HW124860   1.299   1.392  12.155 -2.1876  0.9589 -0.3841
 4467SOL    HW224861   1.389   1.384  12.279 -1.0719  0.1065  2.0473
 4468SOL     OW24862   4.646   3.487   4.015  0.3459  0.4356  0.6704
 4468SOL    HW124863   4.719   3.548   4.005  0.9656 -0.4458 -0.1575
 4468SOL    HW224864   4.568   3.542   4.017 -1.5973 -2.2434 -1.3428
 4469SOL     OW24865   1.272   0.230  15.301  0.4501 -0.3669  0.0028
 4469SOL    HW124866   1.319   0.148  15.316  2.9659  0.7448 -1.9168
 4469SOL    HW224867   1.268   0.227  15.206  0.0877 -0.9549  0.0389
 4470SOL     OW24868   4.304   4.458   3.307  0.4463 -0.2179  0.2919
 4470SOL    HW124869   4.293   4.457   3.212  0.4084  1.6775  0.2720
 4470SOL    HW224870   4.391   4.420   3.314 -0.5119 -2.1386  1.7572
 4471SOL     OW24871   4.068   2.583  11.248 -0.5772 -0.2247  0.4428
 4471SOL    HW124872   4.079   2.530  11.328  1.7957  1.6456  1.3575
 4471SOL    HW224873   3.976   2.608  11.256 -0.7837 -1.2920  1.5299
 4472SOL     OW24874   0.438   1.410   5.894 -0.3075 -0.1481  0.1364
 4472SOL    HW124875   0.513   1.462   5.865 -1.2522  1.1064 -0.0990
 4472SOL    HW224876   0.399   1.419   5.807 -0.2278 -1.4147 -0.0302
 4473SOL     OW24877   3.382   0.045  12.996  0.1527 -0.0806  0.3630
 4473SOL    HW124878   3.340   4.684  13.011  1.6689 -0.8100  0.4516
 4473SOL    HW224879   3.472   0.020  12.979  0.0088  0.2838 -0.8913
 4474SOL     OW24880   3.245   4.536  12.973  0.1037  0.3917 -0.2418
 4474SOL    HW124881   3.283   4.457  13.009 -1.7465 -0.8213 -0.9219
 4474SOL    HW224882   3.161   4.509  12.935 -0.2887 -0.4607  1.2498
 4475SOL     OW24883   1.856   2.086   6.019  0.0915  0.0257  0.1680
 4475SOL    HW124884   1.946   2.074   6.050  0.9036  1.5100 -1.6095
 4475SOL    HW224885   1.836   2.176   6.046 -0.6381 -0.7038  2.0020
 4476SOL     OW24886   3.749   3.107   6.513 -0.5475 -0.3028 -0.0520
 4476SOL    HW124887   3.726   3.065   6.595 -1.9271 -1.6991 -1.1375
 4476SOL    HW224888   3.836   3.133   6.541  1.1812 -3.2041 -2.7746
 4477SOL     OW24889   2.309   4.242  15.149  0.3696  0.4082 -0.2192
 4477SOL    HW124890   2.365   4.165  15.144 -0.6200 -0.2881 -0.4933
 4477SOL    HW224891   2.345   4.303  15.084 -0.1705  4.4348  3.2061
 4478SOL     OW24892   3.921   1.110   6.296 -0.3201 -0.4668  0.0470
 4478SOL    HW124893   3.957   1.068   6.218  3.8331  0.9543  1.2030
 4478SOL    HW224894   3.915   1.202   6.270 -1.1352 -0.8898 -1.2372
 4479SOL     OW24895   4.190   1.634  17.411 -0.5068  0.2034 -0.5187
 4479SOL    HW124896   4.191   1.653  17.318 -1.0367 -0.9159 -0.7571
 4479SOL    HW224897   4.265   1.683  17.443 -1.1461  0.0882  1.1664
 4480SOL     OW24898   2.571   2.306   6.995  0.2195 -0.4458 -0.1129
 4480SOL    HW124899   2.507   2.248   7.035  0.7866 -0.0625  1.3418
 4480SOL    HW224900   2.654   2.261   7.009  0.6599  0.6122  0.6669
 4481SOL     OW24901   4.113   1.250   3.326 -0.4767  0.3399  0.0410
 4481SOL    HW124902   4.075   1.335   3.349  2.5895  1.7714 -0.2157
 4481SOL    HW224903   4.118   1.263   3.231  1.3131  1.3425  0.2699
 4482SOL     OW24904   1.257   0.980   0.188  0.3229  0.0018 -0.6291
 4482SOL    HW124905   1.276   0.916   0.119 -0.9677 -0.7250 -0.3110
 4482SOL    HW224906   1.307   1.057   0.160 -0.0242  0.8589  1.1242
 4483SOL     OW24907   0.140   3.634   8.772 -0.0720  0.2124  0.7278
 4483SOL    HW124908   0.220   3.682   8.794  1.0695 -0.9222 -0.9276
 4483SOL    HW224909   0.137   3.565   8.838 -1.8214 -0.5904 -0.1887
 4484SOL     OW24910   3.703   3.978   0.175 -0.4620 -0.0355  0.1058
 4484SOL    HW124911   3.631   3.916   0.186 -1.1510  0.8889  0.8972
 4484SOL    HW224912   3.661   4.057   0.209 -0.0326 -0.2826  1.2122
 4485SOL     OW24913   4.617   1.885   6.214  0.7518 -0.2299  0.0205
 4485SOL    HW124914   4.568   1.869   6.295  0.1479 -1.0816 -0.5044
 4485SOL    HW224915   4.593   1.977   6.208 -1.2361 -0.6453  1.5160
 4486SOL     OW24916   0.878   0.463  12.421 -0.3803  0.2902 -0.6086
 4486SOL    HW124917   0.790   0.429  12.438 -0.3720 -0.9985 -3.0803
 4486SOL    HW224918   0.857   0.518  12.345  0.1565 -0.6980 -1.4775
 4487SOL     OW24919   4.284   3.855   4.947  0.1607 -0.2582  0.6288
 4487SOL    HW124920   4.280   3.760   4.936 -1.3464 -0.2773  1.3045
 4487SOL    HW224921   4.379   3.858   4.942 -0.0278  1.9341 -1.2469
 4488SOL     OW24922   2.686   0.454   3.919 -0.3585  0.0806  0.1904
 4488SOL    HW124923   2.699   0.424   3.829  1.3233 -1.2074  0.8667
 4488SOL    HW224924   2.725   0.542   3.918  1.2100 -0.6123 -0.2714
 4489SOL     OW24925   4.579   1.942   5.075  0.3476 -0.1253 -0.4523
 4489SOL    HW124926   4.638   1.874   5.107 -0.0748 -0.7317 -0.9541
 4489SOL    HW224927   4.520   1.967   5.146  2.8146 -1.0565  1.8847
 4490SOL     OW24928   4.096   2.622   8.180  0.0105 -0.2280 -0.2197
 4490SOL    HW124929   4.142   2.666   8.109  0.1689  3.6648  2.3383
 4490SOL    HW224930   4.153   2.545   8.180 -0.4139 -0.5299  0.7018
 4491SOL     OW24931   1.022   0.760   8.384  0.0937 -0.6842  0.4885
 4491SOL    HW124932   0.941   0.802   8.411 -0.4147 -0.4833 -1.3626
 4491SOL    HW224933   1.074   0.840   8.379  1.4272 -1.5283  0.6051
 4492SOL     OW24934   3.871   2.096   4.544  0.2211  0.2239 -0.0429
 4492SOL    HW124935   3.810   2.145   4.490  0.4125  0.4310 -0.0729
 4492SOL    HW224936   3.813   2.024   4.568 -2.0228  1.7794 -0.8231
 4493SOL     OW24937   0.755   2.009   9.244  0.0620 -0.6245 -0.3535
 4493SOL    HW124938   0.791   1.987   9.330 -1.6117 -0.2268  0.4555
 4493SOL    HW224939   0.711   1.927   9.223 -2.3180  1.0421 -1.8780
 4494SOL     OW24940   3.844   3.811  14.858  0.5441 -0.3070 -0.3812
 4494SOL    HW124941   3.789   3.767  14.923  2.9135  1.1322  2.6107
 4494SOL    HW224942   3.917   3.848  14.908 -0.3654  1.0758 -0.0869
 4495SOL     OW24943   0.162   0.515   3.092 -0.0130 -0.4219 -0.4686
 4495SOL    HW124944   0.099   0.576   3.131 -1.9637 -1.5773 -1.8061
 4495SOL    HW224945   0.244   0.551   3.126 -0.1357  0.4378 -1.0967
 4496SOL     OW24946   1.368   3.605   4.428 -0.7345  0.2413 -0.5338
 4496SOL    HW124947   1.399   3.682   4.380  1.7318  0.2335  1.0445
 4496SOL    HW224948   1.448   3.601   4.480 -1.0985 -1.2683 -0.0798
 4497SOL     OW24949   3.592   0.072   8.994  0.2905 -0.4568 -0.3354
 4497SOL    HW124950   3.664   0.118   9.036 -0.4986  0.6158 -0.1662
 4497SOL    HW224951   3.522   0.083   9.057 -1.7285 -1.0826 -2.4703
 4498SOL     OW24952   4.372   2.178  11.300  0.7803 -0.0310  0.1370
 4498SOL    HW124953   4.356   2.089  11.331 -1.5137  0.0784 -0.7694
 4498SOL    HW224954   4.319   2.225  11.364 -0.6573 -0.3671 -0.7954
 4499SOL     OW24955   1.989   0.649  11.324 -0.4973 -0.1378  0.3101
 4499SOL    HW124956   1.952   0.628  11.238 -3.1094 -0.7138  1.5691
 4499SOL    HW224957   1.927   0.710  11.362 -0.7651 -0.9738  1.2040
 4500SOL     OW24958   2.783   1.058   5.394  0.2952  0.3747  0.0487
 4500SOL    HW124959   2.784   1.012   5.478 -0.1379 -1.7025 -1.0828
 4500SOL    HW224960   2.742   1.138   5.427  0.1083 -0.0113  0.7501
 4501SOL     OW24961   0.065   4.552   8.666  0.6188  0.2855  0.1726
 4501SOL    HW124962   0.077   4.463   8.633 -0.3571  1.1455 -2.5087
 4501SOL    HW224963   0.150   4.591   8.648  1.6333 -2.3228 -0.6510
 4502SOL     OW24964   1.183   2.004   0.972  0.2763  0.8653  0.1759
 4502SOL    HW124965   1.139   1.933   1.018  0.1629  0.3199 -0.7681
 4502SOL    HW224966   1.267   2.005   1.018  0.8181 -1.2719 -0.7979
 4503SOL     OW24967   1.972   4.422   9.161 -0.2233  0.2694  0.1316
 4503SOL    HW124968   1.988   4.412   9.067  1.4648  0.9582  0.3425
 4503SOL    HW224969   2.043   4.481   9.189 -2.2200  2.9453 -0.4726
 4504SOL     OW24970   2.052   3.000   5.129  0.2084 -0.0560  0.3601
 4504SOL    HW124971   2.100   2.990   5.211  1.2699  1.2904 -0.0770
 4504SOL    HW224972   1.983   3.060   5.156  1.1231  0.8801  0.6088
 4505SOL     OW24973   3.644   3.584   2.045 -0.2006  0.5544 -0.4923
 4505SOL    HW124974   3.567   3.528   2.054  1.0921 -1.0782  0.3868
 4505SOL    HW224975   3.682   3.538   1.971 -1.6471 -2.4866  0.6737
 4506SOL     OW24976   0.593   2.774   3.763 -0.7827 -0.3143 -0.6834
 4506SOL    HW124977   0.498   2.774   3.768 -0.7813  0.4893 -0.7315
 4506SOL    HW224978   0.617   2.864   3.783  0.3882 -1.0762  1.3412
 4507SOL     OW24979   1.467   1.337   3.269 -0.0946 -0.1993  0.8450
 4507SOL    HW124980   1.443   1.391   3.194 -1.9039 -3.4219 -0.8828
 4507SOL    HW224981   1.408   1.261   3.272  0.1463 -0.3240  2.6979
 4508SOL     OW24982   3.590   3.610   8.019  0.7719 -0.3362  0.8570
 4508SOL    HW124983   3.513   3.610   8.075 -1.4149  3.0520 -2.1268
 4508SOL    HW224984   3.602   3.515   8.017 -0.1866 -0.4536  1.0210
 4509SOL     OW24985   1.345   2.839   5.583  0.5061 -0.6960 -1.0745
 4509SOL    HW124986   1.264   2.831   5.635  1.4477  2.2424  0.7965
 4509SOL    HW224987   1.377   2.918   5.626 -0.6311  0.5001 -2.4111
 4510SOL     OW24988   3.244   0.833   4.619  0.3697  0.1414 -0.1816
 4510SOL    HW124989   3.196   0.904   4.662  0.2476 -0.6188  0.9396
 4510SOL    HW224990   3.336   0.842   4.644  0.2653 -2.1379  0.9690
 4511SOL     OW24991   4.138   3.693   2.470 -0.2109 -0.2098 -0.0773
 4511SOL    HW124992   4.165   3.619   2.416 -0.4804  2.0206 -3.2982
 4511SOL    HW224993   4.062   3.728   2.424  1.5441  2.2505 -1.1359
 4512SOL     OW24994   0.580   1.513   4.710  0.2654 -0.3836 -0.3469
 4512SOL    HW124995   0.566   1.604   4.684  0.1487 -0.8485 -1.9161
 4512SOL    HW224996   0.529   1.515   4.790 -2.6546 -0.3666 -2.2017
 4513SOL     OW24997   4.063   4.293   9.477 -0.4557 -0.0161  0.2825
 4513SOL    HW124998   4.062   4.370   9.421 -0.3013  0.3927  0.8400
 4513SOL    HW224999   4.154   4.266   9.485 -1.0971 -2.1970  0.4171
 4514SOL     OW25000   2.565   0.435   4.462 -0.4014  0.6333  0.2372
 4514SOL    HW125001   2.547   0.410   4.371  1.2963  0.1938  0.0288
 4514SOL    HW225002   2.485   0.419   4.511 -0.1250  0.2005  0.5435
 4515SOL     OW25003   3.055   2.117   8.496 -0.1895 -0.5351  0.3254
 4515SOL    HW125004   2.973   2.119   8.546  1.0998  1.5968  2.3096
 4515SOL    HW225005   3.065   2.209   8.470 -0.7933 -0.2976  0.9240
 4516SOL     OW25006   3.546   0.466   9.017  0.5997 -0.3265 -0.0237
 4516SOL    HW125007   3.483   0.399   8.991  0.2809 -0.6417  1.5905
 4516SOL    HW225008   3.548   0.452   9.112  0.6232 -0.5278 -0.0544
 4517SOL     OW25009   4.357   4.151   0.298  0.0564 -0.2979 -0.0458
 4517SOL    HW125010   4.436   4.098   0.282 -0.6573 -1.8421  1.6212
 4517SOL    HW225011   4.371   4.174   0.390 -1.2226  0.6829 -0.1060
 4518SOL     OW25012   2.366   0.235   9.417  0.1086 -0.4001 -0.3041
 4518SOL    HW125013   2.334   0.155   9.459 -0.4434 -0.4906 -0.8796
 4518SOL    HW225014   2.435   0.251   9.481  0.3241  3.1692 -1.4094
 4519SOL     OW25015   1.339   0.560  16.388  0.0270  0.0601  0.3265
 4519SOL    HW125016   1.434   0.552  16.399  0.4815  2.5910 -1.8430
 4519SOL    HW225017   1.318   0.504  16.463  1.9860 -0.6634  0.3389
 4520SOL     OW25018   2.473   1.646   0.152  0.3375  0.2244 -0.9356
 4520SOL    HW125019   2.544   1.631   0.215  0.1654  2.8019 -0.1361
 4520SOL    HW225020   2.452   1.731   0.190 -1.0720 -0.5432  0.0378
 4521SOL     OW25021   2.896   0.165   5.975  0.3107 -0.8164 -0.9735
 4521SOL    HW125022   2.865   0.074   5.976  1.0086 -1.0776 -2.1186
 4521SOL    HW225023   2.941   0.157   6.059 -1.2822 -0.6366 -0.1131
 4522SOL     OW25024   3.541   3.414   8.912  0.1805 -0.3611 -0.1877
 4522SOL    HW125025   3.551   3.450   9.001 -1.1843  2.3956 -1.1450
 4522SOL    HW225026   3.460   3.460   8.889  0.6645  0.9173  0.6240
 4523SOL     OW25027   2.809   0.606   8.777 -0.2875 -0.8419  0.1794
 4523SOL    HW125028   2.780   0.566   8.695  1.7733 -0.7337 -0.5907
 4523SOL    HW225029   2.800   0.694   8.741  0.2228 -0.0504  1.9911
 4524SOL     OW25030   3.855   1.133   7.117 -0.2560 -0.0408  0.1045
 4524SOL    HW125031   3.851   1.047   7.158 -0.5480  0.4901  1.1771
 4524SOL    HW225032   3.776   1.169   7.157 -0.5593  1.0762 -1.4662
 4525SOL     OW25033   1.116   1.997   5.406 -0.2562 -0.1830  0.0625
 4525SOL    HW125034   1.143   2.028   5.320  0.4949  1.0009  0.7286
 4525SOL    HW225035   1.183   1.929   5.416 -0.6522 -0.6568 -0.4773
 4526SOL     OW25036   2.832   2.265   4.001 -0.1716  0.0572 -0.0420
 4526SOL    HW125037   2.794   2.254   3.914 -1.8589 -0.9274  0.8251
 4526SOL    HW225038   2.789   2.348   4.022 -1.5870 -0.6522 -0.1204
 4527SOL     OW25039   3.158   2.066   3.892  0.1282  0.1924  0.5449
 4527SOL    HW125040   3.079   2.027   3.855  0.4862  0.3084 -0.3605
 4527SOL    HW225041   3.177   2.131   3.824 -1.0618 -0.3708 -0.3133
 4528SOL     OW25042   0.284   3.789   1.817  0.4156 -0.1779  0.1968
 4528SOL    HW125043   0.353   3.851   1.794 -1.3116  1.9996  0.9171
 4528SOL    HW225044   0.231   3.844   1.875 -0.9505 -2.0148  0.6864
 4529SOL     OW25045   0.760   1.906   4.323  0.3408  0.2937  0.6145
 4529SOL    HW125046   0.832   1.969   4.316 -0.0438  0.5566 -1.0694
 4529SOL    HW225047   0.774   1.868   4.236  0.8114 -0.2911  0.9485
 4530SOL     OW25048   4.426   1.832   1.763 -0.5683 -0.6293  0.9637
 4530SOL    HW125049   4.413   1.886   1.684  0.6989 -2.0773 -0.2262
 4530SOL    HW225050   4.462   1.755   1.720 -1.6249 -0.5818 -0.0241
 4531SOL     OW25051   1.291   0.868  10.444 -0.6300 -0.5060 -0.1408
 4531SOL    HW125052   1.360   0.910  10.494 -1.2662  1.0651 -0.6016
 4531SOL    HW225053   1.245   0.831  10.519  1.3593  1.9810  2.2602
 4532SOL     OW25054   1.989   0.121  17.218  0.2638 -0.1743  0.3439
 4532SOL    HW125055   1.918   0.165  17.265  0.6238  1.7365 -0.9182
 4532SOL    HW225056   2.067   0.167  17.248  0.9976 -0.0679 -1.7396
 4533SOL     OW25057   0.792   4.466   3.462  0.7436  0.2004  0.0406
 4533SOL    HW125058   0.848   4.410   3.407  1.5732  0.0613  1.0346
 4533SOL    HW225059   0.817   4.550   3.423  1.1787  0.2810  0.4963
 4534SOL     OW25060   3.214   4.668   8.668  0.1262  0.1696  0.0371
 4534SOL    HW125061   3.150   0.002   8.711  0.5541  1.2088 -0.7349
 4534SOL    HW225062   3.292   4.685   8.721 -0.4020 -0.4602  1.0378
 4535SOL     OW25063   4.168   1.675   8.946 -0.5281  0.2873  0.6987
 4535SOL    HW125064   4.237   1.702   9.006  1.2631  0.8213 -1.5796
 4535SOL    HW225065   4.184   1.737   8.874 -3.3552 -0.3394 -0.4489
 4536SOL     OW25066   4.201   4.345  16.567  0.2098  0.1012  0.1676
 4536SOL    HW125067   4.243   4.350  16.653  3.5023 -3.2841 -1.2898
 4536SOL    HW225068   4.144   4.271  16.588 -1.4458  0.5995 -2.5495
 4537SOL     OW25069   2.530   0.974   8.056 -0.0162  0.3917 -0.0031
 4537SOL    HW125070   2.624   0.992   8.057  0.2019 -0.7371 -0.2325
 4537SOL    HW225071   2.518   0.939   8.144 -1.6173 -0.6165 -0.6274
 4538SOL     OW25072   4.661   1.217   8.723  0.0152  0.6641  0.1677
 4538SOL    HW125073   4.636   1.257   8.806 -3.0192  2.1961 -1.4899
 4538SOL    HW225074   0.001   1.157   8.762 -0.7406 -1.0203 -1.1962
 4539SOL     OW25075   1.378   2.320   4.631  0.6782  0.6486  0.2391
 4539SOL    HW125076   1.451   2.261   4.613 -1.9194 -2.4142 -0.3524
 4539SOL    HW225077   1.307   2.265   4.665  0.3769 -0.0421 -1.5471
 4540SOL     OW25078   1.503   1.031   4.873 -0.3623  0.3722 -0.2750
 4540SOL    HW125079   1.542   1.073   4.950  1.1970  1.7368 -1.8052
 4540SOL    HW225080   1.554   1.059   4.798 -0.4241  0.9967 -0.0867
 4541SOL     OW25081   2.685   1.796   1.858 -0.0818  0.1385 -0.2624
 4541SOL    HW125082   2.727   1.715   1.886 -2.0563 -1.2161 -1.2027
 4541SOL    HW225083   2.706   1.856   1.930 -2.7975  0.8872 -0.0988
 4542SOL     OW25084   3.266   3.437   1.841  0.5052 -0.4236 -0.3136
 4542SOL    HW125085   3.232   3.421   1.753  0.4943 -0.2756 -0.3369
 4542SOL    HW225086   3.187   3.415   1.890 -0.6327  1.7491 -1.1770
 4543SOL     OW25087   1.015   1.640   6.537 -0.5975  0.6224  0.3613
 4543SOL    HW125088   0.926   1.673   6.553 -0.5580  0.7385  0.3370
 4543SOL    HW225089   1.017   1.642   6.442 -2.4860 -2.9871  0.2229
 4544SOL     OW25090   1.349   3.620   5.056  0.0620  0.0337 -0.1750
 4544SOL    HW125091   1.308   3.593   5.138  2.3839  2.0001  1.6357
 4544SOL    HW225092   1.371   3.713   5.064  1.0007 -0.0826 -1.4894
 4545SOL     OW25093   2.588   2.517   5.997 -0.4072 -0.2946 -0.2964
 4545SOL    HW125094   2.678   2.493   6.018 -0.4401  2.2158  2.6501
 4545SOL    HW225095   2.590   2.563   5.913 -0.1839  0.4597  0.1276
 4546SOL     OW25096   4.701   2.846   6.321  0.0275  0.0455  0.3805
 4546SOL    HW125097   0.047   2.910   6.304 -0.8636  1.3333  1.5625
 4546SOL    HW225098   4.677   2.868   6.411  1.1947 -0.5884  0.8344
 4547SOL     OW25099   1.210   3.986   7.506 -0.3243 -0.3225  0.4447
 4547SOL    HW125100   1.165   3.906   7.481 -1.5448  0.5807 -0.2596
 4547SOL    HW225101   1.291   3.965   7.461 -0.3033 -2.9536  1.6862
 4548SOL     OW25102   3.011   4.632   7.359  0.0222  0.7451  0.5843
 4548SOL    HW125103   2.982   4.542   7.342  0.9486  0.5104  0.2642
 4548SOL    HW225104   3.067   4.647   7.282  0.9367 -1.3699  0.8454
 4549SOL     OW25105   2.058   2.350   3.678  0.4558  0.3915 -0.7585
 4549SOL    HW125106   2.108   2.308   3.748 -0.9116 -0.4458 -0.2810
 4549SOL    HW225107   2.091   2.303   3.602 -0.8223 -2.3673  0.3940
 4550SOL     OW25108   1.235   3.479   2.771 -0.0803 -0.0827 -0.0272
 4550SOL    HW125109   1.189   3.533   2.834  0.6655  0.7109 -0.1614
 4550SOL    HW225110   1.257   3.405   2.828  2.2132  0.3074 -0.3931
 4551SOL     OW25111   3.016   2.488   3.499  0.4086 -0.0298 -0.0392
 4551SOL    HW125112   3.086   2.473   3.561  0.0153 -0.8975  0.1901
 4551SOL    HW225113   2.978   2.569   3.534 -0.8107 -0.0222 -1.3560
 4552SOL     OW25114   0.626   4.508   9.148 -0.2514  0.0635 -0.6015
 4552SOL    HW125115   0.553   4.569   9.155 -0.5518 -0.3086 -0.5457
 4552SOL    HW225116   0.704   4.561   9.165  0.3234 -0.5237 -1.3926
 4553SOL     OW25117   2.515   0.363  12.317 -0.7773 -0.2788 -0.3993
 4553SOL    HW125118   2.437   0.315  12.287 -0.3116  0.2827 -2.5070
 4553SOL    HW225119   2.470   0.411  12.386 -1.0355 -0.4011 -0.4798
 4554SOL     OW25120   4.296   1.060   9.766 -0.1265  0.6078  0.0920
 4554SOL    HW125121   4.270   0.982   9.718 -2.3736  0.9330  0.8025
 4554SOL    HW225122   4.212   1.091   9.799 -0.3101 -0.1000  0.2781
 4555SOL     OW25123   0.911   2.411   2.466  0.3855 -0.3038 -0.0813
 4555SOL    HW125124   0.862   2.340   2.424  0.4545  0.9495 -2.2625
 4555SOL    HW225125   0.946   2.462   2.393 -0.8272 -1.7151 -1.6645
 4556SOL     OW25126   4.510   1.581   8.775 -0.3143 -0.2891 -0.6901
 4556SOL    HW125127   4.503   1.666   8.820 -0.6656 -0.5758 -0.2042
 4556SOL    HW225128   4.449   1.596   8.702  0.3406  1.3239 -0.9029
 4557SOL     OW25129   3.664   3.053  11.351  0.3462  0.5752  0.2438
 4557SOL    HW125130   3.633   3.056  11.442 -1.1813  0.0505 -0.2621
 4557SOL    HW225131   3.676   2.961  11.330 -0.3635  0.6300 -0.4233
 4558SOL     OW25132   4.664   0.230   7.566 -0.8561  0.3903  0.2329
 4558SOL    HW125133   4.667   0.151   7.620 -0.2404  0.3762  0.1732
 4558SOL    HW225134   4.622   0.190   7.490  3.1653 -1.5280 -0.9471
 4559SOL     OW25135   4.682   2.274   5.667 -0.2837  0.1978 -0.1831
 4559SOL    HW125136   4.607   2.332   5.683 -1.2763 -0.2331 -3.3373
 4559SOL    HW225137   0.014   2.302   5.740 -2.0806 -0.3386  1.4111
 4560SOL     OW25138   3.550   1.971   3.196  0.0577 -0.4275 -0.1849
 4560SOL    HW125139   3.502   1.954   3.277 -0.1258  1.9549  0.2052
 4560SOL    HW225140   3.499   1.935   3.123  0.3942  2.2216 -1.7066
 4561SOL     OW25141   3.712   4.416   0.137 -0.3320 -0.0212 -0.1733
 4561SOL    HW125142   3.754   4.488   0.090  1.4018 -2.0530 -1.7371
 4561SOL    HW225143   3.694   4.351   0.069  1.0625 -0.7498  0.1491
 4562SOL     OW25144   3.962   1.744   6.122  0.7309  0.1432  0.2164
 4562SOL    HW125145   3.869   1.731   6.104  1.1477 -0.7247 -1.3697
 4562SOL    HW225146   3.991   1.683   6.053  1.1484  1.3440 -0.6739
 4563SOL     OW25147   3.956   0.343  16.575 -0.3655  0.1813  0.5461
 4563SOL    HW125148   3.923   0.379  16.493 -1.7250  1.4521  1.6773
 4563SOL    HW225149   3.901   0.388  16.638 -0.4081 -0.2465  0.8183
 4564SOL     OW25150   3.715   2.150   3.673  0.4124  0.0897 -0.6509
 4564SOL    HW125151   3.772   2.221   3.644 -0.8619  1.0970 -0.6939
 4564SOL    HW225152   3.685   2.108   3.592  0.5474 -2.2117  0.4777
 4565SOL     OW25153   0.990   0.407   1.376  0.6857 -0.7557 -0.4147
 4565SOL    HW125154   1.016   0.326   1.333 -2.3095 -3.2508  2.4005
 4565SOL    HW225155   0.976   0.459   1.297 -1.1442  0.5096  0.7418
 4566SOL     OW25156   1.385   0.635   8.963 -0.6579 -0.0488  0.0842
 4566SOL    HW125157   1.358   0.719   9.001 -2.3932  0.4080 -2.1795
 4566SOL    HW225158   1.455   0.602   9.020 -0.7174 -1.7212 -0.8162
 4567SOL     OW25159   0.014   2.878   3.674  0.0964 -0.3585 -0.8038
 4567SOL    HW125160   4.664   2.824   3.705  0.7262  0.5148  2.2638
 4567SOL    HW225161   4.684   2.928   3.613 -1.2720 -0.6368  0.1670
 4568SOL     OW25162   0.015   2.393   7.206  0.8350 -0.5372 -0.2738
 4568SOL    HW125163   4.652   2.430   7.218  0.8188 -1.2641  1.7909
 4568SOL    HW225164   0.020   2.356   7.294  0.6395 -0.4122 -0.2124
 4569SOL     OW25165   2.733   0.153   4.548  0.2465 -0.6190 -0.7303
 4569SOL    HW125166   2.816   0.192   4.520  0.0582  1.5520  1.7286
 4569SOL    HW225167   2.685   0.233   4.570  0.6278 -0.6735  0.2776
 4570SOL     OW25168   2.067   1.917  15.639 -0.6647  0.2833  0.0344
 4570SOL    HW125169   2.088   1.859  15.565  0.1206  0.9828 -0.2876
 4570SOL    HW225170   2.122   1.987  15.604  0.1478 -0.4300 -0.1151
 4571SOL     OW25171   1.214   0.614  14.119  0.3328  0.1367  0.7065
 4571SOL    HW125172   1.133   0.635  14.166 -0.0022  1.2684 -0.3573
 4571SOL    HW225173   1.219   0.697  14.072 -0.1921 -0.2466 -0.0104
 4572SOL     OW25174   0.673   1.671   4.457 -0.4090  0.2595  0.3823
 4572SOL    HW125175   0.667   1.716   4.372  2.2206 -1.6800 -0.8467
 4572SOL    HW225176   0.747   1.723   4.487  0.8775 -0.2091 -1.9124
 4573SOL     OW25177   3.609   3.148   9.127 -0.9130  0.7477 -0.2670
 4573SOL    HW125178   3.514   3.137   9.137 -1.1682  0.6783 -2.8811
 4573SOL    HW225179   3.624   3.056   9.103  1.4396  0.0721  3.8179
 4574SOL     OW25180   0.287   3.741   1.435  0.3826  0.6604  0.1098
 4574SOL    HW125181   0.302   3.769   1.344  0.5320  2.3835  0.6661
 4574SOL    HW225182   0.208   3.789   1.462  0.5137  2.2222 -2.2526
 4575SOL     OW25183   2.204   2.664  15.372  0.2313 -0.3210  0.7740
 4575SOL    HW125184   2.142   2.592  15.365  0.5287 -0.4322 -0.6803
 4575SOL    HW225185   2.163   2.710  15.445 -1.8959  2.1381 -1.9735
 4576SOL     OW25186   1.456   3.997   7.711 -0.4685  0.1169  0.3641
 4576SOL    HW125187   1.470   3.956   7.625 -1.5217 -0.4693  0.4715
 4576SOL    HW225188   1.483   4.085   7.683 -1.3352 -0.0923 -1.1403
 4577SOL     OW25189   0.033   1.603   8.930 -0.1040 -0.0763  0.1919
 4577SOL    HW125190   0.064   1.561   9.010  1.9060 -0.4977 -0.7816
 4577SOL    HW225191   4.694   1.537   8.900 -0.3029 -0.6451  1.8715
 4578SOL     OW25192   3.295   0.477  11.906 -0.0449  0.4192  0.1582
 4578SOL    HW125193   3.382   0.511  11.887  0.2322 -0.5507 -0.3232
 4578SOL    HW225194   3.263   0.538  11.973 -0.0526  1.1748 -0.5380
 4579SOL     OW25195   2.595   0.674   2.832  0.0479 -0.3284  0.1746
 4579SOL    HW125196   2.656   0.716   2.772 -1.3420  0.6361 -0.5419
 4579SOL    HW225197   2.641   0.604   2.879 -0.1057 -0.6810 -0.2030
 4580SOL     OW25198   0.426   3.613   6.421 -0.0651  0.4446  0.0372
 4580SOL    HW125199   0.390   3.591   6.507 -1.0161  0.2546 -0.4070
 4580SOL    HW225200   0.354   3.618   6.357 -0.1558  0.9179  0.1755
 4581SOL     OW25201   0.400   0.871   5.753 -0.3349  0.0596 -0.2404
 4581SOL    HW125202   0.353   0.954   5.766 -0.9136 -0.4142  0.7242
 4581SOL    HW225203   0.336   0.835   5.691  0.3492 -0.5043 -0.6214
 4582SOL     OW25204   0.709   3.625   6.362 -0.4405  0.6089  0.1899
 4582SOL    HW125205   0.614   3.633   6.373 -0.5114 -0.7969  0.6261
 4582SOL    HW225206   0.736   3.711   6.392 -2.7470  1.7858 -1.1675
 4583SOL     OW25207   1.985   1.443   7.512 -0.3287 -0.5169  0.4862
 4583SOL    HW125208   1.995   1.530   7.474 -0.5700 -0.6117  0.2071
 4583SOL    HW225209   1.930   1.403   7.445  1.6681 -0.7433 -1.0310
 4584SOL     OW25210   2.391   2.774   1.921  0.4743  0.2194  0.0047
 4584SOL    HW125211   2.465   2.751   1.977  0.2179 -2.4478 -0.7457
 4584SOL    HW225212   2.340   2.833   1.977 -0.9900 -0.5513 -0.5021
 4585SOL     OW25213   3.477   0.042   6.020 -0.2916  0.2129 -0.2011
 4585SOL    HW125214   3.411   0.008   6.081  0.1110  0.3147  0.2903
 4585SOL    HW225215   3.556   0.046   6.073 -0.3695  4.3534 -0.4398
 4586SOL     OW25216   1.713   4.453  14.801  0.0494 -0.1183 -0.0537
 4586SOL    HW125217   1.768   4.461  14.879  1.7965 -3.1436 -0.9815
 4586SOL    HW225218   1.735   4.531  14.750 -0.6174 -0.9106 -1.5434
 4587SOL     OW25219   3.721   2.389  15.073  0.4154 -0.7977  0.3936
 4587SOL    HW125220   3.724   2.306  15.120  0.6718 -0.6195  0.6845
 4587SOL    HW225221   3.777   2.454  15.115 -0.3970  1.0131 -1.2860
 4588SOL     OW25222   0.210   2.758   8.506 -0.5511 -0.3786 -0.0451
 4588SOL    HW125223   0.172   2.845   8.492 -0.9670 -0.3342  1.4063
 4588SOL    HW225224   0.221   2.754   8.601  0.3625  0.1451 -0.1268
 4589SOL     OW25225   4.631   3.191   9.692  0.5982  0.2386  0.0787
 4589SOL    HW125226   0.001   3.199   9.708  0.4858  4.0729 -1.1612
 4589SOL    HW225227   4.593   3.200   9.780 -0.7190 -1.9092 -0.2795
 4590SOL     OW25228   3.739   2.608   8.937 -0.1632  0.0261  0.8106
 4590SOL    HW125229   3.696   2.580   8.856 -2.0301 -1.9721  2.4963
 4590SOL    HW225230   3.816   2.657   8.909 -0.1579 -1.3739 -1.6041
 4591SOL     OW25231   2.428   4.486   7.193 -0.1873  0.1758 -0.2987
 4591SOL    HW125232   2.522   4.505   7.195  0.1361 -1.0947 -2.6889
 4591SOL    HW225233   2.402   4.557   7.134 -0.1436 -0.2639 -0.8556
 4592SOL     OW25234   1.790   3.465   2.941 -0.0247  0.0482 -0.3099
 4592SOL    HW125235   1.849   3.447   3.014  3.6253  3.7618 -2.3528
 4592SOL    HW225236   1.754   3.378   2.926 -2.8603  1.3938 -1.3700
 4593SOL     OW25237   1.353   4.296  12.159 -0.1081 -0.1295  0.4591
 4593SOL    HW125238   1.434   4.324  12.202  2.3421 -0.1339 -4.1493
 4593SOL    HW225239   1.328   4.210  12.194 -0.8164 -0.7806 -1.6619
 4594SOL     OW25240   4.306   0.362   4.908  0.1080 -0.0208  0.3002
 4594SOL    HW125241   4.266   0.440   4.945 -0.2537  1.4605 -3.2315
 4594SOL    HW225242   4.229   0.323   4.868  1.1741  1.7827 -3.4627
 4595SOL     OW25243   4.124   1.404   8.820 -0.1566  0.3689 -0.2153
 4595SOL    HW125244   4.165   1.479   8.862  1.1970  0.0547 -0.9749
 4595SOL    HW225245   4.034   1.435   8.829 -0.3687 -1.3936  3.5295
 4596SOL     OW25246   0.196   1.972   2.642  0.4219 -0.5604 -0.7080
 4596SOL    HW125247   0.111   1.982   2.685 -0.1912 -1.2927 -1.7483
 4596SOL    HW225248   0.236   1.898   2.688 -1.6479 -1.6361 -0.6535
 4597SOL     OW25249   2.635   4.393  13.270  0.1945 -0.3742  0.2406
 4597SOL    HW125250   2.587   4.474  13.285  1.0144 -0.7244  4.7009
 4597SOL    HW225251   2.593   4.353  13.193 -0.5878  0.6301  0.1478
 4598SOL     OW25252   4.237   2.831   2.843 -0.2740 -0.1671 -0.3508
 4598SOL    HW125253   4.171   2.806   2.778 -0.6021  0.3264 -0.2076
 4598SOL    HW225254   4.203   2.917   2.868  0.1295 -0.1317  0.0740
 4599SOL     OW25255   1.123   3.596  11.552 -0.1105 -0.3247 -0.0598
 4599SOL    HW125256   1.192   3.530  11.549 -4.1961 -4.6619  1.4076
 4599SOL    HW225257   1.169   3.670  11.591 -0.4258 -0.4601  0.5787
 4600SOL     OW25258   2.824   4.367   3.948 -0.1167 -0.2700 -0.1198
 4600SOL    HW125259   2.818   4.327   4.035 -1.4532 -0.4137 -0.2711
 4600SOL    HW225260   2.821   4.459   3.973  2.6516 -0.4695  0.9973
 4601SOL     OW25261   4.441   1.071   0.806 -0.6434 -0.2385  0.1948
 4601SOL    HW125262   4.402   1.157   0.791 -1.2584 -0.4098  0.7694
 4601SOL    HW225263   4.531   1.075   0.773  0.0194  2.2575  2.3001
 4602SOL     OW25264   3.602   4.520  17.386 -0.0261  0.1132  0.3661
 4602SOL    HW125265   3.680   4.497  17.438  0.8224 -1.6309 -1.6876
 4602SOL    HW225266   3.536   4.456  17.411 -0.8408  1.0969  0.7510
 4603SOL     OW25267   2.099   4.638  13.257  0.4816  0.0243 -0.5244
 4603SOL    HW125268   2.134   0.002  13.272  0.2470 -0.3234  2.0883
 4603SOL    HW225269   2.075   4.615  13.347 -0.2897 -2.1040 -1.2660
 4604SOL     OW25270   3.485   0.667   6.031 -0.1476  0.2969 -0.5874
 4604SOL    HW125271   3.466   0.587   5.982  2.3573 -0.3525 -0.4693
 4604SOL    HW225272   3.580   0.659   6.032 -0.1841 -0.1660 -0.6959
 4605SOL     OW25273   2.154   3.803   4.386 -0.1789  0.1342 -0.1282
 4605SOL    HW125274   2.162   3.898   4.377  1.1325 -0.0283 -0.7048
 4605SOL    HW225275   2.060   3.798   4.401 -0.1792  0.1395 -0.1288
 4606SOL     OW25276   0.826   0.247   0.622  0.0773 -0.2115  0.3517
 4606SOL    HW125277   0.848   0.257   0.714 -0.2407 -0.4625  0.4529
 4606SOL    HW225278   0.764   0.175   0.625 -0.7377  0.4730 -0.0606
 4607SOL     OW25279   1.036   0.300   8.376 -0.0031  0.1022  0.6678
 4607SOL    HW125280   1.126   0.292   8.405  0.1688  1.1271  0.4082
 4607SOL    HW225281   0.986   0.270   8.452 -1.0517  0.0878 -0.0294
 4608SOL     OW25282   2.028   0.559  13.193 -0.4616  0.3344  0.0925
 4608SOL    HW125283   2.109   0.507  13.204  0.1939  1.4279  0.3930
 4608SOL    HW225284   1.995   0.502  13.124 -0.4540 -0.1180  0.4577
 4609SOL     OW25285   1.783   2.074  10.019  0.2458  0.4042 -0.0417
 4609SOL    HW125286   1.779   1.981  10.000 -0.3949  0.4574 -0.1723
 4609SOL    HW225287   1.876   2.090  10.033  0.2496  1.1011 -0.8125
 4610SOL     OW25288   0.233   0.034   4.729  0.3555 -0.2489 -0.2181
 4610SOL    HW125289   0.169   4.699   4.769  2.6199 -1.8394  1.0269
 4610SOL    HW225290   0.322   4.722   4.732  0.3849 -0.1958 -0.4184
 4611SOL     OW25291   3.990   4.418   9.744  0.2497  0.2801 -0.2135
 4611SOL    HW125292   3.978   4.390   9.654  1.0698 -0.9824  0.0744
 4611SOL    HW225293   3.926   4.489   9.755 -1.1804 -1.2480  1.3608
 4612SOL     OW25294   4.471   1.992   1.981 -0.0376  1.0680  0.0262
 4612SOL    HW125295   4.375   2.000   1.987 -0.1044 -0.5406  0.9839
 4612SOL    HW225296   4.480   1.944   1.899  0.2517 -0.1131  0.7478
 4613SOL     OW25297   0.734   0.515  14.382 -0.3894  0.3539  0.2887
 4613SOL    HW125298   0.762   0.606  14.374  0.1572  0.1440 -0.1832
 4613SOL    HW225299   0.679   0.499  14.306 -0.0712  1.3596 -0.1545
 4614SOL     OW25300   1.093   2.394   6.426 -0.1821 -0.6559 -0.0340
 4614SOL    HW125301   1.034   2.336   6.380 -0.6598  0.2338 -0.5373
 4614SOL    HW225302   1.084   2.475   6.375  0.7468  0.7983  2.0964
 4615SOL     OW25303   3.056   0.935  17.488  0.3895  0.4655 -0.0597
 4615SOL    HW125304   3.005   0.877  17.545  0.4942  0.7698  0.3435
 4615SOL    HW225305   3.012   1.020  17.501  1.4295  0.6425  2.4178
 4616SOL     OW25306   1.553   4.596  14.130  0.2477  0.6454  0.1479
 4616SOL    HW125307   1.502   4.671  14.160 -2.4431 -0.8134 -0.8087
 4616SOL    HW225308   1.584   4.568  14.216  0.2838  1.4809  0.4055
 4617SOL     OW25309   1.108   3.174   2.702 -0.1763  0.0601  0.0819
 4617SOL    HW125310   1.053   3.247   2.731 -1.5097 -0.4720 -1.1173
 4617SOL    HW225311   1.093   3.105   2.767 -2.3668  1.0912  0.6788
 4618SOL     OW25312   2.077   2.333   8.695 -0.4460 -0.2695  0.0713
 4618SOL    HW125313   2.018   2.345   8.621 -0.7499  1.1733  0.5533
 4618SOL    HW225314   2.032   2.278   8.760  0.4061  0.5123  1.3402
 4619SOL     OW25315   2.328   1.981   3.603 -0.5598  0.7012  0.1892
 4619SOL    HW125316   2.280   1.898   3.600  0.6513  0.0777 -1.5940
 4619SOL    HW225317   2.286   2.022   3.528  0.5878  0.1599 -0.7518
 4620SOL     OW25318   2.918   1.808   5.377  0.1708  0.4819 -0.1987
 4620SOL    HW125319   2.837   1.787   5.423 -0.7220  0.0912 -1.9210
 4620SOL    HW225320   2.976   1.737   5.404 -0.1328  0.1003 -0.5447
 4621SOL     OW25321   0.806   4.573   3.721  0.0559 -0.3418  0.3375
 4621SOL    HW125322   0.771   4.637   3.659  0.6014  2.9574  3.4300
 4621SOL    HW225323   0.804   4.501   3.659 -0.6546 -0.0386  0.0061
 4622SOL     OW25324   1.146   2.624   7.768 -0.3368  0.4611  0.5480
 4622SOL    HW125325   1.226   2.644   7.817  0.9820  0.4087 -1.5899
 4622SOL    HW225326   1.149   2.696   7.706 -0.9398  0.0171  0.0018
 4623SOL     OW25327   0.808   2.885  16.995  0.1935 -0.0264  0.4706
 4623SOL    HW125328   0.849   2.970  16.984  1.1313 -0.5210  0.1252
 4623SOL    HW225329   0.865   2.832  16.939  0.8724  1.8835 -0.6098
 4624SOL     OW25330   4.534   4.499   5.364  0.1871 -0.4884 -0.0952
 4624SOL    HW125331   4.515   4.465   5.276  1.2744  0.7784 -0.8242
 4624SOL    HW225332   4.446   4.486   5.399  0.7872 -2.7067  0.5323
 4625SOL     OW25333   1.434   1.881   7.081  0.5613  0.2736 -0.0821
 4625SOL    HW125334   1.373   1.899   7.010  0.1461  1.7462  0.6470
 4625SOL    HW225335   1.384   1.881   7.163  0.4030 -0.4695 -0.1825
 4626SOL     OW25336   1.726   1.636   3.189 -0.0936 -0.2287 -0.4434
 4626SOL    HW125337   1.736   1.542   3.179 -0.9973 -0.4080  0.3477
 4626SOL    HW225338   1.633   1.660   3.193  0.2737  1.0099  0.7770
 4627SOL     OW25339   0.448   2.242  13.149  0.0924 -0.0839  0.0142
 4627SOL    HW125340   0.497   2.219  13.227 -1.8783  3.1096  2.1925
 4627SOL    HW225341   0.370   2.189  13.163  1.3140 -1.5480  1.1535
 4628SOL     OW25342   2.499   0.542  14.210  0.1896 -0.3612  0.0520
 4628SOL    HW125343   2.460   0.617  14.165 -0.7316 -1.6998 -1.3761
 4628SOL    HW225344   2.426   0.508  14.261 -0.7177 -0.3071 -1.2220
 4629SOL     OW25345   2.251   3.239  14.064 -0.0862 -0.0238 -0.1705
 4629SOL    HW125346   2.173   3.279  14.102 -1.6084 -0.0275 -3.3025
 4629SOL    HW225347   2.210   3.212  13.982  1.2118 -0.3891 -0.6943
 4630SOL     OW25348   4.657   4.517   5.811  0.0726 -0.0248  0.2781
 4630SOL    HW125349   4.671   4.570   5.889 -0.8859 -0.8558  1.0037
 4630SOL    HW225350   0.003   4.452   5.821 -0.7640 -1.1823 -1.3089
 4631SOL     OW25351   4.675   2.010   1.671  0.0881  0.2627  0.4113
 4631SOL    HW125352   4.611   2.079   1.686  0.7712  0.6917  1.3401
 4631SOL    HW225353   4.639   1.957   1.600  1.5842 -0.4609  0.1901
 4632SOL     OW25354   1.028   3.572   2.219  0.4312 -0.3745  0.4902
 4632SOL    HW125355   1.111   3.618   2.218  1.0624 -1.5873 -1.8577
 4632SOL    HW225356   0.989   3.635   2.279  1.9681  0.8331  0.2247
 4633SOL     OW25357   0.027   4.195   2.109 -0.3654  0.0821  0.2186
 4633SOL    HW125358   4.715   4.173   2.195 -2.1753 -3.4167 -1.4698
 4633SOL    HW225359   4.684   4.257   2.078  0.5703  1.9269  1.8492
 4634SOL     OW25360   3.294   0.041   7.811 -0.5100 -0.6184 -0.2216
 4634SOL    HW125361   3.226   4.713   7.766 -1.4262 -0.6221  1.1628
 4634SOL    HW225362   3.342   0.076   7.736  1.6823  1.9134  2.3883
 4635SOL     OW25363   3.556   2.106   7.436 -0.3620  0.1314 -0.3878
 4635SOL    HW125364   3.531   2.026   7.482 -0.1892  1.0967  1.3945
 4635SOL    HW225365   3.651   2.096   7.442 -0.2133  1.6113 -0.3613
 4636SOL     OW25366   3.993   0.401  12.800  0.1484  0.5443  0.0421
 4636SOL    HW125367   3.983   0.410  12.705 -0.6910  1.0128  0.1674
 4636SOL    HW225368   4.057   0.471  12.812  2.6302 -1.7182 -0.2919
 4637SOL     OW25369   0.459   0.848  13.091  0.5735 -0.2582 -0.1955
 4637SOL    HW125370   0.538   0.902  13.092  0.5402 -0.2133 -0.0343
 4637SOL    HW225371   0.504   0.769  13.120  0.4389 -1.0919 -2.2936
 4638SOL     OW25372   2.035   0.547  15.836 -0.5149  0.0156  0.6131
 4638SOL    HW125373   1.989   0.584  15.760  0.8357  2.6346  1.0632
 4638SOL    HW225374   1.980   0.473  15.860  3.8237 -2.0944  3.9043
 4639SOL     OW25375   2.061   0.393   5.425  0.2008 -0.6413 -0.5911
 4639SOL    HW125376   2.079   0.301   5.442 -1.6309 -1.0740 -1.0529
 4639SOL    HW225377   1.970   0.387   5.396  0.0473  0.2569 -0.3026
 4640SOL     OW25378   1.326   4.023   4.080 -0.3985 -0.2865  0.5328
 4640SOL    HW125379   1.339   4.106   4.033 -2.3624  0.6656  1.6751
 4640SOL    HW225380   1.344   3.960   4.010  0.1059  1.0475 -0.5523
 4641SOL     OW25381   1.325   1.603   9.443  0.3820  0.3305  0.3003
 4641SOL    HW125382   1.284   1.676   9.490  0.5976  0.4016  0.3750
 4641SOL    HW225383   1.361   1.654   9.371 -0.9789  0.5822 -0.2100
 4642SOL     OW25384   3.464   1.854   5.678 -0.2902 -0.2286 -0.0912
 4642SOL    HW125385   3.516   1.934   5.670 -0.3240 -0.3171 -1.2113
 4642SOL    HW225386   3.515   1.802   5.741  1.3978  1.0655 -0.3861
 4643SOL     OW25387   4.458   3.752   2.937 -0.5410  0.1847 -0.4361
 4643SOL    HW125388   4.485   3.838   2.905 -2.0299  0.5698 -0.6667
 4643SOL    HW225389   4.540   3.709   2.961 -0.6253 -0.2351 -0.9009
 4644SOL     OW25390   2.917   4.085   2.318  0.8934 -0.1633  0.3496
 4644SOL    HW125391   2.956   4.023   2.255  1.2771  0.5886 -0.1574
 4644SOL    HW225392   2.822   4.079   2.309  0.9056 -0.0152  0.1030
 4645SOL     OW25393   4.138   0.444   8.362  0.2944  0.3472  0.5582
 4645SOL    HW125394   4.207   0.510   8.366 -1.0905  1.7798  0.4834
 4645SOL    HW225395   4.086   0.479   8.290 -0.6279  0.2298  1.1569
 4646SOL     OW25396   2.405   4.692   3.015  0.7019 -0.5950  0.4936
 4646SOL    HW125397   2.332   0.025   2.991  0.2235 -2.3176 -2.0126
 4646SOL    HW225398   2.366   4.618   3.061 -0.9134 -0.0149  0.0510
 4647SOL     OW25399   3.002   2.673   6.487  0.0959  0.3092  0.4580
 4647SOL    HW125400   3.012   2.634   6.574  2.6933  0.1519  0.0904
 4647SOL    HW225401   3.087   2.706   6.459  0.3878 -0.7726  0.0396
 4648SOL     OW25402   3.618   3.168  14.415  0.7972 -0.5055  0.0666
 4648SOL    HW125403   3.636   3.139  14.505 -1.4036 -0.1818  0.6103
 4648SOL    HW225404   3.620   3.263  14.423 -3.3054 -0.3722 -0.3560
 4649SOL     OW25405   1.862   4.261   7.078  0.1221 -0.2860 -0.0267
 4649SOL    HW125406   1.925   4.307   7.134 -0.7558 -0.4786  1.1074
 4649SOL    HW225407   1.919   4.219   7.014 -1.3737 -2.1170 -0.1628
 4650SOL     OW25408   0.371   3.426   8.366  0.0652 -0.0390  0.4654
 4650SOL    HW125409   0.456   3.470   8.368 -0.4957  1.1096 -1.2695
 4650SOL    HW225410   0.315   3.502   8.382  1.0120  0.5568  0.9726
 4651SOL     OW25411   4.058   2.771   0.384  0.3477  0.0554  0.9270
 4651SOL    HW125412   4.032   2.849   0.335  0.4384  0.6236  1.7688
 4651SOL    HW225413   4.001   2.778   0.460  0.4856 -0.8837  1.1164
 4652SOL     OW25414   2.815   2.983   6.579 -0.0516 -0.4237 -0.2330
 4652SOL    HW125415   2.898   2.968   6.534  0.1825  2.4376 -0.7360
 4652SOL    HW225416   2.754   2.950   6.513 -0.3420  1.5882 -0.9696
 4653SOL     OW25417   2.591   4.177   9.087  0.2017 -0.2790  0.1791
 4653SOL    HW125418   2.541   4.249   9.048  1.9207  1.1956  0.7003
 4653SOL    HW225419   2.569   4.184   9.180  2.0211  2.5705  0.3881
 4654SOL     OW25420   1.742   0.507   9.323 -0.4344  0.2478  0.4321
 4654SOL    HW125421   1.761   0.576   9.386 -1.3035 -1.6121  2.7184
 4654SOL    HW225422   1.830   0.491   9.290 -1.1312  0.5143 -1.5540
 4655SOL     OW25423   4.363   3.148   4.900  0.8455 -0.7009 -0.3612
 4655SOL    HW125424   4.316   3.082   4.950  0.7154 -1.3519 -1.3415
 4655SOL    HW225425   4.354   3.224   4.958  0.6271 -0.4237 -0.7578
 4656SOL     OW25426   1.472   1.875   7.949 -0.0434 -0.1184 -0.6418
 4656SOL    HW125427   1.396   1.818   7.939 -0.8302  0.8711 -0.3524
 4656SOL    HW225428   1.450   1.960   7.910 -0.3691 -0.5164 -1.3364
 4657SOL     OW25429   0.182   2.785  13.741  0.0260 -0.4452  0.1940
 4657SOL    HW125430   0.261   2.760  13.789 -1.1680 -1.5633  1.6038
 4657SOL    HW225431   0.126   2.799  13.818 -0.8839 -1.7981 -0.2135
 4658SOL     OW25432   4.298   2.875   4.299  0.1764 -0.0504 -0.1011
 4658SOL    HW125433   4.203   2.871   4.284 -0.4259  1.7779  3.2868
 4658SOL    HW225434   4.297   2.945   4.365 -2.8454  1.2097 -1.4893
 4659SOL     OW25435   1.713   2.175  10.279 -0.8118  0.7162  0.3803
 4659SOL    HW125436   1.761   2.138  10.205 -2.2244 -1.1999  0.4202
 4659SOL    HW225437   1.623   2.181  10.245 -0.8340  2.2165  0.6884
 4660SOL     OW25438   3.669   1.991   8.910  0.1517 -0.1953  0.3778
 4660SOL    HW125439   3.595   1.976   8.970  0.5553 -0.4830  0.8060
 4660SOL    HW225440   3.713   1.906   8.915  0.7167  0.0717 -0.1901
 4661SOL     OW25441   1.115   4.603  16.651 -0.3416 -0.0985 -0.0504
 4661SOL    HW125442   1.038   4.546  16.645 -1.0602  0.9385 -0.7130
 4661SOL    HW225443   1.144   4.613  16.560  2.0571 -0.8452  0.6377
 4662SOL     OW25444   4.542   3.372   4.555  1.2059 -0.0940 -0.3638
 4662SOL    HW125445   4.597   3.383   4.633 -1.1057  2.6630  0.8718
 4662SOL    HW225446   4.605   3.317   4.508 -0.5724 -1.8205 -0.7300
 4663SOL     OW25447   0.550   1.005  14.996  0.1525  0.1543  0.4260
 4663SOL    HW125448   0.537   0.965  14.911  1.4109  0.8312 -0.0848
 4663SOL    HW225449   0.595   1.084  14.965 -0.0191 -1.0223 -2.8112
 4664SOL     OW25450   2.790   2.165   7.023  0.4072  0.1809  0.3853
 4664SOL    HW125451   2.844   2.238   7.052 -1.8227  1.7533  0.5548
 4664SOL    HW225452   2.861   2.102   7.034  0.0640 -0.0141  1.4870
 4665SOL     OW25453   0.080   2.340   4.737 -0.2679  0.5979  0.4888
 4665SOL    HW125454   0.084   2.429   4.704 -1.1541 -0.4273 -2.3327
 4665SOL    HW225455   0.081   2.348   4.833 -1.2008  2.0676  0.3594
 4666SOL     OW25456   0.786   1.828   9.801  0.0210 -0.6563  0.1351
 4666SOL    HW125457   0.874   1.817   9.837  0.5068  1.0482 -0.5304
 4666SOL    HW225458   0.800   1.814   9.707 -0.5903 -1.1519  0.1205
 4667SOL     OW25459   3.940   0.735   3.719 -0.2747 -0.0879  0.2700
 4667SOL    HW125460   3.868   0.795   3.741  0.8747  0.3372  2.9347
 4667SOL    HW225461   4.005   0.758   3.785 -1.1304  2.9418  0.0390
 4668SOL     OW25462   0.268   2.678  11.643 -0.3107 -0.1924 -0.2989
 4668SOL    HW125463   0.214   2.702  11.718  0.1892 -0.0255  0.0074
 4668SOL    HW225464   0.197   2.644  11.589 -1.3300  1.6952 -0.1477
 4669SOL     OW25465   3.356   4.559   5.055  0.0374 -0.2805 -0.1143
 4669SOL    HW125466   3.411   4.621   5.103 -0.8828  0.0390  0.5063
 4669SOL    HW225467   3.283   4.548   5.116 -0.9681 -2.2234 -1.6686
 4670SOL     OW25468   4.667   3.952   4.516  0.2259  0.2181  0.3035
 4670SOL    HW125469   0.031   3.991   4.522  0.9405 -1.3053 -0.3483
 4670SOL    HW225470   4.608   4.026   4.500  1.1710  1.0843  0.8269
 4671SOL     OW25471   2.025   1.361   2.581  0.7103  0.2284 -0.0793
 4671SOL    HW125472   2.042   1.439   2.635 -0.7861  0.1080  0.5699
 4671SOL    HW225473   1.995   1.302   2.650  0.1868 -0.2810 -0.7408
 4672SOL     OW25474   1.098   0.064   5.328 -0.3660 -0.2595 -0.1391
 4672SOL    HW125475   1.131   0.041   5.415 -1.7114 -0.2058  0.3850
 4672SOL    HW225476   1.176   0.110   5.297 -1.0298  0.4016 -0.8281
 4673SOL     OW25477   3.023   0.210  11.720  0.3284  0.5377  0.6585
 4673SOL    HW125478   3.015   0.305  11.719 -1.2344  0.3972  0.0281
 4673SOL    HW225479   3.110   0.207  11.680  1.2893 -0.4784  2.8045
 4674SOL     OW25480   4.461   0.290   3.632  0.1767 -0.0546  0.7168
 4674SOL    HW125481   4.481   0.255   3.719  2.7462 -0.6072 -0.1082
 4674SOL    HW225482   4.427   0.206   3.603 -0.5210 -0.6367  3.2127
 4675SOL     OW25483   4.577   2.199   5.997 -0.3296 -0.1127 -0.2985
 4675SOL    HW125484   4.636   2.124   5.997 -0.0283  0.1304  0.3165
 4675SOL    HW225485   4.640   2.268   5.979  0.1637 -0.1503  1.3063
 4676SOL     OW25486   0.057   1.049   9.908  0.6579 -0.2181  0.0889
 4676SOL    HW125487   0.032   1.076   9.996  2.1666  0.4421  0.3204
 4676SOL    HW225488   4.704   1.084   9.863  0.9791  2.2592  1.4683
 4677SOL     OW25489   0.849   0.354   5.836  0.1932  0.5432 -0.4627
 4677SOL    HW125490   0.799   0.435   5.849  2.2346  1.7366 -0.0980
 4677SOL    HW225491   0.789   0.282   5.858  0.4747  0.4239 -0.0776
 4678SOL     OW25492   0.713   3.928   7.507  0.4730 -0.0017  0.1527
 4678SOL    HW125493   0.748   3.994   7.447 -1.7383  1.1314  0.1325
 4678SOL    HW225494   0.681   3.862   7.444  0.0826 -2.5446  2.9930
 4679SOL     OW25495   2.858   3.854   5.775 -0.1628 -0.8343  0.2358
 4679SOL    HW125496   2.886   3.945   5.776 -0.2579 -0.7728 -1.6918
 4679SOL    HW225497   2.915   3.843   5.698  1.3352  1.0793  1.0641
 4680SOL     OW25498   1.855   4.424   3.485 -0.2388 -0.2028 -0.5870
 4680SOL    HW125499   1.885   4.394   3.399 -1.3543  1.4099 -1.5322
 4680SOL    HW225500   1.835   4.514   3.461 -1.7416 -0.4046 -0.1422
 4681SOL     OW25501   3.916   2.205   3.851  0.0454  0.2077  0.1465
 4681SOL    HW125502   3.830   2.186   3.812 -0.0994 -1.5177  1.3035
 4681SOL    HW225503   3.981   2.154   3.803  1.1663 -0.4318  2.3478
 4682SOL     OW25504   1.197   1.983   1.542  0.1779 -0.5587  0.5274
 4682SOL    HW125505   1.221   1.920   1.474  3.0423 -0.3016  1.2867
 4682SOL    HW225506   1.187   2.064   1.492 -0.0495 -0.4819  0.6995
 4683SOL     OW25507   3.072   0.232  10.764 -0.6908 -0.0969 -0.9207
 4683SOL    HW125508   3.155   0.279  10.759 -1.9687  2.2112 -0.4644
 4683SOL    HW225509   3.010   0.301  10.787  0.6410  1.1390 -1.0360
 4684SOL     OW25510   2.562   0.430   1.663 -0.0521  0.3207 -1.0704
 4684SOL    HW125511   2.595   0.405   1.576  0.9345  0.7857 -0.8271
 4684SOL    HW225512   2.561   0.347   1.710  0.1926  0.5406 -0.6840
 4685SOL     OW25513   3.306   1.715   4.815  0.4136  0.4960  0.2175
 4685SOL    HW125514   3.314   1.699   4.721  1.5132 -1.6249  0.6691
 4685SOL    HW225515   3.397   1.712   4.843  0.2863  0.5353  0.6381
 4686SOL     OW25516   4.419   3.164  16.768 -0.2579  0.4952 -0.8480
 4686SOL    HW125517   4.435   3.075  16.797  1.2695  0.5955 -1.3870
 4686SOL    HW225518   4.437   3.215  16.847 -0.1117  0.9883 -1.1960
 4687SOL     OW25519   0.734   3.148  15.764  0.7304  0.6153 -0.5226
 4687SOL    HW125520   0.682   3.141  15.684  0.1218  2.4759 -0.2879
 4687SOL    HW225521   0.659   3.116  15.815  1.3080 -0.1327 -0.1401
 4688SOL     OW25522   1.827   2.291   1.888 -0.6551  0.3546  0.7762
 4688SOL    HW125523   1.816   2.322   1.798 -1.0550 -0.4310  0.5575
 4688SOL    HW225524   1.778   2.209   1.894 -1.1148  0.6535  1.0893
 4689SOL     OW25525   2.686   2.905   1.117  0.2034 -0.7501  0.3696
 4689SOL    HW125526   2.743   2.966   1.070  0.0308 -1.5529 -0.9001
 4689SOL    HW225527   2.700   2.930   1.208  0.9526  0.7629 -0.1605
 4690SOL     OW25528   3.435   4.143  13.458  0.0117 -0.7638  0.0756
 4690SOL    HW125529   3.453   4.228  13.498  0.3750 -1.5462  1.5422
 4690SOL    HW225530   3.471   4.084  13.523  1.1967 -2.8407 -2.4555
 4691SOL     OW25531   0.633   2.114  17.682  0.3505  0.6824  0.4317
 4691SOL    HW125532   0.680   2.082  17.605  0.0578 -1.6222  1.2083
 4691SOL    HW225533   0.576   2.184  17.649 -2.1225 -1.9299 -0.7788
 4692SOL     OW25534   0.791   3.444   2.091  0.1523  0.3734  0.2108
 4692SOL    HW125535   0.880   3.453   2.126  0.8714 -0.0369 -1.5472
 4692SOL    HW225536   0.748   3.511   2.145  2.0177  1.4711  0.3448
 4693SOL     OW25537   4.442   3.432   8.558 -0.0308  0.3174 -0.1833
 4693SOL    HW125538   4.370   3.495   8.558  1.9716  2.5911 -1.5121
 4693SOL    HW225539   4.503   3.478   8.616  1.1167 -3.4308  1.6242
 4694SOL     OW25540   3.997   2.316  15.020 -0.3828  0.2574 -0.0669
 4694SOL    HW125541   4.083   2.310  15.062  0.1834  3.9675 -0.7054
 4694SOL    HW225542   4.006   2.396  14.969 -3.5265  0.8310  0.2962
 4695SOL     OW25543   1.126   3.094   6.230  0.0924 -0.0103 -0.4790
 4695SOL    HW125544   1.147   3.187   6.230  1.3185 -0.2893  1.5083
 4695SOL    HW225545   1.049   3.093   6.173  0.2484  0.7639 -0.7008
 4696SOL     OW25546   3.047   3.737  15.855  0.0811 -0.5807 -0.3983
 4696SOL    HW125547   3.067   3.774  15.769  0.5001 -0.5261 -0.2781
 4696SOL    HW225548   3.007   3.811  15.900 -0.4396  0.3815 -2.4374
 4697SOL     OW25549   1.143   2.941  13.934 -0.6132 -0.3802  0.6285
 4697SOL    HW125550   1.224   2.934  13.984 -0.8890  1.1184  1.2970
 4697SOL    HW225551   1.084   2.921  14.007 -0.2413 -0.8004  0.8107
 4698SOL     OW25552   2.764   4.506   8.804 -0.1288 -0.1252 -0.3076
 4698SOL    HW125553   2.675   4.532   8.829  0.3338 -0.2641  1.4221
 4698SOL    HW225554   2.788   4.459   8.883 -0.0209  3.2058  1.6416
 4699SOL     OW25555   0.666   0.098  14.437  1.0183  0.1676  0.3156
 4699SOL    HW125556   0.606   0.043  14.387  1.7413  0.1651 -0.5489
 4699SOL    HW225557   0.650   0.068  14.526  0.3511  0.1326  0.1815
 4700SOL     OW25558   3.537   0.588  12.112 -0.0389 -0.2398 -0.0070
 4700SOL    HW125559   3.559   0.567  12.021 -1.8155 -1.2070 -0.2060
 4700SOL    HW225560   3.463   0.649  12.106 -0.7336 -1.1462 -0.5807
 4701SOL     OW25561   3.865   4.038   7.924 -0.1456  0.0845 -0.6125
 4701SOL    HW125562   3.786   4.007   7.967  0.1354  2.4227  1.5241
 4701SOL    HW225563   3.898   3.960   7.878 -0.4156  0.0239 -0.7067
 4702SOL     OW25564   4.673   1.812  16.725 -0.0556  0.2732  0.2615
 4702SOL    HW125565   0.044   1.812  16.740 -0.0141 -0.1795 -0.0270
 4702SOL    HW225566   4.662   1.828  16.632 -0.4028 -0.5591  0.1655
 4703SOL     OW25567   1.849   2.642   4.643 -0.4227 -0.1588 -0.0738
 4703SOL    HW125568   1.790   2.714   4.621  0.4596  0.2320 -1.1260
 4703SOL    HW225569   1.804   2.584   4.581  1.3401 -1.2670 -0.3267
 4704SOL     OW25570   0.768   0.760   5.540  0.0143  0.1301 -0.4042
 4704SOL    HW125571   0.782   0.809   5.621  0.4615  1.3277 -1.2079
 4704SOL    HW225572   0.687   0.714   5.560 -0.8417  3.0777  2.9399
 4705SOL     OW25573   3.297   2.136   2.834 -0.2455 -0.1062 -0.3584
 4705SOL    HW125574   3.375   2.087   2.861 -0.1507  0.2102 -0.0663
 4705SOL    HW225575   3.309   2.221   2.875 -0.0693 -0.9252  1.2833
 4706SOL     OW25576   3.565   1.488   3.177 -0.0531 -0.1533  0.4938
 4706SOL    HW125577   3.566   1.547   3.102  0.6940 -1.9257 -0.8942
 4706SOL    HW225578   3.640   1.520   3.227 -0.0982  0.1484  0.3699
 4707SOL     OW25579   4.332   0.997   4.526 -0.1886  0.1659  0.0443
 4707SOL    HW125580   4.420   1.032   4.512 -0.3761  0.9424  0.7982
 4707SOL    HW225581   4.270   1.057   4.483  0.4953  0.0320 -1.1286
 4708SOL     OW25582   0.833   0.537  13.353  0.2659  0.2551  0.3252
 4708SOL    HW125583   0.871   0.589  13.424 -1.2408 -1.1525  2.1732
 4708SOL    HW225584   0.750   0.528  13.400 -0.0440 -0.3141 -0.3227
 4709SOL     OW25585   1.115   1.838  15.012  0.4052  0.5241  0.0655
 4709SOL    HW125586   1.184   1.821  15.076 -0.6167  0.0377  1.0576
 4709SOL    HW225587   1.105   1.751  14.974 -0.7784  0.4542  0.5382
 4710SOL     OW25588   3.055   1.069   1.590 -0.4092  0.4988 -0.5589
 4710SOL    HW125589   2.961   1.051   1.591 -0.9036  3.1738  0.8938
 4710SOL    HW225590   3.070   1.160   1.563 -0.8364  1.7828  3.5286
 4711SOL     OW25591   4.366   0.528   2.536 -0.0186  0.5820  0.5724
 4711SOL    HW125592   4.413   0.463   2.590 -1.4695 -0.6050  0.4045
 4711SOL    HW225593   4.410   0.606   2.569  1.2058 -0.6477  1.9016
 4712SOL     OW25594   1.831   0.969  10.940 -0.4497  0.2100 -0.0330
 4712SOL    HW125595   1.809   0.889  10.987 -1.6050  1.4711  1.6084
 4712SOL    HW225596   1.801   1.031  11.007 -0.0737  0.2526  0.0967
 4713SOL     OW25597   3.663   3.096   3.021 -0.2362 -0.2190 -0.1780
 4713SOL    HW125598   3.611   3.041   2.963 -2.2425  1.5323 -0.0503
 4713SOL    HW225599   3.586   3.147   3.046 -0.9068 -0.7540 -1.1713
 4714SOL     OW25600   1.116   0.367  15.789 -0.5123  0.3251 -0.2042
 4714SOL    HW125601   1.116   0.273  15.773 -0.2168  0.6601 -2.2428
 4714SOL    HW225602   1.206   0.377  15.820 -0.3163  0.6555 -0.8630
 4715SOL     OW25603   3.389   0.714   0.711 -0.2035  0.1301 -0.1189
 4715SOL    HW125604   3.340   0.705   0.793 -1.2426 -0.1710 -0.7751
 4715SOL    HW225605   3.364   0.804   0.686  1.1554  0.7975  0.9341
 4716SOL     OW25606   2.628   2.126   1.360  0.4152  0.2776 -0.3821
 4716SOL    HW125607   2.622   2.058   1.293 -0.2665 -2.2853  2.2729
 4716SOL    HW225608   2.698   2.188   1.340  1.3943  0.7827  4.6330
 4717SOL     OW25609   2.005   4.208   6.043 -0.2148  0.0950  0.1398
 4717SOL    HW125610   1.924   4.222   6.091 -0.1849 -0.7965  0.4406
 4717SOL    HW225611   2.048   4.293   6.054  0.6631 -0.2709 -0.4285
 4718SOL     OW25612   4.414   1.354   2.896  0.2098 -0.0393  0.2235
 4718SOL    HW125613   4.469   1.387   2.967  0.7774  1.2550 -0.8428
 4718SOL    HW225614   4.454   1.395   2.819  0.1978  0.3741  0.4382
 4719SOL     OW25615   1.080   0.319  13.877 -0.1404  0.5219  0.0508
 4719SOL    HW125616   1.132   0.249  13.838  0.5911  0.8326  0.4538
 4719SOL    HW225617   1.082   0.382  13.805  1.7489  1.0761  0.5645
 4720SOL     OW25618   3.630   3.686   6.411  0.1992 -0.4332 -0.0096
 4720SOL    HW125619   3.633   3.769   6.460 -1.7854  0.6808 -1.7734
 4720SOL    HW225620   3.606   3.620   6.476  2.5014 -0.0389  1.2262
 4721SOL     OW25621   3.611   1.164   0.423  0.4817 -0.2090  0.4455
 4721SOL    HW125622   3.703   1.187   0.436  0.7691 -1.3570  0.4052
 4721SOL    HW225623   3.612   1.124   0.510  1.1391 -0.3995  0.3524
 4722SOL     OW25624   1.418   2.213   5.505  0.0367 -0.2664 -0.2304
 4722SOL    HW125625   1.352   2.282   5.510 -0.2852 -0.6492  0.7462
 4722SOL    HW225626   1.407   2.173   5.591  1.3749 -0.2242 -0.0373
 4723SOL     OW25627   3.699   4.149  14.821 -0.2425 -0.7048  0.0876
 4723SOL    HW125628   3.613   4.184  14.797  0.2786 -0.7201 -1.7692
 4723SOL    HW225629   3.712   4.072  14.765  2.2527 -1.8738  2.2734
 4724SOL     OW25630   2.663   3.110   8.438  0.2864 -0.1724  0.2749
 4724SOL    HW125631   2.680   3.037   8.378 -1.2774  0.7319 -1.2670
 4724SOL    HW225632   2.702   3.170   8.374  1.0512 -0.8499  0.1005
 4725SOL     OW25633   3.896   3.476  12.379 -0.2367 -0.2683 -0.3234
 4725SOL    HW125634   3.857   3.462  12.465 -1.4510 -0.5063 -0.9155
 4725SOL    HW225635   3.964   3.542  12.393 -1.1401  0.4727  0.5775
 4726SOL     OW25636   3.823   0.297   2.312 -0.2548 -0.0760  0.0198
 4726SOL    HW125637   3.864   0.381   2.292  1.2230 -0.9347 -0.5308
 4726SOL    HW225638   3.900   0.241   2.321 -0.7667 -0.9240 -0.8524
 4727SOL     OW25639   3.905   3.939   6.254  0.4013 -0.3054  0.0924
 4727SOL    HW125640   3.826   3.887   6.267  0.6961 -0.7821 -0.0379
 4727SOL    HW225641   3.893   3.973   6.165 -0.3490 -0.1702  0.2475
 4728SOL     OW25642   3.355   3.158   6.216  0.0989 -0.2318 -0.1909
 4728SOL    HW125643   3.404   3.239   6.233 -0.4740  0.3554 -1.3479
 4728SOL    HW225644   3.268   3.193   6.202  1.2830  2.9545  0.3209
 4729SOL     OW25645   1.838   3.617   4.862  0.4222  0.2322 -0.0213
 4729SOL    HW125646   1.748   3.613   4.893  1.0740  1.4932  2.0598
 4729SOL    HW225647   1.866   3.526   4.872 -0.5240  0.0239  0.6377
 4730SOL     OW25648   3.892   4.065   8.557  0.4694 -0.3728 -0.3939
 4730SOL    HW125649   3.823   4.006   8.527 -0.2400  0.1291  0.2316
 4730SOL    HW225650   3.880   4.152   8.517  0.2895  0.7146  2.0245
 4731SOL     OW25651   2.107   0.708   7.135  0.4513 -0.5526  0.0863
 4731SOL    HW125652   2.171   0.721   7.205 -0.2858  0.2067  0.6250
 4731SOL    HW225653   2.134   0.625   7.095  2.2036 -0.2102  0.5270
 4732SOL     OW25654   4.484   3.561  10.431 -0.2633 -0.4576 -0.7403
 4732SOL    HW125655   4.523   3.475  10.450 -1.7623 -0.8413  0.6281
 4732SOL    HW225656   4.419   3.564  10.501  0.5410  1.3101 -0.0748
 4733SOL     OW25657   1.522   2.918   4.152 -0.1027  0.3168 -0.2733
 4733SOL    HW125658   1.589   2.880   4.094  0.4547  0.1608  0.4722
 4733SOL    HW225659   1.445   2.866   4.129 -0.5381 -0.1080  2.1843
 4734SOL     OW25660   1.684   3.208   2.880  0.6634 -0.1297 -0.2939
 4734SOL    HW125661   1.635   3.189   2.960 -0.5298  0.1072 -0.9815
 4734SOL    HW225662   1.658   3.137   2.822  1.6241  0.3187 -1.2860
 4735SOL     OW25663   3.949   4.044   9.452 -0.0718 -0.4291 -0.3404
 4735SOL    HW125664   4.004   4.119   9.474  1.8608 -1.9704  0.0671
 4735SOL    HW225665   4.015   3.977   9.438  1.4110  0.4963  2.2229
 4736SOL     OW25666   2.988   3.944   4.892  0.1409 -0.4169 -0.4369
 4736SOL    HW125667   2.972   3.985   4.977  2.4050  1.1053 -0.7657
 4736SOL    HW225668   3.033   4.008   4.836 -0.3366 -2.1922 -2.8621
 4737SOL     OW25669   2.022   1.045  17.689 -0.6233  0.6674  0.0283
 4737SOL    HW125670   2.023   0.949  17.693 -2.4777  0.7708  2.7852
 4737SOL    HW225671   1.994   1.069   0.080  1.4953 -0.5094  1.0251
 4738SOL     OW25672   2.320   0.311   7.590  0.0270  0.1389 -0.0679
 4738SOL    HW125673   2.242   0.364   7.573 -0.3745 -0.9112 -1.5327
 4738SOL    HW225674   2.381   0.377   7.623  0.8255 -0.0400 -1.1712
 4739SOL     OW25675   4.194   1.444   2.656 -0.0473 -0.5027  0.3423
 4739SOL    HW125676   4.186   1.511   2.724  0.9944  0.7973 -0.8182
 4739SOL    HW225677   4.118   1.389   2.676 -2.2052  1.8616 -1.3086
 4740SOL     OW25678   3.696   3.451   5.214  0.4457  0.0866 -0.2125
 4740SOL    HW125679   3.640   3.492   5.148 -0.5726 -0.3517  0.3764
 4740SOL    HW225680   3.652   3.374   5.249 -0.0180  0.9655  1.1601
 4741SOL     OW25681   4.376   1.314  12.539  0.0853  0.7128 -0.1904
 4741SOL    HW125682   4.297   1.303  12.591  0.4012 -0.2071  0.0944
 4741SOL    HW225683   4.380   1.410  12.547  2.4533  0.5590  0.5663
 4742SOL     OW25684   2.599   1.957   7.929 -0.0831 -0.0805  0.1457
 4742SOL    HW125685   2.538   1.964   8.003 -0.4867 -0.7229 -0.1324
 4742SOL    HW225686   2.678   1.992   7.971  0.1855  0.5338 -0.8755
 4743SOL     OW25687   3.584   0.148  15.633 -0.0137  0.4672  0.6137
 4743SOL    HW125688   3.601   0.146  15.727 -0.5919  1.8015  0.7459
 4743SOL    HW225689   3.609   0.235  15.600 -0.5250  0.3215 -0.1732
 4744SOL     OW25690   2.572   2.292   8.893 -0.9060 -0.0345  0.4264
 4744SOL    HW125691   2.499   2.321   8.947  0.0211  0.5510  1.3536
 4744SOL    HW225692   2.562   2.359   8.825  0.1637 -0.2444  0.0448
 4745SOL     OW25693   4.217   2.690  13.216 -0.3282  0.6001  0.0796
 4745SOL    HW125694   4.285   2.622  13.213 -1.5447 -0.5799 -0.8625
 4745SOL    HW225695   4.149   2.642  13.264 -0.1469 -0.6271 -0.9052
 4746SOL     OW25696   1.556   0.967   3.027  0.1940 -0.0792  0.0627
 4746SOL    HW125697   1.650   0.985   3.015  0.1803  1.2307  1.7348
 4746SOL    HW225698   1.550   0.878   2.995  0.6992 -0.6581  1.5588
 4747SOL     OW25699   0.260   3.313   7.424 -0.3070  0.8008 -0.4827
 4747SOL    HW125700   0.194   3.264   7.375  1.3958  0.4628 -2.4752
 4747SOL    HW225701   0.258   3.404   7.394  1.5667  0.6080 -1.2036
 4748SOL     OW25702   0.137   4.070   5.675  0.0993 -0.7806  0.3526
 4748SOL    HW125703   0.119   4.079   5.769 -0.3025 -0.7841  0.2759
 4748SOL    HW225704   0.148   3.975   5.672 -0.4467 -0.8982  1.8736
 4749SOL     OW25705   4.594   1.159   3.573 -0.6203  0.4742  0.7168
 4749SOL    HW125706   4.642   1.084   3.608  2.1729  1.6763 -0.5480
 4749SOL    HW225707   4.568   1.132   3.485 -2.0081 -0.1318  1.3192
 4750SOL     OW25708   2.092   2.400  15.247  0.3964 -0.3478 -0.0210
 4750SOL    HW125709   2.161   2.347  15.286  1.1995 -1.2469 -2.6300
 4750SOL    HW225710   2.027   2.417  15.314  0.3531  1.2422 -0.4831
 4751SOL     OW25711   3.666   1.052   8.337 -0.0063  0.4193  0.0119
 4751SOL    HW125712   3.746   1.087   8.378  0.2735 -0.3105  0.0856
 4751SOL    HW225713   3.657   0.978   8.397  1.9467  1.3507  1.4615
 4752SOL     OW25714   4.416   1.525   8.313  0.0889 -0.0472  0.7673
 4752SOL    HW125715   4.498   1.575   8.311  0.2623 -0.3852 -1.6640
 4752SOL    HW225716   4.371   1.579   8.378 -3.1901 -3.4012  1.2329
 4753SOL     OW25717   4.656   1.995   8.023  0.1806  0.2466  0.4872
 4753SOL    HW125718   4.710   1.917   8.034  1.2200  0.7645 -0.8212
 4753SOL    HW225719   0.005   2.057   8.033  0.4799  0.4822 -2.8915
 4754SOL     OW25720   3.182   3.558   1.385 -0.4377 -0.0876 -0.0797
 4754SOL    HW125721   3.182   3.623   1.456  2.7522  0.6112 -0.7339
 4754SOL    HW225722   3.172   3.609   1.305  1.4719  1.9068  0.9784
 4755SOL     OW25723   4.299   4.595  10.186  0.0487 -0.1309  0.4984
 4755SOL    HW125724   4.264   4.514  10.148  1.1681 -0.7442  0.7742
 4755SOL    HW225725   4.341   4.639  10.112  0.5721 -1.7415 -0.1672
 4756SOL     OW25726   2.317   1.932   5.684  0.2122 -0.1056 -0.0519
 4756SOL    HW125727   2.277   1.985   5.616  2.6427  2.4398  0.5209
 4756SOL    HW225728   2.350   1.859   5.632  0.7880 -0.6358  1.0575
 4757SOL     OW25729   1.350   4.172  11.792  0.0453 -0.2287 -0.2322
 4757SOL    HW125730   1.331   4.129  11.875 -0.5647 -0.7381 -0.6373
 4757SOL    HW225731   1.436   4.137  11.770 -0.5533 -0.5937 -1.9585
 4758SOL     OW25732   3.439   2.583   8.981 -0.5505  0.2328  0.2736
 4758SOL    HW125733   3.443   2.551   9.071  0.7059  1.7963  0.7682
 4758SOL    HW225734   3.421   2.502   8.934 -1.5233 -1.3163  3.3417
 4759SOL     OW25735   1.077   3.904  14.775 -0.3042  0.4915 -0.1400
 4759SOL    HW125736   1.143   3.910  14.706  1.4905 -1.6770  1.3600
 4759SOL    HW225737   1.124   3.854  14.842 -0.8186 -0.7935 -0.7232
 4760SOL     OW25738   2.795   2.011   9.278  0.3048  0.3119  0.1078
 4760SOL    HW125739   2.713   2.008   9.229  0.0348 -1.6826  0.6781
 4760SOL    HW225740   2.775   2.080   9.341 -2.5324 -0.4271  0.0288
 4761SOL     OW25741   1.804   1.301  15.023 -0.1688 -0.4386 -0.3974
 4761SOL    HW125742   1.726   1.350  14.997 -0.2874 -0.6215 -0.3905
 4761SOL    HW225743   1.772   1.211  15.029  1.8800 -0.9862  2.4828
 4762SOL     OW25744   2.528   4.015   5.925  0.2350 -0.5011 -0.4169
 4762SOL    HW125745   2.519   3.947   5.858 -2.3569  1.7460 -2.3365
 4762SOL    HW225746   2.450   4.071   5.922  1.1291  0.6862 -1.3211
 4763SOL     OW25747   3.329   1.734   4.542 -0.1828  0.7825 -0.3987
 4763SOL    HW125748   3.410   1.718   4.494 -0.6005 -1.7788 -0.2258
 4763SOL    HW225749   3.272   1.751   4.467  1.9322  0.6073 -2.0345
 4764SOL     OW25750   2.595   3.854   3.653 -0.4283 -0.6636 -0.3489
 4764SOL    HW125751   2.682   3.884   3.680 -1.5855  0.2334  2.4049
 4764SOL    HW225752   2.541   3.889   3.724  1.3903  0.9125  0.2665
 4765SOL     OW25753   3.942   1.589  13.040 -0.0408  0.2991 -0.0131
 4765SOL    HW125754   3.886   1.511  13.035 -0.1043  0.3609 -0.2424
 4765SOL    HW225755   4.028   1.551  13.021 -0.1023 -0.3319  0.9555
 4766SOL     OW25756   4.327   0.965  10.514 -0.0689  0.0499  0.2984
 4766SOL    HW125757   4.362   0.925  10.434  0.1322  1.0958 -0.1518
 4766SOL    HW225758   4.257   0.904  10.535  0.9438 -0.7137  1.4104
 4767SOL     OW25759   4.266   3.245   9.430 -0.7833  0.5398 -0.2644
 4767SOL    HW125760   4.285   3.194   9.509 -2.2525 -2.2638 -1.7342
 4767SOL    HW225761   4.307   3.321   9.472 -0.0625 -0.8694  1.6444
 4768SOL     OW25762   0.129   0.941   2.309  0.0561 -0.7458  0.7192
 4768SOL    HW125763   0.110   0.955   2.216 -1.3726 -0.1283  1.1034
 4768SOL    HW225764   0.224   0.930   2.304  0.2060 -1.1994  4.2401
 4769SOL     OW25765   3.085   2.428  12.188 -0.5887 -0.5408  0.1292
 4769SOL    HW125766   3.178   2.419  12.209 -0.5085 -4.0165 -1.7088
 4769SOL    HW225767   3.076   2.351  12.132  0.1510  0.0711 -0.8390
 4770SOL     OW25768   4.391   2.105   4.234  0.1056 -0.1303 -0.1068
 4770SOL    HW125769   4.384   2.087   4.328  0.4298  0.9086  0.1140
 4770SOL    HW225770   4.435   2.025   4.204 -2.0566 -1.1479 -0.6163
 4771SOL     OW25771   1.504   0.419   7.589  0.7483 -0.3802 -1.0320
 4771SOL    HW125772   1.595   0.393   7.577  1.2327  0.0681  1.5714
 4771SOL    HW225773   1.529   0.471   7.666  0.9387 -0.6519 -0.9108
 4772SOL     OW25774   1.586   3.651   5.902  1.0747  0.0792 -0.0711
 4772SOL    HW125775   1.581   3.556   5.886  1.4380  0.0717 -0.1390
 4772SOL    HW225776   1.498   3.680   5.880  0.7714 -1.4383 -0.8848
 4773SOL     OW25777   1.646   1.003  13.379  1.1111 -0.2915 -0.1427
 4773SOL    HW125778   1.724   0.967  13.337  1.4742 -0.7471  0.9208
 4773SOL    HW225779   1.595   1.041  13.308  1.2683 -1.5444 -0.9202
 4774SOL     OW25780   4.024   4.605  14.023  0.0561  0.3753 -0.3335
 4774SOL    HW125781   4.008   4.642  14.110  0.4905  1.3898 -0.6825
 4774SOL    HW225782   3.965   4.655  13.967  0.1271  0.3469 -0.4319
 4775SOL     OW25783   2.155   3.927  11.725  0.3737  0.5573  0.3079
 4775SOL    HW125784   2.204   3.909  11.805  0.4947 -0.7809 -0.0656
 4775SOL    HW225785   2.133   4.019  11.740 -3.6571 -0.7597  2.4818
 4776SOL     OW25786   4.528   1.382  11.038 -0.2448 -0.2093  0.2262
 4776SOL    HW125787   4.526   1.474  11.015 -0.7468 -0.5253 -0.9638
 4776SOL    HW225788   4.459   1.372  11.105 -0.4142  0.3870  0.1407
 4777SOL     OW25789   2.386   0.673  12.929  1.0417 -0.2951  0.0537
 4777SOL    HW125790   2.436   0.621  12.992 -1.2696 -1.3829  0.9984
 4777SOL    HW225791   2.438   0.678  12.849  0.8587 -1.1052 -0.1167
 4778SOL     OW25792   4.210   3.977   5.696  0.3493 -0.1597 -0.1067
 4778SOL    HW125793   4.176   3.971   5.606  1.9253  3.0862 -0.9482
 4778SOL    HW225794   4.243   4.067   5.693 -1.4629  0.5267  0.6650
 4779SOL     OW25795   2.557   3.026   2.261 -0.5808 -0.6313 -0.4504
 4779SOL    HW125796   2.547   2.934   2.238  0.0719 -1.2655  1.8286
 4779SOL    HW225797   2.499   3.030   2.338  0.1042  0.1831  0.0233
 4780SOL     OW25798   3.740   1.259   8.007 -0.4573  0.0949  0.6886
 4780SOL    HW125799   3.783   1.324   7.950 -1.4258 -1.3396 -1.6898
 4780SOL    HW225800   3.677   1.312   8.056 -0.5616  0.8564 -0.2520
 4781SOL     OW25801   0.982   0.972   4.018  0.4006  0.2586 -0.1804
 4781SOL    HW125802   0.924   0.999   4.089  1.6663  0.3721  0.8212
 4781SOL    HW225803   0.945   0.887   3.994  1.7644 -0.4253  0.1234
 4782SOL     OW25804   1.317   1.455  15.326 -0.2860  0.3771 -0.5603
 4782SOL    HW125805   1.307   1.459  15.421  2.0722 -0.3245 -0.2758
 4782SOL    HW225806   1.378   1.383  15.314  0.8442  1.4949 -1.4657
 4783SOL     OW25807   4.377   3.280   6.899  0.4549 -0.0704 -0.9480
 4783SOL    HW125808   4.302   3.220   6.909  1.1204 -0.9161 -1.0107
 4783SOL    HW225809   4.349   3.352   6.955 -2.3058 -1.5644 -0.3905
 4784SOL     OW25810   0.718   3.422   5.944  0.2967  0.1707 -0.1438
 4784SOL    HW125811   0.637   3.388   5.906 -0.7175  1.5419  0.7989
 4784SOL    HW225812   0.777   3.394   5.873  0.3580  1.2734 -0.5225
 4785SOL     OW25813   1.504   3.912  13.275  0.0549 -0.0867  0.9142
 4785SOL    HW125814   1.449   3.990  13.263  0.7607  0.0811 -1.3294
 4785SOL    HW225815   1.594   3.941  13.259  0.7688 -2.9135 -0.1762
 4786SOL     OW25816   3.457   2.122   5.136  0.1023 -0.1613 -0.3955
 4786SOL    HW125817   3.499   2.195   5.091  0.0898 -0.7760 -1.4243
 4786SOL    HW225818   3.481   2.143   5.226 -0.8476 -0.5963 -0.0350
 4787SOL     OW25819   2.363   0.041  13.832 -0.2930 -0.2148 -0.3921
 4787SOL    HW125820   2.400   0.064  13.916  1.4924 -2.5936 -0.5402
 4787SOL    HW225821   2.336   0.124  13.793  2.0681 -0.1496 -1.8896
 4788SOL     OW25822   1.313   2.155  16.073  0.4563 -0.1019 -0.0019
 4788SOL    HW125823   1.279   2.238  16.106  2.0715  1.0628 -1.3198
 4788SOL    HW225824   1.311   2.105  16.154  0.5178  1.3304  0.8762
 4789SOL     OW25825   4.537   0.927   5.046  0.0493  0.1558  0.7170
 4789SOL    HW125826   4.547   0.863   4.975 -0.3347  0.2774  0.5509
 4789SOL    HW225827   4.575   0.874   5.116  0.9869  1.3770  1.1188
 4790SOL     OW25828   1.988   0.369  14.982 -0.3366  0.3712 -0.3568
 4790SOL    HW125829   2.080   0.342  14.974 -0.6300 -1.1821  1.4234
 4790SOL    HW225830   1.976   0.322  15.064 -1.7529 -2.3201 -2.1095
 4791SOL     OW25831   0.181   3.299   7.868 -0.1484  0.0097 -0.2343
 4791SOL    HW125832   0.251   3.277   7.806 -1.9637 -0.7747 -1.9950
 4791SOL    HW225833   0.231   3.298   7.949  0.5670  0.6510 -0.6677
 4792SOL     OW25834   4.343   0.891   0.462  0.2334  0.0588  0.2319
 4792SOL    HW125835   4.304   0.886   0.550  1.3234  0.5859  0.7564
 4792SOL    HW225836   4.295   0.820   0.420  1.1984  0.2836 -1.2226
 4793SOL     OW25837   3.964   3.281   8.625 -0.2140 -0.2014  0.3021
 4793SOL    HW125838   3.898   3.346   8.648 -1.0123 -1.1270  0.6227
 4793SOL    HW225839   4.037   3.298   8.685  0.1237  0.0291 -0.1764
 4794SOL     OW25840   0.603   3.372   1.904 -0.1775 -0.6434 -0.5747
 4794SOL    HW125841   0.544   3.413   1.967  0.3831 -1.4903  0.5151
 4794SOL    HW225842   0.685   3.410   1.936 -0.5513 -0.3600  0.0480
 4795SOL     OW25843   1.871   3.088   5.615 -0.3530 -0.3207 -0.1757
 4795SOL    HW125844   1.786   3.069   5.653 -0.3738 -2.0835 -1.1110
 4795SOL    HW225845   1.853   3.159   5.554 -2.3662  1.0195  2.0184
 4796SOL     OW25846   2.416   4.461  12.993 -0.4770  0.6594 -0.0686
 4796SOL    HW125847   2.499   4.508  13.001 -0.7072  1.3818 -1.9142
 4796SOL    HW225848   2.447   4.371  13.002  0.3822  0.9145 -0.5777
 4797SOL     OW25849   2.190   0.917   0.862 -0.0357  0.7523  0.4942
 4797SOL    HW125850   2.237   0.992   0.898  2.9610 -0.9411  0.1379
 4797SOL    HW225851   2.247   0.842   0.881 -0.3423  0.9238  2.0553
 4798SOL     OW25852   4.604   3.093   6.901  0.3855 -0.1671  0.0630
 4798SOL    HW125853   4.603   3.042   6.982 -1.1939 -1.1466 -0.5608
 4798SOL    HW225854   4.510   3.100   6.885  0.4777  0.6804 -0.1238
 4799SOL     OW25855   4.374   4.722   5.335 -0.0843 -0.0781  0.3042
 4799SOL    HW125856   4.433   4.671   5.391 -0.2934 -3.0142 -2.1410
 4799SOL    HW225857   4.397   4.685   5.250  2.0494  1.1533  0.3248
 4800SOL     OW25858   3.746   3.252   2.588 -0.0307  0.3846 -0.0061
 4800SOL    HW125859   3.761   3.264   2.682 -3.6661 -0.0189  0.6290
 4800SOL    HW225860   3.806   3.182   2.564  0.0369  0.9427 -1.4838
 4801SOL     OW25861   2.044   4.417   5.440  0.1789  0.2549 -0.1545
 4801SOL    HW125862   2.128   4.458   5.458  0.7507  0.0999 -2.4817
 4801SOL    HW225863   1.985   4.458   5.504  1.4615  1.6907  0.0957
 4802SOL     OW25864   1.447   1.721  12.048 -0.0060 -0.1522  0.0267
 4802SOL    HW125865   1.465   1.655  11.981 -1.1293 -0.3881 -0.0552
 4802SOL    HW225866   1.504   1.694  12.121  0.0973 -3.6599 -1.3425
 4803SOL     OW25867   2.100   4.522   6.935  0.5318  0.5284 -0.2858
 4803SOL    HW125868   2.193   4.544   6.934  0.9335 -1.0911  1.0674
 4803SOL    HW225869   2.085   4.468   7.012 -1.0658 -0.0779 -1.0203
 4804SOL     OW25870   1.139   0.273  16.899  0.1746  0.1066  0.3452
 4804SOL    HW125871   1.091   0.262  16.817 -1.8601  0.5678  1.4761
 4804SOL    HW225872   1.142   0.182  16.929  1.9199 -0.5953 -1.9648
 4805SOL     OW25873   2.149   3.918  10.080  0.3942 -0.1411  0.3771
 4805SOL    HW125874   2.115   3.838  10.121  2.0968 -0.8373  0.4178
 4805SOL    HW225875   2.236   3.910  10.117  0.1874  1.9597  1.2909
 4806SOL     OW25876   4.291   1.517  13.790 -0.1081  0.4735  0.3625
 4806SOL    HW125877   4.233   1.457  13.838 -0.3041  0.5570  0.2284
 4806SOL    HW225878   4.286   1.601  13.834  2.7355  1.0711 -0.4541
 4807SOL     OW25879   0.913   4.397   8.430 -0.5888 -0.3327  0.1527
 4807SOL    HW125880   0.819   4.414   8.416 -1.0784 -1.3756  2.1734
 4807SOL    HW225881   0.921   4.327   8.366  2.8220  1.9561 -1.9219
 4808SOL     OW25882   3.564   1.429  16.993  0.0143  0.0051  0.2639
 4808SOL    HW125883   3.469   1.423  17.007 -0.2321  0.1243 -1.3714
 4808SOL    HW225884   3.553   1.485  16.916  0.5847  0.5346  0.5627
 4809SOL     OW25885   4.530   1.270   9.386  0.2839 -0.5155  0.1249
 4809SOL    HW125886   4.443   1.240   9.409  0.0818  0.5924  0.8177
 4809SOL    HW225887   4.572   1.235   9.465  0.0585 -2.2333 -0.5111
 4810SOL     OW25888   1.297   3.432   4.699 -0.3985  0.0513  0.4342
 4810SOL    HW125889   1.253   3.517   4.689 -0.0769  0.2644  0.8323
 4810SOL    HW225890   1.216   3.381   4.703 -0.4549  0.0043 -1.5297
 4811SOL     OW25891   4.674   4.376   8.331 -0.1703 -0.5152  0.4808
 4811SOL    HW125892   4.707   4.298   8.377 -1.8381 -1.7160 -0.3701
 4811SOL    HW225893   4.593   4.395   8.377  0.2359  2.4887 -0.0824
 4812SOL     OW25894   2.619   0.678   1.767 -0.9375  0.1996  0.7221
 4812SOL    HW125895   2.587   0.589   1.753 -0.7087  0.2974 -0.3869
 4812SOL    HW225896   2.544   0.737   1.775 -1.2228  0.0456 -0.9075
 4813SOL     OW25897   1.139   1.448   7.006  0.4946  0.3169 -0.2130
 4813SOL    HW125898   1.176   1.485   7.086 -2.5355 -0.7667  1.6971
 4813SOL    HW225899   1.188   1.501   6.944 -0.2392  3.7059  2.1357
 4814SOL     OW25900   4.092   0.909   1.519  0.2370  0.4932  0.1992
 4814SOL    HW125901   4.158   0.967   1.557 -0.8509  2.7991 -1.4131
 4814SOL    HW225902   4.081   0.964   1.441  3.8566  1.7732  0.5734
 4815SOL     OW25903   2.504   1.346  16.829 -0.0968  0.2257  0.1893
 4815SOL    HW125904   2.524   1.253  16.821 -1.1774 -0.0058  0.2013
 4815SOL    HW225905   2.466   1.343  16.917 -2.7737  2.1153 -0.8750
 4816SOL     OW25906   2.088   3.707  10.261  0.2847  0.4031 -0.0223
 4816SOL    HW125907   2.016   3.660  10.219  0.9673 -1.0560  0.4304
 4816SOL    HW225908   2.155   3.639  10.258 -1.1094 -0.9358 -0.6835
 4817SOL     OW25909   1.172   0.340   8.952 -0.1942  1.3358 -0.1559
 4817SOL    HW125910   1.136   0.379   9.032 -1.8915 -0.0012 -0.2888
 4817SOL    HW225911   1.263   0.370   8.951 -0.0012  0.6141 -3.4928
 4818SOL     OW25912   0.356   2.798   7.504 -0.1918  0.1879  0.1609
 4818SOL    HW125913   0.322   2.709   7.496 -0.4531  0.5541 -2.8252
 4818SOL    HW225914   0.449   2.793   7.481 -0.5350 -1.8305 -0.8439
 4819SOL     OW25915   4.688   0.421   6.384 -0.0221 -0.4346 -0.0844
 4819SOL    HW125916   0.043   0.455   6.342 -0.4125 -0.1617 -0.5902
 4819SOL    HW225917   4.659   0.498   6.433  3.1761  0.5892  0.1923
 4820SOL     OW25918   4.682   1.369  10.056  0.2228  0.0380 -0.3013
 4820SOL    HW125919   4.705   1.405   9.971 -2.3592  0.1744 -0.9601
 4820SOL    HW225920   4.595   1.407  10.068 -0.2828 -0.7892 -1.3160
 4821SOL     OW25921   0.761   2.980   3.445 -0.1698  0.1623  0.4675
 4821SOL    HW125922   0.685   2.922   3.439  0.5062 -0.7177  0.3412
 4821SOL    HW225923   0.722   3.066   3.456 -0.3523  0.3263 -1.3980
 4822SOL     OW25924   4.205   0.565   4.402 -0.0937  0.5647  0.2123
 4822SOL    HW125925   4.284   0.511   4.411 -0.3473  0.2595  0.5772
 4822SOL    HW225926   4.253   0.638   4.363 -1.8642  1.0085 -1.1275
 4823SOL     OW25927   4.196   2.901   9.647 -0.6760  0.2864 -0.4091
 4823SOL    HW125928   4.235   2.857   9.722  0.5719  2.4373  0.2264
 4823SOL    HW225929   4.174   2.989   9.677  0.5940  0.5692 -0.3117
 4824SOL     OW25930   2.961   0.503   9.683  0.1470  0.1876  0.8606
 4824SOL    HW125931   2.898   0.562   9.642 -0.1256 -0.5746  0.1980
 4824SOL    HW225932   2.934   0.425   9.636 -0.3757  0.1763  1.1827
 4825SOL     OW25933   4.017   3.001   4.190 -0.1613  0.4955  0.3285
 4825SOL    HW125934   3.941   3.058   4.182  0.8161  2.1284  2.4212
 4825SOL    HW225935   4.088   3.049   4.147  0.0621 -0.2157 -0.1003
 4826SOL     OW25936   0.501   2.339  17.573 -0.4376  0.6564 -0.1124
 4826SOL    HW125937   0.511   2.434  17.576  0.0047  0.6325 -1.0068
 4826SOL    HW225938   0.559   2.324  17.499  1.1686 -2.2475  1.7426
 4827SOL     OW25939   0.854   2.178   2.111 -0.7688  0.4286  0.2944
 4827SOL    HW125940   0.815   2.151   2.028 -0.0899 -0.9625  0.4330
 4827SOL    HW225941   0.881   2.264   2.078 -0.2255  0.0558 -0.2339
 4828SOL     OW25942   2.735   4.224   3.733  0.2352  0.5662  0.3439
 4828SOL    HW125943   2.740   4.138   3.774 -2.5776  1.0050  1.6581
 4828SOL    HW225944   2.746   4.278   3.811 -1.0627  0.4403  0.6251
 4829SOL     OW25945   1.124   1.893  12.466 -0.3275  0.1854 -0.3358
 4829SOL    HW125946   1.133   1.817  12.409 -1.0202  0.6601 -1.0770
 4829SOL    HW225947   1.129   1.855  12.554  0.1187  0.0116 -0.4363
 4830SOL     OW25948   1.527   0.124   3.340  0.1157 -0.1885 -0.0119
 4830SOL    HW125949   1.581   0.188   3.386 -1.7281  0.3029  1.5116
 4830SOL    HW225950   1.515   0.153   3.250 -1.1920  1.1773  0.5891
 4831SOL     OW25951   1.678   0.417  12.770  0.7166  0.3870  0.6185
 4831SOL    HW125952   1.662   0.334  12.725  0.0476  1.4993 -1.2022
 4831SOL    HW225953   1.766   0.436  12.738  0.6504  3.0843  1.9733
 4832SOL     OW25954   1.741   0.521  14.255 -0.1356  0.3705 -0.3842
 4832SOL    HW125955   1.651   0.528  14.222 -0.6344  0.7705  1.0855
 4832SOL    HW225956   1.762   0.462  14.182  0.9614 -0.5369  0.6684
 4833SOL     OW25957   2.497   3.006   4.071 -0.1829 -0.1527 -0.7904
 4833SOL    HW125958   2.431   3.066   4.035 -1.5022 -0.0602  1.8188
 4833SOL    HW225959   2.498   3.046   4.158  0.6901 -1.0090 -0.4176
 4834SOL     OW25960   1.836   1.550   3.844  0.3410 -0.3851 -0.0321
 4834SOL    HW125961   1.842   1.568   3.937  0.2705 -1.4194  0.1795
 4834SOL    HW225962   1.888   1.470   3.841  0.4362 -0.4248  3.1933
 4835SOL     OW25963   3.910   2.882  16.170 -0.0481  0.7357  0.1748
 4835SOL    HW125964   3.923   2.963  16.122  0.6318 -0.7818 -2.1727
 4835SOL    HW225965   3.979   2.895  16.236 -0.1268 -0.5204  0.5016
 4836SOL     OW25966   2.516   4.685   4.028 -0.3792  0.2954 -0.2260
 4836SOL    HW125967   2.563   4.618   4.078 -1.4409 -0.7110 -0.5788
 4836SOL    HW225968   2.592   0.020   4.021 -0.1108 -0.0108  0.1249
 4837SOL     OW25969   1.545   0.692   8.453 -0.2611  0.2129 -0.2497
 4837SOL    HW125970   1.465   0.703   8.505 -1.3375 -0.1164 -1.8351
 4837SOL    HW225971   1.582   0.779   8.470 -0.6169  0.3295 -0.0620
 4838SOL     OW25972   1.802   0.842  10.703 -0.0547  0.2600  0.1463
 4838SOL    HW125973   1.812   0.895  10.782 -0.5163  2.8020 -1.5108
 4838SOL    HW225974   1.784   0.760  10.750  1.8305  0.8110  1.8132
 4839SOL     OW25975   0.809   1.320  15.077 -0.2215 -0.4451 -0.4117
 4839SOL    HW125976   0.747   1.367  15.021  0.2377 -0.3698 -0.8636
 4839SOL    HW225977   0.875   1.388  15.091 -0.1305 -0.8460  1.0509
 4840SOL     OW25978   1.890   0.331   4.114 -0.2246  0.4166  0.3968
 4840SOL    HW125979   1.810   0.333   4.167 -1.1305 -3.6684 -0.8197
 4840SOL    HW225980   1.884   0.411   4.061 -1.6014  1.4151  2.0609
 4841SOL     OW25981   0.784   4.250  16.391  0.2331  0.4198  0.5871
 4841SOL    HW125982   0.744   4.309  16.327 -0.6181 -1.3568 -0.5090
 4841SOL    HW225983   0.857   4.220  16.337  0.5752 -1.6124  2.1568
 4842SOL     OW25984   4.250   4.072  15.301  0.4031  0.4625  0.1879
 4842SOL    HW125985   4.249   4.073  15.397 -0.9960 -2.2117  0.2081
 4842SOL    HW225986   4.333   4.030  15.278 -0.0397 -0.7285  0.7655
 4843SOL     OW25987   0.100   0.471   7.800  0.5082  0.2929 -0.4918
 4843SOL    HW125988   0.185   0.442   7.833  0.0115 -1.3162 -0.6032
 4843SOL    HW225989   0.048   0.510   7.870  0.4527  0.7090 -0.7650
 4844SOL     OW25990   4.083   3.436  10.244 -0.6002  0.1063 -0.2123
 4844SOL    HW125991   4.153   3.496  10.216 -2.6121  2.1576 -0.8070
 4844SOL    HW225992   4.068   3.463  10.334 -1.2086  2.0737 -0.9041
 4845SOL     OW25993   1.423   1.202   7.516  0.1752  0.6032 -0.9528
 4845SOL    HW125994   1.445   1.281   7.467 -1.3624  0.5162 -1.7877
 4845SOL    HW225995   1.383   1.237   7.596 -0.8198 -1.7534 -0.4236
 4846SOL     OW25996   3.585   2.819   2.531  0.3042  0.4814  0.2254
 4846SOL    HW125997   3.665   2.832   2.481  0.8607 -0.1658  0.9494
 4846SOL    HW225998   3.540   2.903   2.522  0.2748  0.4457  0.0476
 4847SOL     OW25999   1.629   2.456  11.201  0.3185 -0.4061  0.4735
 4847SOL    HW126000   1.672   2.371  11.188  2.0852  0.7828 -1.5367
 4847SOL    HW226001   1.684   2.499  11.267  0.9401  3.1940 -2.3855
 4848SOL     OW26002   0.958   0.838   2.827 -0.2288 -0.2272  0.1549
 4848SOL    HW126003   0.941   0.787   2.907  0.5589 -0.4145  0.2103
 4848SOL    HW226004   0.873   0.824   2.787 -0.8275 -0.3721  1.4735
 4849SOL     OW26005   4.358   4.435  16.785 -0.7044 -0.0833 -0.2449
 4849SOL    HW126006   4.437   4.383  16.794 -2.5541 -2.7037  0.7950
 4849SOL    HW226007   4.377   4.511  16.841 -3.1215 -0.8912  1.6935
 4850SOL     OW26008   4.706   0.805   1.988 -0.0956  0.3523  0.2925
 4850SOL    HW126009   4.699   0.900   1.977  0.0721  0.1415 -1.6517
 4850SOL    HW226010   0.055   0.782   1.930 -1.1587  0.2217 -0.9795
 4851SOL     OW26011   3.852   2.244   3.116  0.3260 -0.2954 -0.1868
 4851SOL    HW126012   3.891   2.166   3.076 -1.0631 -1.8528  1.4843
 4851SOL    HW226013   3.814   2.214   3.199 -1.4243  1.5123 -0.3447
 4852SOL     OW26014   3.013   1.231  17.544  0.3402 -0.1913  0.6764
 4852SOL    HW126015   3.047   1.304  17.597 -2.3287  1.2936  0.3063
 4852SOL    HW226016   2.919   1.248  17.551  0.5211 -0.0061  2.9164
 4853SOL     OW26017   3.460   3.907  11.751 -0.3131  0.5082 -0.3468
 4853SOL    HW126018   3.382   3.942  11.793 -0.0598  1.3169 -0.5591
 4853SOL    HW226019   3.496   3.986  11.713 -1.9308  0.8994 -1.0782
 4854SOL     OW26020   4.304   3.153   7.228 -0.4377 -0.2467  0.4869
 4854SOL    HW126021   4.263   3.080   7.182 -0.6142 -0.3962  0.8837
 4854SOL    HW226022   4.309   3.129   7.321  0.1232 -0.0031  0.5207
 4855SOL     OW26023   2.932   0.244   9.566  0.1671  0.3375  0.1925
 4855SOL    HW126024   2.963   0.317   9.512 -0.1091 -0.7336 -1.3990
 4855SOL    HW226025   2.926   0.181   9.495 -4.2806  0.8133  0.1382
 4856SOL     OW26026   4.567   1.113   6.837  0.5552  0.7380  0.8948
 4856SOL    HW126027   4.493   1.169   6.815 -0.5438 -1.8510 -2.0272
 4856SOL    HW226028   4.631   1.177   6.869  2.3251 -0.4800 -0.1908
 4857SOL     OW26029   0.564   3.140  15.240 -0.1456  0.3455 -0.3363
 4857SOL    HW126030   0.476   3.105  15.256  0.5881 -1.7293 -0.8190
 4857SOL    HW226031   0.558   3.162  15.147 -2.9631 -0.4840 -0.3635
 4858SOL     OW26032   0.807   2.361   6.766  0.1318  0.1531 -0.1083
 4858SOL    HW126033   0.892   2.370   6.723 -0.8076 -1.3536 -2.2513
 4858SOL    HW226034   0.817   2.334   6.857 -0.7999 -1.6070 -0.5359
 4859SOL     OW26035   1.542   1.298   7.869  0.0842 -0.1247 -0.2046
 4859SOL    HW126036   1.483   1.222   7.868 -1.2949  0.9580 -1.2313
 4859SOL    HW226037   1.588   1.280   7.787  0.4749 -0.6012  0.1211
 4860SOL     OW26038   4.632   2.058   0.098 -0.2765  0.3821 -0.2639
 4860SOL    HW126039   4.581   1.981   0.072  1.7058 -1.6404  1.8588
 4860SOL    HW226040   4.563   2.093   0.155  0.3975 -1.2005  1.5185
 4861SOL     OW26041   0.674   4.258   3.967  0.5473 -0.0043 -0.6876
 4861SOL    HW126042   0.736   4.206   3.916  0.5055 -0.5197 -0.2093
 4861SOL    HW226043   0.603   4.260   3.903  0.5509  0.9194 -0.6733
 4862SOL     OW26044   3.878   4.312   0.334  0.5522  0.4570 -0.1866
 4862SOL    HW126045   3.808   4.342   0.276  0.1259 -1.5659 -0.7118
 4862SOL    HW226046   3.907   4.235   0.285  2.1291  1.4606 -0.8146
 4863SOL     OW26047   3.019   0.549   5.080 -0.4163 -0.1225 -0.5897
 4863SOL    HW126048   3.057   0.633   5.053 -0.6633  0.6538  1.4398
 4863SOL    HW226049   2.984   0.518   4.997 -0.8365 -1.4753  0.0860
 4864SOL     OW26050   1.588   0.133  13.484 -1.0706 -0.0135 -0.0462
 4864SOL    HW126051   1.674   0.149  13.524 -0.6385  0.8642 -1.3403
 4864SOL    HW226052   1.593   0.169  13.396  1.0356 -0.4902 -0.1219
 4865SOL     OW26053   4.476   4.689   5.712 -0.1400 -0.6065  0.0377
 4865SOL    HW126054   4.552   4.632   5.728  0.5099 -0.1475 -1.4369
 4865SOL    HW226055   4.506   0.017   5.637  1.1879 -3.0727 -1.1334
 4866SOL     OW26056   1.406   4.218   5.603  0.7731 -0.6197 -0.4547
 4866SOL    HW126057   1.411   4.131   5.641 -0.0036 -0.5003 -0.0936
 4866SOL    HW226058   1.332   4.253   5.652 -0.1086  0.0030 -2.2628
 4867SOL     OW26059   3.620   0.509  13.806  0.3855  0.1290 -0.1956
 4867SOL    HW126060   3.575   0.456  13.872 -1.7471 -0.0379 -1.7784
 4867SOL    HW226061   3.615   0.598  13.842 -0.8811  0.0524 -0.1951
 4868SOL     OW26062   4.535   2.680   9.541  0.0738 -0.0006  0.0422
 4868SOL    HW126063   4.509   2.759   9.590 -0.9250  1.5844 -3.0380
 4868SOL    HW226064   4.613   2.660   9.593  0.7100 -0.9754 -1.3121
 4869SOL     OW26065   2.028   3.186   7.508  0.1690  0.6997  0.2713
 4869SOL    HW126066   2.013   3.276   7.479 -1.9193  0.2483 -0.0380
 4869SOL    HW226067   1.949   3.143   7.474  0.7932 -0.6027  0.4479
 4870SOL     OW26068   1.067   2.423  16.623  0.8727 -0.4968  0.5027
 4870SOL    HW126069   1.039   2.369  16.549 -0.6008  1.9744 -0.7596
 4870SOL    HW226070   1.011   2.498  16.602  1.6942 -0.9299 -3.1771
 4871SOL     OW26071   3.600   2.238   4.449  0.5072 -0.1869  0.1867
 4871SOL    HW126072   3.526   2.296   4.430 -1.0695 -1.1736  3.2696
 4871SOL    HW226073   3.572   2.216   4.538  0.6147  2.6765  0.9270
 4872SOL     OW26074   1.526   2.568   8.751  0.0812 -0.0669  0.0494
 4872SOL    HW126075   1.495   2.484   8.717 -0.9135  0.1753  0.3498
 4872SOL    HW226076   1.620   2.560   8.762  0.0326 -1.2681 -0.4441
 4873SOL     OW26077   3.258   3.009   5.223  0.4717  0.2062 -0.2334
 4873SOL    HW126078   3.266   2.917   5.248  2.4756  0.2818 -0.6718
 4873SOL    HW226079   3.312   3.045   5.294  0.2254  0.2584 -0.0700
 4874SOL     OW26080   1.374   2.357  16.929 -0.1242  0.5539  0.1810
 4874SOL    HW126081   1.411   2.378  16.843  1.7886 -0.8611  0.6526
 4874SOL    HW226082   1.406   2.267  16.928 -3.7361 -0.7181 -0.0035
 4875SOL     OW26083   0.065   0.597   2.405 -0.4637 -0.2011 -0.2391
 4875SOL    HW126084   0.137   0.598   2.468 -0.5946 -1.0180 -0.0681
 4875SOL    HW226085   0.112   0.595   2.321  0.1632  2.5333  0.0526
 4876SOL     OW26086   0.757   2.582   7.515 -0.2301  0.4126  0.3572
 4876SOL    HW126087   0.715   2.541   7.439  1.2784  0.3989 -0.4768
 4876SOL    HW226088   0.689   2.645   7.539 -0.0391  0.8825 -0.3208
 4877SOL     OW26089   2.353   4.302  13.437 -1.1289 -0.2783  0.1517
 4877SOL    HW126090   2.322   4.357  13.365 -0.6445  0.3224  0.4011
 4877SOL    HW226091   2.377   4.372  13.497 -2.1651  2.5964 -2.7695
 4878SOL     OW26092   1.590   1.250  13.549 -0.1169 -0.4400 -0.3129
 4878SOL    HW126093   1.576   1.169  13.500  1.7733  0.4746 -2.3667
 4878SOL    HW226094   1.500   1.279  13.561  0.3512  1.5545 -1.6340
 4879SOL     OW26095   3.885   1.547  16.315 -0.0360  0.3861 -0.9034
 4879SOL    HW126096   3.939   1.570  16.391 -0.6040  1.5979 -0.8685
 4879SOL    HW226097   3.912   1.622  16.262  0.7445 -0.0074 -1.0664
 4880SOL     OW26098   3.102   4.087  13.155  0.1416  0.5109 -0.0309
 4880SOL    HW126099   3.112   4.064  13.248  2.0653 -1.2588 -0.6797
 4880SOL    HW226100   3.058   4.013  13.113  1.9928 -0.1410 -0.8626
 4881SOL     OW26101   0.726   0.393  14.038 -0.2361  0.3882 -0.8132
 4881SOL    HW126102   0.740   0.467  13.978  2.0350  0.3193 -0.3721
 4881SOL    HW226103   0.647   0.427  14.081  1.6053  3.4943  0.1477
 4882SOL     OW26104   3.592   3.242   7.683  0.3808 -0.0670  0.7643
 4882SOL    HW126105   3.539   3.236   7.762  0.5904  1.8345  1.0512
 4882SOL    HW226106   3.602   3.149   7.667  1.6377  0.5052 -1.8040
 4883SOL     OW26107   0.803   2.706   1.766  0.0793 -0.0018  0.5028
 4883SOL    HW126108   0.787   2.666   1.680  2.1146  0.2243  0.0068
 4883SOL    HW226109   0.812   2.799   1.746 -0.6391 -0.8000 -3.4879
 4884SOL     OW26110   3.712   1.087   1.544  0.2306  0.1653 -0.3019
 4884SOL    HW126111   3.661   1.153   1.590 -1.2191  0.5272 -2.4142
 4884SOL    HW226112   3.759   1.141   1.481 -1.9314  2.3286 -0.0556
 4885SOL     OW26113   1.129   2.881   7.647 -0.0091  0.1326  0.1051
 4885SOL    HW126114   1.057   2.926   7.601 -0.5531  0.9379  1.7535
 4885SOL    HW226115   1.189   2.920   7.583  0.5557  2.0703  1.8169
 4886SOL     OW26116   2.676   0.867   4.697  0.3658  0.2547 -0.1274
 4886SOL    HW126117   2.726   0.875   4.778 -0.9154  0.9213  0.5871
 4886SOL    HW226118   2.622   0.791   4.719 -0.1094  0.2893 -1.1652
 4887SOL     OW26119   0.131   0.945   7.996 -0.5153  0.3792 -0.0297
 4887SOL    HW126120   0.047   0.963   8.039  1.2656  0.5142  3.4060
 4887SOL    HW226121   0.167   1.027   8.029  0.4756 -0.2348  0.4176
 4888SOL     OW26122   0.913   2.145  17.282 -0.0138  0.2865  0.0122
 4888SOL    HW126123   0.986   2.087  17.260  0.0894  0.0721  0.9003
 4888SOL    HW226124   0.937   2.224  17.234 -1.8612  0.5137 -0.5090
 4889SOL     OW26125   1.772   1.668  15.615  0.2028 -0.2344  0.4104
 4889SOL    HW126126   1.823   1.614  15.555  0.0510 -0.7519  0.7392
 4889SOL    HW226127   1.742   1.732  15.551 -1.8530 -0.0808  1.4988
 4890SOL     OW26128   4.301   2.926   8.328  0.1197 -0.1515 -0.3305
 4890SOL    HW126129   4.349   2.975   8.394  0.7004 -0.4095 -0.5565
 4890SOL    HW226130   4.229   2.903   8.387 -0.7946  0.5447 -1.1807
 4891SOL     OW26131   2.277   3.883  11.997 -0.3228 -0.4031 -0.7138
 4891SOL    HW126132   2.290   3.944  12.069 -0.2005 -0.3716 -0.7629
 4891SOL    HW226133   2.190   3.851  12.021  1.2654 -1.7896  3.1288
 4892SOL     OW26134   2.509   1.994  10.800 -0.6550 -0.2491 -0.4940
 4892SOL    HW126135   2.430   2.038  10.830  0.0085  1.0527 -0.6289
 4892SOL    HW226136   2.561   2.070  10.774  0.2158 -0.1748  1.4703
 4893SOL     OW26137   2.229   2.130   3.403  0.2039 -0.1874 -0.2632
 4893SOL    HW126138   2.148   2.116   3.355 -0.3123 -2.3598  1.2518
 4893SOL    HW226139   2.240   2.221   3.377 -0.2911  0.4046  1.6356
 4894SOL     OW26140   1.791   4.381   7.790 -0.2576  0.0830  0.3068
 4894SOL    HW126141   1.810   4.325   7.865  1.7218  2.7286  1.7585
 4894SOL    HW226142   1.872   4.431   7.795 -0.7250  0.8819 -0.0837
 4895SOL     OW26143   4.392   1.669   8.563 -0.1816  0.4030  0.0590
 4895SOL    HW126144   4.311   1.720   8.569 -0.3042  0.2749 -0.5289
 4895SOL    HW226145   4.454   1.734   8.533 -1.2973  0.9271 -1.1081
 4896SOL     OW26146   3.623   2.893   4.380  0.4461 -0.0748  0.0446
 4896SOL    HW126147   3.537   2.856   4.399  0.3075  0.6360  0.7841
 4896SOL    HW226148   3.648   2.839   4.304  1.2612 -0.8013  0.8265
 4897SOL     OW26149   3.642   2.479   8.374  0.2359  0.4237  0.0438
 4897SOL    HW126150   3.648   2.568   8.339  0.7805  0.5027  0.3378
 4897SOL    HW226151   3.547   2.485   8.376  0.2607  0.4429  1.1386
 4898SOL     OW26152   3.117   2.996  11.750  0.5201 -0.0716  0.2118
 4898SOL    HW126153   3.068   3.039  11.821 -1.6467 -2.2392  0.0392
 4898SOL    HW226154   3.207   2.992  11.783  0.2164  3.3148  1.4465
 4899SOL     OW26155   2.982   2.036   8.868 -0.4325  0.1842 -0.6537
 4899SOL    HW126156   2.903   2.078   8.902  1.1749  1.6067  1.2861
 4899SOL    HW226157   2.942   1.956   8.834 -0.6091 -0.3915  0.9084
 4900SOL     OW26158   1.230   1.764   7.921 -0.5476  0.2660 -0.4336
 4900SOL    HW126159   1.181   1.822   7.863 -0.7938 -1.0968 -1.6027
 4900SOL    HW226160   1.157   1.705   7.935 -0.2697  0.0024 -0.0974
 4901SOL     OW26161   0.293   3.495   1.938 -0.2947  0.0161  0.1350
 4901SOL    HW126162   0.273   3.469   1.848  2.1111 -1.5629  0.0734
 4901SOL    HW226163   0.337   3.579   1.922 -0.3550  0.2475  1.1821
 4902SOL     OW26164   3.354   2.617  12.045 -0.6200 -0.3813 -0.1085
 4902SOL    HW126165   3.291   2.629  12.116  0.7605  2.4591  0.6512
 4902SOL    HW226166   3.409   2.547  12.081 -2.1070 -1.2182  0.5020
 4903SOL     OW26167   0.108   1.053   5.364 -0.6267 -0.3691 -0.9902
 4903SOL    HW126168   0.143   1.141   5.354  1.8900 -1.3660 -1.0893
 4903SOL    HW226169   0.018   1.064   5.395 -0.4573 -0.2341 -0.5489
 4904SOL     OW26170   2.393   1.800   5.093  0.5219  0.7158  0.5288
 4904SOL    HW126171   2.314   1.831   5.139  0.2084 -1.4032  1.3752
 4904SOL    HW226172   2.448   1.781   5.168  1.9477  1.3332 -0.3640
 4905SOL     OW26173   0.402   3.974   8.053 -0.8623  0.4230 -0.6326
 4905SOL    HW126174   0.498   3.972   8.044 -0.9415  0.3964 -1.5247
 4905SOL    HW226175   0.375   4.018   7.972  0.4076  1.7204 -0.3704
 4906SOL     OW26176   0.790   4.507   3.975 -0.1306  0.1637 -0.1252
 4906SOL    HW126177   0.825   4.526   3.888  3.1555 -2.1851  0.6692
 4906SOL    HW226178   0.701   4.475   3.960  0.3003 -1.1262  0.1024
 4907SOL     OW26179   1.217   0.240   5.081 -0.3242  0.0169  0.3753
 4907SOL    HW126180   1.301   0.214   5.045 -0.6548 -1.2444  0.4911
 4907SOL    HW226181   1.173   0.168   5.035 -0.7615  0.5793 -0.0858
 4908SOL     OW26182   1.107   0.145  12.949  0.6502  0.4771 -0.5815
 4908SOL    HW126183   1.062   0.114  12.870 -0.5452 -0.2014  0.3587
 4908SOL    HW226184   1.170   0.198  12.901  1.8790 -0.8533 -0.4173
 4909SOL     OW26185   1.725   1.287   7.626  0.1157 -0.2265  0.5912
 4909SOL    HW126186   1.728   1.285   7.530 -2.9186 -1.2188  0.5077
 4909SOL    HW226187   1.777   1.212   7.653 -3.0872 -2.2890  1.0515
 4910SOL     OW26188   1.961   3.443   9.397 -0.2919 -0.7468 -0.2669
 4910SOL    HW126189   1.990   3.357   9.426 -0.2629 -1.2456 -1.7829
 4910SOL    HW226190   1.909   3.418   9.321  2.6159 -1.1261 -2.1056
 4911SOL     OW26191   2.900   0.495   8.143  0.1756 -0.3763  0.1256
 4911SOL    HW126192   2.871   0.436   8.213  1.0342  0.3701  1.0990
 4911SOL    HW226193   2.993   0.505   8.161  0.3205 -1.8727  0.1919
 4912SOL     OW26194   0.140   0.354   3.318  0.0385  0.4061 -0.2595
 4912SOL    HW126195   0.158   0.384   3.229 -0.9861  0.1970 -0.5308
 4912SOL    HW226196   0.177   0.266   3.311  1.6719  0.9394  1.3124
 4913SOL     OW26197   0.396   2.881  15.999 -0.2577 -0.0813 -0.1913
 4913SOL    HW126198   0.397   2.899  16.093 -1.2338 -2.6307  0.3104
 4913SOL    HW226199   0.409   2.786  16.004  0.7153  0.0012 -1.3748
 4914SOL     OW26200   2.168   2.712   6.770  0.2648  0.5301  0.1043
 4914SOL    HW126201   2.247   2.709   6.717  0.5033 -2.3171  0.6129
 4914SOL    HW226202   2.204   2.676   6.852  0.1774  1.2709  0.4618
 4915SOL     OW26203   4.122   1.493  17.642  0.3230  0.0467  0.4952
 4915SOL    HW126204   4.112   1.539  17.558 -1.3114 -0.4433  0.4401
 4915SOL    HW226205   4.097   1.408  17.607  1.3076  0.3238 -0.8975
 4916SOL     OW26206   3.501   0.368  14.026 -0.0213  0.0116  0.0844
 4916SOL    HW126207   3.510   0.372  14.122  3.4705 -0.4067 -0.2215
 4916SOL    HW226208   3.423   0.421  14.009  0.2402  0.9890  1.9108
 4917SOL     OW26209   2.428   2.963   6.495 -0.5817  0.2832  0.0848
 4917SOL    HW126210   2.420   3.009   6.579  0.6607  0.9677 -0.1571
 4917SOL    HW226211   2.523   2.958   6.485 -0.7361  1.4231 -2.0254
 4918SOL     OW26212   2.040   1.661   7.970 -0.1697  0.3203  0.3034
 4918SOL    HW126213   2.052   1.622   7.883 -0.5854 -0.4727  0.5972
 4918SOL    HW226214   2.035   1.584   8.027  2.0939  0.9891  1.3974
 4919SOL     OW26215   2.369   3.488   6.155 -0.4015 -0.0275  0.3708
 4919SOL    HW126216   2.422   3.410   6.170  0.6019  1.1100  2.6713
 4919SOL    HW226217   2.403   3.549   6.220  0.5816  0.6972 -0.8317
 4920SOL     OW26218   2.757   2.300  16.518  0.3773  0.4654  0.4634
 4920SOL    HW126219   2.804   2.218  16.531 -0.8788 -0.3212  0.0155
 4920SOL    HW226220   2.681   2.262  16.475 -0.5312  0.3474  2.1585
 4921SOL     OW26221   3.507   4.505  11.105  0.5709  0.0814 -0.3207
 4921SOL    HW126222   3.481   4.585  11.059 -2.2450 -0.5346  0.2227
 4921SOL    HW226223   3.461   4.433  11.061  1.4186  0.4148 -1.7695
 4922SOL     OW26224   0.439   1.540   5.395 -0.1623  0.0552 -0.0179
 4922SOL    HW126225   0.453   1.614   5.337  1.6943 -0.2058  0.1068
 4922SOL    HW226226   0.530   1.525   5.420  0.0426 -0.0686 -0.8372
 4923SOL     OW26227   3.035   0.004   5.067 -0.3669  0.7289  0.0224
 4923SOL    HW126228   3.024   0.078   5.127 -1.9122 -0.0527  0.7055
 4923SOL    HW226229   3.006   0.047   4.986  0.3184  0.0860 -0.5631
 4924SOL     OW26230   0.852   3.625   8.628 -0.0955  0.4535 -0.1805
 4924SOL    HW126231   0.763   3.588   8.630  1.2420 -2.7837 -0.2068
 4924SOL    HW226232   0.850   3.681   8.705  0.2678  1.1075 -0.6429
 4925SOL     OW26233   3.609   4.638   9.474  0.0975  0.0477  0.8347
 4925SOL    HW126234   3.643   4.550   9.491 -0.5557 -0.7238 -1.8212
 4925SOL    HW226235   3.560   4.627   9.392  1.1841  1.9910 -0.0727
 4926SOL     OW26236   0.340   1.086   0.062 -0.0857  0.3382 -0.2427
 4926SOL    HW126237   0.312   1.127  17.677 -0.3076 -1.6509 -1.1677
 4926SOL    HW226238   0.255   1.085   0.107  0.0233 -2.4078 -0.1062
 4927SOL     OW26239   1.381   3.967   6.105  0.6700  0.4494  0.5947
 4927SOL    HW126240   1.299   4.012   6.126  1.0417  1.9891 -1.2630
 4927SOL    HW226241   1.352   3.889   6.152  0.9147  0.4095  0.6788
 4928SOL     OW26242   2.044   0.615   4.565 -0.1096  0.1674 -0.3155
 4928SOL    HW126243   2.058   0.565   4.484 -0.2373 -1.2768  0.5667
 4928SOL    HW226244   1.949   0.610   4.572  0.0734 -1.6612  0.7691
 4929SOL     OW26245   0.666   4.519   5.040 -0.9057  0.4991  0.5415
 4929SOL    HW126246   0.744   4.501   5.093 -0.5655 -0.1712 -0.1897
 4929SOL    HW226247   0.710   4.528   4.955 -1.5733  0.0280  0.1486
 4930SOL     OW26248   1.125   0.929   2.050  0.0794 -0.0938  0.3506
 4930SOL    HW126249   1.106   0.924   2.144  1.3637 -0.4539  0.5903
 4930SOL    HW226250   1.217   0.907   2.048 -0.4369 -1.9952 -2.0978
 4931SOL     OW26251   2.000   2.298  13.219 -0.3482  0.5279 -0.4347
 4931SOL    HW126252   2.036   2.244  13.290 -0.6110 -0.3462 -0.9611
 4931SOL    HW226253   2.086   2.325  13.185 -0.8738  1.1719 -1.2444
 4932SOL     OW26254   3.856   4.467  12.300  0.1980 -0.5667 -0.2371
 4932SOL    HW126255   3.946   4.445  12.323  0.5618  1.2346  0.1005
 4932SOL    HW226256   3.834   4.398  12.237  0.1985 -1.0998  0.3448
 4933SOL     OW26257   0.163   0.463   0.868 -0.0908 -0.1628  0.6849
 4933SOL    HW126258   0.223   0.501   0.804 -0.8343  0.1439  0.1692
 4933SOL    HW226259   0.219   0.433   0.940 -0.1936 -2.4691 -0.1949
 4934SOL     OW26260   1.562   3.047   7.760 -0.0133  0.2969  0.1682
 4934SOL    HW126261   1.597   3.135   7.743 -0.7316  0.3044 -1.2456
 4934SOL    HW226262   1.478   3.071   7.799 -0.8755 -1.3621 -0.7107
 4935SOL     OW26263   3.989   2.921  11.125  0.5351 -0.0928 -0.3205
 4935SOL    HW126264   4.063   2.959  11.172  0.1063 -0.6081  0.7518
 4935SOL    HW226265   3.977   2.984  11.053  0.4484 -1.2787 -1.3497
 4936SOL     OW26266   2.349   1.489   7.896 -1.1773  0.2708 -0.1796
 4936SOL    HW126267   2.272   1.465   7.948 -0.7478  0.4346  0.5326
 4936SOL    HW226268   2.344   1.419   7.832  1.4035 -1.2533  1.2592
 4937SOL     OW26269   0.478   3.841   7.097  0.5698 -0.1441 -0.7494
 4937SOL    HW126270   0.546   3.818   7.033 -0.4932 -2.0777 -1.1791
 4937SOL    HW226271   0.490   3.935   7.085 -1.6774  0.0842 -1.1132
 4938SOL     OW26272   0.029   4.517  12.824 -0.2929 -0.7681 -0.2808
 4938SOL    HW126273   0.026   4.449  12.891 -1.3049  0.9232  1.4080
 4938SOL    HW226274   4.665   4.556  12.836  1.0060  0.7869  4.4652
 4939SOL     OW26275   0.948   4.082  17.371 -0.5682 -0.1781  0.2758
 4939SOL    HW126276   0.884   4.110  17.436 -2.2476 -2.0037 -0.5961
 4939SOL    HW226277   1.012   4.037  17.428  0.9351  0.4741 -0.9033
 4940SOL     OW26278   1.742   4.101   7.978  0.3817 -0.5662 -0.1189
 4940SOL    HW126279   1.770   4.041   7.909 -0.7146 -2.6332  1.2254
 4940SOL    HW226280   1.651   4.117   7.954  0.3401  0.9070  1.0360
 4941SOL     OW26281   3.961   2.163   0.213 -0.3919  0.1765 -0.0283
 4941SOL    HW126282   3.895   2.094   0.215 -0.6900  0.4890  1.5011
 4941SOL    HW226283   4.041   2.116   0.233 -1.3412 -1.5194 -0.2708
 4942SOL     OW26284   4.177   0.122  15.696  0.2114  0.5263  0.7817
 4942SOL    HW126285   4.133   0.199  15.660 -0.1856 -0.2594 -0.4105
 4942SOL    HW226286   4.263   0.147  15.728  1.0903  0.9131 -1.8799
 4943SOL     OW26287   1.576   1.311   4.550 -0.0077  0.1817 -0.3533
 4943SOL    HW126288   1.511   1.264   4.498 -0.8861  2.5870 -1.4469
 4943SOL    HW226289   1.531   1.381   4.598 -1.5425 -1.2468  0.2852
 4944SOL     OW26290   1.024   0.132   3.856  0.1716  0.1145 -0.0865
 4944SOL    HW126291   1.056   0.167   3.773 -1.6682  1.1137 -0.3611
 4944SOL    HW226292   1.075   0.051   3.856 -0.1306 -0.0799  1.2073
 4945SOL     OW26293   0.132   3.754   5.300  0.3210 -0.2305  0.5646
 4945SOL    HW126294   0.208   3.758   5.242 -0.8167  0.6818 -0.8337
 4945SOL    HW226295   0.063   3.805   5.257 -0.8689 -3.5388 -1.4687
 4946SOL     OW26296   3.120   2.163  14.451 -0.1573  0.9017  0.4101
 4946SOL    HW126297   3.195   2.108  14.477 -0.9619 -0.0810  0.6673
 4946SOL    HW226298   3.151   2.181  14.363  0.3906 -0.8117  0.2533
 4947SOL     OW26299   0.357   0.948  15.445 -0.3316  0.6076 -0.6124
 4947SOL    HW126300   0.379   0.878  15.506  0.7607 -0.0296 -1.7435
 4947SOL    HW226301   0.438   0.963  15.397 -0.7906  0.4848 -1.4244
 4948SOL     OW26302   1.209   1.770   3.853  0.3631 -0.0025  0.1668
 4948SOL    HW126303   1.257   1.690   3.873  0.6008  0.5571  1.8601
 4948SOL    HW226304   1.278   1.836   3.842 -0.5760  1.3511  2.4103
 4949SOL     OW26305   2.281   2.983  15.879 -0.8252  0.1720 -0.4045
 4949SOL    HW126306   2.286   2.897  15.838 -0.0224  0.7167 -1.4431
 4949SOL    HW226307   2.286   3.049  15.810 -3.2963  0.5170 -0.2526
 4950SOL     OW26308   0.067   3.207   7.254 -0.3673 -0.3888 -0.6011
 4950SOL    HW126309   4.723   3.143   7.230  0.6485 -2.3357  1.6801
 4950SOL    HW226310   0.096   3.239   7.169  1.0608  0.6754  0.2769
 4951SOL     OW26311   4.636   3.163   2.373 -0.1518  0.2128 -0.4578
 4951SOL    HW126312   4.664   3.083   2.329  0.5370  0.3541 -0.2745
 4951SOL    HW226313   4.615   3.138   2.463 -1.1030 -1.0092 -1.0170
 4952SOL     OW26314   0.059   0.858   1.583 -0.1729 -0.3984  0.1018
 4952SOL    HW126315   0.061   0.772   1.540 -1.8032 -0.0362 -0.7024
 4952SOL    HW226316   0.139   0.865   1.634 -0.3002  0.1719  0.2230
 4953SOL     OW26317   2.030   3.360  14.166  0.3766  0.5795  0.2855
 4953SOL    HW126318   1.961   3.384  14.228 -1.4524 -2.2693 -0.6372
 4953SOL    HW226319   2.054   3.449  14.138 -0.4625  0.4304 -0.9354
 4954SOL     OW26320   4.269   1.614   3.744  0.7193 -0.1315  0.2914
 4954SOL    HW126321   4.259   1.621   3.649 -3.3259  2.0231  0.8635
 4954SOL    HW226322   4.340   1.676   3.757  0.0517  0.6698  0.0918
 4955SOL     OW26323   4.642   2.040   2.691  0.4152  0.4293  0.1654
 4955SOL    HW126324   4.612   2.094   2.617 -0.9973  1.6277  1.6199
 4955SOL    HW226325   4.671   2.101   2.759 -0.6853 -1.2456  2.1340
 4956SOL     OW26326   4.554   4.394  10.019  0.0700  0.2606  0.5632
 4956SOL    HW126327   4.641   4.427  10.041  0.8609 -0.2104 -1.8232
 4956SOL    HW226328   4.564   4.399   9.924  2.0512 -0.0320  0.7650
 4957SOL     OW26329   3.641   1.666   2.972 -0.1055 -0.3027 -0.2171
 4957SOL    HW126330   3.726   1.698   2.944  0.1673 -1.1836 -0.4045
 4957SOL    HW226331   3.597   1.695   2.892  0.1530  0.0686 -0.2250
 4958SOL     OW26332   0.232   0.453   5.319 -0.4646  0.7690  0.0458
 4958SOL    HW126333   0.261   0.543   5.335  1.8974 -0.5016  2.7736
 4958SOL    HW226334   0.281   0.401   5.381 -2.4258 -1.5279 -0.3373
 4959SOL     OW26335   1.979   0.152  16.090  0.5346 -0.2314  0.2689
 4959SOL    HW126336   1.889   0.125  16.109 -0.1205  2.8599  1.5387
 4959SOL    HW226337   2.004   0.195  16.172 -0.6547  1.1531 -0.0931
 4960SOL     OW26338   4.711   3.535   2.592 -0.0674  0.2324 -0.0732
 4960SOL    HW126339   4.629   3.491   2.568 -1.0824  2.3188 -0.4612
 4960SOL    HW226340   0.054   3.471   2.565 -0.9002 -0.2603 -0.9679
 4961SOL     OW26341   2.015   4.170   9.854 -0.0397 -0.8137  0.8278
 4961SOL    HW126342   1.964   4.252   9.854  0.2879 -0.6102 -0.0407
 4961SOL    HW226343   2.038   4.172   9.947 -1.7744  0.1511  1.2465
 4962SOL     OW26344   2.182   4.716   6.484 -0.3326  0.1136 -0.0565
 4962SOL    HW126345   2.127   0.054   6.435  1.1166  1.5895  0.1844
 4962SOL    HW226346   2.152   0.012   6.573 -0.8901  0.6122 -0.3533
 4963SOL     OW26347   1.626   1.035  14.382  0.2212  0.6715  0.7408
 4963SOL    HW126348   1.607   1.113  14.330  2.1295  0.5078 -0.1733
 4963SOL    HW226349   1.539   0.994  14.387  0.4494 -0.0904 -1.6110
 4964SOL     OW26350   1.964   3.377   8.037 -0.7026 -0.6670  0.2584
 4964SOL    HW126351   2.051   3.352   8.069  0.2259  0.3854 -1.4515
 4964SOL    HW226352   1.990   3.430   7.962  1.0350 -0.4505  1.0073
 4965SOL     OW26353   3.541   4.322  10.025 -0.2125  0.1489 -0.7400
 4965SOL    HW126354   3.452   4.286  10.021  0.0699 -0.5004 -1.0120
 4965SOL    HW226355   3.581   4.285   9.946  0.6200  1.1750 -0.8095
 4966SOL     OW26356   3.192   3.365   1.588 -0.6835 -0.6783 -0.4966
 4966SOL    HW126357   3.185   3.418   1.509  0.5010  1.4368  0.8148
 4966SOL    HW226358   3.139   3.288   1.568  0.1446 -0.7525 -2.3678
 4967SOL     OW26359   4.340   2.643  11.336  0.4696  0.1029 -0.8429
 4967SOL    HW126360   4.341   2.590  11.416 -0.3312  1.8115  0.2981
 4967SOL    HW226361   4.303   2.723  11.373 -0.4938 -1.5149  1.6817
 4968SOL     OW26362   2.399   4.090   1.756 -0.7462 -0.6512 -0.2528
 4968SOL    HW126363   2.445   4.006   1.751  0.7417  0.2807 -2.0987
 4968SOL    HW226364   2.422   4.126   1.670 -1.1310 -0.9361 -0.4751
 4969SOL     OW26365   4.272   1.067   7.476  0.5268  0.2809 -0.1928
 4969SOL    HW126366   4.319   1.034   7.399 -0.1827 -0.2696 -0.3860
 4969SOL    HW226367   4.197   1.008   7.482 -0.5250  1.7865  1.5844
 4970SOL     OW26368   3.982   4.642   4.531 -1.1018 -0.2198 -0.1782
 4970SOL    HW126369   4.021   4.566   4.488 -1.9752  1.0829 -3.2742
 4970SOL    HW226370   4.053   4.670   4.590 -0.4034  1.2416 -1.7009
 4971SOL     OW26371   3.860   3.483  13.909  0.1024  0.3002 -0.6263
 4971SOL    HW126372   3.822   3.412  13.858  1.4931 -0.7373 -0.2316
 4971SOL    HW226373   3.789   3.530  13.953  0.5125  0.7197 -0.4113
 4972SOL     OW26374   3.572   2.404   5.142  0.3079 -0.2696  0.3452
 4972SOL    HW126375   3.477   2.408   5.132  0.2052 -2.9402  0.2566
 4972SOL    HW226376   3.602   2.495   5.136 -1.8365  0.3891 -0.3636
 4973SOL     OW26377   0.652   1.213  12.419  0.2729  0.1068 -0.2177
 4973SOL    HW126378   0.637   1.150  12.489  1.0258 -0.8721 -0.9353
 4973SOL    HW226379   0.599   1.289  12.444  0.6538  0.0867  0.6290
 4974SOL     OW26380   2.373   0.154   4.683  0.6843  0.5630 -0.1162
 4974SOL    HW126381   2.389   0.072   4.731 -3.4788 -1.1416 -1.6750
 4974SOL    HW226382   2.295   0.127   4.635  1.3236 -0.2089 -0.7286
 4975SOL     OW26383   1.990   0.375   8.022  0.2081  0.3209 -0.5338
 4975SOL    HW126384   1.951   0.452   7.981 -0.1747  0.7591  0.6764
 4975SOL    HW226385   1.904   0.339   8.047  0.8435  0.5957  1.9778
 4976SOL     OW26386   2.291   1.846  14.238 -0.1444 -0.1631  0.0289
 4976SOL    HW126387   2.311   1.938  14.256  0.6470 -0.0986 -1.2138
 4976SOL    HW226388   2.199   1.840  14.262  0.3508 -0.0125  1.9682
 4977SOL     OW26389   4.207   0.520   1.750  0.7005  0.6637 -0.2408
 4977SOL    HW126390   4.182   0.462   1.822 -0.9288  0.4683 -0.9618
 4977SOL    HW226391   4.217   0.466   1.672 -2.2386 -1.6506  0.9870
 4978SOL     OW26392   4.189   0.269   9.701  0.7837  0.7518  0.3786
 4978SOL    HW126393   4.242   0.348   9.693  3.1213 -0.8062  0.4552
 4978SOL    HW226394   4.225   0.236   9.783 -1.0085 -1.2455  0.3512
 4979SOL     OW26395   1.718   2.841   9.622  0.4613 -0.1679 -0.5643
 4979SOL    HW126396   1.774   2.782   9.572  1.3768  0.0952  0.1390
 4979SOL    HW226397   1.633   2.837   9.578  0.5338 -0.3458 -0.6893
 4980SOL     OW26398   2.121   3.622  13.996 -0.1667  0.0456  0.5345
 4980SOL    HW126399   2.143   3.559  13.928 -1.3375 -0.2081  0.3806
 4980SOL    HW226400   2.188   3.612  14.064 -1.1800 -0.8452  1.4182
 4981SOL     OW26401   3.240   1.497   2.923  0.3921  0.4766  0.3365
 4981SOL    HW126402   3.204   1.534   2.843  0.6272 -2.4762 -1.1485
 4981SOL    HW226403   3.179   1.424   2.928 -0.5808  1.3568  1.3088
 4982SOL     OW26404   2.821   2.403   3.162  0.1251  0.1547 -0.2746
 4982SOL    HW126405   2.858   2.364   3.083  0.1090  0.5744 -0.4891
 4982SOL    HW226406   2.896   2.460   3.182  0.0816 -0.0131  0.3729
 4983SOL     OW26407   0.951   0.110  11.034  0.1166 -0.1372 -0.5666
 4983SOL    HW126408   0.899   0.187  11.010 -0.8426  0.6930  4.0667
 4983SOL    HW226409   0.988   0.087  10.949  0.0616 -1.1755 -0.3137
 4984SOL     OW26410   1.733   2.655   3.454 -0.7284  0.4445  0.0831
 4984SOL    HW126411   1.811   2.647   3.509 -0.8219  1.1774  0.3190
 4984SOL    HW226412   1.673   2.587   3.486 -0.3093 -0.5106 -1.1706
 4985SOL     OW26413   2.357   1.307  13.064  0.0798 -0.3120 -0.1625
 4985SOL    HW126414   2.428   1.350  13.112  0.2872 -0.7115 -0.1085
 4985SOL    HW226415   2.384   1.216  13.074 -0.8553 -0.2382  3.0372
 4986SOL     OW26416   2.521   2.998   4.590 -0.2582  0.1290 -1.2330
 4986SOL    HW126417   2.447   3.034   4.638  0.4721  0.1624 -0.1553
 4986SOL    HW226418   2.597   3.048   4.617 -0.5221  0.2828 -0.7841
 4987SOL     OW26419   2.266   1.433   5.190 -0.3579  0.6557  0.1187
 4987SOL    HW126420   2.174   1.440   5.216 -0.3440  0.4638  0.2227
 4987SOL    HW226421   2.289   1.340   5.180 -2.5706  0.0157  0.9190
 4988SOL     OW26422   1.749   0.119   9.389  0.1434  0.0907 -0.5536
 4988SOL    HW126423   1.838   0.083   9.393  0.6331  1.4570  0.8684
 4988SOL    HW226424   1.745   0.155   9.478  1.1746  0.6601 -0.7421
 4989SOL     OW26425   2.950   0.233   2.334 -0.1476  0.6028 -0.2660
 4989SOL    HW126426   3.009   0.302   2.305  0.7869 -0.8851 -1.9489
 4989SOL    HW226427   2.866   0.267   2.304 -0.5415  0.3509  0.5266
 4990SOL     OW26428   3.367   1.432  12.010  0.5723 -0.2286  0.1524
 4990SOL    HW126429   3.375   1.501  12.075 -2.2814 -1.2979  1.6299
 4990SOL    HW226430   3.300   1.468  11.952 -0.2118 -1.7719  0.0987
 4991SOL     OW26431   1.000   1.121   8.138 -0.7004  0.0080 -0.0269
 4991SOL    HW126432   1.071   1.076   8.184 -0.1500  0.9324  0.0297
 4991SOL    HW226433   1.004   1.208   8.179  0.1840  0.2401 -0.6052
 4992SOL     OW26434   1.009   2.356  17.145  0.3082 -0.0940 -0.4133
 4992SOL    HW126435   0.939   2.415  17.116  0.5642  1.3699  1.9354
 4992SOL    HW226436   1.048   2.332  17.060 -2.7182  1.4115 -2.2180
 4993SOL     OW26437   0.292   4.296   8.987  0.7073  0.2462 -0.5878
 4993SOL    HW126438   0.346   4.341   8.922  1.7008  0.8825  0.6964
 4993SOL    HW226439   0.320   4.339   9.068 -0.3233 -0.8231  0.3311
 4994SOL     OW26440   0.818   0.126   4.470 -0.2500  0.2847 -0.4536
 4994SOL    HW126441   0.897   0.102   4.518 -1.5575  0.6189  1.8541
 4994SOL    HW226442   0.748   0.079   4.515  0.6098 -1.1133 -0.5775
 4995SOL     OW26443   2.584   0.096   8.435 -0.0624  0.4623 -0.3690
 4995SOL    HW126444   2.519   0.160   8.406 -0.6118  0.9520  1.9399
 4995SOL    HW226445   2.635   0.073   8.357 -1.0828 -1.0750 -0.5683
 4996SOL     OW26446   0.176   1.663   4.325  0.0255  0.1964 -0.2511
 4996SOL    HW126447   0.107   1.626   4.270  2.1980 -0.8933 -2.2664
 4996SOL    HW226448   0.252   1.640   4.271  0.5076  0.1039  0.4661
 4997SOL     OW26449   4.148   1.880   1.054 -0.4398 -0.5519 -0.1088
 4997SOL    HW126450   4.097   1.810   1.095  1.8238 -0.9293  2.0577
 4997SOL    HW226451   4.217   1.831   1.011  0.6986 -0.6885  1.8582
 4998SOL     OW26452   0.125   3.367  13.397  0.1420  0.1842  0.4676
 4998SOL    HW126453   0.198   3.304  13.397 -1.1012 -1.2530  0.9634
 4998SOL    HW226454   0.052   3.316  13.430 -0.6763  1.7105  1.0359
 4999SOL     OW26455   3.581   4.232   9.099  0.6363  0.1126  0.3298
 4999SOL    HW126456   3.592   4.144   9.064  0.5732  0.2662 -0.0785
 4999SOL    HW226457   3.652   4.250   9.161  0.6256  2.2760 -0.2811
 5000SOL     OW26458   1.792   3.520   3.731  0.5301 -0.5229  0.0423
 5000SOL    HW126459   1.746   3.477   3.659  2.9545 -1.5656 -0.8798
 5000SOL    HW226460   1.867   3.461   3.737 -0.4769 -2.0929 -2.7683
 5001SOL     OW26461   3.693   3.077   9.489 -0.1611  0.2619 -0.1427
 5001SOL    HW126462   3.654   3.037   9.411 -1.3576  1.1675 -0.0016
 5001SOL    HW226463   3.776   3.030   9.485 -0.0897  0.5382 -1.9751
 5002SOL     OW26464   4.109   2.550   3.000 -0.0469  0.8466 -0.4234
 5002SOL    HW126465   4.149   2.535   2.915 -0.0826 -1.3681 -0.0541
 5002SOL    HW226466   4.175   2.508   3.056  0.2861  5.2123  2.4849
 5003SOL     OW26467   4.494   3.824   4.702  0.0332 -0.4312  0.3166
 5003SOL    HW126468   4.517   3.745   4.653  0.2084  0.1492 -0.5242
 5003SOL    HW226469   4.560   3.888   4.675  0.7853 -0.6110  1.7190
 5004SOL     OW26470   1.556   1.264  12.349 -0.2660 -0.8484 -0.3532
 5004SOL    HW126471   1.601   1.264  12.264  0.3489 -1.1658 -0.0300
 5004SOL    HW226472   1.621   1.227  12.409 -0.1837 -0.1513 -0.0164
 5005SOL     OW26473   4.248   2.942  14.337  0.3843 -0.5483  0.2584
 5005SOL    HW126474   4.222   2.862  14.383  0.1082  0.2606  1.5060
 5005SOL    HW226475   4.338   2.943  14.371  0.9944 -0.9485 -1.3495
 5006SOL     OW26476   2.226   3.562   5.591 -0.7458 -0.3974  0.0708
 5006SOL    HW126477   2.201   3.644   5.633 -1.0461 -1.1119  1.2844
 5006SOL    HW226478   2.228   3.598   5.502 -0.6386 -0.8502 -0.1086
 5007SOL     OW26479   4.120   4.500   4.861 -0.4021  0.8757 -0.1450
 5007SOL    HW126480   4.084   4.446   4.791 -0.3997  0.1671  0.4054
 5007SOL    HW226481   4.132   4.583   4.814 -0.0524  1.5973  1.2002
 5008SOL     OW26482   1.953   0.008   7.540 -0.7528  0.0210  0.2699
 5008SOL    HW126483   2.047   0.025   7.550 -0.6779 -0.7847  0.9843
 5008SOL    HW226484   1.927   4.713   7.631 -0.3677  2.3157  0.8535
 5009SOL     OW26485   2.511   0.583   7.377 -0.3272  0.0151 -0.4571
 5009SOL    HW126486   2.543   0.589   7.287  0.1456  3.3853 -0.0467
 5009SOL    HW226487   2.571   0.644   7.419 -1.0438  0.6610 -0.3746
 5010SOL     OW26488   2.955   1.447   2.057  0.4723 -0.6291 -0.9604
 5010SOL    HW126489   2.912   1.395   1.989  0.5348 -2.1355  0.1594
 5010SOL    HW226490   2.874   1.494   2.075  1.6104  1.8572 -2.2729
 5011SOL     OW26491   3.443   3.267   7.932 -0.3734 -0.4958  0.1169
 5011SOL    HW126492   3.396   3.267   8.015  3.1593 -1.2443  2.1435
 5011SOL    HW226493   3.372   3.248   7.870  1.1874 -2.1956 -1.1589
 5012SOL     OW26494   2.511   3.222   2.719 -0.7826  0.2165  0.3915
 5012SOL    HW126495   2.470   3.178   2.793  1.1669 -2.4459 -0.1390
 5012SOL    HW226496   2.559   3.297   2.755  0.4714  2.0628 -5.1698
 5013SOL     OW26497   0.623   3.200  11.794 -0.1100  0.4005  0.0112
 5013SOL    HW126498   0.592   3.204  11.704 -0.0636  1.9584  0.0695
 5013SOL    HW226499   0.553   3.250  11.835  2.0046  2.5981  0.9544
 5014SOL     OW26500   1.884   3.324   8.738 -0.2680 -0.6404 -0.2328
 5014SOL    HW126501   1.975   3.352   8.731 -1.5976  3.4709 -1.5315
 5014SOL    HW226502   1.854   3.337   8.648  0.5762 -2.4966 -0.7760
 5015SOL     OW26503   4.570   3.959   8.177  0.1219 -0.2442  0.2604
 5015SOL    HW126504   4.600   3.873   8.148  0.4473 -0.0588  0.0454
 5015SOL    HW226505   4.487   3.951   8.223  0.1389 -1.4491  0.0648
 5016SOL     OW26506   4.097   2.048   9.657 -0.1492 -0.6108  0.0255
 5016SOL    HW126507   4.066   2.085   9.574 -0.2558  0.0138  0.3461
 5016SOL    HW226508   4.022   1.991   9.672  0.9161 -1.4945  1.9103
 5017SOL     OW26509   0.887   3.040   8.453 -0.1125 -0.1370 -0.0824
 5017SOL    HW126510   0.948   3.103   8.492  1.0031 -0.1781 -1.7770
 5017SOL    HW226511   0.843   3.002   8.529 -0.6947 -1.8191 -1.2799
 5018SOL     OW26512   3.406   4.228  17.137  0.5138  0.1662 -0.8155
 5018SOL    HW126513   3.424   4.178  17.058 -0.3467 -1.8896  0.2714
 5018SOL    HW226514   3.317   4.195  17.152  2.0742 -2.5269  2.4510
 5019SOL     OW26515   0.660   3.531   5.143  0.4857  0.2262  0.1681
 5019SOL    HW126516   0.719   3.574   5.081 -1.1613  2.1408 -0.0821
 5019SOL    HW226517   0.710   3.550   5.222 -3.0449  3.6184  1.5716
 5020SOL     OW26518   0.998   2.306   2.751  0.5001 -0.5284  0.0270
 5020SOL    HW126519   0.944   2.330   2.676  2.6165 -0.6010 -1.5132
 5020SOL    HW226520   0.929   2.284   2.814  1.3336  0.6063  1.3179
 5021SOL     OW26521   3.309   2.771   3.664 -0.4181 -0.0559 -0.8107
 5021SOL    HW126522   3.405   2.771   3.668 -0.4403 -1.2503 -0.4743
 5021SOL    HW226523   3.293   2.683   3.696 -0.4044  0.5194  0.7403
 5022SOL     OW26524   2.350   1.812   8.889 -0.2362 -0.1224  0.5045
 5022SOL    HW126525   2.310   1.736   8.931 -1.2843  0.3534  0.3527
 5022SOL    HW226526   2.444   1.795   8.886 -0.0169  1.3898 -0.9930
 5023SOL     OW26527   2.740   1.311   8.731 -0.5219  0.7293  0.6897
 5023SOL    HW126528   2.803   1.279   8.796  1.1244 -1.2232 -1.8867
 5023SOL    HW226529   2.664   1.308   8.789 -1.1603  0.7722 -0.1503
 5024SOL     OW26530   4.497   0.663   2.111 -0.5818  0.6960 -0.9527
 5024SOL    HW126531   4.571   0.707   2.068  2.1976 -1.1061  2.0010
 5024SOL    HW226532   4.516   0.683   2.203 -0.5966  0.6980 -0.9500
 5025SOL     OW26533   1.943   3.345   4.181  0.1717  0.4435  0.7202
 5025SOL    HW126534   1.894   3.279   4.231  1.9002 -0.6521  0.9444
 5025SOL    HW226535   1.893   3.337   4.099  0.5686 -1.2490  0.6327
 5026SOL     OW26536   1.567   0.122  11.146  0.0597 -0.2550 -0.0920
 5026SOL    HW126537   1.599   0.035  11.121 -1.1763 -0.6549 -0.3037
 5026SOL    HW226538   1.625   0.188  11.109 -1.1928  1.6434  1.3433
 5027SOL     OW26539   3.196   2.354   3.258  0.0182 -0.0713  0.3705
 5027SOL    HW126540   3.183   2.282   3.319 -0.3594  0.2765  0.7059
 5027SOL    HW226541   3.249   2.420   3.302 -1.7116  0.3753  1.7599
 5028SOL     OW26542   2.255   2.556   8.811  0.2846  0.8313  0.2923
 5028SOL    HW126543   2.237   2.491   8.879 -1.3510  0.5569 -0.4166
 5028SOL    HW226544   2.170   2.576   8.773 -0.0242  2.0436  1.6294
 5029SOL     OW26545   0.336   1.373   0.637 -0.0226  0.1326 -0.4396
 5029SOL    HW126546   0.321   1.283   0.665  0.8488  0.1514  0.0571
 5029SOL    HW226547   0.361   1.373   0.544 -0.1469 -1.1844 -0.4738
 5030SOL     OW26548   0.311   1.633   9.845  0.1188  0.6047 -0.6708
 5030SOL    HW126549   0.306   1.660   9.937 -0.9470 -0.7433 -0.3324
 5030SOL    HW226550   0.395   1.674   9.825  0.2586  0.0676 -1.1910
 5031SOL     OW26551   2.082   2.965   6.484 -0.1140  0.0735 -0.1160
 5031SOL    HW126552   2.120   3.027   6.547 -0.1246  1.7851 -1.8137
 5031SOL    HW226553   2.147   2.895   6.472 -1.4628 -1.4466  1.3629
 5032SOL     OW26554   2.464   2.820   0.957 -0.5581  0.4402  0.3576
 5032SOL    HW126555   2.403   2.790   1.025  0.3009  1.5129  1.6136
 5032SOL    HW226556   2.532   2.860   1.012 -1.5410  2.6117 -0.0130
 5033SOL     OW26557   2.754   3.801   9.706  0.0487 -0.1874  0.3320
 5033SOL    HW126558   2.720   3.780   9.793  0.6473 -0.8553  0.3966
 5033SOL    HW226559   2.806   3.881   9.716 -0.2705  0.2027 -1.1569
 5034SOL     OW26560   1.317   2.570  12.889 -0.4259  0.7065  0.3595
 5034SOL    HW126561   1.397   2.536  12.928 -0.1363  0.7878 -0.1684
 5034SOL    HW226562   1.250   2.512  12.926  2.1774 -1.9624  0.9174
 5035SOL     OW26563   0.916   0.018   6.070  0.1061  0.0865 -0.2257
 5035SOL    HW126564   0.921   4.664   6.014  1.9019  0.2424 -0.2925
 5035SOL    HW226565   0.876   0.084   6.013  0.2019  1.1739  0.9692
 5036SOL     OW26566   2.752   1.272   6.626  0.4744 -0.1828  0.0760
 5036SOL    HW126567   2.689   1.333   6.664  0.2233  0.8246 -1.9257
 5036SOL    HW226568   2.836   1.306   6.658  0.2001  2.1926 -1.7407
 5037SOL     OW26569   0.947   2.490   3.781  0.1005 -0.3684  0.3055
 5037SOL    HW126570   1.041   2.487   3.764 -0.7403  1.3931 -4.7481
 5037SOL    HW226571   0.943   2.576   3.823 -0.8453 -0.7768  1.0748
 5038SOL     OW26572   1.858   3.521   4.501  0.3927 -0.1204 -0.1241
 5038SOL    HW126573   1.800   3.444   4.506  0.3566 -0.1164 -0.4664
 5038SOL    HW226574   1.796   3.593   4.490 -0.7433 -0.9348  0.8245
 5039SOL     OW26575   4.461   2.508  10.909  0.6057  0.0888  0.3441
 5039SOL    HW126576   4.486   2.444  10.975 -2.7469 -1.3203  0.2165
 5039SOL    HW226577   4.418   2.575  10.963  0.6933  0.2038  0.2716
 5040SOL     OW26578   1.518   1.518  11.891 -0.0704 -0.5550 -0.1881
 5040SOL    HW126579   1.579   1.451  11.860 -0.4280 -1.6846  1.6144
 5040SOL    HW226580   1.451   1.509  11.823 -1.2824 -0.1737  0.9643
 5041SOL     OW26581   2.762   2.183   7.334  0.5714  0.0699  0.3018
 5041SOL    HW126582   2.744   2.119   7.402  1.8449  1.0605  1.5810
 5041SOL    HW226583   2.721   2.144   7.257  0.4105  0.0194  0.4147
 5042SOL     OW26584   0.921   3.377   5.333 -0.2412  0.7487 -0.5304
 5042SOL    HW126585   0.951   3.368   5.243  0.3631  2.5885 -0.5192
 5042SOL    HW226586   0.827   3.366   5.321 -0.1965  0.5878 -0.7343
 5043SOL     OW26587   3.269   1.769   5.158  0.4400  0.2676  0.1307
 5043SOL    HW126588   3.274   1.832   5.230 -0.6832 -1.0126  1.3389
 5043SOL    HW226589   3.289   1.682   5.194  0.8497 -0.2921 -1.4403
 5044SOL     OW26590   3.598   3.583   7.621  0.6721  0.1313  0.3478
 5044SOL    HW126591   3.685   3.624   7.627  0.1396  1.3711 -0.4610
 5044SOL    HW226592   3.538   3.654   7.644  1.5401  0.6104  1.1680
 5045SOL     OW26593   3.735   0.614  14.885 -0.5815 -0.0748  0.4345
 5045SOL    HW126594   3.644   0.621  14.913 -1.3447 -2.4381 -1.4095
 5045SOL    HW226595   3.744   0.702  14.848 -1.4895 -0.2645 -0.2461
 5046SOL     OW26596   4.709   1.501   5.252 -0.7965 -0.1523 -0.3372
 5046SOL    HW126597   0.028   1.439   5.312 -2.6080  0.2593  1.3880
 5046SOL    HW226598   0.038   1.473   5.177 -0.2724  1.9168 -0.7421
 5047SOL     OW26599   2.176   4.445  13.115 -0.3427  0.4177 -0.4759
 5047SOL    HW126600   2.147   4.522  13.162 -0.4504 -0.4001  0.7965
 5047SOL    HW226601   2.266   4.475  13.108 -0.1200 -0.0042  0.6039
 5048SOL     OW26602   0.400   2.715   5.204  0.4516  0.1088 -0.5413
 5048SOL    HW126603   0.346   2.673   5.271  4.1853 -0.7258  1.8934
 5048SOL    HW226604   0.322   2.753   5.162 -0.7211 -1.8041 -0.0853
 5049SOL     OW26605   0.803   0.863  12.713  0.5232 -0.0924  0.0894
 5049SOL    HW126606   0.743   0.920  12.666 -1.1416 -0.6922  1.4750
 5049SOL    HW226607   0.890   0.876  12.677 -0.5647 -0.9617 -2.8288
 5050SOL     OW26608   3.237   2.493   5.439  0.1383 -0.2801 -0.0411
 5050SOL    HW126609   3.254   2.448   5.522  2.3864  1.9097  0.6870
 5050SOL    HW226610   3.304   2.456   5.382  1.4867  1.0031  0.7172
 5051SOL     OW26611   3.696   1.855   1.191  0.0563 -0.3387  0.1458
 5051SOL    HW126612   3.650   1.773   1.178  1.5096 -0.9190 -1.4962
 5051SOL    HW226613   3.724   1.837   1.280  1.6339 -1.9572 -0.6586
 5052SOL     OW26614   0.861   3.663   5.004  0.4902 -0.0373  0.8945
 5052SOL    HW126615   0.937   3.645   4.948 -2.3760 -0.0694 -2.9845
 5052SOL    HW226616   0.875   3.752   5.037  0.2675 -0.2458  1.5392
 5053SOL     OW26617   2.695   4.494   4.609  0.5661 -0.0680  0.2216
 5053SOL    HW126618   2.691   4.589   4.595 -1.4846 -0.0876  0.6653
 5053SOL    HW226619   2.622   4.474   4.669  0.3382  1.7062  0.5463
 5054SOL     OW26620   2.523   4.158  15.905 -0.0693  0.0321  0.1546
 5054SOL    HW126621   2.603   4.132  15.859 -0.1375  1.8500 -0.9906
 5054SOL    HW226622   2.488   4.218  15.840 -1.9369 -1.0892  0.1042
 5055SOL     OW26623   2.468   4.425  11.392 -0.3925 -0.0943 -0.3290
 5055SOL    HW126624   2.387   4.437  11.342  0.0988 -0.6622 -1.2592
 5055SOL    HW226625   2.434   4.404  11.480  0.9280 -1.3994 -0.1379
 5056SOL     OW26626   2.192   4.144  10.638 -0.3583 -0.0799 -0.0060
 5056SOL    HW126627   2.256   4.082  10.673  0.7577  0.0395 -1.8291
 5056SOL    HW226628   2.238   4.220  10.672 -1.2347 -0.0495  1.1015
 5057SOL     OW26629   0.684   0.814  11.071 -0.0505  0.4088 -0.6502
 5057SOL    HW126630   0.599   0.858  11.062 -0.0550  0.2648 -1.3372
 5057SOL    HW226631   0.706   0.810  10.978 -0.0216  1.4847 -0.6921
 5058SOL     OW26632   3.743   0.284   7.384  0.3122 -0.7546  0.3763
 5058SOL    HW126633   3.811   0.226   7.349  0.1067 -0.7362 -0.0515
 5058SOL    HW226634   3.707   0.220   7.445 -3.0582  2.5877  1.8754
 5059SOL     OW26635   3.803   0.230   9.621  0.3758  0.5266  0.5025
 5059SOL    HW126636   3.852   0.307   9.649  4.2840 -1.7313 -0.0705
 5059SOL    HW226637   3.716   0.255   9.652  1.4474  2.6370  1.8314
 5060SOL     OW26638   2.911   0.052   6.660  0.1169  0.1622  0.2050
 5060SOL    HW126639   2.932   0.132   6.708  1.0744  0.0351  0.0047
 5060SOL    HW226640   2.871   0.091   6.582  1.6874  1.1657 -0.1016
 5061SOL     OW26641   1.579   4.004  12.026  0.2333 -0.4164 -0.1482
 5061SOL    HW126642   1.610   4.055  12.101 -1.5222 -1.4555  1.3101
 5061SOL    HW226643   1.622   3.920  12.041  0.7633 -0.4536 -1.8773
 5062SOL     OW26644   0.547   0.513   4.696  0.4551  0.0548  0.8518
 5062SOL    HW126645   0.590   0.552   4.772  0.5448  1.5418  0.0283
 5062SOL    HW226646   0.617   0.478   4.641 -0.2642 -0.0298 -0.0237
 5063SOL     OW26647   4.073   4.107   1.032  0.2676  0.0376  0.0046
 5063SOL    HW126648   4.126   4.044   0.984 -1.5989  0.0122 -2.0336
 5063SOL    HW226649   4.056   4.165   0.958  1.1178  0.6984  0.3263
 5064SOL     OW26650   2.084   4.492   9.537 -0.0504 -0.3619  0.1349
 5064SOL    HW126651   2.120   4.423   9.480  2.2637 -0.7447  2.0532
 5064SOL    HW226652   2.121   4.472   9.623 -0.3133 -2.7407 -0.3145
 5065SOL     OW26653   3.855   1.322  13.044 -0.1541 -0.3456 -0.5035
 5065SOL    HW126654   3.920   1.254  13.063 -2.4614 -2.0761  1.1997
 5065SOL    HW226655   3.797   1.308  13.119 -1.4738  0.7995 -1.2962
 5066SOL     OW26656   2.615   1.205   7.852  0.0407  0.2779 -0.5847
 5066SOL    HW126657   2.539   1.156   7.819 -0.3913  0.0131  0.8029
 5066SOL    HW226658   2.632   1.163   7.936  2.2808  1.5647 -0.4117
 5067SOL     OW26659   0.761   0.831   7.236  0.1773  0.1099  0.0210
 5067SOL    HW126660   0.846   0.862   7.266  0.4649  1.3274 -2.0485
 5067SOL    HW226661   0.767   0.738   7.258 -0.1004  0.2393  0.6407
 5068SOL     OW26662   2.620   2.551   9.381  0.2375 -0.1103  0.3172
 5068SOL    HW126663   2.590   2.491   9.449 -1.5559  2.3281  1.6826
 5068SOL    HW226664   2.681   2.607   9.429 -0.6520 -0.9384  2.4201
 5069SOL     OW26665   0.658   1.755   8.876 -0.3520  0.3515 -0.3233
 5069SOL    HW126666   0.722   1.738   8.945 -1.5056 -1.6334  0.2847
 5069SOL    HW226667   0.683   1.695   8.805  0.4680 -2.3405  2.2534
 5070SOL     OW26668   4.057   1.131   9.907  0.1043  0.2135 -0.0585
 5070SOL    HW126669   4.010   1.107   9.986 -1.6798 -1.3882 -1.6220
 5070SOL    HW226670   4.062   1.226   9.919  0.2131 -0.1235  2.5156
 5071SOL     OW26671   2.664   0.921   0.588 -0.1856  0.1011 -0.0624
 5071SOL    HW126672   2.664   1.016   0.592  3.2579  0.2086 -2.5303
 5071SOL    HW226673   2.712   0.895   0.667 -1.1673  0.7417  0.7394
 5072SOL     OW26674   3.112   2.899  15.837  0.5351 -0.0957  0.0658
 5072SOL    HW126675   3.155   2.981  15.813 -0.7023  0.3026 -0.8401
 5072SOL    HW226676   3.077   2.918  15.924 -0.7160  1.7630 -0.8434
 5073SOL     OW26677   0.597   1.648   3.920  0.2592 -0.1107 -0.2082
 5073SOL    HW126678   0.557   1.698   3.849 -0.6006  2.3142  1.9986
 5073SOL    HW226679   0.676   1.697   3.941 -0.1521  1.0081 -1.3135
 5074SOL     OW26680   0.761   2.243  10.420 -0.4377  0.2008  0.3518
 5074SOL    HW126681   0.678   2.277  10.387 -0.0537 -0.1782 -0.9880
 5074SOL    HW226682   0.782   2.187  10.346 -0.4528  0.1593  0.3788
 5075SOL     OW26683   2.141   2.086   5.496 -0.2113  0.4988 -0.8287
 5075SOL    HW126684   2.110   2.110   5.584  0.1764 -0.1587 -0.5080
 5075SOL    HW226685   2.062   2.112   5.449 -0.6639  3.8494  1.7699
 5076SOL     OW26686   3.635   3.359   5.608 -0.4638 -0.4701  0.2846
 5076SOL    HW126687   3.563   3.402   5.561  0.6550  0.5134 -0.5113
 5076SOL    HW226688   3.599   3.270   5.609  1.0836 -1.1006 -0.9438
 5077SOL     OW26689   4.266   1.037  13.175 -0.1317  0.2366  0.2161
 5077SOL    HW126690   4.258   1.126  13.209 -2.3197  0.0438  0.2215
 5077SOL    HW226691   4.361   1.027  13.179 -0.2863  0.1030  3.6541
 5078SOL     OW26692   4.347   2.571   6.027  0.2500 -0.2490 -0.3053
 5078SOL    HW126693   4.320   2.486   5.990  0.2631 -1.2918  2.0606
 5078SOL    HW226694   4.406   2.602   5.958 -0.7382  2.0102 -0.1274
 5079SOL     OW26695   3.304   3.542   3.686  0.0956 -0.1846  0.1463
 5079SOL    HW126696   3.291   3.585   3.771 -2.9217 -1.0436  0.1286
 5079SOL    HW226697   3.218   3.547   3.645  0.2395  0.7135 -0.0313
 5080SOL     OW26698   4.262   2.041   0.541  0.2252  0.2901  0.4381
 5080SOL    HW126699   4.245   1.947   0.538 -1.1361  0.5745 -1.1245
 5080SOL    HW226700   4.322   2.051   0.467 -3.1353 -1.4350 -2.5113
 5081SOL     OW26701   0.959   1.266  13.714  0.6584  0.2843 -0.4042
 5081SOL    HW126702   0.981   1.251  13.622 -0.5817 -1.2120 -0.4600
 5081SOL    HW226703   0.935   1.175  13.734  1.5297  0.1545  0.0311
 5082SOL     OW26704   0.695   2.702   6.584 -0.0310 -0.1805  0.0884
 5082SOL    HW126705   0.761   2.687   6.651  1.0745 -0.6971 -1.1143
 5082SOL    HW226706   0.736   2.683   6.499 -0.4197  0.5377 -0.2622
 5083SOL     OW26707   1.119   1.774   1.109 -0.2663  0.6572 -0.4542
 5083SOL    HW126708   1.054   1.707   1.086  0.0260 -0.2740  1.3779
 5083SOL    HW226709   1.203   1.738   1.081 -0.1234  1.1608 -0.6732
 5084SOL     OW26710   1.873   3.987   7.524  0.5344  0.5972 -0.0419
 5084SOL    HW126711   1.893   3.995   7.617 -0.8057 -0.3111  0.3188
 5084SOL    HW226712   1.827   3.904   7.513  0.1815  0.8028 -0.1464
 5085SOL     OW26713   0.737   3.727  11.465  0.0398  0.5642 -0.2976
 5085SOL    HW126714   0.653   3.683  11.455 -0.1975  0.7680  0.7613
 5085SOL    HW226715   0.746   3.765  11.378 -0.7787 -0.5208 -0.8566
 5086SOL     OW26716   3.819   0.039  13.892  0.3152 -0.2724 -0.2958
 5086SOL    HW126717   3.756   4.696  13.921  0.6581 -0.0465  0.9544
 5086SOL    HW226718   3.814   0.103  13.963 -1.1911  1.1582 -1.7125
 5087SOL     OW26719   4.665   3.699   4.461  0.2690 -0.3115 -0.2991
 5087SOL    HW126720   4.721   3.694   4.384  0.9689  2.6735 -0.0088
 5087SOL    HW226721   4.657   3.793   4.479  1.0592 -0.3434  0.1930
 5088SOL     OW26722   2.211   0.731   4.914 -0.2975  0.3628 -0.2005
 5088SOL    HW126723   2.229   0.637   4.906  1.2006  0.5649  0.7524
 5088SOL    HW226724   2.271   0.759   4.844 -0.9311  0.2962 -0.7733
 5089SOL     OW26725   2.050   0.438  14.214 -0.1376  0.1760 -0.5934
 5089SOL    HW126726   1.985   0.426  14.145 -1.8367  1.7067  0.7498
 5089SOL    HW226727   1.997   0.453  14.293  0.2991  1.7394 -0.6046
 5090SOL     OW26728   3.768   2.547  11.206  0.0429  0.1896 -0.9499
 5090SOL    HW126729   3.771   2.453  11.223  1.9206  0.5030  0.5368
 5090SOL    HW226730   3.693   2.549  11.148 -0.4631  0.6951 -0.2778
 5091SOL     OW26731   4.314   1.146   8.869 -0.1532 -0.7439  0.5407
 5091SOL    HW126732   4.308   1.134   8.964 -0.1789  1.0613  0.7688
 5091SOL    HW226733   4.232   1.187   8.842 -1.1009 -2.3581  0.9563
 5092SOL     OW26734   3.427   2.476   1.809 -0.1588 -0.0171  0.3622
 5092SOL    HW126735   3.416   2.406   1.745  0.0427 -0.0642  0.3791
 5092SOL    HW226736   3.522   2.471   1.818 -0.0134 -0.8573 -1.6515
 5093SOL     OW26737   3.194   2.518   3.736  0.1880 -0.4323  0.0813
 5093SOL    HW126738   3.103   2.545   3.752  0.4590  0.0108  0.8294
 5093SOL    HW226739   3.235   2.538   3.820  0.8066  0.3348 -0.4107
 5094SOL     OW26740   3.699   3.957  11.307 -0.2104 -0.5501  0.0199
 5094SOL    HW126741   3.605   3.937  11.303 -0.3739 -0.3017  2.2796
 5094SOL    HW226742   3.730   3.888  11.249  0.9710 -0.7296  0.8744
 5095SOL     OW26743   0.021   4.417   4.468 -0.3861  0.1280  0.2302
 5095SOL    HW126744   0.040   4.474   4.543 -0.6271  0.2863  0.1709
 5095SOL    HW226745   0.054   4.478   4.402 -1.3024 -1.0256 -1.3099
 5096SOL     OW26746   1.833   3.569  13.687  0.3412 -0.0138 -0.0169
 5096SOL    HW126747   1.867   3.650  13.724 -0.0334 -1.2027  2.9684
 5096SOL    HW226748   1.872   3.497  13.738 -1.6114  0.6058  2.3143
 5097SOL     OW26749   3.207   2.866   2.766 -0.0802  0.0121  0.2570
 5097SOL    HW126750   3.232   2.884   2.857  1.3813  0.0684 -0.1450
 5097SOL    HW226751   3.123   2.823   2.781 -0.9735  0.8832 -2.2803
 5098SOL     OW26752   3.240   0.211   8.482 -0.1726  0.0354  0.4292
 5098SOL    HW126753   3.297   0.186   8.409 -0.4676 -0.9655  0.5402
 5098SOL    HW226754   3.228   0.133   8.536 -0.5655 -0.3767 -0.2654
 5099SOL     OW26755   4.649   2.419  12.298  0.3756  0.5382 -0.2631
 5099SOL    HW126756   4.593   2.485  12.259 -3.9182 -1.4570  2.5469
 5099SOL    HW226757   4.713   2.408  12.228 -0.8007  1.0334 -1.4064
 5100SOL     OW26758   1.356   4.160   7.250  0.6028  0.1911 -0.2362
 5100SOL    HW126759   1.365   4.172   7.155  0.9932  0.4308 -0.1674
 5100SOL    HW226760   1.444   4.130   7.273  0.1833 -0.4218  0.5921
 5101SOL     OW26761   1.540   3.622  15.058  0.2538 -0.3490 -0.4276
 5101SOL    HW126762   1.553   3.529  15.074  2.9229 -0.1857 -1.5620
 5101SOL    HW226763   1.468   3.628  14.995 -2.8233  0.2775  3.1826
 5102SOL     OW26764   3.189   4.712   5.797 -0.5496 -0.0073  0.1442
 5102SOL    HW126765   3.123   4.661   5.750  1.3008 -0.7512 -1.6646
 5102SOL    HW226766   3.157   0.075   5.772 -0.8869 -0.2386 -0.2242
 5103SOL     OW26767   3.716   2.528   2.524 -0.3644 -0.3269 -0.3742
 5103SOL    HW126768   3.759   2.599   2.476  1.3420 -0.4423  0.9886
 5103SOL    HW226769   3.625   2.556   2.521 -0.2995 -0.1968 -1.1920
 5104SOL     OW26770   4.370   1.996   8.421 -0.7153  0.6358  0.1800
 5104SOL    HW126771   4.365   2.048   8.501  1.2024  0.2687  0.5561
 5104SOL    HW226772   4.447   1.942   8.440 -1.0090  0.0726 -0.2189
 5105SOL     OW26773   1.963   3.165   9.424 -0.5501  0.5886 -0.0689
 5105SOL    HW126774   1.889   3.162   9.364 -3.0006  0.6922  2.9610
 5105SOL    HW226775   2.025   3.137   9.357 -1.5114  0.2081 -0.7975
 5106SOL     OW26776   3.941   3.073  17.008 -0.3035  0.0061  0.6444
 5106SOL    HW126777   3.916   3.163  17.030  0.1377  0.3175 -0.1010
 5106SOL    HW226778   4.011   3.079  16.943 -1.2277 -0.1009 -0.3779
 5107SOL     OW26779   4.309   0.260  12.458  0.4382 -0.0207 -0.2449
 5107SOL    HW126780   4.346   0.248  12.546  2.9735  3.6052 -0.8335
 5107SOL    HW226781   4.222   0.298  12.470  0.1744 -1.0121  1.0678
 5108SOL     OW26782   0.383   3.291   7.691  0.2776 -0.2974 -0.6867
 5108SOL    HW126783   0.403   3.199   7.675 -2.0610 -0.8841 -0.2905
 5108SOL    HW226784   0.339   3.314   7.609 -0.7481  0.9956  0.2201
 5109SOL     OW26785   4.721   1.256   0.720  0.0905 -0.0938  0.1768
 5109SOL    HW126786   0.065   1.194   0.745 -0.7834 -0.8337  0.7015
 5109SOL    HW226787   4.704   1.238   0.627 -1.6794 -0.0390  0.4807
 5110SOL     OW26788   3.237   2.088   7.658 -0.1938 -0.4040 -0.2411
 5110SOL    HW126789   3.165   2.149   7.642  0.3507  0.1605 -0.5194
 5110SOL    HW226790   3.189   2.016   7.699 -0.1262 -0.6280 -0.5623
 5111SOL     OW26791   4.015   2.969   3.589  0.1962  0.6431  0.1413
 5111SOL    HW126792   3.953   2.931   3.527  0.5600 -1.4793  1.1078
 5111SOL    HW226793   4.087   2.910   3.568  1.2409  1.3615  1.7227
 5112SOL     OW26794   1.228   3.339   6.768 -0.0385  0.5281  0.3649
 5112SOL    HW126795   1.222   3.421   6.817 -3.2739  1.2413 -1.2499
 5112SOL    HW226796   1.211   3.369   6.679  0.1897 -1.1506 -0.2565
 5113SOL     OW26797   2.936   3.850   2.898  0.0406  0.1513  0.8501
 5113SOL    HW126798   2.952   3.927   2.844  0.3799 -0.4796  0.0576
 5113SOL    HW226799   3.020   3.808   2.915 -0.0705  0.2343  1.6136
 5114SOL     OW26800   0.081   2.626   2.061  0.6577 -0.0754  0.0516
 5114SOL    HW126801   0.148   2.595   2.122 -0.1928  0.1945  1.1269
 5114SOL    HW226802   0.133   2.674   1.997 -0.0773  2.4239  1.3114
 5115SOL     OW26803   1.474   1.530   4.689  0.1262  0.0469 -0.2574
 5115SOL    HW126804   1.533   1.601   4.711 -0.4787  0.0390  1.3784
 5115SOL    HW226805   1.410   1.578   4.637 -1.8325 -2.6228 -0.3468
 5116SOL     OW26806   3.455   2.638   2.281  1.4770 -0.2691 -0.1742
 5116SOL    HW126807   3.479   2.651   2.372  0.2875 -0.4083  0.1583
 5116SOL    HW226808   3.398   2.712   2.260  0.9933 -0.6746 -0.2913
 5117SOL     OW26809   3.997   1.392   9.967 -0.3402  0.1319 -0.2744
 5117SOL    HW126810   3.981   1.402  10.061 -1.8470 -1.4896 -0.3695
 5117SOL    HW226811   4.042   1.476   9.956  0.8617 -0.5603 -0.6253
 5118SOL     OW26812   4.441   4.028   6.491 -0.9984  0.3059 -0.3998
 5118SOL    HW126813   4.508   3.972   6.451 -3.3020 -1.7355 -1.3851
 5118SOL    HW226814   4.410   3.976   6.564 -1.5599  1.2104 -0.0029
 5119SOL     OW26815   2.151   0.878   5.707  0.6143 -0.6458 -0.2039
 5119SOL    HW126816   2.133   0.873   5.801 -2.0764 -1.1454 -0.7449
 5119SOL    HW226817   2.136   0.787   5.681  0.1281 -0.3781 -0.8590
 5120SOL     OW26818   2.885   2.820   4.619 -0.1974 -0.2071  0.8429
 5120SOL    HW126819   2.858   2.731   4.593 -1.3716  1.0334 -2.1581
 5120SOL    HW226820   2.958   2.833   4.559 -0.6698  3.1002  1.0352
 5121SOL     OW26821   0.408   3.692  14.967  0.0263 -0.0335 -0.0280
 5121SOL    HW126822   0.444   3.745  14.896 -1.1307 -0.3344 -0.8366
 5121SOL    HW226823   0.456   3.611  14.954 -0.0284  0.2058 -1.8036
 5122SOL     OW26824   0.160   1.442   0.019  0.1163  0.6893 -0.2537
 5122SOL    HW126825   0.200   1.393   0.090  0.7577  1.2185 -0.2539
 5122SOL    HW226826   0.174   1.533   0.046 -0.7815  0.0377  2.3671
 5123SOL     OW26827   4.690   3.702   8.157  0.3849  0.1807  0.7946
 5123SOL    HW126828   0.042   3.642   8.159 -0.1171 -0.4582  0.4250
 5123SOL    HW226829   4.625   3.632   8.152 -0.6824  1.1226  1.7074
 5124SOL     OW26830   2.503   1.757   4.679  0.0593  0.2706  0.3194
 5124SOL    HW126831   2.490   1.754   4.584 -1.5442  0.3344  0.5424
 5124SOL    HW226832   2.487   1.666   4.703  0.0426 -0.5396 -2.7836
 5125SOL     OW26833   4.537   4.628   4.024 -0.1783 -0.1420 -0.1879
 5125SOL    HW126834   4.517   4.567   4.095 -0.9752 -0.1214 -0.3946
 5125SOL    HW226835   4.468   4.601   3.964 -0.2245  0.3932 -0.3723
 5126SOL     OW26836   3.110   3.256   6.397  0.2272 -0.1310 -0.3796
 5126SOL    HW126837   3.153   3.342   6.401  0.6846 -0.3590 -0.2882
 5126SOL    HW226838   3.090   3.250   6.304 -3.3760 -0.1629  0.3997
 5127SOL     OW26839   4.099   3.105   5.305  0.2370 -0.1544  0.0860
 5127SOL    HW126840   4.036   3.035   5.323  1.0896 -0.9465 -0.0104
 5127SOL    HW226841   4.040   3.163   5.257 -0.5218  0.5606  1.8921
 5128SOL     OW26842   4.695   4.065   9.823  0.5577  0.4120 -0.0676
 5128SOL    HW126843   4.678   4.004   9.751  0.8290 -0.6843  0.7973
 5128SOL    HW226844   0.055   4.099   9.793  1.3154  0.1583  1.8030
 5129SOL     OW26845   4.265   3.457   3.517 -0.6017  0.4500 -0.0517
 5129SOL    HW126846   4.255   3.399   3.441  0.5612  1.0326 -0.6499
 5129SOL    HW226847   4.228   3.404   3.588 -0.6652  1.0189  0.3333
 5130SOL     OW26848   3.858   3.320  17.032  0.1569  0.3035  0.2103
 5130SOL    HW126849   3.855   3.407  17.074 -0.8504  0.1156  0.5463
 5130SOL    HW226850   3.889   3.354  16.948 -1.1753  0.4606 -0.2350
 5131SOL     OW26851   4.321   4.323  13.084 -0.1899 -0.7219  0.0142
 5131SOL    HW126852   4.252   4.256  13.077 -0.5125 -0.3788 -0.1219
 5131SOL    HW226853   4.311   4.330  13.179 -1.5533 -2.7614  0.0471
 5132SOL     OW26854   4.126   0.424  11.785 -0.2446  0.0831 -0.1598
 5132SOL    HW126855   4.050   0.390  11.832  0.5207  2.6019  2.9342
 5132SOL    HW226856   4.139   0.350  11.725 -0.3886 -0.5240  0.5518
 5133SOL     OW26857   3.724   4.432   5.283  0.4624  0.1731  0.5776
 5133SOL    HW126858   3.806   4.443   5.235  0.8189  0.6323  1.2923
 5133SOL    HW226859   3.681   4.371   5.223  0.1772  2.2866 -1.3613
 5134SOL     OW26860   3.969   3.015  12.793  0.4568 -0.2923 -0.1517
 5134SOL    HW126861   3.952   3.080  12.861  0.2269  0.3338 -0.8000
 5134SOL    HW226862   3.925   2.938  12.829 -1.8300  0.7245 -0.8056
 5135SOL     OW26863   0.635   3.142   6.682  0.3150  0.7744  0.1101
 5135SOL    HW126864   0.588   3.222   6.657  0.8046  0.8845 -0.4559
 5135SOL    HW226865   0.619   3.087   6.606 -0.2524  2.0081 -0.6620
 5136SOL     OW26866   0.717   0.723   5.259 -0.2035 -0.1410  0.0083
 5136SOL    HW126867   0.754   0.724   5.347  0.0414 -0.3364 -0.0953
 5136SOL    HW226868   0.693   0.814   5.242 -1.6666 -0.6763 -0.7690
 5137SOL     OW26869   4.205   1.911   9.864 -0.0740  0.3558 -0.3249
 5137SOL    HW126870   4.183   1.963   9.942  1.4696  0.4930  0.0149
 5137SOL    HW226871   4.184   1.972   9.792  1.0730  1.7366  0.5037
 5138SOL     OW26872   0.823   0.299   3.684 -0.6359  0.4433  0.3661
 5138SOL    HW126873   0.779   0.254   3.755  0.0463 -1.4893 -0.4330
 5138SOL    HW226874   0.904   0.249   3.696 -0.3489  0.5542 -0.9994
 5139SOL     OW26875   2.443   0.458   4.103 -0.4977 -0.2805 -0.0745
 5139SOL    HW126876   2.426   0.364   4.099 -1.7067 -0.0053 -1.5203
 5139SOL    HW226877   2.508   0.456   4.033 -1.0753  0.1938 -0.6230
 5140SOL     OW26878   3.226   1.733   7.003  0.3172  0.4113  0.3710
 5140SOL    HW126879   3.193   1.789   7.074  0.7441 -0.7387  1.4711
 5140SOL    HW226880   3.315   1.710   7.030  0.1810 -0.3874  0.1305
 5141SOL     OW26881   2.525   1.742   8.381  0.3705  0.0478  0.6118
 5141SOL    HW126882   2.528   1.762   8.475 -0.9280  1.1192  0.4128
 5141SOL    HW226883   2.496   1.817   8.330  1.3734 -0.5758 -0.8922
 5142SOL     OW26884   0.733   0.120  17.633 -0.6751  0.0489 -0.8601
 5142SOL    HW126885   0.708   0.184   0.003 -0.8369 -0.6358 -0.2628
 5142SOL    HW226886   0.709   0.032  17.662  0.1251  0.0177 -0.2864
 5143SOL     OW26887   3.122   1.074   7.341  0.4216  0.6702 -0.4178
 5143SOL    HW126888   3.090   1.110   7.424 -0.2873  2.4255 -1.4539
 5143SOL    HW226889   3.067   0.996   7.338  0.6635  0.4267  1.3143
 5144SOL     OW26890   1.625   4.698   0.035  0.4340  0.2355 -0.6941
 5144SOL    HW126891   1.655   4.608   0.045 -0.7532 -0.0681  0.1379
 5144SOL    HW226892   1.708   0.021   0.043  1.7811 -2.1381 -1.0697
 5145SOL     OW26893   4.352   2.399  11.832  0.1657  1.2556 -0.1214
 5145SOL    HW126894   4.308   2.367  11.911  1.6439 -1.4968 -0.4106
 5145SOL    HW226895   4.369   2.317  11.785 -1.7790  1.8853 -1.8952
 5146SOL     OW26896   3.784   4.256   8.123 -0.0738 -0.0593 -0.2266
 5146SOL    HW126897   3.786   4.267   8.028  0.8571  0.6585 -0.1246
 5146SOL    HW226898   3.871   4.223   8.147  0.5542  1.5766 -0.2524
 5147SOL     OW26899   3.269   4.638  13.712 -0.3055 -0.1323  0.6317
 5147SOL    HW126900   3.227   4.582  13.777 -0.9173  0.9060  1.1349
 5147SOL    HW226901   3.272   4.722  13.758 -1.2465 -0.9405  2.1786
 5148SOL     OW26902   3.712   0.818   0.935 -0.0517  0.0857  1.0196
 5148SOL    HW126903   3.806   0.823   0.950  0.4803 -1.2433 -1.7647
 5148SOL    HW226904   3.683   0.909   0.931  0.2866  0.1679  0.3464
 5149SOL     OW26905   3.654   2.034  10.296 -0.2494  0.0751  0.5535
 5149SOL    HW126906   3.624   2.125  10.292 -2.0816 -0.4453  2.5547
 5149SOL    HW226907   3.691   2.036  10.385  0.7908  0.9044  0.1095
 5150SOL     OW26908   0.169   0.566   8.836 -0.0019 -0.5555 -0.6230
 5150SOL    HW126909   0.144   0.563   8.928  1.1759 -2.5113 -0.3792
 5150SOL    HW226910   0.117   0.494   8.800  0.5510 -2.1614  1.8135
 5151SOL     OW26911   0.822   0.942  15.953 -0.2130 -0.3217 -0.1768
 5151SOL    HW126912   0.749   0.949  15.892 -1.8554  0.6136  1.8661
 5151SOL    HW226913   0.775   0.957  16.036 -2.3837 -1.1402 -1.2477
 5152SOL     OW26914   2.544   1.891   5.331  0.1543  0.7606  0.1724
 5152SOL    HW126915   2.598   1.922   5.404  0.0920  3.0011 -0.7599
 5152SOL    HW226916   2.527   1.799   5.354  3.1377  0.3644  0.7652
 5153SOL     OW26917   4.174   0.698  11.614 -0.0504 -0.0166  0.4466
 5153SOL    HW126918   4.221   0.672  11.693  0.2454  1.3665  0.7239
 5153SOL    HW226919   4.151   0.785  11.648  0.6849 -0.2507  1.5180
 5154SOL     OW26920   0.772   4.264  15.400  0.1519  0.0362 -0.1236
 5154SOL    HW126921   0.768   4.183  15.451 -0.3733 -1.8855 -3.1885
 5154SOL    HW226922   0.865   4.274  15.380  0.1149 -1.6737 -1.1897
 5155SOL     OW26923   0.385   0.360   3.703 -0.1486  0.2934 -0.5332
 5155SOL    HW126924   0.445   0.370   3.628 -0.7049  0.4773 -0.9560
 5155SOL    HW226925   0.377   0.265   3.710 -0.9061  0.3196 -1.0720
 5156SOL     OW26926   0.418   4.123   2.359  0.1507  0.2569 -0.2506
 5156SOL    HW126927   0.511   4.130   2.336  0.7384 -1.6652  1.4792
 5156SOL    HW226928   0.382   4.162   2.280  1.5938 -0.1570 -1.1029
 5157SOL     OW26929   0.873   2.270  16.451  0.1482  0.4369 -0.2538
 5157SOL    HW126930   0.821   2.191  16.435 -0.2209  0.3193  1.4779
 5157SOL    HW226931   0.796   2.317  16.485 -0.5423  1.1073 -2.7064
 5158SOL     OW26932   2.123   4.353   5.743  0.1551  0.2980 -0.1841
 5158SOL    HW126933   2.069   4.330   5.667 -1.1266 -0.7280  1.0298
 5158SOL    HW226934   2.056   4.399   5.794  1.1747  0.6975  0.8152
 5159SOL     OW26935   4.322   1.985   6.606 -1.0093 -0.5021 -0.9458
 5159SOL    HW126936   4.404   1.938   6.615 -0.9304 -0.0749  0.5753
 5159SOL    HW226937   4.318   2.018   6.696  0.5188 -0.0906 -1.0252
 5160SOL     OW26938   0.901   4.251   4.838  0.0414  0.8650  0.3809
 5160SOL    HW126939   0.985   4.268   4.881 -0.3056 -0.2198  1.5122
 5160SOL    HW226940   0.868   4.340   4.830 -2.9741 -0.2455  0.4333
 5161SOL     OW26941   0.463   2.408   9.516  0.3368  0.1100 -0.0168
 5161SOL    HW126942   0.384   2.363   9.548  1.6620 -0.3386  2.6311
 5161SOL    HW226943   0.499   2.453   9.592  0.0650 -2.8127  1.8715
 5162SOL     OW26944   0.943   3.744   6.094 -0.0917  0.2130  0.2824
 5162SOL    HW126945   0.856   3.709   6.078  0.3578 -0.4234 -0.7606
 5162SOL    HW226946   0.937   3.831   6.054  1.6519 -0.2002 -0.8843
 5163SOL     OW26947   1.273   4.290  15.528  0.5145 -0.5084  0.7360
 5163SOL    HW126948   1.216   4.214  15.519  0.1997 -0.5451  2.9871
 5163SOL    HW226949   1.236   4.364  15.479 -0.3502 -1.0883  0.5203
 5164SOL     OW26950   1.959   0.102  16.381  0.0888  0.1825  1.2174
 5164SOL    HW126951   1.988   0.118  16.471 -0.2673  1.2191  1.1459
 5164SOL    HW226952   1.925   0.013  16.385 -0.0388  0.2187  0.9639
 5165SOL     OW26953   0.198   2.590   6.873  0.2259  0.1383  0.1783
 5165SOL    HW126954   0.135   2.558   6.808 -1.1394  1.0093  1.0934
 5165SOL    HW226955   0.147   2.563   6.949 -0.3711 -1.8299 -0.9249
 5166SOL     OW26956   1.193   3.768  10.559  0.4298 -0.2916  0.1937
 5166SOL    HW126957   1.249   3.844  10.574  0.3263 -0.5408  1.8566
 5166SOL    HW226958   1.148   3.758  10.643  0.5081  1.4927  0.4387
 5167SOL     OW26959   2.680   2.005   4.766 -0.4441  0.8550  0.4046
 5167SOL    HW126960   2.698   1.956   4.685 -0.9913  0.2367  0.6496
 5167SOL    HW226961   2.765   2.034   4.799  1.3778 -4.7525  0.7693
 5168SOL     OW26962   1.021   1.312  14.385  0.0271 -0.1569 -0.0526
 5168SOL    HW126963   0.944   1.355  14.348 -0.2907  0.7627  1.6830
 5168SOL    HW226964   0.984   1.226  14.404  1.0268 -0.8585 -1.2470
 5169SOL     OW26965   1.217   0.364   3.107  0.0900  0.5424  0.2804
 5169SOL    HW126966   1.267   0.287   3.081 -1.2877  0.9810 -3.7175
 5169SOL    HW226967   1.210   0.403   3.020 -0.6941 -0.6228 -0.1740
 5170SOL     OW26968   1.989   3.654   2.113 -0.1991 -0.0719 -0.8867
 5170SOL    HW126969   1.949   3.741   2.122  0.9959  0.3352  0.4230
 5170SOL    HW226970   2.055   3.652   2.182 -3.0907 -0.5742  1.8408
 5171SOL     OW26971   1.584   1.468   2.549 -0.2003 -0.1127 -0.1233
 5171SOL    HW126972   1.634   1.476   2.631 -0.3904 -1.4653  0.1181
 5171SOL    HW226973   1.515   1.530   2.574  0.9567  2.0647 -2.2900
 5172SOL     OW26974   0.614   3.224   3.546  0.2831 -0.5657 -0.7882
 5172SOL    HW126975   0.621   3.269   3.462 -0.6476  1.9303  0.4700
 5172SOL    HW226976   0.630   3.297   3.605 -0.6590 -1.4917  0.6164
 5173SOL     OW26977   1.085   2.072   2.666 -0.3644  0.2557  0.6370
 5173SOL    HW126978   1.085   2.167   2.671 -1.6084  0.3717 -1.4409
 5173SOL    HW226979   0.991   2.054   2.665 -0.2031 -0.6114  0.8983
 5174SOL     OW26980   2.625   4.240   6.955  0.0886 -0.5005  0.5976
 5174SOL    HW126981   2.611   4.173   7.023  0.2688  1.5327  2.6424
 5174SOL    HW226982   2.708   4.279   6.983  1.0526 -0.4699 -2.3403
 5175SOL     OW26983   0.203   4.037  11.597  0.5483  0.2214  0.3268
 5175SOL    HW126984   0.264   4.020  11.525  0.4689  0.8709  0.0970
 5175SOL    HW226985   0.247   3.985  11.663  3.6336  1.2425 -0.9152
 5176SOL     OW26986   4.108   2.187   6.176  0.2217 -0.4664  0.0273
 5176SOL    HW126987   4.119   2.166   6.269 -1.5110 -0.3453  0.2695
 5176SOL    HW226988   4.194   2.226   6.163  0.2878 -0.8312 -0.6138
 5177SOL     OW26989   1.394   3.397  16.362  0.8810 -0.3914 -0.0921
 5177SOL    HW126990   1.320   3.446  16.325 -0.9102 -1.8960  1.4437
 5177SOL    HW226991   1.456   3.419  16.293  2.7729  0.7042  1.9543
 5178SOL     OW26992   0.217   3.463   5.297 -0.5183  0.4416  0.4113
 5178SOL    HW126993   0.160   3.539   5.300 -3.5679 -1.8452 -0.2727
 5178SOL    HW226994   0.302   3.499   5.272 -0.1657 -1.2065 -0.7895
 5179SOL     OW26995   3.760   1.038   3.738  0.0265 -0.6910 -0.1749
 5179SOL    HW126996   3.788   1.072   3.654 -1.8399  0.5412 -0.2901
 5179SOL    HW226997   3.674   1.002   3.713  1.0195 -1.6970 -2.1293
 5180SOL     OW26998   2.306   1.638   7.548  0.9216  0.4287  0.2884
 5180SOL    HW126999   2.248   1.640   7.624 -2.7197  0.1677 -2.4845
 5180SOL    HW227000   2.384   1.682   7.582  0.5023  1.4512 -0.0746
 5181SOL     OW27001   3.421   1.312   8.506 -0.2720  0.2258  0.5435
 5181SOL    HW127002   3.358   1.291   8.437  2.0687 -1.4652 -1.0708
 5181SOL    HW227003   3.486   1.241   8.501 -0.4973 -0.0311  1.4642
 5182SOL     OW27004   0.724   0.632  11.319  0.2278  0.0744 -0.0403
 5182SOL    HW127005   0.684   0.649  11.404 -0.4911 -0.9154 -0.1827
 5182SOL    HW227006   0.715   0.714  11.269 -0.0820  0.3308  0.4414
 5183SOL     OW27007   3.508   2.949   2.241  0.3934 -0.2056  0.2058
 5183SOL    HW127008   3.528   2.998   2.321 -1.7083  0.1447  0.5195
 5183SOL    HW227009   3.420   2.914   2.258 -0.0158  1.0391  0.6858
 5184SOL     OW27010   0.611   2.571   5.168 -0.9710  0.6175 -0.4231
 5184SOL    HW127011   0.662   2.574   5.249  0.9519 -2.3420 -1.5160
 5184SOL    HW227012   0.535   2.622   5.195 -0.4908  0.3684  1.3923
 5185SOL     OW27013   1.876   2.812   6.080 -0.2391  0.5358  0.5089
 5185SOL    HW127014   1.883   2.838   5.988 -0.3907  0.4598  0.4771
 5185SOL    HW227015   1.798   2.865   6.098 -1.0456  0.0900 -1.7896
 5186SOL     OW27016   3.567   1.863   7.564 -0.5660 -0.0240 -0.1102
 5186SOL    HW127017   3.647   1.847   7.612 -2.1116  0.5949  2.6989
 5186SOL    HW227018   3.586   1.823   7.479 -1.0700  1.2422 -0.8247
 5187SOL     OW27019   1.727   0.132   8.789  0.0702  0.1494 -0.1056
 5187SOL    HW127020   1.654   0.120   8.850  1.2472 -0.0821  1.2567
 5187SOL    HW227021   1.800   0.116   8.848 -1.1018 -1.5064  0.8828
 5188SOL     OW27022   2.714   3.030   1.937 -0.0557 -0.2593 -0.0676
 5188SOL    HW127023   2.784   3.068   1.990 -1.3725  0.6756  0.9935
 5188SOL    HW227024   2.646   3.015   2.003  0.6682  0.6742  0.8977
 5189SOL     OW27025   1.215   1.893   6.531 -0.7775 -0.4905  0.1932
 5189SOL    HW127026   1.232   1.883   6.624 -1.1269  2.9262  0.6239
 5189SOL    HW227027   1.246   1.813   6.488  1.9917  2.0672 -2.6099
 5190SOL     OW27028   1.177   4.300  11.588 -0.5506 -0.4918  1.0572
 5190SOL    HW127029   1.147   4.380  11.631  0.9652 -1.1954  3.4701
 5190SOL    HW227030   1.221   4.254  11.660 -0.1708 -2.3448 -0.3578
 5191SOL     OW27031   3.067   1.830   4.660 -0.8093  0.0369  0.2383
 5191SOL    HW127032   3.095   1.757   4.605  2.4356  2.5381 -1.3937
 5191SOL    HW227033   3.104   1.799   4.743  0.5017 -3.1783 -1.5698
 5192SOL     OW27034   3.281   1.503   3.908 -0.3149  0.0157  0.5070
 5192SOL    HW127035   3.238   1.583   3.939  2.6039  2.3322 -1.5238
 5192SOL    HW227036   3.310   1.470   3.993 -1.5439 -1.3381  0.4024
 5193SOL     OW27037   0.720   0.985   3.730  0.4673 -0.3206  0.1570
 5193SOL    HW127038   0.637   1.028   3.750  0.0394 -1.0209 -0.1132
 5193SOL    HW227039   0.767   1.051   3.782 -0.9442 -0.3198  1.4538
 5194SOL     OW27040   4.634   3.799  10.432 -0.3428  0.0196  0.5047
 5194SOL    HW127041   4.572   3.872  10.437  0.6415  0.8632  0.3545
 5194SOL    HW227042   4.586   3.717  10.435 -1.6959  0.8179  0.8955
 5195SOL     OW27043   4.203   0.014   5.564 -0.6516  0.0018  0.5585
 5195SOL    HW127044   4.281   0.007   5.619 -1.8309 -0.2814  2.2009
 5195SOL    HW227045   4.244   0.021   5.478 -0.5769 -1.3737  0.4853
 5196SOL     OW27046   2.459   3.477  13.493  0.2893  0.7688  0.2440
 5196SOL    HW127047   2.466   3.523  13.410 -3.2078 -0.5869 -0.7900
 5196SOL    HW227048   2.365   3.483  13.509  0.4558  1.6700  0.9175
 5197SOL     OW27049   1.758   3.988   6.986  0.4131  1.0408  0.2534
 5197SOL    HW127050   1.794   4.028   6.907  0.5347 -0.4191 -0.4433
 5197SOL    HW227051   1.835   3.955   7.032  1.4530  0.7788 -1.6584
 5198SOL     OW27052   1.245   0.474   5.215  0.2608 -0.1139 -0.0101
 5198SOL    HW127053   1.206   0.403   5.164  3.8570 -1.6249 -0.6502
 5198SOL    HW227054   1.176   0.528   5.253  1.3564  1.4545 -0.2636
 5199SOL     OW27055   2.396   2.691   0.412  0.5515  0.2237 -0.2242
 5199SOL    HW127056   2.487   2.693   0.382  0.7735  1.0280  0.4920
 5199SOL    HW227057   2.398   2.654   0.500 -0.2511 -1.2913 -0.8603
 5200SOL     OW27058   4.599   1.499   2.708 -0.0111 -0.3975  0.0826
 5200SOL    HW127059   4.578   1.592   2.699  0.8192 -0.1076  1.0886
 5200SOL    HW227060   4.685   1.496   2.751 -0.6360 -0.2302  1.3571
 5201SOL     OW27061   0.558   2.337  13.496 -0.1225  0.6595  0.6429
 5201SOL    HW127062   0.560   2.303  13.585 -0.9236  2.9368  1.5138
 5201SOL    HW227063   0.540   2.258  13.445 -0.1223  1.1836 -0.1810
 5202SOL     OW27064   0.099   0.319   3.587  0.0426 -0.4151 -1.1338
 5202SOL    HW127065   0.179   0.330   3.639 -1.1043  0.0172  0.5239
 5202SOL    HW227066   0.128   0.319   3.496 -0.2642  1.0932 -1.2449
 5203SOL     OW27067   0.204   0.641   7.110  0.0653 -0.6407  0.1769
 5203SOL    HW127068   0.213   0.675   7.021  0.5294  0.5102  0.6667
 5203SOL    HW227069   0.232   0.549   7.107 -0.1217 -0.6859 -0.1640
 5204SOL     OW27070   2.257   0.902   5.376 -0.6731  0.8381  0.0033
 5204SOL    HW127071   2.264   0.925   5.283 -0.9523 -1.9618 -0.7077
 5204SOL    HW227072   2.256   0.807   5.370  1.8969  0.8781 -0.9016
 5205SOL     OW27073   0.822   1.529   6.157  0.7311  0.2650  0.3907
 5205SOL    HW127074   0.774   1.610   6.137  3.7004  2.2103  1.0870
 5205SOL    HW227075   0.756   1.460   6.154  1.0847 -0.0151 -1.0721
 5206SOL     OW27076   2.497   3.580   4.763  0.3101  0.1774 -0.6908
 5206SOL    HW127077   2.507   3.530   4.844 -0.5067  0.8865 -0.1599
 5206SOL    HW227078   2.414   3.624   4.780  1.1219  1.0111  1.1275
 5207SOL     OW27079   3.458   3.108   7.182  0.2244 -0.7179 -0.1112
 5207SOL    HW127080   3.426   3.195   7.206  0.9311 -0.5994  0.4284
 5207SOL    HW227081   3.462   3.066   7.269 -0.7185 -0.0396  0.2611
 5208SOL     OW27082   2.515   2.033  13.707 -0.0225 -0.0188  0.2568
 5208SOL    HW127083   2.463   1.983  13.770  0.7098 -0.0454  0.8475
 5208SOL    HW227084   2.566   2.098  13.755 -1.2233  0.2645  1.1399
 5209SOL     OW27085   0.538   2.623  17.607  0.2337  0.4877  0.4445
 5209SOL    HW127086   0.540   2.670  17.690  1.2150  1.0435  0.1044
 5209SOL    HW227087   0.614   2.663  17.565 -0.1626  0.1406 -0.5941
 5210SOL     OW27088   4.484   1.563   4.699  0.3585 -0.1611 -0.3325
 5210SOL    HW127089   4.429   1.640   4.682  0.1364 -0.1942  0.2113
 5210SOL    HW227090   4.536   1.594   4.773 -1.1250  2.3304 -0.3079
 5211SOL     OW27091   0.304   3.038   6.647  0.1141 -0.6218  0.2235
 5211SOL    HW127092   0.357   2.967   6.610  1.1139 -0.7678  1.9164
 5211SOL    HW227093   0.271   2.986   6.720 -0.7575 -0.8756 -0.3474
 5212SOL     OW27094   3.252   2.253   4.817 -0.5057  0.2679 -0.2313
 5212SOL    HW127095   3.303   2.176   4.842 -0.2445  0.9694  1.4330
 5212SOL    HW227096   3.173   2.207   4.788 -0.1860 -1.1641  1.1432
 5213SOL     OW27097   2.727   3.305   7.615  0.2557  0.0925  0.2161
 5213SOL    HW127098   2.687   3.306   7.528 -0.1641 -1.8076  0.3754
 5213SOL    HW227099   2.807   3.357   7.603  0.9652 -0.7346  1.3006
 5214SOL     OW27100   3.884   1.297   4.570 -0.5947 -0.6496  0.5026
 5214SOL    HW127101   3.880   1.392   4.554 -0.2535 -0.4727  1.4505
 5214SOL    HW227102   3.890   1.268   4.479  1.1523  2.7955 -0.5250
 5215SOL     OW27103   3.958   2.526   3.670 -0.0752 -0.2500 -0.3885
 5215SOL    HW127104   3.958   2.467   3.745 -2.7689  0.6198  0.2802
 5215SOL    HW227105   4.009   2.602   3.701  0.0581  0.1574 -1.6234
 5216SOL     OW27106   3.019   3.968   0.632 -0.3976 -0.0244 -0.2672
 5216SOL    HW127107   3.036   3.950   0.539 -0.1297 -1.1476 -0.0099
 5216SOL    HW227108   2.976   4.052   0.618  0.1933  0.2218 -0.6553
 5217SOL     OW27109   2.868   0.898   8.616  0.6116 -0.0062 -0.2671
 5217SOL    HW127110   2.922   0.926   8.543  0.2084  2.2518  0.3088
 5217SOL    HW227111   2.915   0.921   8.696  1.4121 -0.5223 -0.5954
 5218SOL     OW27112   0.409   3.773  12.670 -0.6100  0.2997  0.6540
 5218SOL    HW127113   0.362   3.702  12.627 -0.1906  0.5454 -0.2002
 5218SOL    HW227114   0.490   3.724  12.688  0.3116  1.2175 -1.0239
 5219SOL     OW27115   4.019   4.521  15.168  0.0005  0.1895 -0.1989
 5219SOL    HW127116   4.026   4.426  15.164  0.4523  0.2391 -0.5590
 5219SOL    HW227117   4.086   4.551  15.230 -0.6071  1.2732 -0.0556
 5220SOL     OW27118   4.574   4.091  13.017 -0.0941  0.2450  0.3237
 5220SOL    HW127119   4.653   4.051  13.054  1.0697  1.1069 -1.2344
 5220SOL    HW227120   4.513   4.017  13.016  0.8367 -0.5036 -1.0465
 5221SOL     OW27121   4.244   1.328   4.233  0.2259  0.0179 -0.1086
 5221SOL    HW127122   4.192   1.296   4.159 -1.1903 -1.5623  1.5820
 5221SOL    HW227123   4.315   1.366   4.182 -1.3543  0.4739 -1.9998
 5222SOL     OW27124   2.627   2.276   5.428 -0.0277 -0.0589 -0.0585
 5222SOL    HW127125   2.571   2.209   5.390 -0.7226 -0.0036  0.8723
 5222SOL    HW227126   2.710   2.277   5.379  0.6569  1.2207  1.1162
 5223SOL     OW27127   4.535   1.074  10.658 -0.1867  0.1371 -0.1650
 5223SOL    HW127128   4.512   1.065  10.750 -0.2533 -0.6974 -0.2633
 5223SOL    HW227129   4.458   1.046  10.609 -0.2343  1.5646 -0.9091
 5224SOL     OW27130   4.183   2.982   5.068 -0.2301 -0.1181  0.4115
 5224SOL    HW127131   4.248   2.917   5.095 -0.5542 -0.0146  1.4542
 5224SOL    HW227132   4.170   3.032   5.148  0.9579 -1.3674  1.3821
 5225SOL     OW27133   2.638   0.139   6.096  0.3624  0.0344 -0.1113
 5225SOL    HW127134   2.653   0.220   6.146  0.0005 -1.3160  2.2218
 5225SOL    HW227135   2.659   0.165   6.007  1.8761 -2.7452 -0.5718
 5226SOL     OW27136   1.941   4.537  10.105  0.4186  0.0925 -0.2465
 5226SOL    HW127137   1.921   4.628  10.127 -3.3548 -0.5720 -0.9101
 5226SOL    HW227138   2.032   4.528  10.132  0.9549 -1.1482 -2.4778
 5227SOL     OW27139   0.805   4.159   8.707 -0.0363 -0.1347 -0.5671
 5227SOL    HW127140   0.771   4.248   8.702  0.8670  0.3293  1.6622
 5227SOL    HW227141   0.757   4.122   8.780  1.6328 -2.1560 -0.4918
 5228SOL     OW27142   0.122   2.472   8.962  0.2634 -0.0003  0.6494
 5228SOL    HW127143   0.171   2.447   9.040 -0.4618 -1.2186  0.7099
 5228SOL    HW227144   0.034   2.481   8.999  0.5463  0.0231  1.3202
 5229SOL     OW27145   3.932   4.174   2.633 -0.3386 -0.2351 -0.2014
 5229SOL    HW127146   3.999   4.242   2.624  1.2813 -1.6000  1.6537
 5229SOL    HW227147   3.916   4.184   2.727  0.8783 -1.0044  0.0861
 5230SOL     OW27148   0.503   4.077   5.224  0.3407 -0.0925 -0.2692
 5230SOL    HW127149   0.515   4.107   5.314 -1.1162  0.4696 -0.2647
 5230SOL    HW227150   0.504   4.157   5.170  0.7778 -0.3846 -0.6941
 5231SOL     OW27151   1.212   2.105   4.797 -0.4309  0.2213 -0.3335
 5231SOL    HW127152   1.266   2.081   4.873  0.1524 -1.5914 -1.3332
 5231SOL    HW227153   1.215   2.032   4.736 -0.7463  1.2815 -1.6000
 5232SOL     OW27154   1.336   3.427  12.111  0.1073 -0.1353 -0.3974
 5232SOL    HW127155   1.364   3.336  12.105 -1.8018 -0.7110 -0.3952
 5232SOL    HW227156   1.329   3.450  12.018  0.0002 -2.0349 -0.8621
 5233SOL     OW27157   2.355   0.564   2.825 -0.4181 -0.1545  0.3822
 5233SOL    HW127158   2.415   0.490   2.830 -0.3089 -0.0274  1.0426
 5233SOL    HW227159   2.421   0.633   2.834 -2.2858  1.6480  0.1903
 5234SOL     OW27160   3.929   3.668   7.269 -0.0151 -0.5185 -0.2901
 5234SOL    HW127161   3.839   3.700   7.270 -0.1529 -0.8957 -0.3632
 5234SOL    HW227162   3.912   3.574   7.263 -2.2725 -0.3531  3.5561
 5235SOL     OW27163   0.730   0.310   2.155 -0.1170 -0.4721  0.4632
 5235SOL    HW127164   0.674   0.258   2.098 -1.5348  0.4425  1.0070
 5235SOL    HW227165   0.714   0.398   2.121 -0.5604 -0.6175  0.2948
 5236SOL     OW27166   4.646   1.379  16.296 -0.2951 -0.2831  0.2577
 5236SOL    HW127167   4.686   1.460  16.326  1.0946 -1.4751  1.6686
 5236SOL    HW227168   4.643   1.321  16.373 -1.9814 -0.4418  0.0814
 5237SOL     OW27169   1.348   2.394  16.517  0.2470 -0.3839  0.2797
 5237SOL    HW127170   1.267   2.432  16.551  0.9253  0.0790  1.3901
 5237SOL    HW227171   1.407   2.400  16.592 -0.2429  0.3738  0.6071
 5238SOL     OW27172   3.543   0.452  11.324  0.6306 -0.3999 -0.9092
 5238SOL    HW127173   3.620   0.479  11.274 -0.8080  2.6066 -1.5209
 5238SOL    HW227174   3.551   0.358  11.337 -0.2977 -0.3132  0.2664
 5239SOL     OW27175   3.290   4.323   3.817  0.0143  0.0760  0.2177
 5239SOL    HW127176   3.205   4.286   3.841  0.3974  0.3915  2.0852
 5239SOL    HW227177   3.316   4.258   3.753 -1.2339  0.4345 -0.6606
 5240SOL     OW27178   1.286   1.387  16.146  0.1997 -0.3785 -0.3168
 5240SOL    HW127179   1.190   1.386  16.144  0.1872 -3.0421  2.2638
 5240SOL    HW227180   1.300   1.345  16.231 -0.1482 -0.6622 -0.3968
 5241SOL     OW27181   0.282   0.254   1.577  0.1105 -0.3246  0.0795
 5241SOL    HW127182   0.245   0.318   1.638 -1.1175  0.4295 -1.4524
 5241SOL    HW227183   0.323   0.194   1.638  0.0776 -1.1292 -0.6883
 5242SOL     OW27184   4.350   2.919   5.748 -0.3327 -0.6593 -0.3656
 5242SOL    HW127185   4.437   2.889   5.721  1.3333  1.5886  2.4303
 5242SOL    HW227186   4.286   2.878   5.690 -1.6078  0.7548  0.0381
 5243SOL     OW27187   1.168   2.076  14.251 -0.3709 -0.1725  1.1182
 5243SOL    HW127188   1.162   1.998  14.306 -0.7031  0.6993  2.3101
 5243SOL    HW227189   1.144   2.141  14.317  1.9863  1.7464  0.1152
 5244SOL     OW27190   4.012   1.940   8.254 -0.4279 -0.1125  0.8003
 5244SOL    HW127191   3.925   1.950   8.293 -1.0374  0.9142 -0.7918
 5244SOL    HW227192   4.057   2.020   8.281 -0.2719  0.5099 -1.2443
 5245SOL     OW27193   1.312   0.192  11.075  0.4492 -0.3171 -0.0901
 5245SOL    HW127194   1.253   0.137  11.127 -0.4016  0.3677 -0.3461
 5245SOL    HW227195   1.386   0.189  11.136  0.4535 -1.1229 -0.1237
 5246SOL     OW27196   1.016   1.792   0.804  0.0599 -0.3791  0.1450
 5246SOL    HW127197   1.067   1.869   0.781 -1.3482  0.6148  0.3189
 5246SOL    HW227198   0.933   1.837   0.822 -0.4392 -0.9156 -0.7879
 5247SOL     OW27199   4.025   4.122   6.407 -0.1987 -0.3757  0.0152
 5247SOL    HW127200   4.109   4.101   6.367  0.3311 -0.8646  1.3622
 5247SOL    HW227201   3.965   4.064   6.359 -0.0877  1.1140 -1.9278
 5248SOL     OW27202   3.978   0.897   2.413 -0.0057  0.1482 -0.4258
 5248SOL    HW127203   4.015   0.911   2.500 -0.8583 -0.1265 -0.0150
 5248SOL    HW227204   4.043   0.930   2.352 -1.5481 -1.4494 -2.9325
 5249SOL     OW27205   1.539   1.422  14.947  0.1724 -0.3447  0.4179
 5249SOL    HW127206   1.465   1.459  14.900  0.4930  0.3279  0.4412
 5249SOL    HW227207   1.489   1.405  15.027  0.3732 -2.8113  0.0387
 5250SOL     OW27208   0.266   1.363   9.829  0.3069 -0.3751  0.5755
 5250SOL    HW127209   0.346   1.310   9.828  0.8598  0.4620  0.3019
 5250SOL    HW227210   0.299   1.452   9.837 -0.6921  0.2679 -2.7479
 5251SOL     OW27211   3.448   3.475   9.394  0.5666  0.5164 -0.3489
 5251SOL    HW127212   3.503   3.499   9.468  0.0757 -1.4009  0.6517
 5251SOL    HW227213   3.391   3.414   9.441  2.0763 -1.5422 -1.1761
 5252SOL     OW27214   3.976   3.737   6.998 -0.4985  0.0466 -0.2488
 5252SOL    HW127215   3.961   3.764   7.089  1.6991  1.1662 -0.2414
 5252SOL    HW227216   3.922   3.658   6.994 -0.5382  0.0317  0.4736
 5253SOL     OW27217   3.460   2.534   5.643 -0.7726  0.4020  0.2318
 5253SOL    HW127218   3.500   2.618   5.621  0.9163 -0.0560  1.5268
 5253SOL    HW227219   3.488   2.480   5.569 -0.4532  1.3543 -0.3414
 5254SOL     OW27220   1.971   4.024   9.444 -0.2728 -0.5255 -0.2142
 5254SOL    HW127221   1.936   3.949   9.396 -1.1653  0.2263 -0.7451
 5254SOL    HW227222   2.038   4.060   9.387  0.1025  0.9138  1.1204
 5255SOL     OW27223   2.434   1.125   9.554  0.0201 -0.0911  0.1095
 5255SOL    HW127224   2.381   1.178   9.495 -3.1029 -3.7152 -0.3985
 5255SOL    HW227225   2.368   1.071   9.597  1.5925  1.4172  4.3785
 5256SOL     OW27226   3.044   2.486   4.324 -0.6208 -0.5063  0.4473
 5256SOL    HW127227   2.967   2.445   4.363 -1.8181  2.9281  1.6592
 5256SOL    HW227228   3.002   2.543   4.261 -2.9706 -1.4066  1.2111
 5257SOL     OW27229   4.503   0.058   4.431 -0.5543 -0.1253 -0.3105
 5257SOL    HW127230   4.536   4.716   4.491  2.4153  0.6666 -1.0803
 5257SOL    HW227231   4.419   0.020   4.406 -1.8189  0.3283  3.2903
 5258SOL     OW27232   3.882   4.367   6.738  0.2193 -0.2558 -0.0471
 5258SOL    HW127233   3.944   4.365   6.666  0.8792 -0.7011  0.5386
 5258SOL    HW227234   3.921   4.428   6.800 -0.5474  0.5358 -0.3266
 5259SOL     OW27235   1.588   3.931   8.757 -0.6120  0.8463 -0.0017
 5259SOL    HW127236   1.533   3.998   8.716 -0.3700  0.3740 -1.1002
 5259SOL    HW227237   1.672   3.971   8.736  0.4812 -1.5653 -0.1823
 5260SOL     OW27238   1.774   0.352   3.006 -0.4287 -0.6407 -0.0111
 5260SOL    HW127239   1.743   0.293   2.937  1.2117 -2.2975  0.6628
 5260SOL    HW227240   1.761   0.437   2.963 -0.3491  0.0428  1.3090
 5261SOL     OW27241   3.539   0.839   1.308 -0.3452  0.2151  0.0372
 5261SOL    HW127242   3.545   0.848   1.403 -2.3789  0.0712  0.1850
 5261SOL    HW227243   3.456   0.878   1.281  0.5472  1.1935 -1.2934
 5262SOL     OW27244   0.144   0.776  10.164 -0.2659 -0.2368  0.8060
 5262SOL    HW127245   0.186   0.862  10.160  3.5549 -2.1080  1.0407
 5262SOL    HW227246   0.215   0.725  10.125 -0.4955 -0.8374  1.1811
 5263SOL     OW27247   2.695   4.012   8.352  0.4249  0.3777  0.5050
 5263SOL    HW127248   2.668   3.983   8.265  1.3803 -0.8169  0.6085
 5263SOL    HW227249   2.618   4.055   8.389  0.2707  0.5938 -0.0667
 5264SOL     OW27250   2.022   3.724   5.031  0.1387  0.6348  0.2152
 5264SOL    HW127251   2.104   3.678   5.011 -1.1839 -2.0984  1.0765
 5264SOL    HW227252   1.968   3.711   4.953 -0.3321  0.3768  0.5827
 5265SOL     OW27253   3.334   2.244   5.434 -0.7103 -0.1904  0.4037
 5265SOL    HW127254   3.240   2.227   5.447 -0.2931 -1.6859  1.4787
 5265SOL    HW227255   3.356   2.262   5.525  0.3220  2.2664 -0.3289
 5266SOL     OW27256   3.469   1.634   3.449  0.0124 -0.3068 -0.0906
 5266SOL    HW127257   3.408   1.671   3.386  1.1038 -0.8827 -1.4960
 5266SOL    HW227258   3.434   1.629   3.538  0.0614 -2.6897 -0.2059
 5267SOL     OW27259   2.109   3.748  17.594  0.3112  0.2238  0.2800
 5267SOL    HW127260   2.095   3.724  17.686  2.4696 -2.0485  0.0081
 5267SOL    HW227261   2.176   3.684  17.573 -0.0148 -0.2081  0.5335
 5268SOL     OW27262   0.591   0.929   3.161  0.0173 -0.0814 -1.1099
 5268SOL    HW127263   0.668   0.933   3.218  1.5136  2.8554 -3.3186
 5268SOL    HW227264   0.612   0.854   3.106  1.3319 -0.1098 -0.5595
 5269SOL     OW27265   0.404   2.054   4.906 -0.1813  0.2470 -0.0472
 5269SOL    HW127266   0.319   2.017   4.885 -1.5225  2.6757  1.0589
 5269SOL    HW227267   0.450   2.078   4.826  1.1700 -0.2867  0.5616
 5270SOL     OW27268   1.488   3.804   4.306  0.1298 -0.5789  0.3155
 5270SOL    HW127269   1.447   3.891   4.303  0.1896 -0.6250 -2.0733
 5270SOL    HW227270   1.561   3.813   4.245  1.0051  0.5900  1.5218
 5271SOL     OW27271   2.479   0.123  10.820  0.5422 -0.1991 -0.6003
 5271SOL    HW127272   2.423   0.056  10.859 -1.1016  1.1661 -0.6283
 5271SOL    HW227273   2.537   0.066  10.769 -1.7182 -2.3531 -0.7659
 5272SOL     OW27274   1.828   3.281   7.078  0.1791 -0.0002  0.2199
 5272SOL    HW127275   1.919   3.304   7.057 -0.6112  2.5535 -0.3872
 5272SOL    HW227276   1.839   3.268   7.172  1.8123 -0.6920 -0.0569
 5273SOL     OW27277   1.137   1.629   7.417 -0.0843  0.2671 -0.0577
 5273SOL    HW127278   1.081   1.691   7.371 -1.1584  0.2877  1.2463
 5273SOL    HW227279   1.210   1.617   7.357  0.7123  2.6453  0.4507
 5274SOL     OW27280   2.768   3.988   3.889 -0.0575  0.2053 -0.0459
 5274SOL    HW127281   2.854   3.979   3.930 -0.7619 -2.2624  0.9033
 5274SOL    HW227282   2.715   3.942   3.953  0.6936  1.1297  1.2384
 5275SOL     OW27283   1.266   1.343   4.093 -0.0985  0.3511  0.0410
 5275SOL    HW127284   1.344   1.308   4.137  0.3699  4.2973  2.3361
 5275SOL    HW227285   1.298   1.330   4.004 -0.6779 -0.9708  0.0316
 5276SOL     OW27286   2.703   2.722  17.455  0.2373  0.1842 -0.0115
 5276SOL    HW127287   2.769   2.706  17.388 -0.2289 -0.9433 -0.2104
 5276SOL    HW227288   2.750   2.786  17.509  2.1925 -1.8374  0.6874
 5277SOL     OW27289   1.041   4.348   4.443  0.0782 -1.5273 -0.0744
 5277SOL    HW127290   1.074   4.329   4.531  1.1549 -1.3228 -0.4329
 5277SOL    HW227291   0.959   4.299   4.438 -1.9978  2.0352 -0.7514
 5278SOL     OW27292   0.941   4.173  10.520  0.7468 -0.3396 -0.1083
 5278SOL    HW127293   0.979   4.186  10.606  0.9972 -0.8829 -0.1396
 5278SOL    HW227294   0.849   4.191  10.539  1.0429  0.5755  0.4465
 5279SOL     OW27295   0.418   4.635  16.805  0.0742 -0.4499 -0.2548
 5279SOL    HW127296   0.351   4.569  16.787 -0.0880 -0.7226  1.3302
 5279SOL    HW227297   0.393   4.653  16.896 -0.7871 -0.2740 -0.5249
 5280SOL     OW27298   0.851   0.572   7.034 -0.1350 -0.3112  0.0764
 5280SOL    HW127299   0.903   0.652   7.027 -0.1298 -0.3133  0.0914
 5280SOL    HW227300   0.830   0.571   7.127 -1.4445 -1.4511 -0.2275
 5281SOL     OW27301   2.062   3.370  12.653  0.0464 -0.2396  0.1645
 5281SOL    HW127302   2.144   3.345  12.610 -0.2794  0.7129 -1.0150
 5281SOL    HW227303   2.006   3.369  12.575 -1.3909 -0.0872  1.1796
 5282SOL     OW27304   4.443   0.234  12.698 -0.4892 -0.3973  0.1160
 5282SOL    HW127305   4.483   0.277  12.774 -0.2699 -0.2311 -0.0952
 5282SOL    HW227306   4.473   0.147  12.724  2.2616  1.1587  2.1966
 5283SOL     OW27307   3.644   0.952   4.508 -0.4552 -0.5759  0.3438
 5283SOL    HW127308   3.588   0.878   4.487 -2.4670  1.2810 -0.9079
 5283SOL    HW227309   3.728   0.915   4.481  0.9670  0.4996  3.2683
 5284SOL     OW27310   4.612   1.861  13.655  0.5232 -0.2313  0.6754
 5284SOL    HW127311   4.562   1.873  13.736 -0.2594 -2.6010  0.5356
 5284SOL    HW227312   4.680   1.926  13.674 -0.1333  0.3647  0.9948
 5285SOL     OW27313   2.238   0.073  10.161 -0.1391  0.5872  0.4389
 5285SOL    HW127314   2.309   0.131  10.191  1.4318 -0.7600 -0.6623
 5285SOL    HW227315   2.163   0.103  10.212  0.8065  0.4001  1.9189
 5286SOL     OW27316   1.522   4.460   4.182  0.7249 -0.1616  0.1509
 5286SOL    HW127317   1.473   4.427   4.257 -0.9024  0.0277 -0.8428
 5286SOL    HW227318   1.454   4.446   4.117  1.9700 -1.3322 -0.8862
 5287SOL     OW27319   4.588   0.694   6.484 -0.1933 -0.2531 -0.1691
 5287SOL    HW127320   4.513   0.699   6.544  0.2603 -0.5389  0.4172
 5287SOL    HW227321   4.577   0.785   6.458 -0.6832 -0.6992 -1.5332
 5288SOL     OW27322   2.103   3.742   9.506 -0.1260  0.6350  0.0866
 5288SOL    HW127323   2.189   3.711   9.533  0.3439  1.8876  0.0428
 5288SOL    HW227324   2.070   3.796   9.578 -0.3556 -0.5354  0.8570
 5289SOL     OW27325   2.697   2.303   0.342 -0.6452  0.4309 -0.1380
 5289SOL    HW127326   2.679   2.251   0.420  2.0668  1.3066  1.0879
 5289SOL    HW227327   2.777   2.265   0.306 -1.3195 -0.2834 -0.8709
 5290SOL     OW27328   2.308   3.325  12.571 -0.0882  0.0740  0.1282
 5290SOL    HW127329   2.311   3.250  12.512  0.9368  0.4554 -0.2959
 5290SOL    HW227330   2.396   3.356  12.551 -0.2405 -0.0903 -0.7950
 5291SOL     OW27331   2.947   1.754   0.440  0.3898 -0.1890  0.2020
 5291SOL    HW127332   3.034   1.739   0.403  0.3284 -2.8745  1.1513
 5291SOL    HW227333   2.953   1.847   0.460  0.0274 -0.2173  0.4477
 5292SOL     OW27334   1.189   4.579   5.115 -0.1608  0.0452  0.1472
 5292SOL    HW127335   1.225   4.631   5.043  0.6515  1.6542  1.7169
 5292SOL    HW227336   1.130   4.644   5.153  0.3052  0.3412  0.3746
 5293SOL     OW27337   3.446   3.944   6.154  0.2892 -0.2480  0.8296
 5293SOL    HW127338   3.402   4.012   6.104 -0.3027 -0.5053  1.0053
 5293SOL    HW227339   3.518   3.987   6.200  0.1138 -0.2056  1.0601
 5294SOL     OW27340   1.661   1.429  10.059  0.6814 -0.2733 -0.2463
 5294SOL    HW127341   1.681   1.459   9.971  2.2977  2.7647  1.1311
 5294SOL    HW227342   1.587   1.488  10.077  0.8242  0.5862 -2.5356
 5295SOL     OW27343   2.861   3.109   9.866  0.6140 -0.4966 -0.0379
 5295SOL    HW127344   2.924   3.166   9.821 -0.6068  0.7518 -0.1953
 5295SOL    HW227345   2.909   3.086   9.945 -1.3851 -1.0958  1.0099
 5296SOL     OW27346   3.199   2.063   3.107  0.1421 -0.0385  0.4643
 5296SOL    HW127347   3.218   2.153   3.080 -1.0314  0.1568  0.2863
 5296SOL    HW227348   3.255   2.008   3.053 -0.8036 -0.6497  0.0989
 5297SOL     OW27349   4.494   3.658  15.695  0.3576 -0.3015 -0.1206
 5297SOL    HW127350   4.484   3.589  15.630  0.8946  1.3496 -1.9583
 5297SOL    HW227351   4.456   3.737  15.656 -0.2980 -0.0373  1.0606
 5298SOL     OW27352   4.521   3.490  13.484 -0.1331  0.3920 -0.2167
 5298SOL    HW127353   4.519   3.482  13.389  1.4959  1.1784 -0.3151
 5298SOL    HW227354   4.445   3.440  13.513  0.3194 -1.0014 -1.4336
 5299SOL     OW27355   4.043   4.473   8.313  0.1732 -0.6608  0.9043
 5299SOL    HW127356   4.024   4.567   8.317  0.5236 -0.6680  2.8863
 5299SOL    HW227357   3.984   4.441   8.380 -0.6267 -0.2371  0.4006
 5300SOL     OW27358   1.960   1.923   6.324  0.0197 -0.3228  0.0582
 5300SOL    HW127359   2.013   1.961   6.255  2.0215 -0.6373  1.4118
 5300SOL    HW227360   1.971   1.995   6.386  0.9222  0.2106 -0.7151
 5301SOL     OW27361   0.753   3.136   7.840  0.0291 -0.2278 -0.3508
 5301SOL    HW127362   0.834   3.124   7.791 -0.4074 -1.4239 -0.7962
 5301SOL    HW227363   0.752   3.058   7.896  0.0024  0.9419  1.2837
 5302SOL     OW27364   0.095   3.203  12.755  0.0763 -0.3390 -0.2836
 5302SOL    HW127365   0.109   3.189  12.661 -1.2796  0.4740 -0.6055
 5302SOL    HW227366   0.019   3.146  12.768  0.3587 -0.4624  0.7858
 5303SOL     OW27367   0.474   0.786   6.858  0.6594 -0.1223 -0.2553
 5303SOL    HW127368   0.492   0.708   6.805 -1.5732 -0.9805  0.2555
 5303SOL    HW227369   0.385   0.814   6.837  0.1847 -0.3209  1.4671
 5304SOL     OW27370   1.946   2.863   3.840  0.4743  0.2571  0.3467
 5304SOL    HW127371   1.982   2.776   3.860  0.9490  0.0891 -1.2787
 5304SOL    HW227372   2.014   2.893   3.780  0.0674  0.2774 -0.1054
 5305SOL     OW27373   0.015   4.312  12.992 -0.4525  0.1233 -0.2680
 5305SOL    HW127374   0.034   4.315  13.085  2.6101 -0.0615 -0.8741
 5305SOL    HW227375   0.011   4.217  12.981 -0.1255  0.0452  0.3023
 5306SOL     OW27376   4.698   1.600   9.900  1.1414  0.0533 -0.3555
 5306SOL    HW127377   4.643   1.661   9.851 -0.0812 -0.0437  0.9089
 5306SOL    HW227378   0.063   1.620   9.870  1.8204  0.5131  1.9932
 5307SOL     OW27379   4.392   2.505   6.870 -0.0029  0.0515 -0.2575
 5307SOL    HW127380   4.354   2.465   6.792  1.0475  3.4084 -2.4797
 5307SOL    HW227381   4.340   2.454   6.933 -0.2521  0.1537 -0.3786
 5308SOL     OW27382   1.421   1.957   1.135  0.3534  0.4426 -0.3522
 5308SOL    HW127383   1.510   1.937   1.108  0.0830 -1.2061 -0.0203
 5308SOL    HW227384   1.392   1.866   1.139 -1.6857  1.2529  3.0835
 5309SOL     OW27385   2.102   0.205   4.197 -0.2199 -0.3001 -0.0241
 5309SOL    HW127386   2.113   0.135   4.132  0.4559  1.3245 -1.6740
 5309SOL    HW227387   2.023   0.250   4.167 -0.2103 -0.8836 -0.9572
 5310SOL     OW27388   4.551   2.276   4.610  0.2134 -0.7589 -0.8018
 5310SOL    HW127389   4.462   2.266   4.644  0.6161  2.0120  1.0788
 5310SOL    HW227390   4.590   2.339   4.671  1.4096 -0.8961 -1.4406
 5311SOL     OW27391   2.017   2.864   1.313  0.2199 -0.3519  0.2375
 5311SOL    HW127392   1.986   2.953   1.331  0.1985  0.3101 -2.9808
 5311SOL    HW227393   1.951   2.813   1.360  0.4391 -1.7134 -0.9038
 5312SOL     OW27394   4.146   2.100   2.478  0.8161 -0.1486 -0.0450
 5312SOL    HW127395   4.147   2.185   2.434 -1.4005 -0.1766 -0.1390
 5312SOL    HW227396   4.131   2.040   2.405  3.3670  1.7319 -2.1017
 5313SOL     OW27397   0.323   0.053   8.281  0.4077 -0.4104 -0.4139
 5313SOL    HW127398   0.416   0.041   8.300  0.7862  1.1486 -1.2557
 5313SOL    HW227399   0.296   4.685   8.284 -1.4011  0.0765 -1.5820
 5314SOL     OW27400   3.221   2.587  10.366  0.4241 -0.0222  0.4771
 5314SOL    HW127401   3.207   2.566  10.459  2.4527 -2.7255  0.1467
 5314SOL    HW227402   3.286   2.519  10.354  0.8202  0.3656  0.4356
 5315SOL     OW27403   3.897   3.337   4.403 -0.7940  0.5265  0.4762
 5315SOL    HW127404   3.918   3.372   4.489 -1.0323  0.3307  0.6183
 5315SOL    HW227405   3.985   3.327   4.368 -1.9306 -4.3781 -1.0276
 5316SOL     OW27406   0.293   3.881   4.195 -0.2373 -0.1377 -0.1533
 5316SOL    HW127407   0.324   3.874   4.286  2.2645  2.2749 -0.8114
 5316SOL    HW227408   0.375   3.916   4.160 -1.0217  1.2272 -0.6659
 5317SOL     OW27409   2.294   2.331   4.510 -0.3218 -0.0100 -0.3320
 5317SOL    HW127410   2.343   2.293   4.583 -0.9391 -0.0681  0.0534
 5317SOL    HW227411   2.228   2.264   4.492 -0.7071  0.2234  0.2231
 5318SOL     OW27412   1.242   2.666   6.271  0.2453 -0.0683 -0.6391
 5318SOL    HW127413   1.274   2.756   6.265 -2.1195  0.9955  2.7377
 5318SOL    HW227414   1.327   2.623   6.268  1.2153  2.0030 -2.7000
 5319SOL     OW27415   1.889   1.912   2.110  0.7472  0.1801 -0.0823
 5319SOL    HW127416   1.960   1.932   2.171 -0.3715  1.2601  0.8642
 5319SOL    HW227417   1.895   1.817   2.120 -1.4704 -0.0331 -0.8283
 5320SOL     OW27418   0.441   2.970   5.540 -0.2074  0.5073 -0.1397
 5320SOL    HW127419   0.512   3.007   5.592 -2.3998  3.2710  0.8614
 5320SOL    HW227420   0.377   2.936   5.604  1.2869 -0.6411  0.7429
 5321SOL     OW27421   2.137   1.775   6.743 -0.1595 -0.1864  0.1460
 5321SOL    HW127422   2.094   1.861   6.742  1.9364  0.9016  1.2921
 5321SOL    HW227423   2.070   1.728   6.695 -0.4392  0.9248 -0.5492
 5322SOL     OW27424   1.357   2.508   8.052  0.0675 -0.1400  0.0310
 5322SOL    HW127425   1.273   2.552   8.064 -0.2857 -0.8007 -0.0188
 5322SOL    HW227426   1.393   2.509   8.140 -1.7923  2.4805  0.7509
 5323SOL     OW27427   2.892   1.530   6.400 -0.0874  0.4544  0.2605
 5323SOL    HW127428   2.920   1.591   6.332  0.2331 -0.3586 -0.3418
 5323SOL    HW227429   2.907   1.590   6.473  2.8973  1.0661 -0.8545
 5324SOL     OW27430   3.887   3.763   8.322 -0.3863 -0.4166  0.3813
 5324SOL    HW127431   3.963   3.764   8.381  1.3764  1.3985 -1.9435
 5324SOL    HW227432   3.832   3.833   8.359 -0.6412 -0.4606  0.0814
 5325SOL     OW27433   2.061   2.084   5.762 -0.4643 -0.1100  0.2365
 5325SOL    HW127434   2.098   2.048   5.843 -0.2698 -2.5439 -0.9394
 5325SOL    HW227435   1.972   2.047   5.763 -0.6261  0.2941  1.1552
 5326SOL     OW27436   3.926   4.160  14.976  0.3406 -0.0439  0.3391
 5326SOL    HW127437   3.847   4.163  14.921 -0.2786  0.4272  1.2548
 5326SOL    HW227438   3.973   4.081  14.949 -0.8851  0.2598 -2.7247
 5327SOL     OW27439   2.154   3.900   3.867 -0.2697  0.2727  0.6670
 5327SOL    HW127440   2.139   3.985   3.908 -0.3845  0.7867 -0.4570
 5327SOL    HW227441   2.077   3.901   3.810 -0.6312 -0.2545  1.1500
 5328SOL     OW27442   0.339   1.864   4.438 -0.1868 -0.3420  0.0738
 5328SOL    HW127443   0.336   1.785   4.384 -0.6138  0.0064 -0.4199
 5328SOL    HW227444   0.377   1.920   4.371 -1.0717 -2.8832 -2.5646
 5329SOL     OW27445   0.925   2.208   3.137  0.2023 -0.6338  0.3577
 5329SOL    HW127446   0.975   2.138   3.094  1.5142  0.4569  0.0846
 5329SOL    HW227447   0.961   2.217   3.225  0.9309  0.2782 -0.0311
 5330SOL     OW27448   3.270   0.783   9.520  0.1119  0.0864 -0.0709
 5330SOL    HW127449   3.236   0.699   9.552  0.8052 -0.1383  0.0755
 5330SOL    HW227450   3.325   0.806   9.595  2.2398  0.0366 -1.6355
 5331SOL     OW27451   3.220   4.682  14.846 -0.3183 -0.3272  0.0116
 5331SOL    HW127452   3.259   0.012  14.915  0.5860 -0.7478 -0.1646
 5331SOL    HW227453   3.127   4.692  14.864 -0.3863 -0.2489 -0.3851
 5332SOL     OW27454   0.160   1.204   9.645 -0.0396 -0.1940  0.0382
 5332SOL    HW127455   0.069   1.202   9.674 -0.0886 -0.8283 -0.1685
 5332SOL    HW227456   0.189   1.267   9.710 -0.1861 -0.9141  0.7967
 5333SOL     OW27457   0.195   4.117  13.462 -0.3150  0.1153 -0.4808
 5333SOL    HW127458   0.228   4.028  13.452  1.7922  0.9481 -0.7709
 5333SOL    HW227459   0.272   4.150  13.508 -0.5993 -2.6028  1.9878
 5334SOL     OW27460   1.303   1.051   4.675 -0.0154 -0.3533  0.6315
 5334SOL    HW127461   1.361   1.049   4.751  1.4182 -2.6902 -0.5244
 5334SOL    HW227462   1.223   1.008   4.703 -1.4435  0.4452 -2.2271
 5335SOL     OW27463   2.798   3.322  11.672  0.1707  0.4607  0.3893
 5335SOL    HW127464   2.815   3.229  11.656  2.1010  1.1172 -1.3715
 5335SOL    HW227465   2.711   3.336  11.633  0.6575 -0.1159 -0.9186
 5336SOL     OW27466   2.743   2.940  14.330 -0.1202  0.0897 -0.5392
 5336SOL    HW127467   2.724   3.013  14.388 -0.5087  1.5255 -2.4962
 5336SOL    HW227468   2.833   2.957  14.302  1.0277 -1.4533  2.1398
 5337SOL     OW27469   2.791   3.090   5.636 -0.1131  0.0206  0.2191
 5337SOL    HW127470   2.757   3.008   5.599 -0.3444  0.1567  0.1280
 5337SOL    HW227471   2.809   3.067   5.728  0.5173  3.2082  0.8999
 5338SOL     OW27472   1.703   3.476   8.071 -0.5153  0.2201 -0.4789
 5338SOL    HW127473   1.664   3.398   8.032  2.9073 -3.1055  2.7426
 5338SOL    HW227474   1.795   3.449   8.066 -1.0249 -0.8660 -3.6471
 5339SOL     OW27475   2.662   0.444  12.091 -0.4079 -0.1652 -0.2129
 5339SOL    HW127476   2.703   0.359  12.078  0.9426  0.5040 -0.2712
 5339SOL    HW227477   2.617   0.414  12.170 -1.5322 -1.2052 -1.2453
 5340SOL     OW27478   0.208   3.918   2.258 -0.4038 -0.2868  0.1759
 5340SOL    HW127479   0.280   3.941   2.317 -1.0635  0.3917  0.7206
 5340SOL    HW227480   0.149   3.878   2.321  1.5253  0.8004  2.6588
 5341SOL     OW27481   1.336   3.845   8.105 -0.7084 -0.8223  0.1004
 5341SOL    HW127482   1.336   3.751   8.123 -2.9842 -0.3874  2.3364
 5341SOL    HW227483   1.398   3.875   8.172  0.0820 -2.0699 -0.0642
 5342SOL     OW27484   2.615   4.582   7.997  0.5620 -0.7850 -0.2212
 5342SOL    HW127485   2.567   4.612   7.920  1.7806 -3.7013 -2.1303
 5342SOL    HW227486   2.697   4.550   7.960  1.8555  2.5139 -0.1816
 5343SOL     OW27487   4.349   2.465  11.555  0.0281  0.4126  0.2090
 5343SOL    HW127488   4.285   2.401  11.524 -0.9411  1.0564  0.8653
 5343SOL    HW227489   4.314   2.486  11.641  1.8306  0.3373  0.9528
 5344SOL     OW27490   0.160   4.237  14.131  0.2448 -0.3601 -0.0991
 5344SOL    HW127491   0.196   4.277  14.051 -3.1631  2.5880 -0.2083
 5344SOL    HW227492   0.072   4.274  14.130 -0.0249 -0.9904  0.6511
 5345SOL     OW27493   0.580   0.683   6.111  0.1026 -0.5642 -0.4390
 5345SOL    HW127494   0.604   0.761   6.161  0.3188 -1.5864  1.0349
 5345SOL    HW227495   0.544   0.619   6.172 -0.0889 -0.6707 -0.6610
 5346SOL     OW27496   4.522   2.520   3.621 -0.3410 -0.1303 -0.1943
 5346SOL    HW127497   4.532   2.499   3.714  1.5330  0.5142 -0.2460
 5346SOL    HW227498   4.602   2.484   3.582  1.0928  1.9172  0.8130
 5347SOL     OW27499   0.021   3.488   5.671  0.4807 -0.3316 -0.8989
 5347SOL    HW127500   0.030   3.401   5.711 -0.5152  0.0306  0.0999
 5347SOL    HW227501   4.661   3.478   5.627 -1.0769  0.8450  1.8620
 5348SOL     OW27502   2.724   3.865   0.580 -0.0520  0.0699  0.1180
 5348SOL    HW127503   2.656   3.864   0.648 -0.4935 -0.0777 -0.3205
 5348SOL    HW227504   2.804   3.896   0.622 -0.4069  1.1258  0.0196
 5349SOL     OW27505   4.066   4.383   6.518  0.7528  0.6070 -0.2540
 5349SOL    HW127506   4.152   4.380   6.560  0.5667 -2.4123 -0.1182
 5349SOL    HW227507   4.066   4.299   6.472 -0.3416  0.6153 -0.2653
 5350SOL     OW27508   2.801   1.359   5.982  0.0721  0.6942 -0.3613
 5350SOL    HW127509   2.730   1.381   6.043  0.5921  0.5708  0.2800
 5350SOL    HW227510   2.831   1.286   6.036 -0.3467  1.2621  0.6443
 5351SOL     OW27511   1.477   2.175   1.897 -0.2351  0.1628 -0.1014
 5351SOL    HW127512   1.486   2.173   1.993  0.7173 -0.5603 -0.1999
 5351SOL    HW227513   1.511   2.262   1.880 -0.6204  0.3582  0.1225
 5352SOL     OW27514   1.748   0.254  16.325  0.7347 -0.1195  0.3564
 5352SOL    HW127515   1.805   0.188  16.365  1.6620  0.6902  0.3819
 5352SOL    HW227516   1.722   0.206  16.247 -1.8378  0.0225  1.1463
 5353SOL     OW27517   1.509   4.554  16.407  0.3761  0.1961 -0.6008
 5353SOL    HW127518   1.581   4.600  16.451 -1.0247  1.3359  0.5259
 5353SOL    HW227519   1.501   4.470  16.453  1.4893  0.2146 -0.3878
 5354SOL     OW27520   2.092   2.482   2.075 -0.0406 -0.0583 -0.3571
 5354SOL    HW127521   2.107   2.526   1.991  0.7773 -2.2786 -1.3737
 5354SOL    HW227522   2.133   2.539   2.140  1.7852  0.2622 -1.8141
 5355SOL     OW27523   1.310   1.041  15.518  0.6349  0.2049 -0.2512
 5355SOL    HW127524   1.277   0.978  15.582  0.0994  0.3954 -0.3467
 5355SOL    HW227525   1.238   1.035  15.456 -0.3398 -0.2206  0.9210
 5356SOL     OW27526   2.325   0.284   5.105  0.0884 -0.0301 -0.1164
 5356SOL    HW127527   2.232   0.295   5.124  0.1958  0.4012  0.1666
 5356SOL    HW227528   2.356   0.249   5.189  1.8662  0.5193 -0.5443
 5357SOL     OW27529   1.638   1.050   7.476  0.6991  0.7852 -0.6066
 5357SOL    HW127530   1.576   1.120   7.496  1.2041  1.1366 -0.2887
 5357SOL    HW227531   1.694   1.055   7.553 -1.0634  2.4894  0.5764
 5358SOL     OW27532   1.020   2.970   5.454  0.2501 -0.2307  0.0993
 5358SOL    HW127533   1.040   3.024   5.531 -1.4141 -0.1498  0.4678
 5358SOL    HW227534   0.951   3.019   5.409 -0.4520  0.8244  2.2899
 5359SOL     OW27535   1.968   1.313   8.301  0.6600  0.8976  0.4968
 5359SOL    HW127536   1.963   1.353   8.387 -0.5244  0.7494  0.4986
 5359SOL    HW227537   2.031   1.242   8.310  0.1004  0.5053  1.3583
 5360SOL     OW27538   4.183   0.478  13.198  0.1530 -0.5989 -0.1511
 5360SOL    HW127539   4.109   0.538  13.200  0.2835 -0.4428  0.0254
 5360SOL    HW227540   4.182   0.445  13.108  1.0530  0.7016 -0.6275
 5361SOL     OW27541   1.758   1.497  13.517  0.7827  0.1123  0.1389
 5361SOL    HW127542   1.670   1.532  13.507  1.8909  3.4224  1.9171
 5361SOL    HW227543   1.735   1.404  13.518  1.7133 -0.1077  1.4381
 5362SOL     OW27544   1.990   2.026   1.271 -0.6690  0.5855 -0.1713
 5362SOL    HW127545   2.017   1.941   1.236  1.2745  1.0829  0.0716
 5362SOL    HW227546   2.075   2.071   1.274  0.9492 -2.5328  0.3025
 5363SOL     OW27547   0.685   3.643   6.078 -0.0385  0.0116 -0.0301
 5363SOL    HW127548   0.704   3.603   6.163 -0.4618  1.9484  0.9630
 5363SOL    HW227549   0.685   3.563   6.026 -3.7927  1.6111 -2.4670
 5364SOL     OW27550   2.927   3.413   2.139 -0.5886  0.4380  0.3125
 5364SOL    HW127551   2.981   3.380   2.067 -2.0038 -0.7644 -0.1976
 5364SOL    HW227552   2.859   3.346   2.151 -0.0009 -0.0586  0.8802
 5365SOL     OW27553   4.290   4.103   2.195  0.1475  0.3598 -0.1347
 5365SOL    HW127554   4.231   4.028   2.207 -1.3109  1.2759 -1.5492
 5365SOL    HW227555   4.244   4.159   2.133 -0.0529 -1.5326 -1.6716
 5366SOL     OW27556   0.904   2.920   7.490  0.4167 -0.0210  0.4475
 5366SOL    HW127557   0.856   3.002   7.487 -2.1119 -1.5950 -2.3734
 5366SOL    HW227558   0.841   2.849   7.476  0.3518  0.8357 -3.5614
 5367SOL     OW27559   1.636   0.735  15.742 -0.1867 -0.0133  0.4515
 5367SOL    HW127560   1.626   0.710  15.650  0.1846  3.5570 -0.5511
 5367SOL    HW227561   1.545   0.756  15.762 -0.4269 -0.6573  0.0301
 5368SOL     OW27562   1.085   1.416   6.676  0.0117  0.0165  0.0313
 5368SOL    HW127563   1.172   1.386   6.652  0.2087 -0.7790  1.7568
 5368SOL    HW227564   1.075   1.499   6.630 -1.8164  0.5064  1.3048
 5369SOL     OW27565   2.719   0.387   3.359 -0.6641 -0.4963  0.1998
 5369SOL    HW127566   2.684   0.476   3.360 -0.2887 -0.3744  2.8212
 5369SOL    HW227567   2.701   0.365   3.268  0.4199  0.3631 -0.2298
 5370SOL     OW27568   2.952   1.957  16.237  0.2472 -0.3843 -0.2806
 5370SOL    HW127569   3.045   1.943  16.219 -0.1603  0.1854 -2.8931
 5370SOL    HW227570   2.950   2.053  16.232 -0.2311 -0.2915  1.7720
 5371SOL     OW27571   0.025   1.603  16.412  0.2177 -0.4025  0.1052
 5371SOL    HW127572   0.105   1.645  16.442 -0.8427  0.6997  1.3554
 5371SOL    HW227573   4.694   1.680  16.430  1.3811  0.6001 -0.6414
 5372SOL     OW27574   4.289   0.838   5.802 -0.5334 -0.3581  0.0040
 5372SOL    HW127575   4.303   0.784   5.880 -1.1484 -0.4959  0.0191
 5372SOL    HW227576   4.363   0.899   5.806  0.0075 -1.0590  0.6430
 5373SOL     OW27577   2.742   0.269  13.331  0.1138 -0.4469 -0.1327
 5373SOL    HW127578   2.837   0.271  13.346 -0.0308 -4.9164  1.2303
 5373SOL    HW227579   2.729   0.355  13.291  1.3811  0.3026  1.0469
 5374SOL     OW27580   4.618   2.016   5.726 -0.0989  0.6231 -0.0158
 5374SOL    HW127581   4.703   1.975   5.716 -0.3894  0.1252 -0.4819
 5374SOL    HW227582   4.637   2.106   5.699 -0.1806  0.2881 -1.1928
 5375SOL     OW27583   2.476   1.169   3.673  0.1218  0.1967 -0.0954
 5375SOL    HW127584   2.516   1.087   3.645 -3.0444 -1.0962 -0.7940
 5375SOL    HW227585   2.552   1.220   3.701 -0.6727  2.0651 -1.3220
 5376SOL     OW27586   2.730   1.788   0.833  0.7560  0.0920 -0.2397
 5376SOL    HW127587   2.690   1.710   0.871 -0.7408  0.6140 -0.7806
 5376SOL    HW227588   2.789   1.739   0.775  0.0361  1.0636 -1.8064
 5377SOL     OW27589   3.243   2.355  15.580  0.0564 -0.5592 -0.4959
 5377SOL    HW127590   3.336   2.358  15.559  0.1940 -0.0064  0.1686
 5377SOL    HW227591   3.222   2.432  15.527 -2.9447 -0.4841  0.8147
 5378SOL     OW27592   1.560   3.595   4.622  0.0019 -0.3283  0.3087
 5378SOL    HW127593   1.605   3.629   4.700  1.4160  0.2143 -0.7291
 5378SOL    HW227594   1.517   3.531   4.679  0.1231 -0.4510  0.2633
 5379SOL     OW27595   4.393   3.756  15.392  0.5395 -0.2768  0.2365
 5379SOL    HW127596   4.367   3.787  15.479 -1.5953 -1.1242 -0.1076
 5379SOL    HW227597   4.452   3.826  15.364  0.9083  0.6377  3.2881
 5380SOL     OW27598   3.334   0.975   0.667  0.4337 -0.1780  0.6499
 5380SOL    HW127599   3.271   0.991   0.597 -1.4858  0.9180  2.6570
 5380SOL    HW227600   3.297   1.027   0.738 -0.3029 -0.3519  0.3944
 5381SOL     OW27601   2.071   0.511   3.742 -0.5677  0.0127 -0.0533
 5381SOL    HW127602   2.132   0.452   3.787  0.0569 -1.1099 -2.3063
 5381SOL    HW227603   2.072   0.472   3.654  0.6556 -0.5629  0.2162
 5382SOL     OW27604   3.950   1.164  11.826 -0.4140 -0.2960 -0.1061
 5382SOL    HW127605   4.001   1.241  11.850 -1.8005  0.3672  0.6723
 5382SOL    HW227606   3.875   1.153  11.884  0.8056  0.7823  1.6434
 5383SOL     OW27607   2.467   2.652   6.707  0.0181 -0.0591  0.0442
 5383SOL    HW127608   2.462   2.557   6.718  3.5239 -0.6102 -3.2619
 5383SOL    HW227609   2.473   2.657   6.611  0.2920 -2.4100 -0.0603
 5384SOL     OW27610   2.262   3.806  16.496 -0.7466 -0.0961  0.2158
 5384SOL    HW127611   2.292   3.846  16.414 -2.0729 -1.9629 -1.1639
 5384SOL    HW227612   2.217   3.727  16.466  0.3277 -0.0192 -1.6036
 5385SOL     OW27613   1.170   4.722  14.371 -0.2482 -0.5265  0.0065
 5385SOL    HW127614   1.110   4.679  14.431 -1.4028  1.3372  0.1809
 5385SOL    HW227615   1.250   4.669  14.376 -1.7645 -2.6204  1.7279
 5386SOL     OW27616   0.503   4.584  14.385  0.0706 -0.1294 -0.3961
 5386SOL    HW127617   0.555   4.504  14.389  0.4383  0.1588  0.5109
 5386SOL    HW227618   0.500   4.614  14.476  1.0152 -1.0935 -0.0535
 5387SOL     OW27619   2.575   2.591   1.446 -0.0002  0.3525  0.3628
 5387SOL    HW127620   2.611   2.515   1.400 -1.5060 -0.1050 -0.0612
 5387SOL    HW227621   2.635   2.660   1.419  0.3561 -0.3034 -0.5131
 5388SOL     OW27622   2.512   4.245   3.437  0.5155 -0.4839  0.2613
 5388SOL    HW127623   2.597   4.264   3.476 -0.0984  2.0377  0.3366
 5388SOL    HW227624   2.475   4.237   3.525  1.1134  2.0511  0.7497
 5389SOL     OW27625   4.463   4.462   9.063  0.5325  0.1268  0.2691
 5389SOL    HW127626   4.460   4.397   8.992 -0.3935  0.4282  0.0346
 5389SOL    HW227627   4.524   4.525   9.024  1.5739 -0.6975  0.5652
 5390SOL     OW27628   4.266   2.942   2.479 -0.1228  0.5526  0.7262
 5390SOL    HW127629   4.335   2.922   2.416  0.3237  0.7175  1.1680
 5390SOL    HW227630   4.248   3.033   2.456  0.9739  0.3607 -0.8279
 5391SOL     OW27631   4.645   1.650   6.937 -0.3103  0.0849  0.3745
 5391SOL    HW127632   4.640   1.555   6.924  1.9844 -0.1684  1.2467
 5391SOL    HW227633   0.014   1.675   6.944  0.2255 -0.4822 -4.4909
 5392SOL     OW27634   1.143   2.559   3.977  0.2818 -0.9872  0.2897
 5392SOL    HW127635   1.136   2.463   3.982  0.9452 -1.0531 -0.0843
 5392SOL    HW227636   1.108   2.587   4.061 -0.6833 -0.4489 -0.3029
 5393SOL     OW27637   2.143   3.882   1.927 -0.3339  0.2959  0.0995
 5393SOL    HW127638   2.179   3.918   2.008  2.4782 -3.1622  0.3573
 5393SOL    HW227639   2.193   3.801   1.917 -0.0400  0.5903 -0.7872
 5394SOL     OW27640   3.227   0.595   6.826 -0.2544 -0.1668 -0.4307
 5394SOL    HW127641   3.304   0.644   6.795  0.3309 -0.5482  0.4132
 5394SOL    HW227642   3.161   0.662   6.845 -2.0432 -1.2056 -2.9499
 5395SOL     OW27643   4.459   3.981   6.053  0.3414 -0.3425 -0.7025
 5395SOL    HW127644   4.535   3.925   6.065  2.4933  2.9090  0.8671
 5395SOL    HW227645   4.389   3.923   6.024  0.3545 -0.6778 -0.0588
 5396SOL     OW27646   2.953   1.384   2.726  0.3048 -0.2513 -0.1659
 5396SOL    HW127647   2.986   1.383   2.637  0.0260 -0.0053 -0.2722
 5396SOL    HW227648   2.905   1.467   2.725 -0.8151 -0.8789  0.8130
 5397SOL     OW27649   2.532   1.812   8.659  0.9567  0.4570 -0.3771
 5397SOL    HW127650   2.565   1.792   8.746 -0.5947 -1.8452 -0.3156
 5397SOL    HW227651   2.491   1.896   8.680  0.1567  0.5061 -2.1131
 5398SOL     OW27652   3.911   2.658   8.578 -0.4814 -0.0761 -0.0290
 5398SOL    HW127653   3.990   2.614   8.608 -1.4699 -2.3263 -0.7114
 5398SOL    HW227654   3.841   2.595   8.599 -1.6382  2.3889  3.5115
 5399SOL     OW27655   4.170   4.206   9.918 -0.5248  0.6098  0.2323
 5399SOL    HW127656   4.230   4.247   9.981  1.4636 -0.5033 -0.9337
 5399SOL    HW227657   4.106   4.269   9.886 -3.0682 -1.6615  0.8752
 5400SOL     OW27658   1.005   2.446  15.464  0.4679  0.0941 -0.3720
 5400SOL    HW127659   1.071   2.461  15.532  0.5423  1.7059 -0.7949
 5400SOL    HW227660   0.975   2.531  15.433  1.5070  0.5129 -0.2309
 5401SOL     OW27661   0.543   1.416   2.962  0.3677  0.0094  0.1695
 5401SOL    HW127662   0.491   1.377   2.891  0.7089  1.4865 -0.8948
 5401SOL    HW227663   0.533   1.359   3.038 -0.2248 -0.6118 -0.3778
 5402SOL     OW27664   1.260   0.868   0.661  0.6351  0.1059  0.0871
 5402SOL    HW127665   1.238   0.779   0.635 -1.0317  0.4449  0.3302
 5402SOL    HW227666   1.299   0.903   0.581  0.8893  3.2400  1.5591
 5403SOL     OW27667   3.934   4.154   0.116  0.1847  0.0161  0.2806
 5403SOL    HW127668   3.870   4.164   0.045 -0.1472 -0.6153  0.4919
 5403SOL    HW227669   3.941   4.059   0.122 -0.1583  0.0191  0.7446
 5404SOL     OW27670   2.186   3.378   8.724 -0.1327 -0.1889  0.0551
 5404SOL    HW127671   2.180   3.294   8.770  1.0527 -0.8775 -1.0312
 5404SOL    HW227672   2.265   3.357   8.674 -0.7876  0.3317 -1.2063
 5405SOL     OW27673   2.256   1.492   5.572 -0.2760 -0.0383 -0.5104
 5405SOL    HW127674   2.300   1.552   5.632 -0.1838  0.1818 -0.7970
 5405SOL    HW227675   2.180   1.541   5.540 -0.8514 -0.9405 -0.5515
 5406SOL     OW27676   1.760   4.427  11.192 -0.0796  0.2619 -0.0525
 5406SOL    HW127677   1.804   4.484  11.255 -0.1084  1.0482 -0.7423
 5406SOL    HW227678   1.771   4.337  11.220  0.4659  0.5353  0.6081
 5407SOL     OW27679   2.928   4.095   4.295  0.0824  0.1097  0.1783
 5407SOL    HW127680   2.948   4.184   4.266 -0.3725 -0.1006 -0.7674
 5407SOL    HW227681   2.965   4.105   4.382 -1.4196 -0.6378  0.9001
 5408SOL     OW27682   0.893   3.391   4.672 -0.1131  0.1285 -0.4106
 5408SOL    HW127683   0.877   3.314   4.726 -1.0456  1.5676  1.4020
 5408SOL    HW227684   0.818   3.440   4.706  0.0914 -0.6464  1.1572
 5409SOL     OW27685   4.193   3.571   4.896 -0.3776  0.3401  0.3288
 5409SOL    HW127686   4.124   3.597   4.956 -2.1145 -2.1489 -0.5902
 5409SOL    HW227687   4.147   3.511   4.836  0.0564  1.4705 -1.1427
 5410SOL     OW27688   2.422   4.221   1.504 -0.2102 -0.6269  0.4596
 5410SOL    HW127689   2.490   4.225   1.437  0.8157  0.5489  1.5369
 5410SOL    HW227690   2.362   4.156   1.470  0.6313 -1.0024 -0.3226
 5411SOL     OW27691   2.617   4.579  16.367 -0.2523  0.2030 -0.5262
 5411SOL    HW127692   2.546   4.635  16.338  1.0490  0.4963 -3.1157
 5411SOL    HW227693   2.686   4.645  16.377 -1.8403  1.6391  0.8012
 5412SOL     OW27694   1.973   2.783   1.058  0.6953 -0.2171  0.8625
 5412SOL    HW127695   1.967   2.825   1.143  1.7901 -1.5905  1.6269
 5412SOL    HW227696   1.894   2.816   1.017 -0.2830 -2.7657  0.6849
 5413SOL     OW27697   2.784   0.859   4.452  0.5114  0.3163 -0.5661
 5413SOL    HW127698   2.783   0.764   4.439 -0.8064  0.0810  1.4108
 5413SOL    HW227699   2.770   0.871   4.546  1.5632 -1.6536 -0.1580
 5414SOL     OW27700   2.100   0.184  15.614  0.1340  0.0325  0.0567
 5414SOL    HW127701   2.030   0.129  15.649  0.7802 -0.5244  0.4670
 5414SOL    HW227702   2.128   0.225  15.696 -0.3398  0.9508 -0.2329
 5415SOL     OW27703   1.272   0.748   2.987 -0.7344  0.0444  0.1220
 5415SOL    HW127704   1.363   0.741   2.960 -1.0240  0.0171 -0.8816
 5415SOL    HW227705   1.233   0.808   2.922 -0.4625 -1.6868 -1.6373
 5416SOL     OW27706   3.708   4.504  10.242  0.1407 -0.2105 -0.6471
 5416SOL    HW127707   3.708   4.471  10.332 -1.5069  4.0808  0.9402
 5416SOL    HW227708   3.618   4.480  10.219  0.1952  0.4570 -1.5446
 5417SOL     OW27709   2.354   3.676   9.932  0.0756 -0.4678 -0.0097
 5417SOL    HW127710   2.408   3.597   9.924  1.3391  0.1439  2.3153
 5417SOL    HW227711   2.316   3.666  10.019 -2.5952  1.6940 -0.9176
 5418SOL     OW27712   3.978   0.439   7.233  0.1032 -0.0827  0.2296
 5418SOL    HW127713   4.028   0.404   7.306  1.5801  1.3320 -0.1206
 5418SOL    HW227714   4.047   0.460   7.170 -1.0690 -1.4088 -1.5078
 5419SOL     OW27715   2.689   3.489   6.708 -0.1701 -0.3081  0.2594
 5419SOL    HW127716   2.667   3.474   6.616  1.0238 -2.3330  0.3017
 5419SOL    HW227717   2.612   3.450   6.751 -0.0068 -2.0414 -1.0004
 5420SOL     OW27718   4.442   1.780  10.490 -0.5897 -0.2225  0.0967
 5420SOL    HW127719   4.436   1.786  10.395 -2.3208  0.4789  0.2448
 5420SOL    HW227720   4.412   1.866  10.522 -0.2119 -0.3641  0.8353
 5421SOL     OW27721   1.936   1.513  15.461  0.0452 -0.5211  0.0056
 5421SOL    HW127722   1.925   1.481  15.371 -1.9460  0.3363 -0.0653
 5421SOL    HW227723   1.961   1.433  15.507  0.8218  0.6968  1.7170
 5422SOL     OW27724   3.643   2.349   2.698  0.1817  0.7368  0.1307
 5422SOL    HW127725   3.660   2.415   2.630  0.2838  1.1272  0.5347
 5422SOL    HW227726   3.570   2.395   2.740 -1.2708 -0.9289 -0.5341
 5423SOL     OW27727   0.688   0.934   6.781  0.2158  0.1435 -0.3325
 5423SOL    HW127728   0.742   0.971   6.851  1.8906 -3.2262  0.1672
 5423SOL    HW227729   0.615   0.889   6.824  1.8879  0.0450  2.4125
 5424SOL     OW27730   1.687   3.312   4.385  0.2288  0.2743  0.1499
 5424SOL    HW127731   1.653   3.371   4.318  1.5016  0.1986 -0.5762
 5424SOL    HW227732   1.684   3.227   4.340 -1.7333  0.4123  0.0430
 5425SOL     OW27733   4.674   3.070   0.170 -0.2791 -0.4279  0.2636
 5425SOL    HW127734   4.675   3.000   0.235  0.7156 -1.4191 -0.8039
 5425SOL    HW227735   0.002   3.032   0.099  0.0554 -1.7888  1.2406
 5426SOL     OW27736   3.755   3.622   3.816  0.1862  0.5387  0.2272
 5426SOL    HW127737   3.797   3.541   3.847  0.2907  0.3221 -0.4724
 5426SOL    HW227738   3.675   3.597   3.862 -0.3225 -0.3573 -1.1374
 5427SOL     OW27739   0.933   2.719   4.309 -0.1913 -0.1518 -0.1897
 5427SOL    HW127740   0.859   2.698   4.252  0.3804  1.1806 -1.4119
 5427SOL    HW227741   0.982   2.787   4.262  0.9992 -2.2511 -1.9728
 5428SOL     OW27742   3.662   3.002   1.172 -0.3801 -0.1528 -0.0938
 5428SOL    HW127743   3.748   2.970   1.200 -0.7967  0.2918  1.7346
 5428SOL    HW227744   3.633   3.030   1.259  3.0493  2.1091  0.3606
 5429SOL     OW27745   2.973   1.582  16.408  0.2355  0.1320 -0.2998
 5429SOL    HW127746   2.965   1.501  16.459 -0.1661 -1.4641 -2.9213
 5429SOL    HW227747   3.066   1.573  16.387 -0.0954  1.3371 -2.2503
 5430SOL     OW27748   1.331   1.916  14.107 -0.0389  0.0289 -0.3160
 5430SOL    HW127749   1.269   1.968  14.157 -0.7589 -0.3261 -0.8493
 5430SOL    HW227750   1.409   1.906  14.163  0.7293  3.2486 -0.8305
 5431SOL     OW27751   1.166   0.217   8.699 -0.3535  0.2630 -0.5001
 5431SOL    HW127752   1.137   0.299   8.738 -0.2442 -0.2151  0.6044
 5431SOL    HW227753   1.207   0.230   8.614 -0.9407  1.6171 -0.5637
 5432SOL     OW27754   2.615   0.458  13.962  0.4481 -0.9009 -0.1588
 5432SOL    HW127755   2.609   0.462  13.867  0.9410  2.1022 -0.0607
 5432SOL    HW227756   2.553   0.526  13.987 -0.5096 -1.1119 -1.9566
 5433SOL     OW27757   3.584   4.632   7.014  0.6701 -0.2028 -0.3953
 5433SOL    HW127758   3.660   4.601   7.063  1.8405  1.6934 -1.0079
 5433SOL    HW227759   3.526   4.556   7.014  0.1243  0.2227  0.5786
 5434SOL     OW27760   1.954   0.756   5.462  0.3740 -0.1802  0.7218
 5434SOL    HW127761   2.016   0.684   5.461  1.0635  0.4220 -0.1250
 5434SOL    HW227762   1.873   0.706   5.473  1.2005 -2.2868 -2.8909
 5435SOL     OW27763   0.723   3.544  14.557 -0.3545  0.4333 -0.4438
 5435SOL    HW127764   0.812   3.574  14.574 -0.4491 -0.2601  1.3326
 5435SOL    HW227765   0.722   3.464  14.611 -0.5826 -1.7174 -3.6705
 5436SOL     OW27766   3.557   2.374   7.285  0.1976 -0.4100 -0.6343
 5436SOL    HW127767   3.465   2.391   7.263  0.6768  3.5546  0.4633
 5436SOL    HW227768   3.566   2.281   7.306  0.6669  0.0619  1.2311
 5437SOL     OW27769   4.637   2.907   5.662 -0.6139 -0.0950  0.3947
 5437SOL    HW127770   4.610   2.999   5.661 -0.6216 -0.1206 -3.2618
 5437SOL    HW227771   0.003   2.907   5.629 -0.8365  2.0162 -0.2215
 5438SOL     OW27772   4.043   4.029   5.153  0.6665  0.1086 -0.0993
 5438SOL    HW127773   3.972   4.063   5.207  0.8124  0.5298 -0.1774
 5438SOL    HW227774   4.025   3.936   5.171  0.2967  0.2756  0.4009
 5439SOL     OW27775   3.861   1.278   0.484  0.4994  0.4429 -0.0229
 5439SOL    HW127776   3.931   1.215   0.502  0.9249  0.2680 -2.2680
 5439SOL    HW227777   3.900   1.308   0.402 -0.0458 -1.8756 -1.1298
 5440SOL     OW27778   0.656   1.047  12.933  0.4494 -0.3961 -0.3029
 5440SOL    HW127779   0.662   0.979  12.865  1.2473 -1.1312  0.4986
 5440SOL    HW227780   0.730   1.103  12.911  0.5310 -0.6575 -0.7030
 5441SOL     OW27781   2.663   4.477   7.552  0.9911 -0.0092 -0.4672
 5441SOL    HW127782   2.651   4.382   7.543  0.5073 -0.0903  0.9575
 5441SOL    HW227783   2.611   4.496   7.631  0.5119  0.6362 -0.9337
 5442SOL     OW27784   2.133   1.294   7.891  0.1381  0.2431 -0.8032
 5442SOL    HW127785   2.204   1.237   7.922 -0.0149 -0.5235 -1.8387
 5442SOL    HW227786   2.106   1.320   7.979  2.5226 -1.0302  0.3290
 5443SOL     OW27787   4.551   4.085   2.271  0.4887  0.1177 -0.1965
 5443SOL    HW127788   4.457   4.100   2.266  0.2926 -0.5675  1.4666
 5443SOL    HW227789   4.555   3.994   2.243  0.7117  0.2413 -0.5698
 5444SOL     OW27790   1.859   4.572  16.382 -0.0397 -0.1782 -0.5547
 5444SOL    HW127791   1.814   4.511  16.322 -1.0731 -0.3105  0.3581
 5444SOL    HW227792   1.928   4.513  16.412 -1.5590 -1.7534 -0.1223
 5445SOL     OW27793   2.044   4.016   5.870  0.2427 -0.0191 -0.2313
 5445SOL    HW127794   2.009   3.938   5.913  1.3510 -0.0968  0.5355
 5445SOL    HW227795   2.026   4.072   5.946  0.6699 -1.0565  0.6307
 5446SOL     OW27796   2.024   4.207   5.257  0.1186  0.1462  0.3713
 5446SOL    HW127797   2.065   4.148   5.320 -0.6141 -1.1135 -0.3214
 5446SOL    HW227798   1.998   4.275   5.318  2.0455 -0.4017  1.7876
 5447SOL     OW27799   1.398   2.571   4.682 -0.4489 -0.1063 -0.5089
 5447SOL    HW127800   1.443   2.603   4.604 -2.4199  3.5397 -0.1559
 5447SOL    HW227801   1.395   2.477   4.664  1.6486 -0.0815 -1.0493
 5448SOL     OW27802   0.728   4.445  11.168  0.5444 -0.1596 -0.2776
 5448SOL    HW127803   0.716   4.539  11.162 -0.9061 -0.2446  1.4979
 5448SOL    HW227804   0.803   4.428  11.225 -0.2374  0.1253  0.8282
 5449SOL     OW27805   0.806   1.633   8.650  0.5906  0.3243 -0.0253
 5449SOL    HW127806   0.833   1.548   8.684 -0.5546 -0.0829 -0.1559
 5449SOL    HW227807   0.838   1.636   8.560  0.8659  0.2678  0.0714
 5450SOL     OW27808   1.437   2.180   7.945  0.4068  0.7612  0.9800
 5450SOL    HW127809   1.498   2.242   7.905 -0.9451  1.1952 -0.4227
 5450SOL    HW227810   1.474   2.162   8.031  0.7148  2.2259  1.1522
 5451SOL     OW27811   3.437   3.822   7.657  0.2927 -0.3635 -0.4006
 5451SOL    HW127812   3.349   3.814   7.693 -0.0227  0.8205 -0.9232
 5451SOL    HW227813   3.440   3.915   7.637  0.1737 -0.1117  0.7968
 5452SOL     OW27814   2.667   3.819  16.810 -0.3967  0.5788  0.4962
 5452SOL    HW127815   2.720   3.739  16.804 -1.1385  0.2677 -1.8093
 5452SOL    HW227816   2.607   3.796  16.739 -0.4778  1.8539  0.1551
 5453SOL     OW27817   2.121   1.538   7.721  0.1519  0.2890  0.0493
 5453SOL    HW127818   2.115   1.448   7.753 -1.2382  0.2779 -0.2260
 5453SOL    HW227819   2.086   1.546   7.632  1.8040 -1.2871 -0.7208
 5454SOL     OW27820   1.400   0.004   6.831  0.0532  0.0333 -0.2408
 5454SOL    HW127821   1.476   0.002   6.890 -0.5043  1.3282  0.5095
 5454SOL    HW227822   1.392   4.632   6.823 -1.9251  0.1282  0.5431
 5455SOL     OW27823   0.047   1.004  10.525 -0.1907  0.2523 -0.3665
 5455SOL    HW127824   4.686   1.042  10.547 -1.1783 -2.6201  0.7502
 5455SOL    HW227825   0.083   0.987  10.612 -1.6349  1.6732  0.4958
 5456SOL     OW27826   0.300   2.507   7.772  0.4399  0.0535  0.3684
 5456SOL    HW127827   0.380   2.557   7.783 -0.1900  1.1497 -0.0708
 5456SOL    HW227828   0.259   2.529   7.855  1.9123 -0.3198  1.1942
 5457SOL     OW27829   4.554   1.149   9.784 -0.6992 -0.2512  0.6829
 5457SOL    HW127830   4.463   1.138   9.811 -0.5807 -0.6998  0.9152
 5457SOL    HW227831   4.557   1.239   9.752 -1.0322 -0.1972  0.8116
 5458SOL     OW27832   0.263   0.070   5.088 -0.2059  0.5608 -0.7839
 5458SOL    HW127833   0.335   0.128   5.066  1.7947 -1.1082  1.4206
 5458SOL    HW227834   0.186   0.120   5.059 -0.4982  0.8849  0.5435
 5459SOL     OW27835   3.075   3.128   1.489 -0.0300 -0.0547 -0.7938
 5459SOL    HW127836   3.102   3.037   1.500  1.5558  0.7123  1.5585
 5459SOL    HW227837   3.052   3.130   1.396 -1.3423 -0.5880 -0.4845
 5460SOL     OW27838   3.960   1.338   2.765  0.2128 -0.2585 -0.6939
 5460SOL    HW127839   3.951   1.250   2.729 -0.2707  0.5885 -2.6177
 5460SOL    HW227840   3.991   1.316   2.853  1.0933 -0.7576 -1.1317
 5461SOL     OW27841   4.296   2.791   6.519 -0.8045  0.3700  0.0095
 5461SOL    HW127842   4.305   2.825   6.430  0.5709 -0.8736 -0.3357
 5461SOL    HW227843   4.373   2.734   6.530 -0.6443  0.6406  0.2767
 5462SOL     OW27844   3.941   1.817  15.229  0.3648 -0.4437 -0.3575
 5462SOL    HW127845   4.006   1.746  15.233  0.9048  0.1596  1.6008
 5462SOL    HW227846   3.993   1.892  15.258 -1.1503  0.7043 -0.6386
 5463SOL     OW27847   2.363   4.055   4.753  0.2149  0.8480 -0.3446
 5463SOL    HW127848   2.288   4.008   4.717 -0.2079  1.4962 -0.3105
 5463SOL    HW227849   2.437   3.995   4.741 -0.8765 -0.2440 -1.6212
 5464SOL     OW27850   1.159   0.781   6.842 -0.2016 -0.2366  0.3645
 5464SOL    HW127851   1.134   0.689   6.849 -0.7663 -0.1048  0.0320
 5464SOL    HW227852   1.088   0.825   6.888 -1.9474 -1.5870 -1.0736
 5465SOL     OW27853   3.141   3.697   7.495  0.2592 -0.0567 -0.4117
 5465SOL    HW127854   3.105   3.655   7.416 -2.4967 -0.5369  1.0982
 5465SOL    HW227855   3.230   3.664   7.484  0.4800  0.4322 -0.0539
 5466SOL     OW27856   4.505   0.954  11.718 -0.1453  0.6268  0.0652
 5466SOL    HW127857   4.582   1.002  11.749  1.3874  0.5769 -3.6707
 5466SOL    HW227858   4.511   0.868  11.760 -0.4191  1.2060  1.2871
 5467SOL     OW27859   1.224   4.048  10.543  0.2918 -1.3436  0.0818
 5467SOL    HW127860   1.157   4.116  10.552 -0.0164 -1.6493  0.0830
 5467SOL    HW227861   1.302   4.092  10.576 -0.0953  0.0208 -0.8281
 5468SOL     OW27862   4.658   3.916   9.603  0.5722  0.2612 -0.1587
 5468SOL    HW127863   4.719   3.846   9.579 -1.1261 -1.4606  0.6122
 5468SOL    HW227864   4.642   3.960   9.520  0.5550  0.2726 -0.1493
 5469SOL     OW27865   0.011   0.268  14.987 -1.0014 -0.2633  0.1304
 5469SOL    HW127866   4.667   0.222  14.936 -0.3523 -2.6262  1.3901
 5469SOL    HW227867   4.711   0.359  14.969  0.8431 -0.6356 -4.1599
 5470SOL     OW27868   2.316   1.641   6.896  0.3821  0.0756 -0.0222
 5470SOL    HW127869   2.358   1.678   6.973  0.0754 -2.5463  1.3936
 5470SOL    HW227870   2.252   1.706   6.868  1.0983  0.7042 -0.1890
 5471SOL     OW27871   1.804   3.752   8.517  0.0958  0.1751  0.0736
 5471SOL    HW127872   1.781   3.825   8.575  0.4331  0.2820  0.0698
 5471SOL    HW227873   1.850   3.702   8.585 -0.5459 -0.2678  0.1819
 5472SOL     OW27874   2.498   2.479   8.722  0.8792  0.7527 -0.0721
 5472SOL    HW127875   2.403   2.490   8.728  0.6799 -1.4296  1.0886
 5472SOL    HW227876   2.523   2.510   8.635 -0.0992 -0.8564 -0.9310
 5473SOL     OW27877   2.650   0.454  13.665 -0.2863  0.2963 -0.2069
 5473SOL    HW127878   2.738   0.481  13.639 -1.3682  0.8663 -3.2613
 5473SOL    HW227879   2.640   0.364  13.634 -0.9681  0.4366 -0.3866
 5474SOL     OW27880   2.132   2.587   4.641  0.5672 -0.0438 -0.3451
 5474SOL    HW127881   2.137   2.515   4.578  0.9031 -1.1019  0.8817
 5474SOL    HW227882   2.039   2.607   4.641  0.6958  0.5144 -3.1916
 5475SOL     OW27883   2.277   4.655   3.336  0.6857  0.5277 -0.0576
 5475SOL    HW127884   2.237   4.592   3.396 -2.6029  1.9688 -0.7410
 5475SOL    HW227885   2.314   4.595   3.272 -2.0895 -0.4517 -0.7219
 5476SOL     OW27886   0.028   2.220   2.865  0.2209  0.0484  0.0663
 5476SOL    HW127887   0.097   2.281   2.892  0.3444 -0.0718  0.0172
 5476SOL    HW227888   4.705   2.277   2.804 -0.7734 -0.7790  0.0428
 5477SOL     OW27889   4.438   1.926   4.846 -0.0584 -0.2742  0.0023
 5477SOL    HW127890   4.487   1.947   4.925  0.4023 -0.5182 -0.2175
 5477SOL    HW227891   4.491   1.972   4.781 -0.6839  0.9850  0.3793
 5478SOL     OW27892   4.501   4.266   3.190 -0.1577 -0.2121 -0.0563
 5478SOL    HW127893   4.584   4.290   3.148  0.2573  0.4982  1.1870
 5478SOL    HW227894   4.443   4.284   3.116  0.6864  1.0037 -0.4309
 5479SOL     OW27895   0.998   2.627   1.384 -0.2474 -0.5235  0.1219
 5479SOL    HW127896   1.043   2.699   1.428  0.3500  0.5284 -2.1594
 5479SOL    HW227897   1.017   2.561   1.450 -2.5560  0.7243  2.0265
 5480SOL     OW27898   3.653   1.244   7.273 -0.8554 -0.4959 -0.6001
 5480SOL    HW127899   3.558   1.250   7.279 -0.8739 -0.0945 -1.2036
 5480SOL    HW227900   3.683   1.316   7.329  1.4231 -2.1055  0.2404
 5481SOL     OW27901   2.699   4.601  14.999 -0.6179 -0.0538 -0.2415
 5481SOL    HW127902   2.618   4.608  14.948 -0.7060  2.3633  0.2330
 5481SOL    HW227903   2.692   4.515  15.040 -0.3867 -0.5275 -1.2005
 5482SOL     OW27904   3.338   4.432   7.681  0.2647  0.2796 -0.0968
 5482SOL    HW127905   3.251   4.470   7.676  1.0046  1.9671 -0.0796
 5482SOL    HW227906   3.346   4.421   7.775  0.0662 -1.4101 -0.2751
 5483SOL     OW27907   0.116   1.710  12.300  0.0648 -0.5341 -0.4578
 5483SOL    HW127908   0.027   1.674  12.299 -0.8228  1.6397 -1.4765
 5483SOL    HW227909   0.144   1.707  12.391  1.6926 -3.0720 -1.0476
 5484SOL     OW27910   3.425   1.531   6.541 -0.3035 -0.5841 -0.0403
 5484SOL    HW127911   3.477   1.520   6.621  1.7734  0.0728 -1.2952
 5484SOL    HW227912   3.339   1.503   6.573  0.0809 -0.9159  0.6816
 5485SOL     OW27913   4.574   1.243   1.615 -0.0749 -0.4145 -0.0139
 5485SOL    HW127914   4.487   1.206   1.627 -0.2466 -0.1589 -0.4632
 5485SOL    HW227915   4.571   1.259   1.521  0.5711  0.0542  0.0436
 5486SOL     OW27916   1.727   2.865   4.483  0.4649  0.3971  0.3503
 5486SOL    HW127917   1.697   2.955   4.495 -3.9738 -1.3274  2.1351
 5486SOL    HW227918   1.804   2.880   4.429  0.2765 -0.3112 -0.1119
 5487SOL     OW27919   2.347   3.654   7.888  0.2609 -0.6460 -0.3082
 5487SOL    HW127920   2.296   3.582   7.851 -0.2638  0.8174 -2.4447
 5487SOL    HW227921   2.378   3.608   7.966  0.0660 -3.0645 -1.6738
 5488SOL     OW27922   4.474   3.067   3.863  0.1364  0.4014  0.5952
 5488SOL    HW127923   4.437   2.998   3.808 -3.1996  1.3344  1.6674
 5488SOL    HW227924   4.465   3.039   3.954  4.1047 -0.8051  0.6234
 5489SOL     OW27925   0.029   2.499  16.745 -0.0846  0.2744  0.1285
 5489SOL    HW127926   0.113   2.535  16.715 -0.5270  0.3507 -1.0160
 5489SOL    HW227927   0.058   2.409  16.761 -2.7597 -0.4628  0.8178
 5490SOL     OW27928   1.137   4.199   3.794  0.0230 -0.1875 -0.9013
 5490SOL    HW127929   1.099   4.286   3.802 -0.7554 -0.3893 -2.4781
 5490SOL    HW227930   1.134   4.182   3.700 -1.1934  2.5507 -1.3362
 5491SOL     OW27931   3.949   0.537   2.271  0.3829 -0.2660 -0.1408
 5491SOL    HW127932   4.032   0.509   2.310 -0.2286 -2.1141 -0.1426
 5491SOL    HW227933   3.970   0.602   2.204  1.1758  0.2222  0.5715
 5492SOL     OW27934   4.443   1.486  10.143 -0.2760 -0.1685 -0.2809
 5492SOL    HW127935   4.440   1.486  10.239 -1.0461 -0.4695 -0.3024
 5492SOL    HW227936   4.361   1.444  10.117 -0.4625 -0.3163  0.5538
 5493SOL     OW27937   2.606   3.701   8.911  0.2296 -0.0545  0.4243
 5493SOL    HW127938   2.669   3.652   8.860  1.0386 -0.4246  1.7709
 5493SOL    HW227939   2.656   3.782   8.918  0.1384 -0.0464  0.9877
 5494SOL     OW27940   0.743   2.009  11.923 -0.1520  0.6497  0.6278
 5494SOL    HW127941   0.650   2.031  11.927  0.1808  2.3479 -0.7044
 5494SOL    HW227942   0.775   2.092  11.889  0.9701  0.4288  1.1610
 5495SOL     OW27943   2.669   1.064  17.325  0.3418 -0.2337  0.5576
 5495SOL    HW127944   2.692   0.986  17.274 -0.4935  0.8165 -1.4204
 5495SOL    HW227945   2.618   1.109  17.258 -2.3569 -2.0931  1.3648
 5496SOL     OW27946   0.396   1.573   9.358  0.0414  0.1534  0.0196
 5496SOL    HW127947   0.328   1.602   9.419 -0.9297 -2.0832  0.0072
 5496SOL    HW227948   0.466   1.599   9.418 -0.3784 -0.8674  0.9286
 5497SOL     OW27949   2.873   0.142   7.313 -0.4238  0.0218 -0.3392
 5497SOL    HW127950   2.938   0.078   7.342  0.3075  0.0559 -1.9301
 5497SOL    HW227951   2.800   0.093   7.351 -0.4724  1.0507  0.9041
 5498SOL     OW27952   4.129   2.533  14.827 -0.4821  0.5710 -0.0235
 5498SOL    HW127953   4.196   2.479  14.871 -0.0727  0.4040 -0.8584
 5498SOL    HW227954   4.177   2.569  14.753 -0.0634  2.0684  0.9663
 5499SOL     OW27955   0.244   2.899   4.794 -0.0375 -0.1819  0.5249
 5499SOL    HW127956   0.158   2.877   4.757  0.3635  1.1272 -1.2155
 5499SOL    HW227957   0.223   2.992   4.800  0.7030 -0.1063  1.9808
 5500SOL     OW27958   3.444   3.177   6.699 -0.6210  0.1022 -0.0803
 5500SOL    HW127959   3.378   3.202   6.764  1.4196  2.6848  0.9898
 5500SOL    HW227960   3.518   3.230   6.729 -1.1377  0.8272 -0.1075
 5501SOL     OW27961   1.111   0.079   5.595 -0.7979  0.0539  0.2223
 5501SOL    HW127962   1.152   0.001   5.634  0.9802  1.3579  0.9231
 5501SOL    HW227963   1.132   0.145   5.661 -1.5812 -1.3518  1.8840
 5502SOL     OW27964   3.985   3.584   5.098 -0.0974 -0.0996  0.3091
 5502SOL    HW127965   3.920   3.639   5.054  0.2826 -0.1218 -0.2916
 5502SOL    HW227966   3.929   3.514   5.134 -0.6433  0.2367  0.1131
 5503SOL     OW27967   2.534   4.045  15.526  0.2123 -0.1573  0.2172
 5503SOL    HW127968   2.441   4.040  15.502  0.6058  0.8949 -1.5393
 5503SOL    HW227969   2.541   4.121  15.583  0.6066  0.2768 -0.4117
 5504SOL     OW27970   0.081   2.055   9.847 -0.3656 -0.1297  0.2303
 5504SOL    HW127971   4.718   2.091   9.867 -1.1626 -1.3021 -1.0168
 5504SOL    HW227972   0.100   2.083   9.757  0.8335 -0.7917  0.2745
 5505SOL     OW27973   0.421   2.227   7.516  0.3325  0.0440  0.9329
 5505SOL    HW127974   0.408   2.207   7.423  1.3985 -2.7479  1.3718
 5505SOL    HW227975   0.351   2.173   7.552 -1.2276  1.4267 -0.0458
 5506SOL     OW27976   0.235   2.073   7.629 -0.3772  0.5656  0.3158
 5506SOL    HW127977   0.246   2.139   7.698  3.2170 -0.5482  0.8111
 5506SOL    HW227978   0.142   2.049   7.628 -0.0702 -0.7363  2.4200
 5507SOL     OW27979   4.407   0.893   8.738 -0.3001  1.0264 -0.2524
 5507SOL    HW127980   4.316   0.862   8.734 -0.4900  1.2686  2.7071
 5507SOL    HW227981   4.405   0.973   8.789 -1.9597 -0.3345  1.7907
 5508SOL     OW27982   3.111   4.573  12.358  0.0371  0.0854 -0.2233
 5508SOL    HW127983   3.175   4.561  12.288 -1.5965 -1.4256 -1.4552
 5508SOL    HW227984   3.164   4.594  12.435 -2.8329  1.8889  1.2593
 5509SOL     OW27985   1.787   3.142   9.202 -0.0593  0.5333 -0.2103
 5509SOL    HW127986   1.745   3.198   9.137 -2.8428 -1.8099 -0.4455
 5509SOL    HW227987   1.704   3.107   9.233 -0.8877  2.4573 -0.2732
 5510SOL     OW27988   4.035   3.493   8.863  0.2980  0.2281 -0.2110
 5510SOL    HW127989   4.095   3.419   8.860 -0.1003 -0.0105 -2.3401
 5510SOL    HW227990   3.962   3.444   8.899  0.7272  0.2646  0.6973
 5511SOL     OW27991   2.384   0.022   6.078 -0.0698 -0.0270  0.0630
 5511SOL    HW127992   2.464   0.060   6.041  0.0437 -2.1233 -1.8360
 5511SOL    HW227993   2.416   4.698   6.155  0.6982  0.1323 -0.1604
 5512SOL     OW27994   1.881   2.206   4.935 -0.4568  0.2354 -0.6047
 5512SOL    HW127995   1.905   2.292   4.971 -0.7829 -0.4501  1.2411
 5512SOL    HW227996   1.938   2.203   4.858 -0.5721  0.8442 -0.7169
 5513SOL     OW27997   4.314   2.603   0.093  0.2575  0.2631 -0.7814
 5513SOL    HW127998   4.286   2.695   0.092  0.6291  0.3652 -1.8490
 5513SOL    HW227999   4.327   2.573   0.003  1.5142  0.9215 -0.8236
 5514SOL     OW28000   3.003   4.317  13.803  0.5271 -0.2969 -0.3611
 5514SOL    HW128001   3.069   4.384  13.820  0.8057 -0.6758  0.0743
 5514SOL    HW228002   3.055   4.256  13.750 -0.3433 -2.6207  1.4235
 5515SOL     OW28003   4.408   3.050   0.108  0.4410 -0.1790 -0.1709
 5515SOL    HW128004   4.433   3.106   0.035  0.8888 -2.1840 -1.5799
 5515SOL    HW228005   4.488   3.026   0.156 -0.3090 -0.2503  1.0338
 5516SOL     OW28006   1.205   3.631  16.323  0.6189 -0.0350 -0.0512
 5516SOL    HW128007   1.209   3.654  16.230 -1.6957  0.1088 -0.1105
 5516SOL    HW228008   1.121   3.585  16.327 -0.3623  1.6926 -0.9327
 5517SOL     OW28009   2.390   0.181   3.340 -0.3032  0.0774 -0.1214
 5517SOL    HW128010   2.452   0.162   3.270 -2.9496  1.1954 -2.7945
 5517SOL    HW228011   2.349   0.097   3.360 -0.3709  0.3249  0.7828
 5518SOL     OW28012   3.626   2.846   4.725 -0.2588 -0.5988 -0.3761
 5518SOL    HW128013   3.538   2.875   4.748 -0.3395 -0.5335 -0.7577
 5518SOL    HW228014   3.623   2.762   4.771 -0.8780 -0.6828 -0.5719
 5519SOL     OW28015   0.340   1.273   2.764  0.1748  0.3879 -0.1330
 5519SOL    HW128016   0.328   1.368   2.760  0.1153  0.4130  0.5810
 5519SOL    HW228017   0.261   1.256   2.815  0.8780 -0.8208  0.5270
 5520SOL     OW28018   2.965   2.067   6.294 -0.4189 -0.2136 -0.5011
 5520SOL    HW128019   3.018   1.991   6.272 -0.0248  0.6613 -2.5701
 5520SOL    HW228020   3.026   2.140   6.297 -0.3062 -0.4581  2.8269
 5521SOL     OW28021   0.974   3.353   3.377  0.1378 -0.3352  0.4354
 5521SOL    HW128022   1.011   3.401   3.303 -2.6023 -0.6746 -1.1466
 5521SOL    HW228023   0.884   3.335   3.351 -0.0628  0.0542  0.8727
 5522SOL     OW28024   3.862   0.901  13.676  0.7399  0.0776  0.4285
 5522SOL    HW128025   3.900   0.918  13.590  1.6095 -0.4159  0.7119
 5522SOL    HW228026   3.772   0.932  13.668  0.4505 -0.6596  0.8060
 5523SOL     OW28027   1.088   0.963  13.576  0.3661 -1.0260 -0.0816
 5523SOL    HW128028   1.117   0.949  13.666  0.4968 -1.4876 -0.1953
 5523SOL    HW228029   1.005   1.002  13.602 -0.6362 -1.9409 -1.9700
 5524SOL     OW28030   1.527   4.180  16.332  0.2934  0.7650  0.1261
 5524SOL    HW128031   1.441   4.216  16.354  1.5045  2.9296  1.2174
 5524SOL    HW228032   1.562   4.246  16.272  0.2225  0.7685  0.0884
 5525SOL     OW28033   1.540   0.053   0.313  0.0701 -0.2707  0.2930
 5525SOL    HW128034   1.563   0.094   0.229  0.2920 -1.1434 -0.0694
 5525SOL    HW228035   1.544   4.685   0.286  0.1738 -0.0003 -0.6168
 5526SOL     OW28036   2.296   0.836   7.936 -0.6401 -0.3197 -0.4250
 5526SOL    HW128037   2.339   0.918   7.909 -1.3410  0.8796  2.1471
 5526SOL    HW228038   2.364   0.776   7.967  0.6254  2.0018  1.3064
 5527SOL     OW28039   3.563   1.295   6.707  0.3368 -0.2060  0.2370
 5527SOL    HW128040   3.656   1.314   6.697  0.3457 -0.9309 -1.0460
 5527SOL    HW228041   3.524   1.367   6.757 -0.6887  0.1768 -1.1252
 5528SOL     OW28042   1.396   4.168   3.381 -0.3150 -0.4098 -0.2869
 5528SOL    HW128043   1.409   4.175   3.287 -0.2448  0.5592 -0.1968
 5528SOL    HW228044   1.455   4.234   3.418  1.3823 -1.5418 -0.9479
 5529SOL     OW28045   2.571   0.251   8.652  0.1720  0.3733 -0.2236
 5529SOL    HW128046   2.582   0.200   8.571  1.8033  1.4826 -0.7017
 5529SOL    HW228047   2.523   0.190   8.707  3.7017 -1.6465  0.6361
 5530SOL     OW28048   2.025   0.150   6.370  0.4288  0.3792 -0.3207
 5530SOL    HW128049   2.069   0.199   6.300  1.0037  0.0270 -0.2120
 5530SOL    HW228050   1.975   0.194   6.438  0.9297 -0.3991  0.5555
 5531SOL     OW28051   2.149   0.250  15.887  0.5225 -0.8180 -0.4734
 5531SOL    HW128052   2.069   0.197  15.891 -0.4694  0.8294  1.2812
 5531SOL    HW228053   2.136   0.310  15.961 -0.9997  0.8998 -2.1148
 5532SOL     OW28054   0.083   1.241   8.368 -0.2781  0.1684 -0.4083
 5532SOL    HW128055   0.154   1.287   8.411  0.4022  0.1826 -1.5528
 5532SOL    HW228056   0.061   1.314   8.310 -2.9498 -0.3636 -0.0584
 5533SOL     OW28057   4.473   2.969   3.206  0.2870  0.0524  0.2041
 5533SOL    HW128058   4.455   2.979   3.113  0.5052 -1.4842 -0.0030
 5533SOL    HW228059   4.460   2.875   3.216  1.9033 -0.0544  1.2797
 5534SOL     OW28060   0.402   3.990  12.508  0.1385  0.2396 -0.0308
 5534SOL    HW128061   0.426   4.065  12.562  0.8291  0.0757 -0.1121
 5534SOL    HW228062   0.391   3.918  12.570  1.3870 -0.2094 -0.3361
 5535SOL     OW28063   0.918   1.968  10.641  0.2014 -0.1644  0.3554
 5535SOL    HW128064   1.005   1.929  10.645 -0.0761 -0.3676  3.9034
 5535SOL    HW228065   0.939   2.058  10.668 -1.3944  0.9802 -2.1585
 5536SOL     OW28066   2.649   2.247   5.073  0.1357 -0.2357 -0.1775
 5536SOL    HW128067   2.739   2.248   5.104  0.3530  2.0995 -0.8848
 5536SOL    HW228068   2.633   2.152   5.071 -0.0875 -0.2120  0.6132
 5537SOL     OW28069   1.738   2.501   3.097 -0.3282 -0.3131  0.2465
 5537SOL    HW128070   1.792   2.468   3.025  0.3393  1.6524 -0.1647
 5537SOL    HW228071   1.731   2.428   3.158  0.3952  1.2279  2.1759
 5538SOL     OW28072   4.282   2.479  16.754 -0.5801 -0.1257  0.7569
 5538SOL    HW128073   4.220   2.515  16.817 -2.9583 -0.8948 -1.1402
 5538SOL    HW228074   4.253   2.388  16.748 -1.4310  0.1212  1.1072
 5539SOL     OW28075   4.081   4.708   6.744 -0.7809  0.1899  0.3249
 5539SOL    HW128076   4.162   0.036   6.741 -0.2840 -0.5869  0.4263
 5539SOL    HW228077   4.061   4.706   6.651 -1.2097  1.1496  0.3912
 5540SOL     OW28078   1.769   4.313  16.262 -0.2412  0.0051  0.3976
 5540SOL    HW128079   1.833   4.294  16.330  1.0923  1.4617 -0.4358
 5540SOL    HW228080   1.800   4.253  16.193  0.4165  0.9604 -0.1439
 5541SOL     OW28081   4.601   3.378  10.937 -0.1088 -0.2275 -0.2409
 5541SOL    HW128082   4.509   3.352  10.948 -0.5846  1.3109 -0.5757
 5541SOL    HW228083   4.639   3.301  10.979 -0.0665 -1.2034 -2.0305
 5542SOL     OW28084   2.228   4.177   8.625  0.2301 -0.4057  0.0879
 5542SOL    HW128085   2.183   4.257   8.599 -0.1740 -1.2446 -1.7761
 5542SOL    HW228086   2.311   4.208   8.661  0.4764 -0.1896 -0.6629
 5543SOL     OW28087   2.863   2.474   6.008 -0.2081  0.1354  0.3219
 5543SOL    HW128088   2.871   2.507   6.097  2.5875  1.1913 -0.3247
 5543SOL    HW228089   2.937   2.514   5.963 -0.2503  0.5412  0.6123
 5544SOL     OW28090   4.349   3.543   4.098  0.2952  0.1980 -0.0135
 5544SOL    HW128091   4.267   3.586   4.125  0.7174  0.0779  1.4652
 5544SOL    HW228092   4.394   3.532   4.182 -2.8282  0.5423  1.7272
 5545SOL     OW28093   0.266   0.073   5.926 -0.3127  0.2085 -0.3701
 5545SOL    HW128094   0.190   0.026   5.961  0.6920 -1.4275 -0.3595
 5545SOL    HW228095   0.222   0.102   5.847 -0.3816  2.7895  0.6209
 5546SOL     OW28096   1.296   4.569   2.873 -0.1693 -0.0777 -0.3051
 5546SOL    HW128097   1.334   4.639   2.820  1.6744  0.0561  1.1726
 5546SOL    HW228098   1.362   4.501   2.857 -1.0411 -1.3111  1.3393
 5547SOL     OW28099   4.210   4.488   3.043 -0.7438 -0.0838 -0.5173
 5547SOL    HW128100   4.206   4.557   2.977  1.2726  0.8514  0.3343
 5547SOL    HW228101   4.234   4.405   3.002  0.8226  0.2422 -0.2623
 5548SOL     OW28102   1.310   1.614   8.889  0.3943 -0.1046 -0.2282
 5548SOL    HW128103   1.236   1.560   8.862  0.9483 -0.1075 -1.7355
 5548SOL    HW228104   1.364   1.602   8.811  0.5008  3.2393 -0.6306
 5549SOL     OW28105   0.124   4.679   3.857  0.0577 -0.2319 -0.2955
 5549SOL    HW128106   0.099   4.593   3.823 -0.0784 -0.2916 -0.0416
 5549SOL    HW228107   0.219   4.673   3.858  0.1423  1.1266  0.4051
 5550SOL     OW28108   3.873   2.871   7.108  0.7094  0.0653 -0.3982
 5550SOL    HW128109   3.793   2.866   7.056  1.4533 -0.5510 -1.4773
 5550SOL    HW228110   3.922   2.811   7.052 -1.1030  0.9329 -2.9141
 5551SOL     OW28111   2.716   1.384   4.568 -1.0026 -0.2142 -0.6022
 5551SOL    HW128112   2.643   1.445   4.579 -0.6556  0.2290 -0.7802
 5551SOL    HW228113   2.691   1.312   4.627  1.0323  0.6765  1.3300
 5552SOL     OW28114   4.329   1.975  15.458 -0.2763  0.1030  0.9523
 5552SOL    HW128115   4.342   2.067  15.434  0.4257 -0.3644 -0.4698
 5552SOL    HW228116   4.418   1.942  15.446 -0.6944 -0.2818 -1.0136
 5553SOL     OW28117   1.636   1.781   9.002  0.5529  0.4979 -0.5345
 5553SOL    HW128118   1.728   1.797   9.022  0.8219 -1.6831  0.0487
 5553SOL    HW228119   1.635   1.689   8.973  3.1933  0.8850 -1.7954
 5554SOL     OW28120   0.181   3.007   5.416 -0.6939  0.9008  0.6136
 5554SOL    HW128121   0.276   3.017   5.420 -0.4771 -0.4229 -1.2714
 5554SOL    HW228122   0.153   3.048   5.334 -0.6516  0.2296  0.2639
 5555SOL     OW28123   2.588   0.915   8.584  0.3968  0.4730  0.4206
 5555SOL    HW128124   2.680   0.915   8.559  0.9804  1.1217  2.6294
 5555SOL    HW228125   2.558   0.837   8.536 -1.2048  2.3987 -1.6948
 5556SOL     OW28126   0.250   1.205  15.899 -0.4443  0.2321  0.0838
 5556SOL    HW128127   0.262   1.192  15.805 -0.9131 -0.2115  0.0832
 5556SOL    HW228128   0.309   1.135  15.929 -1.5496 -0.1285  1.4285
 5557SOL     OW28129   1.856   4.523  15.812  0.5398  0.2289  0.4411
 5557SOL    HW128130   1.904   4.480  15.882 -1.2988 -2.0112  0.3174
 5557SOL    HW228131   1.836   4.457  15.745  0.9774  1.1180 -0.5770
 5558SOL     OW28132   2.264   2.775   6.424 -0.6522  0.1581  0.2386
 5558SOL    HW128133   2.327   2.842   6.450  1.1347 -0.8976 -1.4013
 5558SOL    HW228134   2.312   2.730   6.355 -0.8255  0.5498 -0.1356
 5559SOL     OW28135   3.984   4.663   3.592 -0.3185 -0.0159 -0.0082
 5559SOL    HW128136   3.935   4.672   3.510 -3.3628 -0.2343  1.7884
 5559SOL    HW228137   3.999   0.030   3.615 -1.1216  0.0048  0.4041
 5560SOL     OW28138   3.916   1.342   1.540 -0.0950  0.1978  0.1750
 5560SOL    HW128139   3.984   1.343   1.608  1.1526 -1.2089 -1.0394
 5560SOL    HW228140   3.949   1.263   1.497  0.2365  1.3967 -1.7799
 5561SOL     OW28141   1.807   2.134   7.811  0.2699 -0.1529  0.2005
 5561SOL    HW128142   1.749   2.070   7.770  0.5823  1.4700 -2.7231
 5561SOL    HW228143   1.871   2.067   7.836  0.7791 -0.3419 -1.5840
 5562SOL     OW28144   2.557   1.083  10.178 -0.0656  0.1793 -0.2211
 5562SOL    HW128145   2.634   1.100  10.231 -1.0472  2.2648  0.5625
 5562SOL    HW228146   2.483   1.086  10.239 -1.1650  0.1065 -1.5507
 5563SOL     OW28147   4.540   4.160   4.163 -0.0462 -0.4056 -0.0087
 5563SOL    HW128148   4.631   4.168   4.135  0.1121  3.2038  1.6368
 5563SOL    HW228149   4.534   4.197   4.250  0.8406 -0.0559 -0.1023
 5564SOL     OW28150   0.971   3.165   1.967 -0.4954 -0.7271  0.2538
 5564SOL    HW128151   0.907   3.232   1.992  1.5300  0.1651  3.0123
 5564SOL    HW228152   1.035   3.161   2.038 -0.6448  1.9609  0.5267
 5565SOL     OW28153   2.454   2.477   1.128  0.2376  0.1393 -0.4435
 5565SOL    HW128154   2.373   2.526   1.111  0.7066  1.2231  0.4372
 5565SOL    HW228155   2.504   2.489   1.047 -0.0296 -0.4165 -0.6916
 5566SOL     OW28156   0.285   2.267   5.373  0.3719 -0.0834  0.2044
 5566SOL    HW128157   0.201   2.232   5.401  0.6792 -0.2533  0.9277
 5566SOL    HW228158   0.287   2.222   5.288 -2.3969 -0.4836  0.3706
 5567SOL     OW28159   0.775   1.966  17.458 -0.3636 -0.1115 -0.6453
 5567SOL    HW128160   0.808   2.018  17.385  0.3724  1.1900  0.6135
 5567SOL    HW228161   0.806   1.881  17.427  3.4221  1.5222 -1.3329
 5568SOL     OW28162   3.158   2.245  13.154 -0.0647  0.0138 -0.1315
 5568SOL    HW128163   3.079   2.261  13.102  0.4880  5.1874  0.6224
 5568SOL    HW228164   3.212   2.201  13.087  2.8115  0.9115  1.6151
 5569SOL     OW28165   1.697   4.210   4.756 -0.0885  0.2482  0.3704
 5569SOL    HW128166   1.728   4.292   4.720  0.4330 -0.5858 -1.0626
 5569SOL    HW228167   1.707   4.140   4.692 -0.6451  1.3258 -0.8765
 5570SOL     OW28168   0.919   4.480  15.072  0.4227 -0.3580 -0.6640
 5570SOL    HW128169   0.930   4.505  14.980 -0.6486 -1.2960 -1.0338
 5570SOL    HW228170   0.829   4.501  15.097 -0.1448  1.5713 -4.2495
 5571SOL     OW28171   0.567   1.459   2.165 -0.1358 -0.0416  0.5715
 5571SOL    HW128172   0.565   1.371   2.204  0.0195  0.0444  0.7731
 5571SOL    HW228173   0.493   1.464   2.104  1.2476 -0.7453 -1.1579
 5572SOL     OW28174   3.023   2.123   4.123  0.4487  0.3562 -0.7421
 5572SOL    HW128175   3.085   2.119   4.050 -0.7139  0.6946 -1.7450
 5572SOL    HW228176   2.950   2.161   4.073 -0.3215  2.8318  2.2570
 5573SOL     OW28177   1.472   1.595   8.680  0.1226  0.0376 -0.0613
 5573SOL    HW128178   1.462   1.600   8.584  0.5924 -1.1911 -0.1695
 5573SOL    HW228179   1.564   1.571   8.691  0.9639  2.5238 -1.7402
 5574SOL     OW28180   3.669   2.526   8.662 -0.0976  0.5790 -0.3969
 5574SOL    HW128181   3.624   2.599   8.621 -1.0201  0.0882 -0.2405
 5574SOL    HW228182   3.677   2.463   8.591 -0.1974  0.1778 -0.0528
 5575SOL     OW28183   0.011   1.815   0.279  0.2122 -0.4011  0.1512
 5575SOL    HW128184   0.024   1.892   0.334  1.1252 -0.3506 -0.1330
 5575SOL    HW228185   4.696   1.858   0.202 -0.8294 -0.0450  0.8868
 5576SOL     OW28186   1.146   2.457   8.620 -0.5704 -0.6113  0.2315
 5576SOL    HW128187   1.081   2.448   8.550  1.2267 -0.9434 -1.3955
 5576SOL    HW228188   1.165   2.364   8.632  0.5890  0.0103  3.2793
 5577SOL     OW28189   0.436   0.050   6.613  0.9440 -0.2130 -0.0119
 5577SOL    HW128190   0.490   0.045   6.692 -0.0385 -1.8997  0.5372
 5577SOL    HW228191   0.498   0.013   6.550  1.2972  1.4558 -0.6551
 5578SOL     OW28192   0.006   3.181  11.056  0.3607 -0.3813 -0.4550
 5578SOL    HW128193   0.037   3.223  11.136  0.0752 -0.5765 -0.2390
 5578SOL    HW228194   4.702   3.095  11.089  0.8013 -0.1503  0.5162
 5579SOL     OW28195   1.155   2.920  10.168  0.4710  0.3493 -0.6903
 5579SOL    HW128196   1.105   2.896  10.090 -2.2618  0.7277  0.9261
 5579SOL    HW228197   1.195   3.000  10.135  1.0760  0.0309 -0.7140
 5580SOL     OW28198   1.572   2.200   4.149 -0.3078 -0.2249 -0.3050
 5580SOL    HW128199   1.533   2.281   4.117 -0.4806 -0.2815 -0.2350
 5580SOL    HW228200   1.541   2.208   4.239  0.1184 -0.3578 -0.1457
 5581SOL     OW28201   1.596   0.476  16.377  0.1806  0.1573 -0.2377
 5581SOL    HW128202   1.620   0.545  16.315 -0.7621  0.0029 -0.7688
 5581SOL    HW228203   1.663   0.410  16.360  1.0377  1.3714 -1.5876
 5582SOL     OW28204   0.453   1.224   9.217 -0.4596  0.1819 -0.2982
 5582SOL    HW128205   0.365   1.225   9.179 -1.3801 -3.6773  1.7940
 5582SOL    HW228206   0.431   1.218   9.310  0.5431 -0.1000 -0.0811
 5583SOL     OW28207   0.243   4.166   7.167 -0.1293 -0.0701 -0.2757
 5583SOL    HW128208   0.241   4.183   7.262 -2.6743 -2.0203  0.0112
 5583SOL    HW228209   0.238   4.071   7.163  3.2127 -0.2959  1.0858
 5584SOL     OW28210   0.248   0.934   9.127  0.3960  0.5692  0.0439
 5584SOL    HW128211   0.241   0.954   9.221 -0.8029  0.1389  0.0548
 5584SOL    HW228212   0.237   1.022   9.093  2.3418  0.1536 -1.5869
 5585SOL     OW28213   4.385   1.441   4.947  0.2265 -0.0534 -0.1011
 5585SOL    HW128214   4.333   1.413   4.872 -1.0750 -0.7977  1.0681
 5585SOL    HW228215   4.445   1.368   4.934  0.9485  0.8421 -1.7965
 5586SOL     OW28216   4.663   4.435   6.582  0.1610 -0.3645 -0.2562
 5586SOL    HW128217   4.714   4.392   6.513 -2.6528  0.0342 -2.6180
 5586SOL    HW228218   4.716   4.515   6.577  0.9846 -0.9832 -1.3712
 5587SOL     OW28219   0.798   1.335  16.014  0.2249  0.1839  0.2484
 5587SOL    HW128220   0.733   1.309  15.950 -0.1335  2.3602 -0.2765
 5587SOL    HW228221   0.836   1.249  16.032 -1.5022 -0.2008  2.0761
 5588SOL     OW28222   3.133   2.729   4.234 -0.0248 -0.2592  0.1540
 5588SOL    HW128223   3.141   2.641   4.272 -0.8685 -0.1510  0.5709
 5588SOL    HW228224   3.116   2.698   4.146  2.5709 -1.0778 -0.0491
 5589SOL     OW28225   0.264   1.622   6.734  0.1129 -0.3562  0.7539
 5589SOL    HW128226   0.199   1.693   6.744  0.0693 -0.3120  0.2052
 5589SOL    HW228227   0.232   1.577   6.812 -0.1904 -0.1005  0.7826
 5590SOL     OW28228   3.742   0.507   8.355 -0.7190 -0.3613 -0.3363
 5590SOL    HW128229   3.804   0.507   8.282 -0.3840  0.0459 -0.0490
 5590SOL    HW228230   3.791   0.543   8.429  0.7963 -0.0721 -1.4932
 5591SOL     OW28231   0.332   3.230   1.279  0.4222  0.0390 -0.1353
 5591SOL    HW128232   0.388   3.198   1.209 -0.0898  0.1922 -0.6145
 5591SOL    HW228233   0.324   3.323   1.258  3.1818  0.3000 -0.0625
 5592SOL     OW28234   0.633   3.719   5.811 -0.2902 -0.3186  0.0795
 5592SOL    HW128235   0.641   3.705   5.906 -2.2910  1.1131  0.4411
 5592SOL    HW228236   0.605   3.810   5.811 -0.3975 -0.3525  1.8174
 5593SOL     OW28237   1.899   1.942   6.714 -0.6016  0.4222  0.3110
 5593SOL    HW128238   1.829   1.877   6.715 -3.1440  3.1124 -1.4126
 5593SOL    HW228239   1.877   2.011   6.651 -0.8335  0.9022  0.9150
 5594SOL     OW28240   4.451   0.018  10.392  0.1892  0.0267 -0.4615
 5594SOL    HW128241   4.521   0.050  10.335  0.2772  1.2728  0.3388
 5594SOL    HW228242   4.503   0.056  10.464  0.5787 -2.5971  0.6431
 5595SOL     OW28243   1.655   2.541   5.941  0.5772 -0.4753 -0.4896
 5595SOL    HW128244   1.645   2.515   5.850 -0.6933  1.2649 -0.8437
 5595SOL    HW228245   1.636   2.635   5.940 -0.3456 -0.6499  0.6569
 5596SOL     OW28246   4.722   3.659   6.753  0.2976  0.0376  0.0373
 5596SOL    HW128247   4.646   3.621   6.797  0.5781  0.6522  1.0590
 5596SOL    HW228248   0.039   3.714   6.820  0.1241  0.0269  0.1500
 5597SOL     OW28249   1.330   0.768   7.136 -0.3706 -0.2772  0.4477
 5597SOL    HW128250   1.382   0.787   7.214  2.9592 -0.9519 -1.6218
 5597SOL    HW228251   1.277   0.846   7.126  0.9029  0.6385  0.9149
 5598SOL     OW28252   1.666   2.609   6.459  0.4728 -0.0577 -0.7816
 5598SOL    HW128253   1.732   2.662   6.504  0.3367 -1.4701  1.0597
 5598SOL    HW228254   1.717   2.597   6.379  2.5229 -2.6706  0.8976
 5599SOL     OW28255   2.390   1.552  10.590  0.0003  0.6815 -0.4811
 5599SOL    HW128256   2.361   1.482  10.531 -0.9127  3.4617 -3.3389
 5599SOL    HW228257   2.472   1.577  10.548  0.9931  0.2106  1.1984
 5600SOL     OW28258   2.417   1.522   7.338  0.4108  0.7949  0.1144
 5600SOL    HW128259   2.373   1.536   7.422 -0.1047 -0.4692  0.0468
 5600SOL    HW228260   2.375   1.447   7.297  2.0011 -0.5238  0.8961
 5601SOL     OW28261   2.582   4.578  10.270  0.1967 -0.8299  0.1089
 5601SOL    HW128262   2.496   4.610  10.295 -0.5268 -2.3007 -0.4633
 5601SOL    HW228263   2.645   4.610  10.334  0.0137 -0.9348  0.3431
 5602SOL     OW28264   3.456   3.484   5.443  0.0132  0.1742  0.0612
 5602SOL    HW128265   3.464   3.509   5.351 -0.2612  1.3495  0.3530
 5602SOL    HW228266   3.373   3.529   5.459 -1.5571 -2.3325 -0.9850
 5603SOL     OW28267   3.146   2.928   5.667 -0.5078 -0.2435 -0.1356
 5603SOL    HW128268   3.092   2.850   5.660 -1.0273  0.1500 -0.5202
 5603SOL    HW228269   3.210   2.901   5.733  1.3258 -0.2754 -1.9185
 5604SOL     OW28270   1.362   0.345  13.999  0.2316  0.2236  0.4894
 5604SOL    HW128271   1.401   0.345  14.086 -1.3849 -1.0596  1.2248
 5604SOL    HW228272   1.410   0.277  13.953 -1.4593 -1.3251  1.0146
 5605SOL     OW28273   0.266   1.308  10.992 -0.1284  0.4180  0.0763
 5605SOL    HW128274   0.268   1.392  10.945  1.6060  0.7970  0.8369
 5605SOL    HW228275   0.176   1.298  11.024 -0.1906 -0.6248 -0.4354
 5606SOL     OW28276   2.163   4.011   3.199 -0.1670  0.1150 -0.3291
 5606SOL    HW128277   2.253   3.995   3.168 -0.5858 -2.6498 -0.1030
 5606SOL    HW228278   2.175   4.106   3.205  1.1133  0.0106 -1.1280
 5607SOL     OW28279   0.483   1.190   3.130  0.6122 -0.4677 -0.0151
 5607SOL    HW128280   0.391   1.173   3.109  0.7336 -2.3617  1.0504
 5607SOL    HW228281   0.518   1.103   3.147  2.0580  0.2805  0.9053
 5608SOL     OW28282   4.181   3.850   4.675 -0.0507 -0.2214 -0.4581
 5608SOL    HW128283   4.150   3.832   4.763  0.7738  2.3722  0.3687
 5608SOL    HW228284   4.238   3.924   4.696  0.7832 -0.8350 -0.5619
 5609SOL     OW28285   2.517   3.231   7.412  0.1080 -0.0716 -0.2119
 5609SOL    HW128286   2.579   3.163   7.389 -1.1684 -0.6759 -1.8723
 5609SOL    HW228287   2.450   3.183   7.462 -0.1904  0.7526  0.1955
 5610SOL     OW28288   1.257   0.075   1.396 -0.0574 -0.0569  0.3135
 5610SOL    HW128289   1.280   0.152   1.448 -1.2275  0.3467  0.2354
 5610SOL    HW228290   1.171   0.093   1.359  0.0318  1.4577  0.8822
 5611SOL     OW28291   3.794   0.902   1.253 -0.0921  0.1114  0.6133
 5611SOL    HW128292   3.857   0.832   1.239 -1.0559 -0.6461  0.1160
 5611SOL    HW228293   3.711   0.853   1.254  1.6496 -2.8111  0.8219
 5612SOL     OW28294   1.294   3.433   0.638  0.3422 -0.0576 -0.1070
 5612SOL    HW128295   1.293   3.357   0.697 -0.3659  0.1400  0.1276
 5612SOL    HW228296   1.338   3.492   0.699  1.1146 -1.2428  0.5057
 5613SOL     OW28297   1.276   3.657   1.613  0.1018  0.1543  0.4013
 5613SOL    HW128298   1.221   3.579   1.602 -0.1830  0.7641 -2.3979
 5613SOL    HW228299   1.220   3.696   1.680  2.3973 -0.4206  2.6610
 5614SOL     OW28300   0.575   2.144   5.987 -0.8872  0.8127  0.2671
 5614SOL    HW128301   0.626   2.095   6.052  1.6411  1.0329 -1.5246
 5614SOL    HW228302   0.639   2.142   5.915  0.7146 -1.4325  1.7151
 5615SOL     OW28303   0.819   3.207   3.831  0.1226 -0.2615 -0.0141
 5615SOL    HW128304   0.871   3.257   3.768  0.3649 -0.7425 -0.2002
 5615SOL    HW228305   0.885   3.198   3.901 -0.2232 -0.5341  0.2788
 5616SOL     OW28306   1.521   4.586   5.080 -0.2272  0.3952 -0.1012
 5616SOL    HW128307   1.588   4.654   5.074 -1.2201  1.3194 -0.7722
 5616SOL    HW228308   1.547   4.539   5.159 -0.9028  0.1610 -0.0214
 5617SOL     OW28309   1.190   2.466  15.685 -0.2866  0.0341  0.6706
 5617SOL    HW128310   1.135   2.462  15.763 -0.8752  0.5232  0.2826
 5617SOL    HW228311   1.272   2.498  15.723  1.2017  0.4403 -2.8573
 5618SOL     OW28312   3.753   2.289  14.735 -0.2766 -0.2847 -0.5377
 5618SOL    HW128313   3.829   2.238  14.708  0.1194  0.3319 -0.5739
 5618SOL    HW228314   3.785   2.315  14.822 -0.8268 -0.9870 -0.1227
 5619SOL     OW28315   4.122   2.632  16.925 -1.0844  0.0808 -0.2644
 5619SOL    HW128316   4.154   2.705  16.872  0.4405  2.6236  4.0806
 5619SOL    HW228317   4.147   2.663  17.013 -0.5494 -1.4848  0.1360
 5620SOL     OW28318   1.136   1.642   5.802  0.0890 -0.4140  0.5239
 5620SOL    HW128319   1.219   1.685   5.782 -1.4740  2.3329 -0.1458
 5620SOL    HW228320   1.135   1.650   5.897  1.3941  0.9524  0.4342
 5621SOL     OW28321   1.096   2.320  13.274  0.2730  0.1615  0.6531
 5621SOL    HW128322   1.087   2.413  13.251 -4.4202 -0.0278  1.7201
 5621SOL    HW228323   1.014   2.312  13.322 -2.1901 -0.1812 -3.5963
 5622SOL     OW28324   1.803   1.526   6.074 -0.3160 -0.4258  0.0233
 5622SOL    HW128325   1.828   1.483   5.992 -1.5232 -1.0085 -0.0357
 5622SOL    HW228326   1.815   1.616   6.044 -0.3706 -0.4815 -0.1703
 5623SOL     OW28327   3.347   0.623   7.720 -0.3400  0.4682 -0.3578
 5623SOL    HW128328   3.428   0.600   7.765 -0.2142 -0.1979 -0.9323
 5623SOL    HW228329   3.375   0.608   7.630  1.7819 -0.4504  0.4539
 5624SOL     OW28330   1.788   2.203  16.126  0.3378 -0.1808 -0.6301
 5624SOL    HW128331   1.749   2.290  16.120  0.6690  0.1486  2.0677
 5624SOL    HW228332   1.878   2.231  16.110  1.0405 -1.7641  0.6219
 5625SOL     OW28333   2.144   0.540   7.690 -0.5086  0.2278 -0.4468
 5625SOL    HW128334   2.131   0.625   7.649  1.3198  1.1618  0.8846
 5625SOL    HW228335   2.074   0.549   7.754  0.6320 -0.7433  0.9461
 5626SOL     OW28336   1.013   3.422   4.442  0.5836  0.4147 -0.7455
 5626SOL    HW128337   0.976   3.418   4.530  3.6966 -0.4027  0.5333
 5626SOL    HW228338   0.960   3.358   4.394  1.4083  0.2773 -1.4679
 5627SOL     OW28339   4.032   2.397   3.306 -0.4386  0.2460 -0.0073
 5627SOL    HW128340   3.967   2.461   3.274 -0.3373  0.7272  0.7557
 5627SOL    HW228341   4.107   2.414   3.249 -0.7924 -0.9456 -0.8388
 5628SOL     OW28342   1.489   0.950   1.093  0.1421 -0.1375 -0.3019
 5628SOL    HW128343   1.396   0.929   1.098  0.1784 -0.1099  0.5326
 5628SOL    HW228344   1.505   0.971   1.185  2.4135  0.8589 -0.9095
 5629SOL     OW28345   0.432   1.884   7.426 -0.5227  0.1196  0.0016
 5629SOL    HW128346   0.404   1.792   7.427 -1.1468  0.3114  0.0772
 5629SOL    HW228347   0.358   1.928   7.467  0.4816  2.0836 -0.2785
 5630SOL     OW28348   2.138   0.771   6.825 -0.3143  0.0805 -0.0996
 5630SOL    HW128349   2.165   0.681   6.842 -1.8223 -0.4343 -0.4737
 5630SOL    HW228350   2.143   0.777   6.729 -2.8183 -0.2453 -0.2500
 5631SOL     OW28351   1.851   0.767   4.238  0.3534 -0.0834 -0.3040
 5631SOL    HW128352   1.909   0.824   4.288 -1.1623  1.7301 -0.6220
 5631SOL    HW228353   1.885   0.679   4.255  1.5446  0.8326  2.0764
 5632SOL     OW28354   0.807   4.298   9.149  0.1551 -0.5370 -0.1237
 5632SOL    HW128355   0.861   4.350   9.089 -1.3093 -1.1731 -1.9958
 5632SOL    HW228356   0.734   4.357   9.167  3.5116  3.2860  1.0095
 5633SOL     OW28357   2.726   3.452  12.211  0.0540 -0.6700 -0.6536
 5633SOL    HW128358   2.725   3.414  12.123  0.5648 -0.4664 -0.7454
 5633SOL    HW228359   2.795   3.516  12.190 -0.1971 -0.6470 -1.4256
 5634SOL     OW28360   0.828   2.044   6.616 -0.0453  0.0195 -0.1185
 5634SOL    HW128361   0.889   2.018   6.546 -0.2647  0.5140 -0.4960
 5634SOL    HW228362   0.757   2.094   6.576  0.7425  1.4484  0.2551
 5635SOL     OW28363   2.001   2.174   7.582 -0.0716  0.0320  0.1405
 5635SOL    HW128364   1.948   2.146   7.657  0.2921  1.1745  0.8266
 5635SOL    HW228365   2.063   2.101   7.579  0.5684  0.7418 -3.3725
 5636SOL     OW28366   2.989   4.589   5.661  0.0548  0.3481 -0.1776
 5636SOL    HW128367   3.040   4.531   5.605 -0.5279 -0.8081  0.4967
 5636SOL    HW228368   2.908   4.544   5.684  0.9041 -0.3895  1.3026
 5637SOL     OW28369   4.285   2.648   7.970 -0.0209 -0.0128  0.1922
 5637SOL    HW128370   4.380   2.657   7.972  0.0203 -0.5678  0.5941
 5637SOL    HW228371   4.275   2.740   7.996  0.5412 -0.4366  1.8811
 5638SOL     OW28372   0.573   1.330  11.364 -0.1030 -0.4094  0.1140
 5638SOL    HW128373   0.652   1.283  11.391  0.8976  1.0171 -0.3067
 5638SOL    HW228374   0.573   1.419  11.399 -1.9633 -0.3950  0.0921
 5639SOL     OW28375   1.704   0.269   6.085 -0.5053  0.2422  0.0540
 5639SOL    HW128376   1.672   0.356   6.059  0.5042  0.8442  0.8137
 5639SOL    HW228377   1.684   0.275   6.179 -1.7859 -2.5687 -0.0663
 5640SOL     OW28378   3.274   4.342   6.782 -0.7432 -0.3922  0.7341
 5640SOL    HW128379   3.215   4.371   6.711  0.9649 -1.4204 -1.0964
 5640SOL    HW228380   3.347   4.291   6.747 -1.0639  0.1008 -0.6643
 5641SOL     OW28381   1.747   2.280   6.325  0.1531 -0.1195 -0.5839
 5641SOL    HW128382   1.796   2.327   6.258  0.8988 -1.9771 -1.3397
 5641SOL    HW228383   1.661   2.260   6.287 -0.2207 -0.0976  0.2431
 5642SOL     OW28384   0.703   0.605  13.882 -0.6539 -0.0472  0.3070
 5642SOL    HW128385   0.641   0.660  13.930 -0.0298 -0.4545  1.5867
 5642SOL    HW228386   0.754   0.673  13.838  0.4817 -1.4995 -0.6586
 5643SOL     OW28387   1.090   1.248   8.989  0.5112  0.0103  0.2448
 5643SOL    HW128388   1.068   1.210   9.074  0.5413  0.3765  0.4173
 5643SOL    HW228389   1.021   1.205   8.938  0.2092  1.1704 -0.3284
 5644SOL     OW28390   0.864   0.077   8.155  0.7630  0.5499  0.1043
 5644SOL    HW128391   0.915   4.720   8.165  0.0463  0.1363  0.4378
 5644SOL    HW228392   0.924   0.150   8.170  1.8830 -0.7803  2.0759
 5645SOL     OW28393   2.411   1.937   1.813 -0.2674  0.7464  0.1443
 5645SOL    HW128394   2.417   1.997   1.888 -0.9006  1.6056 -0.4918
 5645SOL    HW228395   2.480   1.878   1.841 -1.2468 -0.1880  0.6160
 5646SOL     OW28396   4.474   0.446   5.352  0.3726  0.2054  0.2189
 5646SOL    HW128397   4.401   0.416   5.408  0.5813  0.0684  0.4169
 5646SOL    HW228398   4.456   0.540   5.352 -0.1307  0.1122  2.0397
 5647SOL     OW28399   3.921   3.139   7.180 -0.5171 -0.1113 -0.0632
 5647SOL    HW128400   3.969   3.116   7.260 -0.5914  0.5325  0.1609
 5647SOL    HW228401   3.923   3.056   7.131  0.9677 -0.5464  0.7394
 5648SOL     OW28402   0.672   4.215   6.800 -0.4075 -0.0938 -0.2328
 5648SOL    HW128403   0.752   4.163   6.791  0.6776  1.3729  0.9926
 5648SOL    HW228404   0.693   4.271   6.874 -2.8072  1.9571 -1.0693
 5649SOL     OW28405   3.668   0.010   7.375  0.2457 -0.1817  0.1854
 5649SOL    HW128406   3.707   4.675   7.310  0.3735 -0.5647  0.6071
 5649SOL    HW228407   3.630   4.674   7.439 -0.7304  2.3738  1.9845
 5650SOL     OW28408   1.808   1.093   3.242  0.4531 -0.0585 -0.3285
 5650SOL    HW128409   1.796   1.078   3.148  3.2110 -1.9729 -0.3832
 5650SOL    HW228410   1.861   1.023   3.281  1.0940  0.6753  0.1059
 5651SOL     OW28411   2.914   3.301  14.234 -0.1468 -0.3270 -0.0951
 5651SOL    HW128412   2.823   3.283  14.213 -0.5286  2.2840 -0.6700
 5651SOL    HW228413   2.898   3.387  14.273  1.5608  0.2224 -0.6322
 5652SOL     OW28414   3.421   3.862   9.710 -0.0711 -0.1768  0.1548
 5652SOL    HW128415   3.341   3.847   9.760 -2.5594 -1.2288 -4.2341
 5652SOL    HW228416   3.465   3.929   9.763  0.9170  1.0316 -2.1966
 5653SOL     OW28417   3.202   1.432   4.474  0.5439  0.3869  1.0164
 5653SOL    HW128418   3.188   1.520   4.441  1.6118  0.9744  2.1504
 5653SOL    HW228419   3.217   1.379   4.395  0.2974 -1.2329  2.0456
 5654SOL     OW28420   3.948   3.371   4.866  0.1241  0.1786 -0.1935
 5654SOL    HW128421   3.990   3.369   4.781  0.3151 -0.3082 -0.0853
 5654SOL    HW228422   3.890   3.447   4.860 -1.1791 -0.5668  2.5425
 5655SOL     OW28423   1.798   1.344   7.313 -0.0573  0.1783  0.4455
 5655SOL    HW128424   1.774   1.267   7.261  1.0185  0.7386 -0.8508
 5655SOL    HW228425   1.714   1.391   7.310 -0.2110 -0.2215 -1.2050
 5656SOL     OW28426   3.054   4.560   3.015  0.3970  0.5259 -0.4171
 5656SOL    HW128427   3.039   4.617   2.939  0.6715 -0.9576 -1.5947
 5656SOL    HW228428   3.148   4.567   3.032  0.5674  0.8347 -1.4717
 5657SOL     OW28429   4.657   4.353   2.993  0.5674 -0.5726 -0.3774
 5657SOL    HW128430   0.006   4.305   2.955  1.0976  0.1644 -0.2979
 5657SOL    HW228431   4.693   4.441   2.998  0.6119 -0.5303 -1.5366
 5658SOL     OW28432   4.177   4.247   4.223 -0.3611  0.3078  0.1005
 5658SOL    HW128433   4.165   4.236   4.129  0.5023  0.9971 -0.0941
 5658SOL    HW228434   4.202   4.158   4.249  2.4296  1.4629  1.3844
 5659SOL     OW28435   1.809   3.426   6.249  0.3549 -0.4261  0.3934
 5659SOL    HW128436   1.893   3.468   6.265  1.3446 -2.2538 -0.0499
 5659SOL    HW228437   1.758   3.507   6.244 -0.8561 -1.2803 -1.3360
 5660SOL     OW28438   2.197   1.896   5.931  0.5040  0.3650  0.1581
 5660SOL    HW128439   2.245   1.902   5.848 -0.2809  3.3361 -0.0585
 5660SOL    HW228440   2.272   1.865   5.983  0.2282 -0.0714  0.3019
 5661SOL     OW28441   3.273   4.085   5.288 -0.4215  0.4090 -0.6965
 5661SOL    HW128442   3.272   4.173   5.326 -2.1027  0.4075 -0.7415
 5661SOL    HW228443   3.288   4.096   5.194  0.5507  1.3055 -0.4448
 5662SOL     OW28444   1.740   0.893  11.894  0.2294 -0.0114 -0.4892
 5662SOL    HW128445   1.795   0.850  11.959  1.5365  0.6382 -1.1718
 5662SOL    HW228446   1.659   0.853  11.924  0.3419 -0.7644 -1.1927
 5663SOL     OW28447   0.100   0.936  15.718  0.1768 -0.2330  0.0864
 5663SOL    HW128448   0.006   0.948  15.736 -0.1572 -0.1538 -1.6290
 5663SOL    HW228449   0.093   0.846  15.684 -0.1980  0.7811 -2.5766
 5664SOL     OW28450   4.509   3.983  15.322  0.6014 -0.2425 -0.0449
 5664SOL    HW128451   4.559   4.057  15.357 -0.4567  0.0292  0.8925
 5664SOL    HW228452   4.577   3.945  15.266  1.8407  3.5497 -1.1444
 5665SOL     OW28453   3.043   3.122   1.194  0.3413  0.6899  0.3290
 5665SOL    HW128454   3.094   3.174   1.131 -0.1987  1.8479  0.8535
 5665SOL    HW228455   3.064   3.030   1.178 -3.7332 -0.2890  0.5804
 5666SOL     OW28456   2.577   2.972  10.079 -0.1952  0.1099  0.0493
 5666SOL    HW128457   2.508   3.033  10.052 -0.2658 -1.0950 -2.4961
 5666SOL    HW228458   2.606   3.017  10.159 -2.0516  0.2185  0.6547
 5667SOL     OW28459   2.832   4.103  12.997  0.0697 -0.1877  0.1682
 5667SOL    HW128460   2.796   4.119  12.909  2.1104  2.9371 -0.0912
 5667SOL    HW228461   2.839   4.007  12.995 -0.6199 -0.2650  1.6397
 5668SOL     OW28462   4.389   2.383   1.946  0.1777 -0.1731 -0.2380
 5668SOL    HW128463   4.296   2.394   1.964  0.4966 -0.5793  1.6545
 5668SOL    HW228464   4.419   2.340   2.026 -0.8204  0.1785  0.3231
 5669SOL     OW28465   2.448   1.775   4.047  0.3537 -0.1222 -0.0301
 5669SOL    HW128466   2.508   1.826   4.100 -0.3319 -0.1803  0.8015
 5669SOL    HW228467   2.429   1.841   3.980  1.6906 -0.7228 -1.0005
 5670SOL     OW28468   4.071   4.432   7.689 -0.4844  0.3786  0.4693
 5670SOL    HW128469   4.056   4.352   7.739  1.0244 -0.0344  0.2666
 5670SOL    HW228470   4.121   4.488   7.749  1.6005 -1.6007  0.5753
 5671SOL     OW28471   4.308   3.367  13.598 -0.3719 -0.2945  0.3330
 5671SOL    HW128472   4.272   3.359  13.686 -0.5212  1.3169  0.4234
 5671SOL    HW228473   4.238   3.406  13.546  0.8583  0.4139 -0.8240
 5672SOL     OW28474   1.051   1.501  15.188 -0.5585 -0.3712  0.3542
 5672SOL    HW128475   1.109   1.576  15.200 -2.1712  1.2045 -1.7433
 5672SOL    HW228476   0.970   1.540  15.220 -0.4903  1.2007 -1.4096
 5673SOL     OW28477   3.044   3.842   2.494  0.0793  0.8113 -0.3918
 5673SOL    HW128478   3.096   3.915   2.530  0.8668  1.0469 -2.0231
 5673SOL    HW228479   2.968   3.852   2.550  1.0985  0.8195  0.9994
 5674SOL     OW28480   3.374   1.265   5.570 -0.7914  0.3027 -0.3902
 5674SOL    HW128481   3.433   1.251   5.643 -1.3617  1.7415  0.3337
 5674SOL    HW228482   3.331   1.179   5.569 -2.4823  1.1518 -1.7182
 5675SOL     OW28483   3.871   1.130   5.190 -0.3794  0.1573 -0.3077
 5675SOL    HW128484   3.789   1.128   5.239 -0.3626 -0.4332 -0.3001
 5675SOL    HW228485   3.940   1.122   5.256  1.0219 -2.5822 -2.0926
 5676SOL     OW28486   1.429   3.856   9.013 -0.3863  0.3045 -0.1613
 5676SOL    HW128487   1.351   3.856   8.958 -0.8828 -1.1802  0.5341
 5676SOL    HW228488   1.497   3.865   8.946  0.6847 -0.2801  0.8455
 5677SOL     OW28489   1.084   3.796   5.194 -0.1377  0.5692 -0.1429
 5677SOL    HW128490   1.150   3.795   5.264 -2.5280 -0.8115  2.0548
 5677SOL    HW228491   1.060   3.704   5.197  0.9113  0.4228  3.5006
 5678SOL     OW28492   2.770   0.273   4.199 -0.2711  0.8828  0.0505
 5678SOL    HW128493   2.836   0.342   4.209  1.4121 -0.7174  0.0272
 5678SOL    HW228494   2.748   0.286   4.107  0.0418 -1.1248 -0.2918
 5679SOL     OW28495   0.977   1.546   0.751 -0.9224 -0.5464 -0.4082
 5679SOL    HW128496   0.963   1.526   0.843  0.0463  0.9448  0.0691
 5679SOL    HW228497   0.988   1.639   0.773 -1.0671 -0.3542 -1.1265
 5680SOL     OW28498   0.203   3.820   5.968  0.6247  0.2186  0.2356
 5680SOL    HW128499   0.230   3.750   6.028  0.7687 -0.0970 -0.2011
 5680SOL    HW228500   0.124   3.796   5.919  0.8752 -0.9101  0.3773
 5681SOL     OW28501   1.008   1.692  15.474 -0.2947 -0.7407  0.4704
 5681SOL    HW128502   0.968   1.779  15.483 -0.3078 -0.5352 -1.5506
 5681SOL    HW228503   0.943   1.655  15.414 -1.8932  1.6224  0.7381
 5682SOL     OW28504   3.357   1.928  14.815  0.7238  0.4468  0.3648
 5682SOL    HW128505   3.270   1.901  14.843  0.6233  1.8597  1.4509
 5682SOL    HW228506   3.359   2.013  14.859  0.3015 -0.3608  1.9055
 5683SOL     OW28507   1.911   0.578  14.792  0.2183  0.4339  0.0053
 5683SOL    HW128508   1.954   0.579  14.706  0.7406  0.4149  0.2647
 5683SOL    HW228509   1.940   0.502  14.842 -1.3272  0.9050  1.6228
 5684SOL     OW28510   3.134   1.524  11.887 -0.4209  0.1978  0.0215
 5684SOL    HW128511   3.081   1.567  11.954  1.2910  0.0051  1.5007
 5684SOL    HW228512   3.180   1.595  11.843  1.2236 -0.9057 -0.0425
 5685SOL     OW28513   4.438   0.685   1.776 -0.3644 -0.4135 -0.4557
 5685SOL    HW128514   4.361   0.628   1.768  0.6816 -1.9346  0.3065
 5685SOL    HW228515   4.411   0.761   1.828  1.9330  0.3876 -0.4463
 5686SOL     OW28516   0.968   0.280   7.516  0.3993 -0.0733  0.6301
 5686SOL    HW128517   1.044   0.317   7.470 -0.0683 -0.6319 -0.5874
 5686SOL    HW228518   0.941   0.357   7.567  0.1265  1.4100 -1.7313
 5687SOL     OW28519   3.681   0.718   3.870 -0.3322  0.7100 -0.5179
 5687SOL    HW128520   3.588   0.723   3.849  0.1626  1.4238 -2.6130
 5687SOL    HW228521   3.699   0.627   3.848 -0.6306  0.0587  1.9241
 5688SOL     OW28522   0.019   0.600   1.446  0.0883  0.0719  0.1088
 5688SOL    HW128523   4.683   0.541   1.493 -1.3030 -0.4239 -2.2567
 5688SOL    HW228524   4.692   0.635   1.373 -0.6600  0.0836  0.6255
 5689SOL     OW28525   3.136   4.283  17.642 -0.3329  0.0211  0.0632
 5689SOL    HW128526   3.099   4.219   0.007  0.8267  0.6026  1.3743
 5689SOL    HW228527   3.135   4.357   0.007 -2.3948  1.9088 -2.2367
 5690SOL     OW28528   0.396   3.900   4.440  0.4968 -0.3417 -0.1028
 5690SOL    HW128529   0.358   3.855   4.515  1.8690 -0.0859  0.7489
 5690SOL    HW228530   0.487   3.905   4.471  1.3854  1.6052 -3.0509
 5691SOL     OW28531   3.948   3.503   8.171 -0.0933  0.0816 -0.3245
 5691SOL    HW128532   3.958   3.578   8.229 -0.0245  0.0764 -0.3303
 5691SOL    HW228533   4.000   3.434   8.210  0.4388 -0.6160 -2.2678
 5692SOL     OW28534   0.935   4.246   8.201 -0.1334 -0.1960 -0.4461
 5692SOL    HW128535   0.969   4.181   8.263  1.7839  1.0868 -0.1628
 5692SOL    HW228536   0.978   4.224   8.119 -1.4144 -2.3679 -0.5366
 5693SOL     OW28537   4.223   3.568   8.662 -0.4960  0.3191 -0.3603
 5693SOL    HW128538   4.246   3.648   8.709  0.6406 -0.8985  1.1836
 5693SOL    HW228539   4.176   3.524   8.732  1.3818  0.7193  1.1711
 5694SOL     OW28540   3.085   1.044   5.878 -0.0369  0.0775 -0.0616
 5694SOL    HW128541   3.122   1.129   5.901 -1.6134  0.5417  0.7791
 5694SOL    HW228542   2.999   1.047   5.920 -0.6540 -0.4994 -1.2791
 5695SOL     OW28543   3.431   0.313   4.709 -0.1386 -0.3317 -0.3441
 5695SOL    HW128544   3.438   0.219   4.723  0.2926 -0.4982 -1.6198
 5695SOL    HW228545   3.522   0.337   4.727  0.1371 -0.2451 -1.8173
 5696SOL     OW28546   4.174   2.022   1.625 -0.4684  0.0999  0.1471
 5696SOL    HW128547   4.181   2.081   1.549 -0.2689 -1.0042 -0.6891
 5696SOL    HW228548   4.190   2.074   1.703 -1.0451 -1.1646  1.1044
 5697SOL     OW28549   4.578   2.880   4.953  0.5152 -0.6555  0.4591
 5697SOL    HW128550   4.509   2.833   5.000 -1.0184 -0.3866 -1.5057
 5697SOL    HW228551   4.575   2.963   5.001  0.1048 -0.4403  0.0710
 5698SOL     OW28552   0.901   3.821  10.435 -0.1464  0.0131  0.1714
 5698SOL    HW128553   0.976   3.878  10.423  0.2255  0.0326  2.5859
 5698SOL    HW228554   0.938   3.736  10.461  0.8205  0.3436 -0.1582
 5699SOL     OW28555   3.643   2.023   5.438  0.6097 -0.2531 -0.1255
 5699SOL    HW128556   3.680   2.110   5.422 -3.0560  0.9149 -2.3874
 5699SOL    HW228557   3.621   2.032   5.531 -1.0211 -0.4743 -0.4765
 5700SOL     OW28558   4.717   1.282   7.053  0.5381  0.0850 -0.9225
 5700SOL    HW128559   4.624   1.303   7.053  0.7966  1.3050 -0.3895
 5700SOL    HW228560   0.008   1.237   7.136 -0.9638  1.9480  0.3614
 5701SOL     OW28561   3.500   2.897   8.679  0.4095  0.1230 -0.0751
 5701SOL    HW128562   3.595   2.905   8.684  0.5901 -0.7279 -1.9834
 5701SOL    HW228563   3.492   2.825   8.617 -1.0103 -0.9667  1.3663
 5702SOL     OW28564   2.087   3.398   7.092  0.0210 -0.3931 -0.6850
 5702SOL    HW128565   2.165   3.423   7.043 -0.1640 -0.1461 -0.8580
 5702SOL    HW228566   2.129   3.360   7.169  1.1568  4.0691  0.8999
 5703SOL     OW28567   4.199   2.352   5.939  0.8299 -0.5645 -0.4462
 5703SOL    HW128568   4.136   2.409   5.894 -0.2742 -0.5385  1.1264
 5703SOL    HW228569   4.141   2.285   5.975 -0.1984  0.2301 -0.6056
 5704SOL     OW28570   1.389   3.468   6.458  0.3823 -0.0866  0.7316
 5704SOL    HW128571   1.296   3.475   6.476  0.0095 -0.0727 -1.1631
 5704SOL    HW228572   1.427   3.468   6.546  2.1134 -1.5345  0.0048
 5705SOL     OW28573   4.715   2.380   3.491  0.9824 -0.3870  0.0172
 5705SOL    HW128574   0.023   2.399   3.402  0.9547 -1.1212 -0.1556
 5705SOL    HW228575   4.671   2.296   3.479 -1.8992  0.9657  1.2431
 5706SOL     OW28576   3.426   0.245   8.806 -0.5123 -0.7937 -0.4185
 5706SOL    HW128577   3.468   0.251   8.721  2.1898 -1.3254  0.8725
 5706SOL    HW228578   3.490   0.196   8.857 -0.4643 -0.9752 -0.6538
 5707SOL     OW28579   2.368   2.537   4.803 -0.4535  0.2340  0.3755
 5707SOL    HW128580   2.287   2.557   4.756 -0.3415 -0.1194  0.0338
 5707SOL    HW228581   2.423   2.598   4.754 -0.8893 -0.3548 -0.8310
 5708SOL     OW28582   3.381   0.068  13.381  0.8147 -0.1218  0.0654
 5708SOL    HW128583   3.359   0.115  13.462  1.0387  0.6000 -0.2937
 5708SOL    HW228584   3.456   0.119  13.351  0.9026 -0.6141 -0.5365
 5709SOL     OW28585   4.684   3.116  15.250  0.1311 -0.1931 -0.1750
 5709SOL    HW128586   0.026   3.087  15.187 -0.8961  0.3562 -1.4911
 5709SOL    HW228587   4.661   3.030  15.285  2.3643 -0.2015  1.2944
 5710SOL     OW28588   0.536   1.228   8.461  0.6914 -0.1690 -0.4260
 5710SOL    HW128589   0.614   1.245   8.408  1.9234 -0.5609  1.2171
 5710SOL    HW228590   0.570   1.219   8.551  0.1768 -1.4288 -0.3499
 5711SOL     OW28591   2.175   2.766  14.902 -0.5355  0.7521  0.5032
 5711SOL    HW128592   2.238   2.779  14.973 -0.0782 -0.6327  0.3540
 5711SOL    HW228593   2.194   2.678  14.871  2.3799  2.3248 -2.1462
 5712SOL     OW28594   3.232   3.142  16.616  0.0120  0.5368 -0.2245
 5712SOL    HW128595   3.172   3.117  16.686  2.4625 -1.8531  1.0253
 5712SOL    HW228596   3.304   3.174  16.670 -0.2070 -0.0164  0.4047
 5713SOL     OW28597   4.652   3.979   8.643 -0.2683 -0.2131  0.1187
 5713SOL    HW128598   4.708   3.971   8.720 -0.3535  1.5174  0.3567
 5713SOL    HW228599   4.681   3.904   8.591 -1.4274 -0.6685  0.1069
 5714SOL     OW28600   0.641   1.048   2.134  0.6783  0.0802  0.4486
 5714SOL    HW128601   0.667   1.019   2.222 -0.5979 -0.4784  0.6462
 5714SOL    HW228602   0.675   1.138   2.137  1.4835 -0.2012 -0.5422
 5715SOL     OW28603   3.859   3.665  13.071  0.2720 -0.0516  0.2554
 5715SOL    HW128604   3.768   3.688  13.052  0.5013 -0.8807 -1.8169
 5715SOL    HW228605   3.903   3.729  13.015 -1.9274  1.1823 -0.0629
 5716SOL     OW28606   0.929   0.403  15.087  0.3930  0.1207  0.4513
 5716SOL    HW128607   0.933   0.498  15.097  2.2454  0.1238 -0.1566
 5716SOL    HW228608   0.870   0.400  15.012 -1.0785  2.5237  1.5231
 5717SOL     OW28609   2.827   2.740   0.635  0.0885 -0.5359 -0.4174
 5717SOL    HW128610   2.865   2.815   0.588  1.1110 -0.9140 -0.1867
 5717SOL    HW228611   2.763   2.714   0.568 -1.4949  2.6786 -0.1850
 5718SOL     OW28612   3.957   1.810   5.642  0.2386 -0.3129  0.3976
 5718SOL    HW128613   3.989   1.767   5.562  0.1698 -1.4770  0.9863
 5718SOL    HW228614   3.997   1.896   5.633 -3.4659  1.4386  0.6762
 5719SOL     OW28615   3.084   2.957   4.411 -0.3503  0.3747 -0.3049
 5719SOL    HW128616   3.101   2.868   4.380  2.2385  0.3759  1.1497
 5719SOL    HW228617   3.021   2.996   4.350  1.3102  0.3904 -1.9983
 5720SOL     OW28618   4.301   1.132   9.176  0.3908 -0.5728  0.0561
 5720SOL    HW128619   4.210   1.146   9.148  0.4207 -1.7473 -0.6532
 5720SOL    HW228620   4.303   1.181   9.258  0.9862 -2.0191  0.9065
 5721SOL     OW28621   0.628   0.080  15.899  0.5423 -0.6908 -0.3209
 5721SOL    HW128622   0.554   0.130  15.933  2.3195  2.0559 -0.5268
 5721SOL    HW228623   0.700   0.128  15.940  0.5652  0.0495 -1.2198
 5722SOL     OW28624   3.815   3.779   9.654 -0.3100  0.5892 -0.0406
 5722SOL    HW128625   3.860   3.778   9.570  0.1529  1.7933  0.1921
 5722SOL    HW228626   3.765   3.698   9.642 -0.3234  0.2914  1.9676
 5723SOL     OW28627   3.670   3.342   8.061  0.1913 -0.6000 -0.3348
 5723SOL    HW128628   3.642   3.273   8.121 -0.4047 -0.9648 -1.0386
 5723SOL    HW228629   3.598   3.331   8.000 -1.1330 -2.8222  1.6283
 5724SOL     OW28630   2.122   3.704   7.448  0.0089  0.0192  0.1474
 5724SOL    HW128631   2.177   3.692   7.371  0.1473 -2.6762  0.6524
 5724SOL    HW228632   2.178   3.654   7.508 -1.0685  1.5341  2.3849
 5725SOL     OW28633   4.114   0.811  15.610 -0.0935 -0.1288 -0.2806
 5725SOL    HW128634   4.047   0.743  15.605  1.1431 -1.4816  1.3525
 5725SOL    HW228635   4.080   0.853  15.689 -3.1684  1.2774 -2.3955
 5726SOL     OW28636   3.859   2.505   8.103 -0.0793 -0.2702 -0.6580
 5726SOL    HW128637   3.934   2.559   8.129 -1.5975  1.4135  0.2576
 5726SOL    HW228638   3.861   2.437   8.170  1.4164 -1.6174 -2.0761
 5727SOL     OW28639   0.817   1.273   2.091 -0.4951 -0.0924  0.4011
 5727SOL    HW128640   0.793   1.347   2.147 -0.4798 -0.2878  0.6674
 5727SOL    HW228641   0.902   1.289   2.050 -0.4141  1.4103  1.1443
 5728SOL     OW28642   4.288   1.108   4.834 -0.1460  0.5495 -0.4511
 5728SOL    HW128643   4.271   1.197   4.802  0.3738  0.4786 -0.9218
 5728SOL    HW228644   4.381   1.128   4.843 -0.2047 -0.7172  2.9591
 5729SOL     OW28645   0.190   4.602   2.181  0.3319  0.0049 -0.1310
 5729SOL    HW128646   0.113   4.660   2.179 -0.5130 -1.1673 -1.9232
 5729SOL    HW228647   0.161   4.528   2.234 -0.1510  1.6534  1.9469
 5730SOL     OW28648   3.528   1.995   2.623 -0.2874 -0.0128  0.1311
 5730SOL    HW128649   3.522   2.060   2.694 -1.9335 -0.2357  0.1950
 5730SOL    HW228650   3.505   2.048   2.547 -1.3592 -1.7265 -0.7281
 5731SOL     OW28651   3.787   3.167   4.111  0.4017 -0.7734 -0.4715
 5731SOL    HW128652   3.771   3.216   4.192 -0.6578  0.3892 -1.3878
 5731SOL    HW228653   3.697   3.141   4.090  0.6354 -0.8431 -1.3823
 5732SOL     OW28654   1.527   4.361  15.360 -0.3341 -0.0065 -0.4189
 5732SOL    HW128655   1.456   4.347  15.422  0.1921 -0.6040  0.0544
 5732SOL    HW228656   1.586   4.291  15.388 -0.0722 -0.1155 -1.2260
 5733SOL     OW28657   2.459   4.566  10.022 -0.2732  0.6168 -0.0044
 5733SOL    HW128658   2.467   4.659   9.999  1.6080  0.6341  0.7482
 5733SOL    HW228659   2.543   4.561  10.068 -0.7895 -0.3309  0.8000
 5734SOL     OW28660   1.486   3.377   5.170  0.3887 -0.1920 -0.7112
 5734SOL    HW128661   1.533   3.452   5.206 -0.3158  0.1541 -0.5257
 5734SOL    HW228662   1.411   3.384   5.228  0.2794  1.6534 -1.0955
 5735SOL     OW28663   3.583   0.678  15.258  0.1857 -0.0997  0.3555
 5735SOL    HW128664   3.625   0.611  15.204  0.1397 -0.7756  1.1600
 5735SOL    HW228665   3.496   0.692  15.220 -0.1848 -2.2302  0.4320
 5736SOL     OW28666   3.294   1.555   5.783  0.2801 -0.7827  0.3154
 5736SOL    HW128667   3.307   1.542   5.689 -1.3300 -2.1903  0.2944
 5736SOL    HW228668   3.330   1.474   5.820  1.4266 -0.5824 -0.3417
 5737SOL     OW28669   2.138   0.334  11.380 -0.0121 -0.1237 -0.8704
 5737SOL    HW128670   2.228   0.362  11.368 -0.0933 -0.7251 -2.7655
 5737SOL    HW228671   2.142   0.305  11.471  0.6700  2.2385 -0.1342
 5738SOL     OW28672   2.246   0.186   9.155 -0.0713 -0.1103  0.2034
 5738SOL    HW128673   2.175   0.232   9.200  2.1039  2.6133  0.8694
 5738SOL    HW228674   2.308   0.219   9.220 -0.6581  1.1564  0.1333
 5739SOL     OW28675   0.564   1.316  11.092  0.5703  0.1750  0.0842
 5739SOL    HW128676   0.606   1.341  11.174 -0.5392  1.0287  0.3822
 5739SOL    HW228677   0.491   1.266  11.127  3.1682 -2.3715  1.9309
 5740SOL     OW28678   0.746   3.767   8.247  0.0472  0.0801  0.1710
 5740SOL    HW128679   0.804   3.828   8.201 -1.8019  0.1084 -2.1370
 5740SOL    HW228680   0.685   3.826   8.291 -1.2145 -1.6646  0.7186
 5741SOL     OW28681   0.651   2.792   8.264  0.2148  0.1929 -0.0735
 5741SOL    HW128682   0.647   2.761   8.355 -1.2895  2.1029  0.5037
 5741SOL    HW228683   0.601   2.874   8.266 -0.1549 -0.1031  3.3210
 5742SOL     OW28684   0.887   0.006  12.272 -0.6843 -0.3293 -0.5256
 5742SOL    HW128685   0.979   0.014  12.295 -0.5420 -2.0725 -0.4850
 5742SOL    HW228686   0.888   4.724  12.176  1.1656 -0.2811 -0.5096
 5743SOL     OW28687   2.811   4.317   4.438 -0.0868 -0.1184  0.5898
 5743SOL    HW128688   2.819   4.250   4.505 -2.8461  0.3208  1.3747
 5743SOL    HW228689   2.754   4.382   4.479  2.4531  3.4269 -1.4464
 5744SOL     OW28690   3.268   2.350   2.990 -0.3049  0.1272  0.4331
 5744SOL    HW128691   3.205   2.405   2.945 -0.4611  0.2490  0.7961
 5744SOL    HW228692   3.223   2.353   3.075  2.3748 -2.6066  1.9607
 5745SOL     OW28693   1.730   1.287   8.584 -0.3873  0.3277 -0.1472
 5745SOL    HW128694   1.695   1.206   8.622 -1.3389  0.9181  0.2532
 5745SOL    HW228695   1.664   1.308   8.518  0.9362  0.6692 -1.3323
 5746SOL     OW28696   3.116   3.000  14.508 -0.6311  0.8071 -0.5628
 5746SOL    HW128697   3.156   3.081  14.539 -1.5914  1.5849 -1.3538
 5746SOL    HW228698   3.086   3.011  14.418  2.2968  1.3664 -1.4719
 5747SOL     OW28699   3.510   1.578   1.353 -0.6721  0.4211 -0.0607
 5747SOL    HW128700   3.587   1.583   1.408 -1.6353  1.7279  1.1714
 5747SOL    HW228701   3.554   1.570   1.268 -0.6997  1.4104 -0.1644
 5748SOL     OW28702   3.267   4.130  17.483  0.2581  0.2033 -0.0651
 5748SOL    HW128703   3.338   4.093  17.535  1.4183  0.4651 -1.4775
 5748SOL    HW228704   3.234   4.208  17.527  1.5407  0.8130 -0.1956
 5749SOL     OW28705   0.214   3.384  11.007  0.3884 -0.7926 -0.2413
 5749SOL    HW128706   0.181   3.310  10.956  0.5642 -0.5102 -0.7583
 5749SOL    HW228707   0.211   3.338  11.091  0.0572 -0.1454  0.1026
 5750SOL     OW28708   3.433   4.688  14.096 -0.5256 -0.3173  0.3056
 5750SOL    HW128709   3.504   4.640  14.053  0.5945 -0.1013  1.9125
 5750SOL    HW228710   3.475   0.045  14.128 -0.5844  0.3408 -1.2830
 5751SOL     OW28711   1.898   1.762   5.380 -0.6783  0.1478  0.0143
 5751SOL    HW128712   1.829   1.817   5.342  1.4074  1.0882 -2.3943
 5751SOL    HW228713   1.894   1.789   5.472 -1.4718  0.7941 -0.2068
 5752SOL     OW28714   2.225   4.197   2.597  0.3920 -0.0509 -0.1166
 5752SOL    HW128715   2.274   4.129   2.551  1.1978  1.5908 -1.6761
 5752SOL    HW228716   2.228   4.164   2.687 -2.2355  1.6419  0.5852
 5753SOL     OW28717   1.858   0.043   7.811 -0.5120  0.7331  0.1660
 5753SOL    HW128718   1.769   0.052   7.779 -0.8926  1.2754  1.3984
 5753SOL    HW228719   1.834   0.038   7.903 -2.9664  0.2070 -0.4945
 5754SOL     OW28720   3.907   1.111   5.826 -0.2739  0.1181 -0.4202
 5754SOL    HW128721   3.874   1.075   5.744  1.1186 -1.2085 -0.4120
 5754SOL    HW228722   3.933   1.194   5.787  0.9106 -0.2018 -0.3153
 5755SOL     OW28723   0.590   0.746   7.783  0.1217  0.0145 -0.2004
 5755SOL    HW128724   0.677   0.748   7.824  0.7432 -0.4709 -1.4839
 5755SOL    HW228725   0.537   0.744   7.862 -1.6047  1.3022 -1.3213
 5756SOL     OW28726   2.069   4.712   8.499 -0.4611  0.1062  0.0762
 5756SOL    HW128727   2.133   0.049   8.536 -2.3923  3.3281 -1.8172
 5756SOL    HW228728   2.136   4.650   8.471  1.6480  2.0851  0.7687
 5757SOL     OW28729   3.779   3.759   2.186  0.3706  0.1229  0.2144
 5757SOL    HW128730   3.706   3.802   2.230  2.4696  1.3319  2.4805
 5757SOL    HW228731   3.727   3.713   2.120  0.0429 -0.3633  0.8127
 5758SOL     OW28732   0.213   3.534   2.927  0.5174  0.7812 -0.0997
 5758SOL    HW128733   0.158   3.459   2.947  1.9018  0.5386  2.8873
 5758SOL    HW228734   0.262   3.518   2.846 -2.3860  2.1128 -2.0942
 5759SOL     OW28735   1.544   0.746  12.050  0.1188  0.4870  0.5343
 5759SOL    HW128736   1.515   0.737  12.141 -0.8650 -2.2160 -0.0374
 5759SOL    HW228737   1.567   0.657  12.021 -0.7379 -0.1808  1.8839
 5760SOL     OW28738   3.715   4.037   9.668  0.1601 -0.0760 -0.3988
 5760SOL    HW128739   3.704   3.942   9.666  0.0815 -0.1173  1.5502
 5760SOL    HW228740   3.809   4.047   9.649 -0.1565  2.1382 -0.8144
 5761SOL     OW28741   0.573   4.133   6.028  0.0511 -0.1291 -0.0137
 5761SOL    HW128742   0.496   4.118   6.082 -0.1161 -0.2439 -0.2866
 5761SOL    HW228743   0.612   4.207   6.077  0.7827 -0.4226 -0.1503
 5762SOL     OW28744   4.628   3.213   3.184 -0.2784 -0.5983 -0.5212
 5762SOL    HW128745   4.540   3.239   3.159 -0.0154  2.1434  1.4650
 5762SOL    HW228746   4.627   3.118   3.174 -1.6111 -0.6552  0.2099
 5763SOL     OW28747   0.149   3.482  11.609 -0.0739 -0.2133  0.2722
 5763SOL    HW128748   0.076   3.462  11.668 -0.7696  1.0458 -0.1724
 5763SOL    HW228749   0.145   3.403  11.555 -0.2781 -1.4359  2.0761
 5764SOL     OW28750   1.778   1.186   4.153  0.0402  0.3040 -0.0897
 5764SOL    HW128751   1.802   1.107   4.202 -0.1365 -0.1509 -0.7542
 5764SOL    HW228752   1.842   1.186   4.083 -1.3638 -1.7257 -1.3576
 5765SOL     OW28753   2.815   2.430  16.734  0.2671  0.3126  0.0363
 5765SOL    HW128754   2.725   2.425  16.764  0.0377 -1.7263 -0.9665
 5765SOL    HW228755   2.787   2.396  16.649  1.0625 -0.2684  0.0044
 5766SOL     OW28756   0.178   3.709   4.966 -0.4519 -0.3329  0.2695
 5766SOL    HW128757   0.161   3.789   5.015 -2.3545 -0.1853 -0.6275
 5766SOL    HW228758   0.114   3.725   4.897 -1.0443  1.2812  1.1862
 5767SOL     OW28759   1.630   4.236   5.235  0.0792  0.1472  0.2801
 5767SOL    HW128760   1.716   4.268   5.206 -0.0942 -0.9066 -1.3763
 5767SOL    HW228761   1.595   4.202   5.153  0.1913  1.8078 -0.4446
 5768SOL     OW28762   1.369   3.729   5.772 -0.2353  0.2103 -0.1811
 5768SOL    HW128763   1.398   3.715   5.681 -3.1354  1.8100 -1.3516
 5768SOL    HW228764   1.276   3.750   5.760  0.0987  1.0845 -1.2152
 5769SOL     OW28765   1.749   2.759   7.305 -0.0471  0.0867 -0.1552
 5769SOL    HW128766   1.831   2.810   7.308 -1.3043  2.1433 -0.5057
 5769SOL    HW228767   1.780   2.669   7.312  0.9031  0.5364  1.3204
 5770SOL     OW28768   0.717   4.103   4.680  0.5029 -0.6121  0.1518
 5770SOL    HW128769   0.640   4.148   4.715  1.0589 -0.4297  1.1543
 5770SOL    HW228770   0.781   4.144   4.739  2.4920 -1.5035 -1.3614
 5771SOL     OW28771   4.198   0.228   0.110  0.0528 -0.4795 -0.3820
 5771SOL    HW128772   4.119   0.268   0.073  1.2511  0.6915 -1.6669
 5771SOL    HW228773   4.163   0.214   0.199 -1.0727  0.4672 -0.6640
 5772SOL     OW28774   1.581   1.322  15.353 -0.1563  0.2575 -0.6197
 5772SOL    HW128775   1.577   1.291  15.263 -0.2491 -0.5601 -0.3417
 5772SOL    HW228776   1.615   1.243  15.397  1.6962 -0.9505 -4.1872
 5773SOL     OW28777   0.599   3.768   1.534  0.1618  0.6178 -0.7247
 5773SOL    HW128778   0.679   3.722   1.511 -1.3721 -0.9328 -2.9283
 5773SOL    HW228779   0.557   3.758   1.448  2.0520 -2.4601 -1.2624
 5774SOL     OW28780   1.652   2.303  17.456 -0.1730 -0.6635  0.1086
 5774SOL    HW128781   1.627   2.292  17.364  1.5428  1.1005 -0.5832
 5774SOL    HW228782   1.748   2.306  17.451 -0.1623 -1.5184 -0.1259
 5775SOL     OW28783   4.651   1.010   3.997  0.0838 -0.1486 -0.0782
 5775SOL    HW128784   4.713   1.083   3.994  0.1125 -0.1705 -0.0211
 5775SOL    HW228785   4.595   1.031   3.923  1.5005 -0.8929 -1.3462
 5776SOL     OW28786   2.482   3.637   7.455  0.0008  0.1618 -0.2227
 5776SOL    HW128787   2.543   3.662   7.524  2.2037 -3.1443 -0.9606
 5776SOL    HW228788   2.541   3.607   7.385 -1.9175 -2.2109 -0.8205
 5777SOL     OW28789   4.649   3.868   6.404 -0.0728 -0.0844  0.0631
 5777SOL    HW128790   4.660   3.876   6.309 -2.8720  1.8518 -0.1102
 5777SOL    HW228791   4.670   3.776   6.422  0.1220 -0.1211 -0.3510
 5778SOL     OW28792   3.914   2.238   5.050 -0.6984 -0.5597 -0.1375
 5778SOL    HW128793   3.885   2.222   4.960  1.5514  0.4851 -1.0514
 5778SOL    HW228794   4.009   2.232   5.041 -0.7129 -0.7557 -0.1503
 5779SOL     OW28795   2.107   2.440   2.499  0.4854 -0.0468 -0.5432
 5779SOL    HW128796   2.135   2.351   2.477  2.3823  0.2386  0.7448
 5779SOL    HW228797   2.138   2.439   2.590  2.6312  0.5942 -1.2516
 5780SOL     OW28798   4.299   4.020   9.062 -0.1595 -0.2133 -0.0505
 5780SOL    HW128799   4.388   3.984   9.068 -0.5724 -1.5533 -1.8554
 5780SOL    HW228800   4.267   3.976   9.141  1.1992 -0.8754  0.1313
 5781SOL     OW28801   3.990   0.996   6.062 -0.7519 -0.3407  0.0984
 5781SOL    HW128802   3.943   1.043   5.993  1.4237  1.6330 -0.0552
 5781SOL    HW228803   4.001   0.907   6.029 -1.2916  0.3738 -2.0333
 5782SOL     OW28804   1.174   2.386   2.159  0.6060  0.1610  1.1099
 5782SOL    HW128805   1.099   2.386   2.099  1.5413 -3.1937 -0.0630
 5782SOL    HW228806   1.141   2.437   2.233  0.8274  0.6320  0.8853
 5783SOL     OW28807   3.949   4.614   8.893  0.5230  0.0243 -0.4010
 5783SOL    HW128808   3.949   4.696   8.843  0.5323 -0.0646 -0.5483
 5783SOL    HW228809   3.876   4.627   8.953  1.6482  0.3746  0.8866
 5784SOL     OW28810   4.548   0.545   8.956  0.0174  0.5150 -0.1764
 5784SOL    HW128811   4.558   0.453   8.980 -0.1199 -0.0609 -2.4042
 5784SOL    HW228812   4.492   0.567   9.031 -0.3925  1.0320 -0.6322
 5785SOL     OW28813   4.448   4.130  13.299 -0.3637 -0.3151 -0.0724
 5785SOL    HW128814   4.479   4.145  13.210  0.0028 -1.1385 -0.0804
 5785SOL    HW228815   4.499   4.052  13.319 -1.6207 -1.5752 -1.8624
 5786SOL     OW28816   0.989   3.061   8.099  0.1270  0.4704  0.2758
 5786SOL    HW128817   0.922   3.125   8.127 -0.1059 -0.7341  2.4678
 5786SOL    HW228818   1.072   3.108   8.109 -0.6544  1.5137  1.9577
 5787SOL     OW28819   1.625   0.217   4.515 -0.5478 -0.5567 -0.1979
 5787SOL    HW128820   1.650   0.198   4.424 -2.3318  1.2031 -1.0755
 5787SOL    HW228821   1.577   0.299   4.501 -0.0225 -0.2969 -0.4832
 5788SOL     OW28822   0.824   2.816  12.052  0.3559  0.0693 -0.3504
 5788SOL    HW128823   0.742   2.848  12.012 -0.2760 -0.8623  0.1917
 5788SOL    HW228824   0.788   2.748  12.109 -0.3197  2.3038  1.8338
 5789SOL     OW28825   0.940   1.129   1.250  0.2466  0.1245 -0.5658
 5789SOL    HW128826   0.978   1.161   1.169  0.6842 -0.6936 -0.6811
 5789SOL    HW228827   1.012   1.083   1.291 -0.1826 -0.7704 -0.8225
 5790SOL     OW28828   3.757   2.698  17.295  0.1987 -0.1154 -0.2076
 5790SOL    HW128829   3.671   2.698  17.253  0.3227 -1.5076 -0.4784
 5790SOL    HW228830   3.804   2.763  17.244  0.7943 -0.6292 -0.3159
 5791SOL     OW28831   0.927   0.492  15.994 -0.1818  0.3835 -0.0213
 5791SOL    HW128832   0.982   0.552  16.044  1.4163  0.4318 -1.8517
 5791SOL    HW228833   0.980   0.482  15.915 -0.0812 -1.8295  0.3427
 5792SOL     OW28834   0.624   2.841   7.443 -0.4322  0.1200  0.1352
 5792SOL    HW128835   0.641   2.925   7.485  0.9071 -0.3800  0.5902
 5792SOL    HW228836   0.616   2.869   7.352  0.9491 -0.8060 -0.2634
 5793SOL     OW28837   1.092   3.680   3.821 -0.3732 -0.1257 -0.5697
 5793SOL    HW128838   1.140   3.746   3.872 -1.0273 -0.1041  0.0075
 5793SOL    HW228839   1.108   3.723   3.736  1.0303  0.0128 -0.2397
 5794SOL     OW28840   1.066   3.258   8.556 -0.1627  0.7264  0.1037
 5794SOL    HW128841   1.118   3.226   8.481 -1.6485 -2.7586  0.5659
 5794SOL    HW228842   1.076   3.353   8.559 -0.8841  0.7304  1.9862
 5795SOL     OW28843   1.071   4.151   7.974 -0.1609 -0.0961  0.3739
 5795SOL    HW128844   1.160   4.186   7.980  0.2060 -1.0452  0.3710
 5795SOL    HW228845   1.095   4.078   7.918 -1.6142  0.6086 -1.1716
 5796SOL     OW28846   3.809   2.751   2.349 -0.0483 -0.3758  0.2453
 5796SOL    HW128847   3.782   2.771   2.260  1.1027  0.8157  0.1751
 5796SOL    HW228848   3.902   2.769   2.337 -0.2223 -1.1047 -2.1702
 5797SOL     OW28849   0.978   3.041  15.774 -0.1117 -0.5529  0.0067
 5797SOL    HW128850   1.001   3.134  15.782  0.7706 -0.7587 -0.1216
 5797SOL    HW228851   0.884   3.053  15.761 -0.0235  0.0531 -0.1095
 5798SOL     OW28852   0.257   1.958   9.287 -0.4689 -0.3187  0.0009
 5798SOL    HW128853   0.215   1.907   9.218 -1.2088 -1.2930  1.1602
 5798SOL    HW228854   0.302   2.022   9.232  0.5494  1.2069  2.5571
 5799SOL     OW28855   0.686   2.005   7.375  0.2497 -0.1130  0.1578
 5799SOL    HW128856   0.605   1.962   7.403 -2.1094  2.6473 -2.4527
 5799SOL    HW228857   0.736   1.923   7.375 -0.3443 -0.4744 -0.0448
 5800SOL     OW28858   3.158   0.573  11.453 -0.1846  0.5409 -0.5226
 5800SOL    HW128859   3.153   0.654  11.504  0.5729 -0.2729  0.8603
 5800SOL    HW228860   3.135   0.516  11.526 -0.2268  2.1507  0.7310
 5801SOL     OW28861   1.771   0.819   3.161  0.0250 -0.0513 -0.1062
 5801SOL    HW128862   1.769   0.898   3.106  0.8340 -0.4462 -0.6993
 5801SOL    HW228863   1.835   0.773   3.107  0.5963  1.1822 -0.4946
 5802SOL     OW28864   1.021   3.913   9.157  0.2049 -0.2293  0.0481
 5802SOL    HW128865   0.927   3.899   9.164 -0.1336  2.3847  0.9201
 5802SOL    HW228866   1.051   3.836   9.205 -3.7541 -1.0012  1.2331
 5803SOL     OW28867   4.119   4.496   5.760  0.6979 -0.1137 -0.4705
 5803SOL    HW128868   4.094   4.414   5.803 -0.9442  0.5479 -0.1835
 5803SOL    HW228869   4.210   4.470   5.746  0.4516 -0.2815 -1.7278
 5804SOL     OW28870   0.581   2.603   1.118  0.1521  0.4219 -0.0508
 5804SOL    HW128871   0.602   2.591   1.211  0.1071 -0.8510 -0.2144
 5804SOL    HW228872   0.667   2.595   1.077  0.8552 -1.5028  1.8220
 5805SOL     OW28873   3.828   3.500  15.240  0.0065 -0.3289  0.2453
 5805SOL    HW128874   3.902   3.544  15.280  0.0414 -0.8252  0.7314
 5805SOL    HW228875   3.759   3.543  15.291 -2.4911 -2.1230 -1.5817
 5806SOL     OW28876   1.698   3.205  13.459 -0.5837 -0.4963 -0.2263
 5806SOL    HW128877   1.752   3.128  13.442  0.3758 -0.2268  1.6290
 5806SOL    HW228878   1.681   3.191  13.552  1.3426 -0.1551  0.1798
 5807SOL     OW28879   0.315   4.613  11.737  0.4442  0.2213  0.3105
 5807SOL    HW128880   0.367   4.542  11.698 -0.0782  1.3333 -2.3731
 5807SOL    HW228881   0.241   4.561  11.770  1.0861 -0.6840  0.3360
 5808SOL     OW28882   0.172   0.246   8.186 -1.2246 -0.0057 -0.4349
 5808SOL    HW128883   0.192   0.277   8.274 -0.2896 -2.2824  0.1424
 5808SOL    HW228884   0.222   0.167   8.205 -1.1523  0.6701  2.1684
 5809SOL     OW28885   0.525   2.606   8.096 -0.4038  0.1447 -0.0494
 5809SOL    HW128886   0.522   2.678   8.158  1.6902  1.5735 -1.6177
 5809SOL    HW228887   0.433   2.599   8.068 -0.9416  0.8181  1.5543
 5810SOL     OW28888   2.728   3.237   2.162 -0.1389  0.3296 -0.4791
 5810SOL    HW128889   2.642   3.275   2.145 -0.0500  0.7808  0.0921
 5810SOL    HW228890   2.701   3.160   2.212  0.8690  0.8937  0.9461
 5811SOL     OW28891   1.550   1.817   8.464 -0.3878  0.3414 -0.6152
 5811SOL    HW128892   1.601   1.796   8.386  2.0163 -1.7130  1.5491
 5811SOL    HW228893   1.463   1.786   8.436 -0.6799  1.0802 -0.5344
 5812SOL     OW28894   1.774   0.516   7.485  0.3696  0.2632 -0.1668
 5812SOL    HW128895   1.846   0.515   7.422  1.8814  0.4521  1.5869
 5812SOL    HW228896   1.696   0.523   7.429 -0.0507 -1.8038  0.1417
 5813SOL     OW28897   3.542   0.454  14.293 -0.1736 -0.6074 -0.2758
 5813SOL    HW128898   3.470   0.499  14.338 -0.4748 -0.9510 -0.4144
 5813SOL    HW228899   3.607   0.524  14.295 -1.5363  0.7125 -2.1400
 5814SOL     OW28900   2.462   1.122   4.914  0.1327 -0.4145 -0.0987
 5814SOL    HW128901   2.540   1.164   4.876 -0.6097  1.7016  0.7454
 5814SOL    HW228902   2.421   1.086   4.835 -0.6763 -0.0331  0.1540
 5815SOL     OW28903   1.363   4.342   7.571  0.2181 -0.8837 -0.1363
 5815SOL    HW128904   1.346   4.316   7.480 -0.0621 -0.5630 -0.1764
 5815SOL    HW228905   1.406   4.428   7.566  0.1347 -0.8569 -0.3894
 5816SOL     OW28906   4.214   2.334   2.322  0.1335 -0.4244 -0.3736
 5816SOL    HW128907   4.187   2.408   2.267  1.2117  1.6833  1.9524
 5816SOL    HW228908   4.290   2.308   2.269  1.4427  0.9449  0.8276
 5817SOL     OW28909   1.973   3.323   8.377 -0.2884 -0.2179 -0.6624
 5817SOL    HW128910   1.976   3.320   8.281 -1.6081 -4.0914 -0.5651
 5817SOL    HW228911   1.947   3.234   8.399  0.7250 -0.3710 -0.0845
 5818SOL     OW28912   1.559   1.800   0.874  0.2458 -0.2641  0.7990
 5818SOL    HW128913   1.544   1.841   0.789 -1.8752 -1.7136  0.5001
 5818SOL    HW228914   1.595   1.877   0.919 -0.3075 -1.6781  3.6205
 5819SOL     OW28915   4.155   4.046   3.312  0.3249  0.3400 -0.2829
 5819SOL    HW128916   4.249   4.048   3.333  1.1213  0.8232 -3.8897
 5819SOL    HW228917   4.120   4.044   3.401  1.2669 -1.6834  0.0378
 5820SOL     OW28918   0.400   0.025   1.681 -0.6963  0.0119  0.2456
 5820SOL    HW128919   0.418   0.058   1.769  0.5621  1.8492 -0.7126
 5820SOL    HW228920   0.481   0.048   1.636 -0.7497 -0.1606  0.0613
 5821SOL     OW28921   1.203   4.510  15.394 -0.2552 -0.9009  0.7031
 5821SOL    HW128922   1.151   4.572  15.446 -2.1076 -1.9599  0.1492
 5821SOL    HW228923   1.240   4.560  15.322 -1.4004 -0.2168  0.5829
 5822SOL     OW28924   3.063   3.478   0.437  0.1574  0.0720 -0.0609
 5822SOL    HW128925   3.090   3.403   0.384 -1.7394  0.8614 -2.1705
 5822SOL    HW228926   3.094   3.452   0.523  1.3899  1.7500 -0.0139
 5823SOL     OW28927   1.498   2.616   3.787 -0.3074  0.7520  0.1302
 5823SOL    HW128928   1.429   2.674   3.755 -0.3777  1.0519  0.8163
 5823SOL    HW228929   1.553   2.667   3.847 -0.4949 -0.2332  1.1520
 5824SOL     OW28930   3.257   4.366   9.261 -0.6010  0.0938 -0.3825
 5824SOL    HW128931   3.291   4.456   9.264 -1.8032  0.6229 -2.0367
 5824SOL    HW228932   3.334   4.324   9.299 -2.1099  1.2043  3.8457
 5825SOL     OW28933   1.740   0.187   7.449 -0.6331  0.0122 -0.6731
 5825SOL    HW128934   1.682   0.127   7.402  1.7184 -1.8036 -1.2821
 5825SOL    HW228935   1.818   0.131   7.447 -0.4456  0.2890 -1.0254
 5826SOL     OW28936   4.118   3.997   5.447 -0.6416  0.2933 -0.4202
 5826SOL    HW128937   4.070   4.077   5.430 -1.7717 -0.4473 -0.6951
 5826SOL    HW228938   4.049   3.933   5.429  0.9845 -1.9596  1.3816
 5827SOL     OW28939   0.671   3.424   8.694 -0.1031  0.2583 -0.0696
 5827SOL    HW128940   0.743   3.360   8.688  1.7263  2.4559 -1.6312
 5827SOL    HW228941   0.598   3.362   8.689 -0.4867  0.7065  0.0518
 5828SOL     OW28942   0.239   1.862   3.330  0.2006 -0.0924 -0.4926
 5828SOL    HW128943   0.169   1.809   3.291 -0.1786  1.9824 -2.6312
 5828SOL    HW228944   0.197   1.948   3.340 -3.6159 -1.5299 -4.2026
 5829SOL     OW28945   0.070   2.234   6.818 -0.1213 -0.3434  0.3584
 5829SOL    HW128946   0.049   2.223   6.910 -1.2763 -4.4590 -0.3868
 5829SOL    HW228947   4.709   2.209   6.780 -0.1648 -0.8969  0.8213
 5830SOL     OW28948   0.994   1.861   5.049  0.2383 -0.8059  0.2820
 5830SOL    HW128949   1.028   1.814   5.125 -0.5175 -1.4354  0.2391
 5830SOL    HW228950   1.032   1.947   5.067 -0.5944 -0.2803 -0.5020
 5831SOL     OW28951   2.188   1.453   4.092 -0.4315 -0.5678  0.5281
 5831SOL    HW128952   2.110   1.446   4.147 -1.1825  0.5163 -0.3992
 5831SOL    HW228953   2.160   1.392   4.024 -0.1842 -0.2771  0.1645
 5832SOL     OW28954   1.234   1.558   8.165 -0.3343  0.1197  0.2643
 5832SOL    HW128955   1.321   1.522   8.150 -1.2093 -2.2710  0.9347
 5832SOL    HW228956   1.194   1.548   8.078  1.0752  1.2041 -0.5109
 5833SOL     OW28957   1.758   0.590  15.949 -0.0152 -0.6248  0.4943
 5833SOL    HW128958   1.697   0.605  15.877 -1.6550 -1.6452  1.7021
 5833SOL    HW228959   1.796   0.504  15.930  1.0948 -0.5555  2.3969
 5834SOL     OW28960   3.653   4.676   5.412 -0.2759  0.1090  0.7103
 5834SOL    HW128961   3.735   0.001   5.419  0.1628 -0.3407 -1.4715
 5834SOL    HW228962   3.691   4.603   5.364 -1.5971 -0.6684  0.8318
 5835SOL     OW28963   1.972   1.430   2.850 -0.4609  0.1015  0.7574
 5835SOL    HW128964   2.004   1.512   2.811 -1.5226 -0.5068 -1.4159
 5835SOL    HW228965   2.052   1.386   2.880 -0.1655  0.8024  0.9982
 5836SOL     OW28966   2.295   0.333  14.271  0.0705 -0.8143  0.3473
 5836SOL    HW128967   2.279   0.338  14.366 -2.8750  2.0556 -0.3199
 5836SOL    HW228968   2.209   0.358  14.238  1.0057  0.8925 -0.8130
 5837SOL     OW28969   2.124   2.061  13.332  0.3004 -0.3772 -0.1553
 5837SOL    HW128970   2.105   1.968  13.323  0.9811 -0.6478  1.2488
 5837SOL    HW228971   2.179   2.066  13.410 -0.8805 -0.1193  0.6619
 5838SOL     OW28972   3.535   1.980   7.170 -0.2939 -0.9115  0.6097
 5838SOL    HW128973   3.553   2.035   7.245 -2.2498  1.5453 -0.7045
 5838SOL    HW228974   3.616   2.002   7.124  1.0649 -0.6520  3.1260
 5839SOL     OW28975   1.051   1.570   2.308  0.0608  0.0532 -0.3554
 5839SOL    HW128976   0.959   1.542   2.317  0.1287  0.1364  0.6377
 5839SOL    HW228977   1.079   1.525   2.229 -0.0076 -1.1351  0.2865
 5840SOL     OW28978   2.353   1.335  14.344  0.3617  0.3884  0.4945
 5840SOL    HW128979   2.361   1.429  14.332 -1.7085  0.6213  0.8598
 5840SOL    HW228980   2.401   1.309  14.266 -0.8281  1.1001 -0.4666
 5841SOL     OW28981   3.188   4.635  10.831  0.2482 -0.3079 -0.1132
 5841SOL    HW128982   3.175   4.603  10.920  1.2888 -1.5141 -0.4043
 5841SOL    HW228983   3.261   4.695  10.842 -0.0511  0.2545 -1.1655
 5842SOL     OW28984   0.571   0.742   1.850  0.5102 -0.0811  0.6581
 5842SOL    HW128985   0.561   0.692   1.932 -1.2110 -0.5939  0.1404
 5842SOL    HW228986   0.640   0.681   1.823  1.2827  1.0645  0.0694
 5843SOL     OW28987   1.066   0.824   4.336  0.1063 -0.2336 -0.5368
 5843SOL    HW128988   1.156   0.852   4.355 -0.6970  1.9168  0.0802
 5843SOL    HW228989   1.077   0.739   4.293 -1.8368 -1.2166  0.9106
 5844SOL     OW28990   0.842   4.661   7.764 -0.1997 -0.1265  1.4335
 5844SOL    HW128991   0.884   0.010   7.810  0.8370  0.0587  0.2100
 5844SOL    HW228992   0.866   4.689   7.675 -0.6659  2.0768  2.0150
 5845SOL     OW28993   3.964   2.864   5.207  0.2343  0.1733 -0.3214
 5845SOL    HW128994   3.886   2.836   5.159 -0.0886 -1.0431  0.9216
 5845SOL    HW228995   4.034   2.866   5.142  0.0254 -1.0817 -0.5892
 5846SOL     OW28996   2.299   0.119   6.930  0.3347  0.2878  0.1726
 5846SOL    HW128997   2.233   0.100   6.996  0.5021  0.8374  0.4981
 5846SOL    HW228998   2.246   0.141   6.853 -2.0579  0.6728  1.9064
 5847SOL     OW28999   3.386   3.574  12.941 -0.3770 -0.6075 -0.2275
 5847SOL    HW129000   3.403   3.480  12.935  0.2407 -0.5302  0.3046
 5847SOL    HW229001   3.363   3.593  12.850  0.9413  1.3138 -0.1626
 5848SOL     OW29002   3.681   4.559  14.009  0.7105  0.8127  0.2167
 5848SOL    HW129003   3.730   4.530  14.086  1.1999  1.7041  0.2371
 5848SOL    HW229004   3.679   4.478  13.957  2.9254  0.7420  0.2065
 5849SOL     OW29005   0.536   4.206   4.872 -0.4021  0.4011  0.5397
 5849SOL    HW129006   0.544   4.114   4.896  0.4687  0.0492 -1.1234
 5849SOL    HW229007   0.532   4.250   4.957 -0.6294  1.8576 -0.2164
 5850SOL     OW29008   1.933   0.895   6.508  0.9099 -0.4262 -0.2568
 5850SOL    HW129009   1.931   0.990   6.519 -2.0365 -0.9282  3.5759
 5850SOL    HW229010   2.025   0.876   6.528  0.2868 -1.5570  1.5227
 5851SOL     OW29011   2.229   2.891  13.119  0.6554  0.3480  0.3121
 5851SOL    HW129012   2.170   2.930  13.183 -0.9242  0.9975 -1.5645
 5851SOL    HW229013   2.177   2.818  13.087  1.4604 -0.2377  0.3431
 5852SOL     OW29014   0.582   2.119   9.426 -0.2648 -0.0127  0.5890
 5852SOL    HW129015   0.652   2.166   9.382  0.4332 -1.7270 -0.1493
 5852SOL    HW229016   0.532   2.103   9.345  2.1990 -1.6201 -0.6052
 5853SOL     OW29017   2.377   4.395   6.049 -0.3652 -0.2987  1.1414
 5853SOL    HW129018   2.284   4.417   6.053 -0.9610 -2.5007 -0.3223
 5853SOL    HW229019   2.378   4.302   6.024 -0.6910  0.1806 -0.5754
 5854SOL     OW29020   1.310   1.095  14.804  0.0911  0.0319  0.3886
 5854SOL    HW129021   1.322   1.185  14.773  0.3609  0.4157  1.5920
 5854SOL    HW229022   1.267   1.053  14.730  0.1782  0.5986  0.0166
 5855SOL     OW29023   2.316   3.502   6.985  0.5452 -0.3961  0.3106
 5855SOL    HW129024   2.311   3.571   6.919  1.5822  0.0263  0.6837
 5855SOL    HW229025   2.383   3.447   6.944  0.5478 -0.9417  1.0405
 5856SOL     OW29026   2.665   1.565   7.147 -0.0704  0.3591  0.0539
 5856SOL    HW129027   2.733   1.499   7.158 -0.2460 -0.1941 -2.1773
 5856SOL    HW229028   2.638   1.578   7.238 -0.0770 -2.3001  0.4257
 5857SOL     OW29029   0.312   2.138   1.041  0.1439  0.2946  0.2636
 5857SOL    HW129030   0.382   2.073   1.049 -0.6808 -0.5429  0.6513
 5857SOL    HW229031   0.348   2.217   1.080 -0.4922  2.0572 -2.6828
 5858SOL     OW29032   0.319   2.308  11.563  0.5911 -0.7194 -0.4925
 5858SOL    HW129033   0.344   2.366  11.491 -1.2340 -0.5118 -0.9601
 5858SOL    HW229034   0.397   2.254  11.552 -0.6495 -2.8077  1.0198
 5859SOL     OW29035   2.756   2.895  16.041  0.3879 -0.0968  0.0457
 5859SOL    HW129036   2.764   2.845  16.122  1.3886  0.6025  0.3731
 5859SOL    HW229037   2.661   2.902  16.038  0.4200  0.0221 -0.7130
 5860SOL     OW29038   3.630   3.486   2.374 -0.7588 -0.3652  0.4528
 5860SOL    HW129039   3.579   3.417   2.415 -0.8601  0.2120  1.3218
 5860SOL    HW229040   3.573   3.498   2.298 -0.5398 -1.1930  0.1585
 5861SOL     OW29041   0.988   2.876   4.068  0.5589 -0.1605 -0.0833
 5861SOL    HW129042   0.960   2.966   4.084  1.1528 -0.1900  1.1806
 5861SOL    HW229043   0.916   2.848   4.012  1.1035 -0.4070 -0.6515
 5862SOL     OW29044   0.759   4.331  14.629  0.1880 -0.0149  0.1333
 5862SOL    HW129045   0.764   4.253  14.685  2.4331  0.8635  1.1413
 5862SOL    HW229046   0.712   4.398  14.679 -0.8102  1.4313 -2.7199
 5863SOL     OW29047   0.993   2.339   5.704 -0.3114  0.0842 -0.2379
 5863SOL    HW129048   0.923   2.316   5.643 -0.0456 -1.0996 -0.1022
 5863SOL    HW229049   1.036   2.254   5.715  1.7903  1.0328 -1.1542
 5864SOL     OW29050   1.627   4.228   7.628  0.2453 -0.7037  0.4760
 5864SOL    HW129051   1.538   4.254   7.606  0.5321  0.7692  1.0322
 5864SOL    HW229052   1.661   4.293   7.689  1.5722 -0.5541 -0.4129
 5865SOL     OW29053   3.338   3.146   9.110  0.2400  0.0280 -0.0656
 5865SOL    HW129054   3.255   3.098   9.102  0.3342  0.0121 -0.9174
 5865SOL    HW229055   3.342   3.201   9.032  2.5579  0.0723  0.0951
 5866SOL     OW29056   2.261   2.783   8.622  0.0730  0.1526  0.8152
 5866SOL    HW129057   2.346   2.782   8.577 -0.7891 -2.2490 -0.8217
 5866SOL    HW229058   2.209   2.728   8.563 -0.6235  1.4855  0.1847
 5867SOL     OW29059   1.041   1.385   7.765  0.4769 -0.0138  0.1555
 5867SOL    HW129060   0.946   1.397   7.768  0.5397  0.8269 -0.9891
 5867SOL    HW229061   1.066   1.472   7.796  1.0058  0.7906 -2.4549
 5868SOL     OW29062   1.335   3.066   6.561  0.0958  0.4956  0.2236
 5868SOL    HW129063   1.332   3.144   6.617  1.8214 -0.9672  2.3507
 5868SOL    HW229064   1.255   3.027   6.596 -0.1395  0.0902 -0.7533
 5869SOL     OW29065   0.977   3.104  16.969 -0.1963  0.1426 -0.5952
 5869SOL    HW129066   1.059   3.064  16.939  1.2346  0.8269  2.4775
 5869SOL    HW229067   1.006   3.165  17.036  0.6433  0.0554 -0.8844
 5870SOL     OW29068   1.831   0.411  14.013 -0.1782 -0.7384  0.0193
 5870SOL    HW129069   1.791   0.335  13.971  3.6199 -1.8335 -1.6988
 5870SOL    HW229070   1.901   0.418  13.947  0.8437 -1.8222  1.0004
 5871SOL     OW29071   4.143   3.453   2.274  0.6992 -0.3606  0.6495
 5871SOL    HW129072   4.167   3.396   2.202  0.0966  1.2644 -0.8409
 5871SOL    HW229073   4.048   3.449   2.284  0.7830  1.8248  2.4423
 5872SOL     OW29074   4.368   0.175   1.868 -0.4035  0.0639 -0.7132
 5872SOL    HW129075   4.433   0.243   1.886 -2.4122  1.7081  0.4821
 5872SOL    HW229076   4.283   0.215   1.888  0.9513  1.6907  1.8593
 5873SOL     OW29077   2.835   2.748   8.491  0.0645 -0.1462 -0.1551
 5873SOL    HW129078   2.872   2.796   8.565  2.1019 -1.5923 -0.2299
 5873SOL    HW229079   2.852   2.816   8.425 -1.2817 -0.1377 -0.4903
 5874SOL     OW29080   1.498   2.823  12.418  0.1625 -0.2301  0.2770
 5874SOL    HW129081   1.448   2.742  12.418 -1.4018  0.7392  1.8783
 5874SOL    HW229082   1.533   2.816  12.507 -1.1241 -0.0836  0.7922
 5875SOL     OW29083   3.486   2.446   2.868 -0.5046  0.4963 -0.4815
 5875SOL    HW129084   3.534   2.443   2.951  0.3105  1.2683 -0.9262
 5875SOL    HW229085   3.407   2.407   2.906 -0.7396  0.4988 -0.9654
 5876SOL     OW29086   2.010   4.136   9.141 -0.1854  0.3157  0.3830
 5876SOL    HW129087   2.041   4.222   9.167  1.3758  0.1415 -0.8695
 5876SOL    HW229088   1.918   4.151   9.162 -0.4911  1.8389 -2.0787
 5877SOL     OW29089   1.631   3.227   8.031 -0.4185  0.2386 -0.3492
 5877SOL    HW129090   1.659   3.198   8.118  0.0494  1.5435 -0.0669
 5877SOL    HW229091   1.553   3.174   8.016 -0.3935  0.7258 -2.2258
 5878SOL     OW29092   3.546   0.280  13.239 -0.3832 -0.0161 -0.5625
 5878SOL    HW129093   3.628   0.236  13.215  0.8484  1.8459  0.1855
 5878SOL    HW229094   3.572   0.363  13.280 -0.3138  0.6660 -1.9910
 5879SOL     OW29095   0.951   3.183   4.866 -0.0023 -0.2203 -0.2604
 5879SOL    HW129096   1.034   3.136   4.871  0.7281  1.1517  0.5535
 5879SOL    HW229097   0.886   3.130   4.913  2.3683 -0.3671  2.8005
 5880SOL     OW29098   0.755   0.381   4.580 -0.4200 -0.4853  0.3449
 5880SOL    HW129099   0.815   0.347   4.646 -2.0357 -1.8002  1.1636
 5880SOL    HW229100   0.760   0.311   4.515 -2.3535 -0.1409 -0.1809
 5881SOL     OW29101   3.808   1.615   5.374  0.5633 -0.1453  0.3514
 5881SOL    HW129102   3.808   1.703   5.336  2.6566  0.1224  0.9576
 5881SOL    HW229103   3.895   1.586   5.347  1.0794  0.9623  0.8208
 5882SOL     OW29104   1.962   2.903   7.246  0.0620 -0.2297 -0.5023
 5882SOL    HW129105   2.025   2.975   7.240  1.2138 -1.3286 -1.5029
 5882SOL    HW229106   1.961   2.882   7.153  1.7255  0.5483 -0.6966
 5883SOL     OW29107   3.894   3.027   8.577  0.2335  1.0577 -0.5185
 5883SOL    HW129108   3.929   3.115   8.569 -0.5578  1.4770  0.5375
 5883SOL    HW229109   3.955   2.986   8.516 -1.5885 -1.3643 -0.7172
 5884SOL     OW29110   0.110   0.879   0.319  0.0239  0.0190 -0.1895
 5884SOL    HW129111   0.129   0.819   0.247 -0.5780  0.7731 -0.9831
 5884SOL    HW229112   0.028   0.836   0.344 -0.3709  0.1358 -1.2348
 5885SOL     OW29113   1.670   1.927   2.485 -0.0170 -0.1375 -0.6241
 5885SOL    HW129114   1.699   1.995   2.425  0.3333  0.4013  0.1550
 5885SOL    HW229115   1.604   1.888   2.427  0.2884 -0.6799 -0.6159
 5886SOL     OW29116   1.569   3.479  16.181  0.0283  0.2328 -0.1151
 5886SOL    HW129117   1.553   3.501  16.089 -4.5958 -0.7601  0.4363
 5886SOL    HW229118   1.626   3.553  16.204 -3.3423  2.9529 -0.3494
 5887SOL     OW29119   3.532   3.964   0.657  0.1366 -0.0679  0.1458
 5887SOL    HW129120   3.584   3.930   0.584 -1.0807 -0.1967 -0.6542
 5887SOL    HW229121   3.589   4.033   0.692 -0.0070 -0.3295  0.8890
 5888SOL     OW29122   1.494   1.784  12.597  0.2607 -0.2367  0.0627
 5888SOL    HW129123   1.527   1.695  12.584  0.9670 -0.2110  1.6431
 5888SOL    HW229124   1.450   1.761  12.679 -0.1596  0.7975  0.1221
 5889SOL     OW29125   1.757   1.707   4.388  0.5931 -0.3053  0.1294
 5889SOL    HW129126   1.772   1.632   4.446 -0.7656  1.0920  2.2700
 5889SOL    HW229127   1.664   1.725   4.402  0.7327 -1.8863  2.9816
 5890SOL     OW29128   3.401   1.342   7.776 -0.0565 -0.8369 -0.0936
 5890SOL    HW129129   3.338   1.278   7.744 -0.3091  0.0096 -1.3015
 5890SOL    HW229130   3.383   1.325   7.868 -0.2704  1.4882  0.2959
 5891SOL     OW29131   3.402   3.796   0.834 -0.2118 -0.2768  0.7981
 5891SOL    HW129132   3.441   3.843   0.760 -0.1578 -0.5990  0.6206
 5891SOL    HW229133   3.479   3.795   0.891  0.8038  0.0080 -0.5777
 5892SOL     OW29134   3.699   2.374   4.855  0.5121  0.5518 -0.2758
 5892SOL    HW129135   3.637   2.302   4.844 -0.6535  1.3789  0.7959
 5892SOL    HW229136   3.784   2.340   4.828  0.2829  1.1799 -1.7737
 5893SOL     OW29137   3.978   1.096   0.736  0.2723  0.5692  0.0769
 5893SOL    HW129138   3.965   1.043   0.815  0.9855 -2.2215 -1.6581
 5893SOL    HW229139   3.948   1.036   0.668 -1.7002  1.7698 -0.1062
 5894SOL     OW29140   1.028   4.379   3.994  0.2476  0.1998  0.0389
 5894SOL    HW129141   1.066   4.333   4.069  1.7262  2.6061  0.7649
 5894SOL    HW229142   0.933   4.389   4.007  0.4162  0.6453  0.9742
 5895SOL     OW29143   1.337   3.787   3.266 -0.2490  0.0364  0.3790
 5895SOL    HW129144   1.321   3.869   3.219  1.6980  0.7663  1.0046
 5895SOL    HW229145   1.308   3.803   3.355 -0.2870 -0.1216  0.3955
 5896SOL     OW29146   2.188   3.456   4.203  0.2548  0.1140  0.3048
 5896SOL    HW129147   2.103   3.412   4.204 -0.6043  1.7608 -1.1276
 5896SOL    HW229148   2.179   3.500   4.119 -1.7496 -0.5161  0.1878
 5897SOL     OW29149   3.965   4.221   5.402 -0.1124  0.3772 -0.0363
 5897SOL    HW129150   3.895   4.211   5.337  0.9041  3.1269 -1.5389
 5897SOL    HW229151   3.912   4.248   5.477  0.9409 -1.1433  1.2418
 5898SOL     OW29152   3.041   4.059   0.085  0.3351 -0.0816 -0.6358
 5898SOL    HW129153   3.099   4.069   0.160  0.5301  0.4625 -0.8604
 5898SOL    HW229154   2.957   4.060   0.131  0.7569 -0.2834  0.1245
 5899SOL     OW29155   4.572   1.258  12.785  0.0489 -0.0027  0.1709
 5899SOL    HW129156   4.579   1.183  12.726  0.4920  0.9032 -0.9430
 5899SOL    HW229157   4.496   1.229  12.835 -0.3442 -2.4004 -1.8121
 5900SOL     OW29158   0.608   0.292   7.922  0.0063  0.1588 -0.0937
 5900SOL    HW129159   0.624   0.198   7.913 -2.9082 -0.5347  1.7252
 5900SOL    HW229160   0.608   0.313   7.829  1.3714  1.4458  0.2162
 5901SOL     OW29161   2.097   4.459   6.080  0.2556 -0.2272 -0.8878
 5901SOL    HW129162   2.047   4.500   6.151  0.4040  2.6280 -2.4168
 5901SOL    HW229163   2.099   4.532   6.017  0.1496 -2.0463 -3.0113
 5902SOL     OW29164   0.573   3.110   6.952  0.0316  0.2230  0.0256
 5902SOL    HW129165   0.621   3.131   6.872  0.7224 -0.6577  0.1976
 5902SOL    HW229166   0.483   3.115   6.920  0.0614 -1.1701 -0.2636
 5903SOL     OW29167   1.391   4.695  15.237 -0.3519 -0.8933  0.1499
 5903SOL    HW129168   1.306   4.670  15.201 -0.7024  1.8139 -0.8530
 5903SOL    HW229169   1.450   4.653  15.175  1.1053 -2.3879  2.5261
 5904SOL     OW29170   0.870   1.984  12.335 -0.3233 -0.0242 -0.9378
 5904SOL    HW129171   0.909   1.944  12.257 -0.3836 -1.1701 -0.3726
 5904SOL    HW229172   0.944   1.969  12.394 -0.6758 -1.3862 -0.8563
 5905SOL     OW29173   3.736   0.741   9.622  0.6810 -0.0288 -0.1312
 5905SOL    HW129174   3.720   0.650   9.647  2.3641 -0.8531 -2.1062
 5905SOL    HW229175   3.787   0.776   9.695  0.1082  1.8376 -0.6076
 5906SOL     OW29176   1.403   2.035  10.555 -0.2911  0.1216 -1.0605
 5906SOL    HW129177   1.452   2.113  10.583 -2.2576  0.9429  0.1187
 5906SOL    HW229178   1.473   1.994  10.505  0.9302 -0.4656  1.1522
 5907SOL     OW29179   4.025   0.100   6.988  0.0941 -0.7211 -0.3369
 5907SOL    HW129180   3.983   0.178   6.952 -1.6549 -0.6850  1.7943
 5907SOL    HW229181   4.033   0.051   6.907  0.2463 -1.8408  0.3534
 5908SOL     OW29182   3.551   3.911   5.062 -0.0527  0.3181  0.3411
 5908SOL    HW129183   3.460   3.882   5.060  0.1355 -0.1979 -1.2881
 5908SOL    HW229184   3.544   3.990   5.008 -0.4218  0.1801  0.1908
 5909SOL     OW29185   2.432   3.434   4.995 -0.0298 -0.2202 -0.3751
 5909SOL    HW129186   2.375   3.370   4.954  0.3969 -0.0580 -1.2236
 5909SOL    HW229187   2.422   3.408   5.086 -1.1824  2.6334  0.3373
 5910SOL     OW29188   2.254   3.162   2.279 -0.0518  0.1549  0.0771
 5910SOL    HW129189   2.194   3.100   2.318  0.0074  0.1715  0.1939
 5910SOL    HW229190   2.289   3.203   2.358  1.4962 -1.7883  0.4200
 5911SOL     OW29191   3.013   2.719   9.158  0.4861 -0.1184 -0.5369
 5911SOL    HW129192   3.027   2.625   9.146  1.6870 -0.0764  0.5302
 5911SOL    HW229193   2.918   2.718   9.149  0.2654  0.3796  1.7211
 5912SOL     OW29194   0.502   2.266   2.310  0.0288 -0.1738  0.1065
 5912SOL    HW129195   0.506   2.334   2.243 -1.2232 -1.0440 -0.8495
 5912SOL    HW229196   0.591   2.231   2.302  0.1923 -0.2434  2.2591
 5913SOL     OW29197   2.926   1.506   8.761  0.0673 -0.7392  0.3445
 5913SOL    HW129198   2.862   1.435   8.752 -1.5378  0.7340  0.0593
 5913SOL    HW229199   3.006   1.454   8.757  0.4648 -0.0262 -0.9494
 5914SOL     OW29200   0.838   1.185   3.863 -0.4723  0.1348 -0.0248
 5914SOL    HW129201   0.885   1.130   3.926  1.4392  1.9117  0.0838
 5914SOL    HW229202   0.899   1.259   3.857 -0.4275  0.0278 -0.9225
 5915SOL     OW29203   3.811   4.346   8.554 -0.2573 -0.4294  0.3434
 5915SOL    HW129204   3.779   4.336   8.644 -0.2193  0.8004  0.4999
 5915SOL    HW229205   3.854   4.432   8.557 -1.2031  0.1242 -2.5701
 5916SOL     OW29206   2.408   3.168   7.051  0.0995 -0.6033 -0.1421
 5916SOL    HW129207   2.333   3.165   7.111  0.7387 -3.3904  0.5128
 5916SOL    HW229208   2.423   3.078   7.022 -0.1717 -0.6503 -0.1361
 5917SOL     OW29209   4.167   3.320  17.030  0.2221 -0.2571 -0.4080
 5917SOL    HW129210   4.223   3.247  17.058 -0.8426 -0.4478  1.1894
 5917SOL    HW229211   4.120   3.265  16.968  1.1228  1.4341 -2.5739
 5918SOL     OW29212   1.077   4.489   3.585 -0.6782  0.3828  0.0126
 5918SOL    HW129213   1.054   4.520   3.497  1.2880  2.3867  0.1827
 5918SOL    HW229214   0.995   4.511   3.628 -2.6566 -2.6939 -2.2364
 5919SOL     OW29215   2.553   4.189   3.184 -1.0284  0.5085 -0.4718
 5919SOL    HW129216   2.511   4.190   3.270 -0.4182 -1.3768 -0.1488
 5919SOL    HW229217   2.623   4.125   3.200  0.5133  1.5237 -3.1769
 5920SOL     OW29218   2.743   4.226  11.643  0.5244 -0.4118 -0.2353
 5920SOL    HW129219   2.748   4.321  11.652 -0.4383 -0.2233 -1.6698
 5920SOL    HW229220   2.745   4.209  11.737 -0.7677  0.4431 -0.0531
 5921SOL     OW29221   1.511   2.784   9.483 -0.1552  0.0773  0.3793
 5921SOL    HW129222   1.445   2.845   9.516  0.0401 -0.0464  0.9951
 5921SOL    HW229223   1.455   2.710   9.457 -1.2529  0.5073  1.5052
 5922SOL     OW29224   0.955   0.146   7.887 -0.7030  0.0647  0.4217
 5922SOL    HW129225   0.989   0.235   7.897  0.7849 -0.3915 -0.4871
 5922SOL    HW229226   0.937   0.122   7.978 -0.3391  1.3031  0.8135
 5923SOL     OW29227   1.500   0.311   7.144  0.2559 -0.5220 -0.2892
 5923SOL    HW129228   1.484   0.380   7.079 -3.4801 -0.1400  1.0517
 5923SOL    HW229229   1.557   0.361   7.203 -1.6326  1.7758 -0.4209
 5924SOL     OW29230   2.682   3.584   3.472  0.6109  0.3293  0.1118
 5924SOL    HW129231   2.641   3.571   3.386  0.1979  2.6305 -0.0363
 5924SOL    HW229232   2.614   3.631   3.520  0.0444 -1.6578  1.2568
 5925SOL     OW29233   3.035   2.745  14.123  0.2929  0.2669  0.0041
 5925SOL    HW129234   3.126   2.772  14.139 -0.7155  2.3598  2.0989
 5925SOL    HW229235   3.051   2.681  14.052  0.3931 -1.4085  1.5312
 5926SOL     OW29236   0.769   1.496   8.094 -0.2572 -0.0558  0.0221
 5926SOL    HW129237   0.689   1.508   8.043 -0.5636  1.7687  0.9021
 5926SOL    HW229238   0.725   1.499   8.179  1.4973  1.5951  0.8657
 5927SOL     OW29239   1.315   3.122   4.481  0.5063  0.5080 -0.3237
 5927SOL    HW129240   1.308   3.197   4.423  0.1737  1.6048  1.1478
 5927SOL    HW229241   1.226   3.091   4.494 -0.3206  1.7575 -3.1160
 5928SOL     OW29242   3.166   0.709   8.565  0.2052 -0.3104 -0.0911
 5928SOL    HW129243   3.215   0.629   8.584 -1.3472 -1.4225 -0.7288
 5928SOL    HW229244   3.089   0.684   8.514 -1.2359 -0.5793  2.2079
 5929SOL     OW29245   0.994   2.912  11.829 -0.4779 -0.3040 -0.3695
 5929SOL    HW129246   0.955   2.883  11.911  0.4879  2.0778  0.9238
 5929SOL    HW229247   1.070   2.854  11.825 -0.1588 -0.0364  2.2497
 5930SOL     OW29248   2.842   4.344   7.135 -0.7750 -0.0342  0.5295
 5930SOL    HW129249   2.832   4.435   7.109 -0.4039 -0.1573 -0.0371
 5930SOL    HW229250   2.854   4.354   7.230  0.9352 -2.4466  0.5649
 5931SOL     OW29251   4.223   1.693   6.638 -0.7028  0.1947  0.3932
 5931SOL    HW129252   4.270   1.626   6.590  2.5585  1.6659  1.5248
 5931SOL    HW229253   4.234   1.768   6.580 -1.2968 -0.6805 -0.8450
 5932SOL     OW29254   0.241   1.729  16.490 -0.2714  0.2046  0.1817
 5932SOL    HW129255   0.242   1.812  16.537  0.5303  1.1532 -1.4846
 5932SOL    HW229256   0.320   1.691  16.527  0.8736  0.8577 -1.5525
 5933SOL     OW29257   2.661   1.090  13.218  0.3164 -0.2058 -0.2964
 5933SOL    HW129258   2.652   1.179  13.184  0.8845 -0.2000 -0.4251
 5933SOL    HW229259   2.639   1.103  13.311 -1.5129  0.3608 -0.8089
 5934SOL     OW29260   4.649   2.154  14.313 -0.4766  0.2197 -0.1992
 5934SOL    HW129261   0.017   2.173  14.334 -0.0741 -1.3698 -0.5050
 5934SOL    HW229262   4.653   2.105  14.232 -1.1290 -2.8625  1.6286
 5935SOL     OW29263   3.003   2.381   0.927  0.1895 -0.2815 -0.4568
 5935SOL    HW129264   3.009   2.450   0.993 -2.3193  2.2799 -2.8983
 5935SOL    HW229265   3.021   2.309   0.987 -1.8015 -1.4106 -1.2275
 5936SOL     OW29266   4.234   4.013   7.831 -0.4044 -0.3110  0.5190
 5936SOL    HW129267   4.152   4.017   7.880  0.1561  0.4241  1.4080
 5936SOL    HW229268   4.202   3.970   7.752 -2.7615 -0.5567  1.6065
 5937SOL     OW29269   0.806   3.246   8.230 -0.6711  0.3718  0.3035
 5937SOL    HW129270   0.789   3.230   8.322  2.1635  0.2685  0.8177
 5937SOL    HW229271   0.823   3.341   8.228  0.3903  0.1748 -0.0591
 5938SOL     OW29272   1.756   0.963   3.888  0.6795 -0.8278  0.0137
 5938SOL    HW129273   1.719   1.034   3.835 -0.1783 -0.6228  0.8790
 5938SOL    HW229274   1.845   0.993   3.908  0.4973 -0.2282 -0.0706
 5939SOL     OW29275   2.920   4.348  10.492  0.1345 -0.3059 -0.1919
 5939SOL    HW129276   2.967   4.352  10.576  1.2139 -2.1735 -0.6979
 5939SOL    HW229277   2.885   4.435  10.477 -1.1948 -0.7651  0.2758
 5940SOL     OW29278   1.732   1.254   1.238 -0.2035 -0.5501 -0.0467
 5940SOL    HW129279   1.702   1.191   1.173  0.0779 -2.0788  1.2979
 5940SOL    HW229280   1.809   1.291   1.195 -0.2593 -1.4439 -0.9290
 5941SOL     OW29281   1.946   0.403   8.379 -0.0809 -0.1822 -0.1435
 5941SOL    HW129282   1.951   0.314   8.344 -1.7475  1.0133 -3.4585
 5941SOL    HW229283   1.859   0.411   8.419 -0.6051 -1.2094 -1.0845
 5942SOL     OW29284   4.039   2.061   5.628 -0.5453 -0.0579 -0.0204
 5942SOL    HW129285   4.131   2.087   5.625 -0.8369  0.8094 -1.2394
 5942SOL    HW229286   4.010   2.143   5.589  3.0228  2.7091  3.0571
 5943SOL     OW29287   3.781   4.061   4.160 -0.5147 -0.5285  0.1000
 5943SOL    HW129288   3.799   4.134   4.101  0.7511 -1.0580 -0.1737
 5943SOL    HW229289   3.798   4.107   4.242 -0.2613  0.3990 -0.4697
 5944SOL     OW29290   2.849   0.069   2.543  0.2609  0.5521 -0.1482
 5944SOL    HW129291   2.907   0.131   2.501 -0.3823  0.7776 -0.7070
 5944SOL    HW229292   2.776   0.045   2.485 -0.2736  3.3192 -0.5876
 5945SOL     OW29293   4.183   2.228  16.759 -0.2748  0.5607  0.2752
 5945SOL    HW129294   4.137   2.227  16.675  2.1982 -0.6175 -1.0766
 5945SOL    HW229295   4.255   2.171  16.730 -0.7840 -0.4729  1.0219
 5946SOL     OW29296   0.285   2.491   5.659  0.3251  0.4773 -0.2458
 5946SOL    HW129297   0.278   2.403   5.698 -3.9215  1.7432  1.8881
 5946SOL    HW229298   0.344   2.534   5.720  0.9665 -2.6101  1.3450
 5947SOL     OW29299   3.057   0.295   3.406 -0.4218  0.2825 -0.2434
 5947SOL    HW129300   3.023   0.365   3.462 -0.0480  1.1343 -1.0687
 5947SOL    HW229301   2.979   0.240   3.397  1.3531 -1.9777 -2.0348
 5948SOL     OW29302   0.823   0.876   1.609  0.2932  0.3897  0.2728
 5948SOL    HW129303   0.902   0.849   1.563 -2.1468 -1.8284 -2.6012
 5948SOL    HW229304   0.845   0.869   1.702  0.3668  1.4525  0.3395
 5949SOL     OW29305   2.124   3.686   0.158 -0.4283  0.0711  0.7377
 5949SOL    HW129306   2.089   3.639   0.234 -0.2118 -2.7814 -0.9028
 5949SOL    HW229307   2.208   3.723   0.187  1.4042 -1.9905 -1.8349
 5950SOL     OW29308   0.163   1.736   7.419  0.0661  0.0551 -0.5438
 5950SOL    HW129309   0.072   1.759   7.431 -0.6929 -1.6499 -2.8569
 5950SOL    HW229310   0.171   1.738   7.323 -1.6083 -1.3200 -0.7158
 5951SOL     OW29311   3.873   2.191  15.228 -0.1392 -0.6005 -0.2399
 5951SOL    HW129312   3.950   2.136  15.242  0.3705  0.2143  0.1584
 5951SOL    HW229313   3.908   2.238  15.153 -2.3626 -2.1937 -2.2689
 5952SOL     OW29314   2.223   3.006   9.656  0.1179 -0.0863  0.5009
 5952SOL    HW129315   2.162   3.075   9.683 -1.2220 -0.8840 -0.4854
 5952SOL    HW229316   2.230   2.965   9.742 -0.6739 -0.5647  0.3297
 5953SOL     OW29317   2.151   3.957  16.124 -0.1199  0.2863  0.1242
 5953SOL    HW129318   2.106   3.872  16.116  0.1200 -0.0189  2.0638
 5953SOL    HW229319   2.216   3.935  16.191  0.6342  0.4348 -0.5668
 5954SOL     OW29320   2.408   0.611   3.576 -0.0722  0.1746 -0.2931
 5954SOL    HW129321   2.379   0.668   3.506  1.0331  0.7180 -0.3090
 5954SOL    HW229322   2.350   0.535   3.572 -0.6455  0.7037 -1.8439
 5955SOL     OW29323   4.630   2.370   4.339  0.4897  0.0567  0.3852
 5955SOL    HW129324   4.667   2.283   4.352 -0.0486 -0.4527 -1.4755
 5955SOL    HW229325   4.592   2.395   4.423  4.0349  1.3179  1.6022
 5956SOL     OW29326   2.179   1.700   4.830 -0.5523  0.6684 -0.2254
 5956SOL    HW129327   2.261   1.652   4.842 -1.3144 -0.6911 -0.4174
 5956SOL    HW229328   2.208   1.736   4.746  0.2040 -1.4857 -0.8794
 5957SOL     OW29329   0.758   3.325  15.051 -0.0993 -0.0679  0.2547
 5957SOL    HW129330   0.698   3.255  15.024  1.1479 -0.6431 -1.0195
 5957SOL    HW229331   0.766   3.374  14.969 -0.5930  1.6795  1.2589
 5958SOL     OW29332   3.088   1.142   9.244  0.1936  0.0471 -0.0450
 5958SOL    HW129333   3.012   1.084   9.242 -0.3925  0.8350 -0.5055
 5958SOL    HW229334   3.120   1.119   9.331  0.1874 -0.6813 -0.2307
 5959SOL     OW29335   4.632   3.179   8.661 -0.0582 -0.1375 -0.6239
 5959SOL    HW129336   4.571   3.191   8.735 -0.3191 -2.8711 -0.3761
 5959SOL    HW229337   4.611   3.244   8.594  0.5205 -0.4658 -1.1204
 5960SOL     OW29338   3.277   4.695   6.227 -0.2553  0.3040 -0.3110
 5960SOL    HW129339   3.187   4.668   6.209 -0.1316  1.2215 -2.3024
 5960SOL    HW229340   3.270   0.046   6.287 -0.2928 -1.0163  1.3199
 5961SOL     OW29341   4.269   2.755   3.198 -0.2842  0.1652  0.0099
 5961SOL    HW129342   4.280   2.664   3.226 -1.0228 -0.9317 -3.2290
 5961SOL    HW229343   4.252   2.745   3.104  3.3663  0.4066 -0.7088
 5962SOL     OW29344   2.909   0.255  10.140 -0.9461 -0.0326  0.2647
 5962SOL    HW129345   2.820   0.281  10.115 -0.1457 -1.0464 -3.6231
 5962SOL    HW229346   2.901   0.266  10.234 -1.5257  1.3729  0.0609
 5963SOL     OW29347   4.398   2.587   8.498 -0.2513  0.2047 -0.0148
 5963SOL    HW129348   4.479   2.603   8.545  1.1595 -2.8649 -1.4116
 5963SOL    HW229349   4.408   2.495   8.476 -0.2091  0.4412 -0.9916
 5964SOL     OW29350   2.060   2.389   6.587  0.3980 -0.1919  0.2786
 5964SOL    HW129351   2.034   2.463   6.532 -1.2973  0.4890  1.9665
 5964SOL    HW229352   2.024   2.422   6.670 -3.0069  0.0474 -1.2881
 5965SOL     OW29353   2.827   3.655   1.317 -0.8525 -0.1631 -0.1156
 5965SOL    HW129354   2.749   3.635   1.266 -1.3798 -0.5088  0.8136
 5965SOL    HW229355   2.870   3.570   1.314 -1.8567 -0.6778  0.3336
 5966SOL     OW29356   3.564   4.520   7.520  0.0875  0.2156  0.2020
 5966SOL    HW129357   3.573   4.456   7.450 -0.3773 -0.0071  0.3434
 5966SOL    HW229358   3.490   4.482   7.568 -1.0727  0.2287 -1.5932
 5967SOL     OW29359   3.823   3.037  13.234 -0.5905  0.0859  0.1346
 5967SOL    HW129360   3.749   3.084  13.272 -0.4652  0.8817 -0.5962
 5967SOL    HW229361   3.847   2.978  13.305  0.5246  0.5427  0.1350
 5968SOL     OW29362   2.041   4.418   6.711  0.2020 -0.0093 -0.0405
 5968SOL    HW129363   2.050   4.328   6.743 -1.3437 -0.0029  0.3858
 5968SOL    HW229364   2.087   4.465   6.780 -2.2936  0.8795  1.0227
 5969SOL     OW29365   4.163   3.356   4.293  0.5069 -0.2586  0.6433
 5969SOL    HW129366   4.221   3.376   4.366  1.0348 -1.8373  0.6555
 5969SOL    HW229367   4.221   3.302   4.240  0.6691  1.2504 -0.7485
 5970SOL     OW29368   3.351   3.571   7.843  0.1766  0.4327 -0.5739
 5970SOL    HW129369   3.378   3.655   7.880 -2.8654  1.5337 -0.8216
 5970SOL    HW229370   3.432   3.538   7.804 -0.5573  0.3663 -2.0188
 5971SOL     OW29371   0.599   3.068   4.081  0.1851 -0.0456  0.2339
 5971SOL    HW129372   0.608   3.162   4.069  0.4804 -0.2873 -1.4542
 5971SOL    HW229373   0.508   3.052   4.054  0.0960 -0.5270  0.8205
 5972SOL     OW29374   3.012   2.926   7.912 -0.9350 -0.0390 -0.0087
 5972SOL    HW129375   2.969   3.006   7.883 -1.5773  0.7651  3.2087
 5972SOL    HW229376   2.978   2.853   7.860 -0.6780  0.1485 -0.4406
 5973SOL     OW29377   0.991   3.391   5.060 -0.1571 -0.0512  0.0439
 5973SOL    HW129378   0.933   3.361   4.990 -2.1954  5.2396 -0.5408
 5973SOL    HW229379   1.019   3.474   5.023 -2.4870  0.4979 -0.5173
 5974SOL     OW29380   0.093   1.085   7.743 -0.8080  0.6799 -0.2101
 5974SOL    HW129381   0.087   0.992   7.765  2.3930  0.1730 -1.4176
 5974SOL    HW229382   0.186   1.101   7.759 -0.8258  0.2725  0.3003
 5975SOL     OW29383   2.648   1.520  11.767 -0.1152 -0.2221 -0.3497
 5975SOL    HW129384   2.691   1.531  11.852 -0.7066  0.6636 -0.1612
 5975SOL    HW229385   2.636   1.610  11.735  2.7353 -0.0926 -1.1015
 5976SOL     OW29386   1.680   0.274  10.949  0.3486  0.0843  0.5254
 5976SOL    HW129387   1.757   0.329  10.963  0.1516  0.4723  0.0771
 5976SOL    HW229388   1.603   0.320  10.917  2.1322  0.6609 -2.9370
 5977SOL     OW29389   3.351   3.933   0.446  0.1483 -0.7110  0.0485
 5977SOL    HW129390   3.306   3.870   0.502  0.8225  1.1234  2.6108
 5977SOL    HW229391   3.421   3.964   0.503 -1.1150 -3.2576  2.9862
 5978SOL     OW29392   4.694   3.094  16.980  0.4896  0.0342 -0.3080
 5978SOL    HW129393   4.690   2.999  16.971  2.1985 -0.1388  0.9650
 5978SOL    HW229394   4.662   3.109  17.068  0.3438  0.6532 -0.4635
 5979SOL     OW29395   0.077   2.065   6.024 -0.1147  0.2545  0.1328
 5979SOL    HW129396   0.171   2.045   6.025 -0.0871  0.4837  2.3460
 5979SOL    HW229397   0.064   2.083   6.117  1.3729  1.1186  0.1727
 5980SOL     OW29398   1.541   1.698   2.922 -0.7872  0.1166 -0.0729
 5980SOL    HW129399   1.528   1.786   2.887  0.6635  0.5897  0.5690
 5980SOL    HW229400   1.597   1.649   2.861  2.6628  2.7890  0.9985
 5981SOL     OW29401   3.318   4.541  13.265 -0.5838 -0.5211  0.3723
 5981SOL    HW129402   3.288   4.548  13.175 -0.4238  0.9572  0.4266
 5981SOL    HW229403   3.332   4.631  13.296 -0.7012 -1.3179  2.7192
 5982SOL     OW29404   2.706   1.918   1.108  0.1457  0.1381 -0.1158
 5982SOL    HW129405   2.656   1.851   1.063 -0.0691 -0.0546  0.4158
 5982SOL    HW229406   2.736   1.863   1.180 -0.6785  0.3484  0.3883
 5983SOL     OW29407   1.584   1.721  14.981 -0.3278 -0.1839  0.1426
 5983SOL    HW129408   1.635   1.662  15.036 -2.5471 -1.3988  0.8840
 5983SOL    HW229409   1.650   1.790  14.978 -0.2203 -0.2316  1.6649
 5984SOL     OW29410   0.530   0.560   2.042  0.3399  0.0933  0.1961
 5984SOL    HW129411   0.505   0.629   2.103  0.7702  0.2720  0.1756
 5984SOL    HW229412   0.450   0.534   1.996  0.6531 -0.5358  0.0197
 5985SOL     OW29413   1.299   1.335   4.932 -0.4305  0.3602 -0.3215
 5985SOL    HW129414   1.308   1.255   4.984  0.4848  1.0962  0.6706
 5985SOL    HW229415   1.263   1.301   4.851  0.9884 -1.4292 -0.2000
 5986SOL     OW29416   1.004   3.943   0.155  0.1295  0.5215 -0.3410
 5986SOL    HW129417   0.920   3.963   0.195 -1.5549 -0.9024 -3.1620
 5986SOL    HW229418   1.053   4.009   0.204  0.7207 -0.0325 -0.1861
 5987SOL     OW29419   4.281   4.317   1.062 -0.7003  0.3914 -0.5795
 5987SOL    HW129420   4.253   4.302   1.152  1.4614  2.3752  0.4245
 5987SOL    HW229421   4.278   4.413   1.058 -1.6478  0.4432  1.3906
 5988SOL     OW29422   1.813   0.197   6.714  0.4229 -0.1480  0.0785
 5988SOL    HW129423   1.794   0.216   6.622 -0.4506 -0.3187  0.2156
 5988SOL    HW229424   1.841   0.281   6.749 -0.5048  0.3600 -0.3972
 5989SOL     OW29425   4.044   0.899   8.331 -0.2111 -0.0807  0.1590
 5989SOL    HW129426   4.075   0.989   8.342 -2.7652  0.9851 -1.6488
 5989SOL    HW229427   4.054   0.891   8.236  1.1414  1.5581  0.1761
 5990SOL     OW29428   0.075   3.201   3.445  0.3655 -0.2871  0.0663
 5990SOL    HW129429   4.723   3.192   3.502 -0.9979  1.6405 -1.4563
 5990SOL    HW229430   0.038   3.226   3.361 -0.6937 -0.7956  0.3841
 5991SOL     OW29431   4.716   3.235   3.826  0.6092 -0.2961  0.1912
 5991SOL    HW129432   4.689   3.289   3.900  1.2611 -0.3829  0.4922
 5991SOL    HW229433   4.650   3.166   3.827  0.3690 -0.0603  0.5360
 5992SOL     OW29434   3.540   0.054   3.355 -0.1764 -0.1831  0.0366
 5992SOL    HW129435   3.617   0.111   3.350 -0.2842 -0.0075  0.3703
 5992SOL    HW229436   3.554   0.014   3.269  1.6747 -0.9023  0.6722
 5993SOL     OW29437   1.971   3.629   7.910  0.2440 -0.4773 -0.3421
 5993SOL    HW129438   1.918   3.683   7.968  0.4356 -0.3052 -0.3293
 5993SOL    HW229439   2.042   3.689   7.885  0.6440 -0.6588  0.3776
 5994SOL     OW29440   4.544   4.636   4.651  0.4526  0.4839  0.2652
 5994SOL    HW129441   4.498   4.643   4.735  0.1952  0.6618  0.1108
 5994SOL    HW229442   4.633   4.644   4.685  0.9431 -1.6199 -0.5036
 5995SOL     OW29443   3.885   3.904   2.614 -0.4725 -0.1668 -0.0439
 5995SOL    HW129444   3.906   3.998   2.612  1.1521 -0.5449 -0.4402
 5995SOL    HW229445   3.910   3.885   2.524 -0.4435  1.0570 -0.3013
 5996SOL     OW29446   2.823   1.668   1.189  0.2735 -0.0498 -0.6343
 5996SOL    HW129447   2.910   1.629   1.183  0.3127 -0.1272  0.3876
 5996SOL    HW229448   2.782   1.627   1.113  1.2714 -0.6188 -0.8681
 5997SOL     OW29449   0.324   4.149   6.179  0.9287  0.0507  0.1399
 5997SOL    HW129450   0.266   4.094   6.231  0.4116  2.9422  2.6270
 5997SOL    HW229451   0.386   4.188   6.242  2.2280  0.0064 -1.1114
 5998SOL     OW29452   1.169   3.171   3.371 -0.1739  0.3752 -0.0904
 5998SOL    HW129453   1.133   3.093   3.412 -0.1268 -0.4163 -1.5643
 5998SOL    HW229454   1.096   3.233   3.368 -1.5587 -1.2401  0.5237
 5999SOL     OW29455   1.851   0.571   4.861 -0.5147 -0.4677  0.3138
 5999SOL    HW129456   1.775   0.558   4.918 -0.8199 -0.1572 -0.0234
 5999SOL    HW229457   1.885   0.482   4.855  1.2838  0.1851  0.9633
 6000SOL     OW29458   4.360   3.035  17.392  0.1681  0.5829 -0.3869
 6000SOL    HW129459   4.266   3.024  17.403  0.3837  0.1048  0.9887
 6000SOL    HW229460   4.381   3.058  17.483  0.9372 -1.1776 -0.1084
 6001SOL     OW29461   4.297   2.135   2.846 -0.1261  0.1504 -0.1048
 6001SOL    HW129462   4.338   2.205   2.796 -1.4134  2.2591  1.7897
 6001SOL    HW229463   4.210   2.124   2.806  0.0779  0.6816 -0.6937
 6002SOL     OW29464   2.275   3.773   5.875  0.3014 -0.2651 -0.1623
 6002SOL    HW129465   2.362   3.768   5.834 -1.2058 -0.9739 -3.3181
 6002SOL    HW229466   2.221   3.777   5.796 -1.2647 -2.3849  0.8318
 6003SOL     OW29467   2.187   2.455   9.317 -0.3319 -0.1772 -0.5148
 6003SOL    HW129468   2.126   2.392   9.356  0.9033  0.2751  2.0916
 6003SOL    HW229469   2.173   2.538   9.362 -1.2720 -0.9164  0.5397
 6004SOL     OW29470   3.864   3.160   1.471  0.3539 -0.3999 -0.4668
 6004SOL    HW129471   3.912   3.113   1.540 -3.2026 -1.8200  1.0553
 6004SOL    HW229472   3.784   3.111   1.452 -0.7957  0.2997  2.6082
 6005SOL     OW29473   0.155   3.884  11.875  0.0859 -0.0639 -0.0638
 6005SOL    HW129474   0.201   3.963  11.904 -0.7474  0.6087 -0.5585
 6005SOL    HW229475   0.218   3.834  11.823  0.4345  0.1246  0.1822
 6006SOL     OW29476   1.657   4.143   7.213  0.0191 -0.0640  0.2911
 6006SOL    HW129477   1.715   4.162   7.140 -0.2737  0.0157  0.0812
 6006SOL    HW229478   1.702   4.068   7.253 -0.8787 -0.0491  1.3546
 6007SOL     OW29479   3.074   2.529   7.092 -0.1898  0.2754  0.5508
 6007SOL    HW129480   3.000   2.472   7.114  0.1978  1.0074  3.7757
 6007SOL    HW229481   3.034   2.610   7.060 -2.3233 -0.6992  0.7425
 6008SOL     OW29482   0.174   2.093   4.671  0.0387  0.1916 -0.1173
 6008SOL    HW129483   0.151   2.182   4.696  0.1714  0.4845 -1.0443
 6008SOL    HW229484   0.245   2.104   4.608  0.0863  0.6297  0.0167
 6009SOL     OW29485   2.348   2.744   5.527 -0.0122  0.2778 -0.1958
 6009SOL    HW129486   2.293   2.755   5.604  0.2870  0.5061 -0.0130
 6009SOL    HW229487   2.370   2.651   5.526 -1.4620 -0.0444 -1.3335
 6010SOL     OW29488   1.422   0.441   4.537  0.3799  0.1592  0.0092
 6010SOL    HW129489   1.368   0.454   4.459  1.7847  2.3253 -0.5973
 6010SOL    HW229490   1.412   0.523   4.585 -1.4525 -0.7995  1.2684
 6011SOL     OW29491   0.582   1.136   5.925  0.3791  0.5120 -0.9758
 6011SOL    HW129492   0.501   1.187   5.933  0.0414 -0.4321  1.8794
 6011SOL    HW229493   0.632   1.184   5.991 -0.1793 -1.9944  1.2698
 6012SOL     OW29494   1.827   1.687   2.667  0.6825 -0.1030 -0.1278
 6012SOL    HW129495   1.774   1.611   2.691  0.8246 -0.4198 -0.7956
 6012SOL    HW229496   1.916   1.655   2.651  0.9790  0.4940  0.3646
 6013SOL     OW29497   2.288   3.574  17.513 -0.5306  0.4356  0.1262
 6013SOL    HW129498   2.372   3.597  17.473 -1.4805  0.1023 -2.0662
 6013SOL    HW229499   2.267   3.514  17.441 -1.0551  0.7429  0.0240
 6014SOL     OW29500   2.443   3.275   3.946  0.2773  0.2174  0.1989
 6014SOL    HW129501   2.501   3.292   3.871  0.4630  1.8926  0.7189
 6014SOL    HW229502   2.365   3.324   3.920  0.2853  0.6211  0.9299
 6015SOL     OW29503   2.126   4.297   3.169  0.0483  0.2888 -0.1215
 6015SOL    HW129504   2.126   4.326   3.077  2.2914 -3.7045 -1.3577
 6015SOL    HW229505   2.061   4.355   3.210  2.2195  1.7654  1.2327
 6016SOL     OW29506   0.358   1.331   6.902  0.1179 -0.1420 -0.3087
 6016SOL    HW129507   0.417   1.265   6.939 -0.7281 -0.4943  0.4179
 6016SOL    HW229508   0.396   1.405   6.948  0.2694 -0.6509  0.3753
 6017SOL     OW29509   1.917   1.679   3.590  0.1536 -0.0844  0.3621
 6017SOL    HW129510   1.862   1.641   3.659  0.6702  0.6308  1.1695
 6017SOL    HW229511   1.911   1.619   3.516  1.7936 -1.2906  1.1992
 6018SOL     OW29512   3.855   3.614   4.291 -0.4484  0.1212 -0.2663
 6018SOL    HW129513   3.760   3.608   4.294 -0.3975 -0.5304 -0.0076
 6018SOL    HW229514   3.871   3.529   4.332 -0.2332  1.5395  2.5889
 6019SOL     OW29515   2.286   0.402   4.594  0.0891  0.6612 -0.4555
 6019SOL    HW129516   2.194   0.379   4.580  0.6719 -1.3299 -0.9251
 6019SOL    HW229517   2.325   0.317   4.615  0.8359  0.5032 -2.4538
 6020SOL     OW29518   4.376   1.406   5.353 -0.3356 -0.0534 -0.2198
 6020SOL    HW129519   4.379   1.341   5.283  0.7501 -0.7163  0.4373
 6020SOL    HW229520   4.444   1.369   5.410 -0.2045  1.8535  0.8605
 6021SOL     OW29521   0.545   1.602   7.408 -0.3813 -0.5159 -0.1292
 6021SOL    HW129522   0.503   1.570   7.488 -0.7052  0.4645  0.0933
 6021SOL    HW229523   0.475   1.583   7.345 -1.9947 -1.0548  1.7903
 6022SOL     OW29524   0.310   2.796   8.202  0.3702 -0.2885 -0.5007
 6022SOL    HW129525   0.341   2.884   8.225  0.4929 -0.5937  0.5092
 6022SOL    HW229526   0.301   2.759   8.290  1.4537  1.5003  0.3581
 6023SOL     OW29527   3.063   0.727   5.297 -0.0955 -0.0444 -0.2716
 6023SOL    HW129528   3.030   0.678   5.222  0.2712 -0.8810  0.1150
 6023SOL    HW229529   3.159   0.717   5.297 -0.0481  0.4042  0.9147
 6024SOL     OW29530   2.194   0.488  17.099 -0.4556 -0.0353 -0.2016
 6024SOL    HW129531   2.190   0.480  17.003  1.7158  0.8834 -0.3891
 6024SOL    HW229532   2.229   0.403  17.125  1.6093  1.0930  0.7705
 6025SOL     OW29533   4.630   2.175   7.026  0.5409 -0.0232  0.5561
 6025SOL    HW129534   4.547   2.221   7.016 -0.2019 -1.0718  1.9222
 6025SOL    HW229535   4.670   2.237   7.087 -2.0871  0.6487  1.6011
 6026SOL     OW29536   0.502   3.461   2.522 -0.3009 -0.4526 -0.2119
 6026SOL    HW129537   0.506   3.499   2.434  2.0688 -2.5397 -1.0012
 6026SOL    HW229538   0.580   3.405   2.516  0.9225  1.1596  0.5784
 6027SOL     OW29539   2.995   1.731   6.179 -0.3263 -0.2237  0.0728
 6027SOL    HW129540   3.076   1.754   6.224 -0.4324 -0.1363  0.2166
 6027SOL    HW229541   3.041   1.702   6.100  1.0163 -3.7292  2.0970
 6028SOL     OW29542   0.167   2.339  16.939  0.8098  0.0403 -0.4698
 6028SOL    HW129543   0.238   2.291  16.897  0.6096 -1.3328  0.8007
 6028SOL    HW229544   0.101   2.272  16.956 -0.0471  0.9229 -0.2855
 6029SOL     OW29545   0.409   3.837  11.731  0.2222  0.1661 -0.3662
 6029SOL    HW129546   0.401   3.750  11.691  0.0911 -0.4237  0.9638
 6029SOL    HW229547   0.483   3.819  11.788  0.3000  0.5148 -0.3545
 6030SOL     OW29548   4.234   2.877   4.621 -0.0115  0.8093  0.3468
 6030SOL    HW129549   4.310   2.930   4.596  0.2781  1.0778  1.7770
 6030SOL    HW229550   4.182   2.941   4.670  0.6291  2.7238 -1.4479
 6031SOL     OW29551   3.254   2.847   6.584 -0.0331 -0.2403 -0.4819
 6031SOL    HW129552   3.195   2.913   6.547 -0.1080  0.1743  0.3875
 6031SOL    HW229553   3.340   2.885   6.565  0.6909 -1.2400  0.8120
 6032SOL     OW29554   1.801   3.393   6.517  0.0957  0.5245  0.9338
 6032SOL    HW129555   1.777   3.455   6.586 -2.5510 -0.1736  0.6178
 6032SOL    HW229556   1.784   3.437   6.434 -0.1081 -0.3536  0.5131
 6033SOL     OW29557   1.353   1.814   5.749  0.1554 -0.0513  0.1132
 6033SOL    HW129558   1.441   1.778   5.735 -0.0898 -0.9853  0.9495
 6033SOL    HW229559   1.386   1.904   5.751 -0.5010  0.2109 -1.0341
 6034SOL     OW29560   2.122   2.176   8.063  0.3490 -0.0444 -0.4742
 6034SOL    HW129561   2.058   2.244   8.044  0.5738  0.5138  0.7473
 6034SOL    HW229562   2.071   2.106   8.104  0.4887  0.3769  0.4155
 6035SOL     OW29563   3.333   1.821   6.512  0.1813 -0.2823  0.2496
 6035SOL    HW129564   3.354   1.739   6.466  0.7591  1.4502 -2.5714
 6035SOL    HW229565   3.298   1.786   6.594 -0.8462 -1.2525 -0.5807
 6036SOL     OW29566   0.552   2.072   1.140  0.1467  0.4089  0.0099
 6036SOL    HW129567   0.635   2.025   1.134  1.3066  2.3422  0.9776
 6036SOL    HW229568   0.544   2.073   1.235  0.8051 -0.1046  0.0770
 6037SOL     OW29569   1.666   1.500   5.447 -0.1595 -0.0200 -0.0824
 6037SOL    HW129570   1.758   1.502   5.474 -0.1621  0.2768 -0.0998
 6037SOL    HW229571   1.620   1.431   5.494  0.0289  0.2237  0.4564
 6038SOL     OW29572   3.062   1.070  11.312  0.8802  0.3724 -0.8401
 6038SOL    HW129573   3.039   1.159  11.338  0.0303  0.3673 -1.5859
 6038SOL    HW229574   3.157   1.085  11.308  0.7153  1.8850  0.8382
 6039SOL     OW29575   1.240   2.562   2.994  0.4037 -0.2967  0.0149
 6039SOL    HW129576   1.318   2.617   3.001  1.0525 -1.5599  2.6511
 6039SOL    HW229577   1.211   2.570   3.085 -1.1518  0.4773 -0.5490
 6040SOL     OW29578   1.964   2.104   3.293  0.6933  0.1864  0.1653
 6040SOL    HW129579   1.957   2.023   3.244 -2.5844 -0.4887  1.7506
 6040SOL    HW229580   1.966   2.080   3.386  2.3919 -0.3643 -0.0065
 6041SOL     OW29581   1.426   0.080  14.219  0.2892 -0.2371  0.3465
 6041SOL    HW129582   1.352   0.132  14.188  1.2398  0.1703 -1.2184
 6041SOL    HW229583   1.471   0.144  14.274  0.4595 -0.8583  0.9352
 6042SOL     OW29584   2.807   1.082   4.900  0.2116  0.5094 -0.2802
 6042SOL    HW129585   2.803   0.999   4.948  1.9342  0.1069 -0.8019
 6042SOL    HW229586   2.844   1.136   4.970 -1.2304  1.6987 -0.4511
 6043SOL     OW29587   0.119   2.501  17.368  0.4646  0.8698 -0.1355
 6043SOL    HW129588   0.168   2.438  17.315 -2.2884 -1.5788  0.2253
 6043SOL    HW229589   0.046   2.521  17.309  1.0376  2.7624 -0.2004
 6044SOL     OW29590   2.577   4.431   5.839  0.1975  0.3579  0.1532
 6044SOL    HW129591   2.540   4.460   5.922  0.5207 -0.1953  0.4888
 6044SOL    HW229592   2.657   4.484   5.836 -1.2290  2.4987 -0.0068
 6045SOL     OW29593   2.160   0.624   5.659  0.0074  0.5312 -0.8707
 6045SOL    HW129594   2.198   0.555   5.715 -0.6833  2.0760  1.4964
 6045SOL    HW229595   2.130   0.566   5.589 -0.0580 -0.7974  0.2475
 6046SOL     OW29596   0.205   1.737   5.904 -0.1566  0.5410  0.5359
 6046SOL    HW129597   0.186   1.643   5.895 -1.4569  0.9083 -0.4911
 6046SOL    HW229598   0.184   1.749   5.997  0.1812  0.9106  0.5617
 6047SOL     OW29599   0.428   3.879   7.572  0.5792 -0.7006 -0.2943
 6047SOL    HW129600   0.510   3.870   7.525 -0.0604  0.4704 -1.6332
 6047SOL    HW229601   0.450   3.888   7.665 -1.2974  1.7668 -0.0843
 6048SOL     OW29602   3.998   4.697  13.680 -0.7284  0.0584  0.4102
 6048SOL    HW129603   3.967   0.018  13.759 -0.7930 -0.7391  0.8362
 6048SOL    HW229604   3.920   4.699  13.624 -0.4018 -0.6047 -0.0786
 6049SOL     OW29605   3.060   4.465  16.858  0.4319  0.2157 -0.0417
 6049SOL    HW129606   3.134   4.505  16.813  0.4971  2.9836  2.5064
 6049SOL    HW229607   3.037   4.529  16.926  1.5887  2.3719 -1.6793
 6050SOL     OW29608   4.471   0.782   2.630 -0.5558  0.0629 -0.0974
 6050SOL    HW129609   4.520   0.796   2.549 -0.5071 -0.4220 -0.1473
 6050SOL    HW229610   4.461   0.876   2.646  1.8660  0.3706 -0.4277
 6051SOL     OW29611   3.173   1.829   8.184 -0.5314  0.6561 -0.0853
 6051SOL    HW129612   3.225   1.860   8.109 -0.0751  0.1550  0.0210
 6051SOL    HW229613   3.188   1.735   8.174 -0.2110  0.4441  2.5151
 6052SOL     OW29614   2.727   0.410   7.961 -0.4626  0.0473  0.4471
 6052SOL    HW129615   2.784   0.435   8.033 -0.6062 -1.5524  1.1033
 6052SOL    HW229616   2.648   0.380   8.006 -0.1420  0.9505  1.6106
 6053SOL     OW29617   3.564   2.880   9.084  0.1472  0.5813 -0.3243
 6053SOL    HW129618   3.534   2.844   9.167  0.6459  1.0260  0.0461
 6053SOL    HW229619   3.491   2.858   9.026 -1.2356 -0.3960  1.8191
 6054SOL     OW29620   4.400   2.782   8.963  0.0371 -0.4589 -0.6101
 6054SOL    HW129621   4.376   2.690   8.949  0.2082 -1.1041  3.2078
 6054SOL    HW229622   4.432   2.778   9.053  1.1196 -1.1204 -1.0177
 6055SOL     OW29623   3.201   1.627  13.346 -0.8216  0.2931  0.1658
 6055SOL    HW129624   3.178   1.622  13.439  1.1456 -0.3494  0.6243
 6055SOL    HW229625   3.174   1.544  13.305 -0.0731  0.7458 -1.2486
 6056SOL     OW29626   1.019   1.261  14.734  0.7012 -0.0737  0.4450
 6056SOL    HW129627   1.107   1.297  14.718 -0.0105  1.0472 -0.8923
 6056SOL    HW229628   1.036   1.206  14.811  1.0924 -1.4795 -0.6410
 6057SOL     OW29629   2.745   3.285   4.461 -0.0575 -0.0416  0.0366
 6057SOL    HW129630   2.659   3.267   4.424 -0.1577  3.2542 -1.3375
 6057SOL    HW229631   2.731   3.250   4.549 -1.0762 -1.1838 -0.5762
 6058SOL     OW29632   2.459   0.509   8.731 -0.2944  0.4714 -0.4576
 6058SOL    HW129633   2.452   0.481   8.823 -4.5005 -0.7822 -1.1637
 6058SOL    HW229634   2.522   0.445   8.697  0.5209 -1.1103  3.9451
 6059SOL     OW29635   1.534   1.118   8.270  0.1603 -0.6546  0.4569
 6059SOL    HW129636   1.461   1.095   8.328 -0.3548  1.6581  0.7044
 6059SOL    HW229637   1.600   1.080   8.329 -0.8566 -0.5846  1.6452
 6060SOL     OW29638   2.252   3.668   9.273  0.1261  0.4724 -0.3090
 6060SOL    HW129639   2.219   3.745   9.227  2.0460  0.5353 -1.6101
 6060SOL    HW229640   2.341   3.653   9.240 -0.3402  2.3723 -2.4559
 6061SOL     OW29641   1.926   0.462   5.871  0.1649  0.3968 -0.5134
 6061SOL    HW129642   1.952   0.549   5.903 -1.1503  0.9532 -0.9637
 6061SOL    HW229643   1.838   0.484   5.842  0.0318  0.9755  0.3057
 6062SOL     OW29644   2.379   3.129  16.316  0.0899  0.3846 -0.5019
 6062SOL    HW129645   2.468   3.098  16.300  0.2894  1.8698 -2.2724
 6062SOL    HW229646   2.382   3.155  16.408  3.2060 -0.4620 -0.3755
 6063SOL     OW29647   4.139   1.817   3.903  0.0087 -0.1231 -0.0034
 6063SOL    HW129648   4.107   1.727   3.907 -3.5084  0.9774 -2.7369
 6063SOL    HW229649   4.226   1.817   3.943  0.3256  1.0759 -0.6664
 6064SOL     OW29650   1.776   2.150   2.337  0.0479  0.0475  0.9822
 6064SOL    HW129651   1.866   2.132   2.309 -1.4699 -2.5332 -2.2093
 6064SOL    HW229652   1.788   2.238   2.372  1.1827  0.5141 -0.5807
 6065SOL     OW29653   1.433   2.462   6.608  0.4677 -0.1921 -0.3788
 6065SOL    HW129654   1.399   2.373   6.622 -2.1534  0.7820 -0.4545
 6065SOL    HW229655   1.488   2.454   6.531 -1.7063 -1.3825 -1.8274
 6066SOL     OW29656   0.393   0.345  13.169  0.6385  0.6558 -0.2117
 6066SOL    HW129657   0.481   0.333  13.133  1.3927 -0.9745  2.2385
 6066SOL    HW229658   0.344   0.277  13.121  2.4252 -1.2254  0.6593
 6067SOL     OW29659   1.373   3.635   7.511 -0.6557 -0.6346  0.4602
 6067SOL    HW129660   1.340   3.577   7.442  0.8219 -2.3900  1.2611
 6067SOL    HW229661   1.310   3.627   7.582  0.0431  0.7807  1.2403
 6068SOL     OW29662   0.766   2.950   8.741 -0.4925 -0.0347  0.2829
 6068SOL    HW129663   0.805   2.871   8.703  0.6099 -0.8691  3.1996
 6068SOL    HW229664   0.674   2.922   8.744 -0.4517 -0.2595 -0.4334
 6069SOL     OW29665   1.340   1.547  11.454  0.2463  0.1625 -0.1763
 6069SOL    HW129666   1.343   1.642  11.448  1.6469  0.2323  1.7402
 6069SOL    HW229667   1.313   1.545  11.545 -0.8935 -1.3746 -0.5439
 6070SOL     OW29668   4.188   1.894   5.154  0.7208 -0.0488 -0.4910
 6070SOL    HW129669   4.209   1.806   5.121  0.5602 -0.8693  1.6146
 6070SOL    HW229670   4.184   1.947   5.074  2.6505  1.1036  0.1822
 6071SOL     OW29671   1.947   2.432   5.094  0.0990  0.0784  0.4024
 6071SOL    HW129672   2.010   2.478   5.149  0.3963  0.9715 -0.6960
 6071SOL    HW229673   1.935   2.502   5.031 -0.2205 -2.2622 -2.1100
 6072SOL     OW29674   1.997   1.756   5.032 -0.0895 -0.4803  0.2831
 6072SOL    HW129675   2.068   1.728   4.975 -0.9240 -3.1733  0.5798
 6072SOL    HW229676   1.985   1.672   5.076 -0.6856 -1.0008 -0.8657
 6073SOL     OW29677   2.843   2.639   4.207 -0.0645 -0.3777  0.4169
 6073SOL    HW129678   2.763   2.628   4.155  0.7144 -1.5675 -0.5210
 6073SOL    HW229679   2.824   2.712   4.266  1.0817  1.2975 -1.3327
 6074SOL     OW29680   1.973   2.211   8.462  0.3956 -0.0738  0.4078
 6074SOL    HW129681   1.885   2.178   8.478  0.6008 -1.0881 -0.5917
 6074SOL    HW229682   1.957   2.262   8.383  0.6786  0.2000  0.5244
 6075SOL     OW29683   4.087   4.227   5.875  0.3608  0.0536 -0.1287
 6075SOL    HW129684   4.113   4.195   5.962  1.4839 -2.1958 -1.2846
 6075SOL    HW229685   4.018   4.167   5.848 -0.0510  0.0402  0.9512
 6076SOL     OW29686   3.287   3.420   6.509  0.2926 -0.3444  0.1666
 6076SOL    HW129687   3.289   3.491   6.574  1.4798 -1.0873  0.9341
 6076SOL    HW229688   3.298   3.347   6.570  0.9448  1.0558  1.7532
 6077SOL     OW29689   3.645   3.648   5.763  0.1092 -0.1649  0.4295
 6077SOL    HW129690   3.581   3.686   5.822  0.1478  0.5041  0.0392
 6077SOL    HW229691   3.686   3.583   5.820 -1.0853 -0.1897  1.2605
 6078SOL     OW29692   2.289   1.581  14.099  0.0857 -0.1951  0.1112
 6078SOL    HW129693   2.235   1.621  14.031  1.1045  0.8900 -0.0566
 6078SOL    HW229694   2.310   1.656  14.154 -0.1083 -0.5405  0.6576
 6079SOL     OW29695   1.590   0.573   6.456 -0.3850 -0.0828  0.0944
 6079SOL    HW129696   1.549   0.644   6.505  2.4273 -0.0054  2.3933
 6079SOL    HW229697   1.680   0.605   6.457 -1.2489  2.3254  0.4931
 6080SOL     OW29698   1.075   1.854   9.814 -0.3178  0.2684  0.6647
 6080SOL    HW129699   1.043   1.941   9.790 -1.2063 -0.6890 -1.6537
 6080SOL    HW229700   1.116   1.861   9.900 -0.5291 -2.3234  0.9892
 6081SOL     OW29701   1.722   0.463  13.023  0.0338  0.5921 -0.2294
 6081SOL    HW129702   1.709   0.439  12.932  1.4275  0.1556 -0.3108
 6081SOL    HW229703   1.713   0.559  13.027  0.2844  0.5769  0.8302
 6082SOL     OW29704   4.277   2.958   1.494 -0.4367  0.4164 -0.0663
 6082SOL    HW129705   4.246   2.869   1.475  0.2172  0.3960 -1.0031
 6082SOL    HW229706   4.253   2.975   1.585  1.4486 -1.6393  0.8093
 6083SOL     OW29707   2.160   1.452   9.394 -0.1946  0.3271 -0.3855
 6083SOL    HW129708   2.106   1.425   9.319  0.5009  1.3522 -1.2477
 6083SOL    HW229709   2.197   1.367   9.417  1.2072  0.7233 -1.2027
 6084SOL     OW29710   4.582   1.279  14.990  0.1162 -0.0908  0.2005
 6084SOL    HW129711   4.604   1.330  14.912 -0.3946 -0.6439 -0.3038
 6084SOL    HW229712   4.657   1.289  15.049  0.3226  2.1917 -0.4437
 6085SOL     OW29713   1.662   2.993   6.806  0.0222  0.0069 -0.1249
 6085SOL    HW129714   1.723   3.022   6.739 -0.6585  0.3613 -0.5948
 6085SOL    HW229715   1.586   2.966   6.754  2.0932 -2.7652 -1.6800
 6086SOL     OW29716   4.243   4.269   9.159 -0.0126 -0.0548  0.3606
 6086SOL    HW129717   4.326   4.310   9.134  1.1135 -1.8131  1.1959
 6086SOL    HW229718   4.259   4.181   9.124 -0.3438 -0.4215  1.1314
 6087SOL     OW29719   1.520   1.840  16.138 -0.2906 -0.0599  0.3068
 6087SOL    HW129720   1.454   1.812  16.075 -0.2257 -0.9851  0.6586
 6087SOL    HW229721   1.463   1.860  16.212  0.4365  0.2353  0.7859
 6088SOL     OW29722   1.423   2.985  13.054  0.1575 -0.1286 -0.1214
 6088SOL    HW129723   1.400   2.930  13.129 -2.5380 -1.4793 -1.9404
 6088SOL    HW229724   1.431   3.075  13.086  2.7050 -0.1304 -0.7333
 6089SOL     OW29725   2.042   0.347   5.115  0.0005 -0.5020  0.1187
 6089SOL    HW129726   2.035   0.319   5.024  0.2166 -0.8749  0.2145
 6089SOL    HW229727   1.974   0.292   5.155 -1.5689  0.8304 -0.7121
 6090SOL     OW29728   4.711   4.258   8.850  0.0565 -0.0001  0.1904
 6090SOL    HW129729   4.624   4.296   8.843  0.2583  0.7071  1.4783
 6090SOL    HW229730   4.720   4.265   8.945 -0.1348 -0.8708  0.2739
 6091SOL     OW29731   3.224   3.988  13.380 -0.2762  0.2738  0.0404
 6091SOL    HW129732   3.288   4.056  13.397  0.3744 -0.6706  1.3610
 6091SOL    HW229733   3.278   3.916  13.348  0.3905  1.0486 -0.5860
 6092SOL     OW29734   2.390   1.872  13.927 -0.1189  0.2737  0.6454
 6092SOL    HW129735   2.358   1.881  14.017  1.3529  0.3413  1.1577
 6092SOL    HW229736   2.471   1.822  13.932  0.6852  1.5276  0.2957
 6093SOL     OW29737   1.758   2.566  11.426  0.2894  0.7503  0.8656
 6093SOL    HW129738   1.837   2.511  11.422 -0.1521  0.1865 -0.0748
 6093SOL    HW229739   1.781   2.622  11.500  1.1154  1.4035  0.1217
 6094SOL     OW29740   0.930   2.224   6.275 -0.1954  0.2019 -0.6400
 6094SOL    HW129741   0.935   2.213   6.180 -1.2376 -1.1066 -0.5386
 6094SOL    HW229742   0.931   2.131   6.296  1.2352 -0.1975 -2.5297
 6095SOL     OW29743   1.748   4.705   3.425 -0.1086 -0.7438 -0.1551
 6095SOL    HW129744   1.837   0.003   3.397  0.7886 -2.1612  1.5573
 6095SOL    HW229745   1.690   0.049   3.390  3.0069  0.8368 -2.2527
 6096SOL     OW29746   3.922   4.355   2.139 -0.8807 -0.2528 -0.1179
 6096SOL    HW129747   3.856   4.287   2.128 -0.8177 -1.0044  4.1840
 6096SOL    HW229748   3.980   4.342   2.065  0.4598 -0.3608  0.9462
 6097SOL     OW29749   2.654   1.140   4.673 -0.2410 -0.7442 -0.4173
 6097SOL    HW129750   2.727   1.129   4.733  0.0837 -0.1895 -0.7114
 6097SOL    HW229751   2.628   1.050   4.657 -2.9018 -0.0897  0.2402
 6098SOL     OW29752   1.173   2.792   2.778  0.2925  0.1945  0.1896
 6098SOL    HW129753   1.190   2.881   2.808 -0.5381  0.6320 -0.6200
 6098SOL    HW229754   1.141   2.747   2.856  1.5525  0.9948  1.1733
 6099SOL     OW29755   0.682   2.321   1.275 -0.1920  0.2402 -0.3526
 6099SOL    HW129756   0.680   2.409   1.311  0.5324 -0.6524  1.8640
 6099SOL    HW229757   0.768   2.288   1.301 -0.2160 -0.7258 -1.4696
 6100SOL     OW29758   0.808   4.535   4.812 -0.3847 -0.4887 -0.9055
 6100SOL    HW129759   0.810   4.626   4.843  0.6220 -0.4112 -1.2113
 6100SOL    HW229760   0.807   4.548   4.718 -0.7277  3.0585 -0.4340
 6101SOL     OW29761   0.620   2.965   0.166  0.3396 -0.4663  0.1969
 6101SOL    HW129762   0.532   2.983   0.133  0.0198 -1.2035  0.6477
 6101SOL    HW229763   0.622   2.878   0.205 -1.5423 -0.5489  0.1022
 6102SOL     OW29764   0.193   0.581   6.286 -0.4177  0.4163  0.2399
 6102SOL    HW129765   0.234   0.613   6.366 -0.1441 -0.7944  0.5787
 6102SOL    HW229766   0.271   0.565   6.233 -0.6553 -1.4551  0.4469
 6103SOL     OW29767   3.740   1.197   9.666 -0.3908 -0.3790 -0.6813
 6103SOL    HW129768   3.720   1.200   9.760 -0.5489  0.0159 -0.7259
 6103SOL    HW229769   3.752   1.292   9.665 -0.0283 -0.4514 -2.3356
 6104SOL     OW29770   0.605   4.500   1.488 -0.5357  0.0671 -0.2952
 6104SOL    HW129771   0.583   4.593   1.495  0.0319  0.1337  0.6748
 6104SOL    HW229772   0.700   4.500   1.497 -0.5044  0.3907 -0.6499
 6105SOL     OW29773   0.893   0.017   7.516  0.0877  0.3154 -0.3562
 6105SOL    HW129774   0.987   0.016   7.499  0.2019 -0.6420  0.2929
 6105SOL    HW229775   0.885   0.110   7.496 -1.4895  0.1222 -0.6541
 6106SOL     OW29776   0.585   0.610   2.485 -0.1772  0.0393  0.5070
 6106SOL    HW129777   0.650   0.550   2.522 -2.1096 -2.0818  0.4887
 6106SOL    HW229778   0.518   0.588   2.550  1.3280  0.4629  2.1727
 6107SOL     OW29779   0.072   0.298   8.767  0.0289 -0.0364  0.7995
 6107SOL    HW129780   0.078   0.252   8.683 -1.6216  0.9564  0.1303
 6107SOL    HW229781   4.712   0.266   8.800 -0.6455 -0.8635 -1.6555
 6108SOL     OW29782   2.382   0.446   3.226 -0.5144 -0.1699 -0.4379
 6108SOL    HW129783   2.469   0.440   3.189 -0.0058  1.5654  0.4697
 6108SOL    HW229784   2.365   0.368   3.279 -1.0461  0.1672 -0.0990
 6109SOL     OW29785   2.134   1.281   3.020  0.1451 -0.5869 -0.2471
 6109SOL    HW129786   2.178   1.250   3.099 -1.2804 -0.0088  0.7661
 6109SOL    HW229787   2.092   1.198   2.998 -1.0983  0.0255 -0.1615
 6110SOL     OW29788   1.865   4.040  16.070 -0.1588 -0.2694 -0.0485
 6110SOL    HW129789   1.960   4.035  16.063 -0.1162  0.6674 -0.0830
 6110SOL    HW229790   1.846   3.976  16.001 -1.7619 -0.8446  0.9214
 6111SOL     OW29791   3.963   4.640   5.998  0.3187  0.1806 -0.1903
 6111SOL    HW129792   3.962   4.555   6.042 -1.1473  0.7732  0.9161
 6111SOL    HW229793   3.955   4.705   6.067  0.1331  1.9025 -1.8308
 6112SOL     OW29794   4.170   4.626   2.171  0.0352 -0.3032 -0.0711
 6112SOL    HW129795   4.160   4.694   2.238 -0.6715  0.7775 -1.2928
 6112SOL    HW229796   4.081   4.600   2.151 -0.5684  0.9902  0.8837
 6113SOL     OW29797   1.049   1.955   3.075 -0.4843  0.3861  0.3499
 6113SOL    HW129798   1.082   1.969   3.164  1.3053  0.0247 -0.2429
 6113SOL    HW229799   1.065   1.861   3.068  0.8941  0.5928  0.6974
 6114SOL     OW29800   4.711   4.474   6.839  0.5203 -0.2850  0.5161
 6114SOL    HW129801   4.625   4.437   6.818  1.1820 -0.9104 -1.0431
 6114SOL    HW229802   0.035   4.475   6.756  0.1192 -1.0939  0.2801
 6115SOL     OW29803   0.207   2.940   2.633  0.1577 -0.4471 -0.5371
 6115SOL    HW129804   0.302   2.930   2.619  0.4402  2.5587 -0.6858
 6115SOL    HW229805   0.172   2.880   2.566 -1.7714  0.5522 -0.4120
 6116SOL     OW29806   0.336   2.418   9.263 -0.0920  0.8418 -0.2066
 6116SOL    HW129807   0.361   2.401   9.354 -2.3370  1.2769  0.4877
 6116SOL    HW229808   0.241   2.417   9.271 -0.0002  0.8280  0.9672
 6117SOL     OW29809   1.151   2.511  15.231 -0.0681  0.1447  0.5253
 6117SOL    HW129810   1.125   2.446  15.296 -0.5601 -1.2757 -1.0978
 6117SOL    HW229811   1.083   2.578  15.237  0.5175  0.9424 -1.5604
 6118SOL     OW29812   2.896   0.960   0.032  0.1905  0.1156 -0.3098
 6118SOL    HW129813   2.868   0.894   0.096  0.3036 -0.0946 -0.4754
 6118SOL    HW229814   2.810   0.984  17.694  1.1829  1.7416 -1.6511
 6119SOL     OW29815   4.662   1.406   3.686  0.3464  0.0077  0.0075
 6119SOL    HW129816   4.679   1.453   3.604  1.0399  0.4921  0.4235
 6119SOL    HW229817   4.616   1.329   3.654  0.8766 -0.1392 -0.4155
 6120SOL     OW29818   2.230   4.219   6.545  0.8925  0.5834 -0.2142
 6120SOL    HW129819   2.199   4.302   6.580  0.0359 -0.0451  0.5088
 6120SOL    HW229820   2.324   4.232   6.531  0.8120 -0.0429 -1.3141
 6121SOL     OW29821   3.746   2.577   9.204 -0.3230  0.1478 -0.1935
 6121SOL    HW129822   3.654   2.557   9.222 -0.7360  1.6083 -0.6531
 6121SOL    HW229823   3.739   2.586   9.108  0.1126 -0.0117 -0.2406
 6122SOL     OW29824   3.329   0.882  12.962  0.2979 -0.2136  0.3501
 6122SOL    HW129825   3.313   0.818  13.031 -1.6645  0.6472  0.6950
 6122SOL    HW229826   3.401   0.935  12.998  1.7799 -1.6621 -0.4903
 6123SOL     OW29827   2.656   4.695   5.209  0.4484 -0.1394 -0.0540
 6123SOL    HW129828   2.729   4.703   5.271  0.9299  1.2032 -0.7893
 6123SOL    HW229829   2.584   4.689   5.273  0.8000  1.0124  0.4656
 6124SOL     OW29830   3.241   1.953   7.176  0.8118  0.0491  0.0100
 6124SOL    HW129831   3.221   1.908   7.258  1.4881 -2.1752 -1.0414
 6124SOL    HW229832   3.335   1.937   7.166  0.3566 -3.5339  1.3622
 6125SOL     OW29833   1.456   4.298   6.516 -0.3873  0.3749 -0.2967
 6125SOL    HW129834   1.515   4.241   6.565 -1.0354  1.2329  1.4861
 6125SOL    HW229835   1.476   4.263   6.430 -1.4806  1.2718 -0.9232
 6126SOL     OW29836   2.125   2.082   4.484 -0.6670  0.6063  0.0083
 6126SOL    HW129837   2.071   2.107   4.409 -0.7027  1.0652  0.1883
 6126SOL    HW229838   2.172   2.006   4.450 -1.8362  0.1414 -0.5699
 6127SOL     OW29839   3.740   2.848   3.794  0.2974 -0.1177  0.4435
 6127SOL    HW129840   3.833   2.867   3.810 -0.4694  2.8360  1.3620
 6127SOL    HW229841   3.701   2.843   3.881 -0.5961  1.3938  0.1361
 6128SOL     OW29842   3.009   4.545   6.187  0.1598  0.2839 -0.0085
 6128SOL    HW129843   3.014   4.450   6.200 -0.3061  0.3163  0.3759
 6128SOL    HW229844   2.965   4.569   6.268 -1.0608  0.1807 -0.6511
 6129SOL     OW29845   3.050   3.808   8.184 -0.1153 -0.2498  0.2211
 6129SOL    HW129846   3.052   3.890   8.234  1.7138 -1.6329  2.3979
 6129SOL    HW229847   3.042   3.752   8.261  0.7639 -0.6071  0.0515
 6130SOL     OW29848   4.152   1.321   0.760 -0.1214  0.5569  0.3048
 6130SOL    HW129849   4.081   1.262   0.736  0.4653 -1.3889  3.2875
 6130SOL    HW229850   4.121   1.358   0.843 -2.0076 -3.3700  1.3723
 6131SOL     OW29851   1.114   2.410   7.078 -0.0251 -0.8616  0.3933
 6131SOL    HW129852   1.085   2.419   6.987  2.7319 -0.4918 -0.4244
 6131SOL    HW229853   1.089   2.494   7.116  1.0686 -1.5548  2.6158
 6132SOL     OW29854   2.153   0.549   6.653  0.5252  0.4339 -0.4777
 6132SOL    HW129855   2.245   0.524   6.645  0.2465 -0.7022 -0.0800
 6132SOL    HW229856   2.135   0.527   6.562 -0.5382 -3.1034  0.6083
 6133SOL     OW29857   1.572   1.497   5.723  0.1605 -1.2491  0.7469
 6133SOL    HW129858   1.489   1.468   5.762 -0.4219 -1.5428 -0.7128
 6133SOL    HW229859   1.628   1.437   5.772 -0.2890 -1.0263  1.5342
 6134SOL     OW29860   2.688   3.152  15.550 -0.4660  0.2135  0.3834
 6134SOL    HW129861   2.668   3.098  15.627 -1.1980  0.4713  0.3741
 6134SOL    HW229862   2.602   3.151  15.509 -0.4722 -1.9978  0.4621
 6135SOL     OW29863   1.564   0.568   3.111  0.2267  0.2957  0.0953
 6135SOL    HW129864   1.563   0.616   3.028  0.1015  0.1818  0.0315
 6135SOL    HW229865   1.648   0.589   3.150  0.3309 -0.2593  0.1754
 6136SOL     OW29866   0.268   0.295  15.401 -0.1341 -0.1781  0.3335
 6136SOL    HW129867   0.309   0.307  15.486  0.0905 -0.1179  0.2174
 6136SOL    HW229868   0.239   0.385  15.385  1.1327  0.2249  0.3555
 6137SOL     OW29869   0.623   1.536  16.309  0.6305  0.0159 -0.0187
 6137SOL    HW129870   0.547   1.483  16.331  1.0905 -1.1761 -1.2312
 6137SOL    HW229871   0.661   1.497  16.229 -0.6970 -0.4489 -0.4250
 6138SOL     OW29872   0.523   3.090   0.504  0.5250  0.1404 -0.1861
 6138SOL    HW129873   0.530   3.170   0.556 -0.2589  0.5077 -0.6476
 6138SOL    HW229874   0.598   3.042   0.540  0.0456  2.9677  4.5811
 6139SOL     OW29875   1.586   0.208   8.538 -0.2004  0.1327  0.5647
 6139SOL    HW129876   1.541   0.276   8.588 -0.5927  1.3725 -1.4778
 6139SOL    HW229877   1.633   0.170   8.613  2.2825  1.4160 -0.3372
 6140SOL     OW29878   0.171   1.952   5.728 -0.2051  0.1326  0.0481
 6140SOL    HW129879   0.169   1.896   5.805 -1.7544 -1.1481 -0.9478
 6140SOL    HW229880   0.210   2.033   5.763 -1.1563 -0.0713  1.5962
 6141SOL     OW29881   4.548   1.785   2.655 -0.3004 -0.2736  0.2680
 6141SOL    HW129882   4.488   1.805   2.583 -1.3480 -0.0812  1.2012
 6141SOL    HW229883   4.586   1.865   2.691  1.0101 -1.0061  0.5398
 6142SOL     OW29884   4.473   4.132  12.055  0.1538  0.1442  0.0851
 6142SOL    HW129885   4.404   4.106  11.994  0.6114  0.9065 -0.7485
 6142SOL    HW229886   4.517   4.048  12.044 -0.8600 -0.4211  0.3058
 6143SOL     OW29887   3.660   3.188   8.610  0.4955  0.6114 -0.1777
 6143SOL    HW129888   3.742   3.154   8.576  0.7661 -0.5458  1.5882
 6143SOL    HW229889   3.585   3.136   8.583  0.9531 -0.2080  0.1241
 6144SOL     OW29890   0.678   3.332   4.032 -0.1230 -0.0606  0.0313
 6144SOL    HW129891   0.715   3.407   4.079  2.9873 -0.5359 -1.6652
 6144SOL    HW229892   0.749   3.321   3.968  1.7934  1.4032  1.9069
 6145SOL     OW29893   1.332   0.315   3.443 -0.3306 -0.3870  0.1830
 6145SOL    HW129894   1.400   0.262   3.401  0.0230 -2.8316  3.8400
 6145SOL    HW229895   1.327   0.400   3.399  0.9074 -0.8133 -0.7544
 6146SOL     OW29896   4.100   3.702   2.750 -0.2442 -0.4580  0.5642
 6146SOL    HW129897   4.112   3.669   2.660  2.6112  0.1008  0.7262
 6146SOL    HW229898   4.011   3.736   2.741  0.0396 -0.0089 -0.5173
 6147SOL     OW29899   2.515   3.108   6.731  0.1643  0.3137 -0.5248
 6147SOL    HW129900   2.545   3.199   6.733  0.7268  0.1365 -1.0218
 6147SOL    HW229901   2.578   3.061   6.785 -1.6320 -0.3881  0.9566
 6148SOL     OW29902   3.310   2.614   6.908 -0.5897  0.2313 -0.2672
 6148SOL    HW129903   3.237   2.585   6.963  1.9513 -0.6540  2.6625
 6148SOL    HW229904   3.360   2.650   6.981  0.5837 -0.9692 -0.4721
 6149SOL     OW29905   2.533   4.491   9.277  0.1019  0.1493 -0.3612
 6149SOL    HW129906   2.484   4.569   9.304 -0.3913 -0.3922  0.3086
 6149SOL    HW229907   2.518   4.427   9.346 -0.3464 -0.9429 -1.4669
 6150SOL     OW29908   3.366   4.426   6.176 -0.5983  0.0673  1.0997
 6150SOL    HW129909   3.326   4.426   6.089 -1.2162  0.1034  1.3879
 6150SOL    HW229910   3.348   4.515   6.205 -0.6821  0.2172  0.5864
 6151SOL     OW29911   4.471   0.882   0.108  0.1779  0.4697  0.2296
 6151SOL    HW129912   4.391   0.910   0.153  0.0082 -1.0837  0.8664
 6151SOL    HW229913   4.489   0.797   0.147  0.8084  0.8912  0.8420
 6152SOL     OW29914   2.204   3.171  13.813 -0.0485 -0.1757 -0.5639
 6152SOL    HW129915   2.286   3.125  13.796 -0.7987 -1.6864 -0.1300
 6152SOL    HW229916   2.135   3.111  13.785 -1.0936  0.6649  0.2458
 6153SOL     OW29917   2.893   3.734   6.007  0.3995  0.3919  0.0198
 6153SOL    HW129918   2.804   3.723   6.040  0.0557  0.7813 -0.7926
 6153SOL    HW229919   2.877   3.788   5.930 -0.3506 -0.8534 -0.6936
 6154SOL     OW29920   3.912   1.413   3.577  0.3036  0.0752  0.1351
 6154SOL    HW129921   4.001   1.432   3.606  0.0210 -0.5579  1.4272
 6154SOL    HW229922   3.898   1.481   3.511  0.7302  1.4032  1.4216
 6155SOL     OW29923   2.969   0.449   4.268  0.8937 -0.1136 -0.3619
 6155SOL    HW129924   3.026   0.508   4.318  2.2433 -1.0322 -0.8216
 6155SOL    HW229925   3.032   0.414   4.205  1.4502 -0.9763  0.6833
 6156SOL     OW29926   4.305   0.928   2.825  0.0827  0.2543 -0.1058
 6156SOL    HW129927   4.352   0.856   2.868  0.6154 -0.6823 -2.2316
 6156SOL    HW229928   4.284   0.979   2.903  2.4992 -0.3331  0.9260
 6157SOL     OW29929   3.737   0.389   7.103  0.5316  0.6092  0.2721
 6157SOL    HW129930   3.726   0.295   7.116 -0.6907  0.7742  0.4026
 6157SOL    HW229931   3.796   0.414   7.174  2.7181  1.2482 -1.7939
 6158SOL     OW29932   4.678   3.425  14.599 -0.2895 -0.9721 -0.0919
 6158SOL    HW129933   4.643   3.402  14.685 -0.5465 -0.2751 -0.0138
 6158SOL    HW229934   4.619   3.497  14.580 -2.1351 -1.7487  2.7300
 6159SOL     OW29935   1.301   2.416  16.203 -0.0468 -0.4891  0.7104
 6159SOL    HW129936   1.306   2.442  16.295 -0.0045  1.7513  0.0803
 6159SOL    HW229937   1.208   2.433  16.186  0.2449  0.3641 -0.0758
 6160SOL     OW29938   3.012   3.221   4.771 -0.2597  0.2101 -0.1297
 6160SOL    HW129939   2.998   3.306   4.731 -0.9156  0.7388  1.2146
 6160SOL    HW229940   3.020   3.247   4.863  0.3206 -0.3207 -0.0282
 6161SOL     OW29941   2.966   0.721   9.323  0.6709 -0.0673  0.2910
 6161SOL    HW129942   2.962   0.813   9.299 -1.1867 -0.5706 -1.3231
 6161SOL    HW229943   2.894   0.694   9.266  0.3386  0.7488  0.3290
 6162SOL     OW29944   0.549   1.485   7.924 -0.1321 -0.0797 -0.7197
 6162SOL    HW129945   0.517   1.549   7.861  0.3841  1.0593  0.1926
 6162SOL    HW229946   0.475   1.425   7.925 -0.8414  0.8177 -0.1726
 6163SOL     OW29947   3.812   2.293  10.717  0.0925  0.5004  0.2710
 6163SOL    HW129948   3.905   2.284  10.739  0.9187  1.1208 -2.8798
 6163SOL    HW229949   3.776   2.326  10.799 -1.1910 -0.3477  0.0455
 6164SOL     OW29950   4.429   3.665   3.483 -0.0469  0.1387 -0.0672
 6164SOL    HW129951   4.483   3.623   3.550 -1.2187  0.5105  1.1151
 6164SOL    HW229952   4.362   3.596   3.484  0.5115 -0.3609  2.0486
 6165SOL     OW29953   1.151   1.963   7.748  0.0632 -0.0296  0.0916
 6165SOL    HW129954   1.083   1.953   7.682  0.8913 -0.9688 -0.6252
 6165SOL    HW229955   1.126   2.038   7.802 -1.3628  0.7201 -1.6240
 6166SOL     OW29956   3.941   4.238   2.903 -0.1545 -0.3119  0.4440
 6166SOL    HW129957   3.995   4.172   2.945  2.5681  1.7801  0.1848
 6166SOL    HW229958   4.005   4.308   2.904 -0.7754  0.2784 -0.8319
 6167SOL     OW29959   1.754   1.874  16.316 -0.4523  0.1234 -0.0319
 6167SOL    HW129960   1.836   1.849  16.274  0.2103  2.4415 -0.0972
 6167SOL    HW229961   1.696   1.800  16.300  2.2979 -1.9364 -0.6358
 6168SOL     OW29962   4.581   3.007   3.490 -0.1611 -0.4205  0.5265
 6168SOL    HW129963   4.566   2.989   3.397  3.8129  1.2750 -0.4274
 6168SOL    HW229964   4.533   3.089   3.492  0.1767 -0.1624 -2.0347
 6169SOL     OW29965   0.600   1.941   5.068 -0.1265  0.4820  0.7553
 6169SOL    HW129966   0.644   1.892   4.999 -1.2438 -1.1471  1.2055
 6169SOL    HW229967   0.537   1.983   5.010 -0.5329 -1.0218  0.1125
 6170SOL     OW29968   0.277   3.149   6.998  0.2069  0.8958 -0.3607
 6170SOL    HW129969   0.235   3.066   6.979 -1.5205  1.2296  1.9665
 6170SOL    HW229970   0.328   3.121   7.074 -0.2730 -0.3666 -0.5087
 6171SOL     OW29971   2.331   1.575   8.711  0.0942  0.0831  0.6519
 6171SOL    HW129972   2.418   1.616   8.707  0.2652 -0.3220  0.1719
 6171SOL    HW229973   2.346   1.503   8.649  0.7070 -0.7637  1.7869
 6172SOL     OW29974   2.859   2.409   8.691  0.6698  0.0402 -0.3335
 6172SOL    HW129975   2.835   2.421   8.599  2.3158 -0.0537 -0.7827
 6172SOL    HW229976   2.795   2.340   8.709  1.0260 -0.4780 -1.0549
 6173SOL     OW29977   0.529   0.658   5.550  0.6539 -0.2524 -0.1973
 6173SOL    HW129978   0.475   0.709   5.489 -0.3584 -1.2573 -0.1425
 6173SOL    HW229979   0.547   0.583   5.493  0.5114 -0.2719 -0.2183
 6174SOL     OW29980   2.050   4.602   3.064 -0.4951  0.2086 -0.3394
 6174SOL    HW129981   2.016   4.608   3.153 -2.5011  0.9222 -1.1724
 6174SOL    HW229982   2.088   4.689   3.052  1.8430 -0.5704  1.3089
 6175SOL     OW29983   1.301   4.002   9.227  0.4485 -0.0163 -0.5050
 6175SOL    HW129984   1.215   3.966   9.203  1.0687  0.2940 -3.2177
 6175SOL    HW229985   1.348   3.964   9.153 -0.1367  0.5583 -1.1683
 6176SOL     OW29986   3.624   1.635   4.033  0.6715 -0.3369 -0.1366
 6176SOL    HW129987   3.542   1.683   4.040  0.8852  0.0062  0.0008
 6176SOL    HW229988   3.598   1.543   4.022 -0.4362  0.2205 -2.1187
 6177SOL     OW29989   2.230   4.654  11.930 -0.4974 -0.3633 -0.6661
 6177SOL    HW129990   2.241   4.685  11.840  1.7912  0.7363 -0.0240
 6177SOL    HW229991   2.323   4.639  11.950 -0.3727 -0.0165 -0.9867
 6178SOL     OW29992   0.893   3.656   7.266  0.4485  0.2609  0.2863
 6178SOL    HW129993   0.802   3.628   7.278  1.3475 -3.0752 -0.4707
 6178SOL    HW229994   0.904   3.660   7.171  1.9360  2.6726  0.5655
 6179SOL     OW29995   2.737   0.757   3.961 -0.7968 -0.5081  0.4385
 6179SOL    HW129996   2.650   0.794   3.973 -0.4074  1.1998 -1.8981
 6179SOL    HW229997   2.778   0.785   4.042 -1.5970 -0.5288  0.8490
 6180SOL     OW29998   2.436   2.558  15.237 -0.5958  0.6914  0.2562
 6180SOL    HW129999   2.379   2.518  15.172 -1.4743  4.1926 -1.0906
 6180SOL    HW230000   2.366   2.596  15.289 -1.6802 -1.4858  0.3978
 6181SOL     OW30001   0.884   3.203   9.382 -0.2000 -0.1232 -0.0215
 6181SOL    HW130002   0.825   3.257   9.434  1.0352  0.5805  0.6642
 6181SOL    HW230003   0.902   3.132   9.444 -0.1939  0.2731  0.4284
 6182SOL     OW30004   0.342   3.947   8.546 -0.1003  0.1506  0.2939
 6182SOL    HW130005   0.434   3.966   8.562 -0.1806 -0.9497  1.9604
 6182SOL    HW230006   0.320   3.886   8.616  0.1925  0.5871  0.7675
 6183SOL     OW30007   2.118   2.743   2.620  0.9426 -0.0419  0.3705
 6183SOL    HW130008   2.198   2.775   2.580  0.2041  1.3415  0.0155
 6183SOL    HW230009   2.141   2.661   2.664  0.6877  0.3166  1.1710
 6184SOL     OW30010   2.782   0.201   7.069 -0.5591 -0.0916 -0.8429
 6184SOL    HW130011   2.804   0.190   7.162 -2.7721  1.2213 -0.1681
 6184SOL    HW230012   2.688   0.216   7.068 -0.6264 -0.1804  2.3915
 6185SOL     OW30013   3.077   1.219   3.608  0.0155  0.2873  0.0817
 6185SOL    HW130014   3.066   1.291   3.546  2.5503  0.0338 -0.6636
 6185SOL    HW230015   3.170   1.206   3.591 -0.0667  0.6141 -0.5869
 6186SOL     OW30016   0.222   4.084   8.829 -0.0507 -0.7274  0.0690
 6186SOL    HW130017   0.168   4.019   8.874  0.4280 -0.4012  1.1300
 6186SOL    HW230018   0.171   4.162   8.853  1.4008 -0.2066  1.4545
 6187SOL     OW30019   2.881   3.017   6.839  0.2927  0.3934 -0.2131
 6187SOL    HW130020   2.851   2.992   6.752  0.3561 -0.2269 -0.0585
 6187SOL    HW230021   2.975   3.002   6.829  0.4837  0.3764  1.4836
 6188SOL     OW30022   3.088   3.471   0.011 -0.0994 -0.0481 -0.7247
 6188SOL    HW130023   3.119   3.398   0.065 -1.7700 -1.0211 -1.0691
 6188SOL    HW230024   3.108   3.549   0.062 -1.0078 -0.4442  0.2477
 6189SOL     OW30025   4.561   2.839   5.378  0.2653 -0.1139 -0.2469
 6189SOL    HW130026   4.622   2.768   5.357 -1.4829 -1.9441  0.7843
 6189SOL    HW230027   4.547   2.815   5.470 -0.0881  0.9182 -0.0417
 6190SOL     OW30028   3.624   2.484   6.314  0.1037  0.3603 -0.2768
 6190SOL    HW130029   3.682   2.408   6.306 -1.2108 -0.8959  2.2460
 6190SOL    HW230030   3.622   2.492   6.409  0.9830  1.5999 -0.3671
 6191SOL     OW30031   2.504   4.708  11.147  0.4861 -0.3458  0.0419
 6191SOL    HW130032   2.573   4.651  11.113  0.8597  0.3935 -0.4265
 6191SOL    HW230033   2.434   4.668  11.095 -0.6103 -1.2318  2.1923
 6192SOL     OW30034   3.316   0.257  15.380  0.2578 -0.2493  0.3897
 6192SOL    HW130035   3.238   0.255  15.324  0.0747 -0.8180  0.6596
 6192SOL    HW230036   3.388   0.293  15.328  2.5155 -0.1586  3.6136
 6193SOL     OW30037   3.133   2.739  11.395  0.1418 -0.2184 -0.3016
 6193SOL    HW130038   3.118   2.677  11.467 -1.3800 -0.0244 -0.4537
 6193SOL    HW230039   3.225   2.762  11.411  0.6947 -1.6527 -1.4059
 6194SOL     OW30040   2.943   4.201   1.346  0.1257 -0.1309  0.7290
 6194SOL    HW130041   2.910   4.192   1.256 -1.4962 -2.4102  1.5567
 6194SOL    HW230042   2.924   4.295   1.354  0.0110 -0.0723 -0.2326
 6195SOL     OW30043   3.050   3.969   7.383  0.0768  0.1488 -0.1995
 6195SOL    HW130044   3.069   3.880   7.413  0.8677  0.5326  0.4220
 6195SOL    HW230045   3.000   3.963   7.301  0.2965 -0.4419 -0.2864
 6196SOL     OW30046   1.033   1.232   7.352 -0.1189  0.2894 -0.8556
 6196SOL    HW130047   1.105   1.290   7.377  0.4440 -0.2825 -1.1404
 6196SOL    HW230048   0.953   1.254   7.400  0.2986 -0.3847  0.1523
 6197SOL     OW30049   3.432   0.778   6.608 -0.3006 -0.3521  0.2998
 6197SOL    HW130050   3.429   0.865   6.648 -0.9770  0.3082 -1.1993
 6197SOL    HW230051   3.435   0.799   6.515  0.3644  0.2710  0.4639
 6198SOL     OW30052   2.207   4.702   7.208  0.7853 -0.0187  0.0879
 6198SOL    HW130053   2.128   0.024   7.237  1.5665  1.8025 -0.6152
 6198SOL    HW230054   2.172   4.615   7.224  0.6700  0.0562  0.2446
 6199SOL     OW30055   0.691   3.653  15.610  1.1007 -0.5618  0.1750
 6199SOL    HW130056   0.652   3.718  15.551 -0.1497 -0.6204  0.9467
 6199SOL    HW230057   0.701   3.573  15.559 -1.1834  1.8373 -4.0927
 6200SOL     OW30058   2.329   0.243   4.342  0.2571 -0.0095 -0.0350
 6200SOL    HW130059   2.309   0.213   4.431 -4.9581  1.0305 -0.9047
 6200SOL    HW230060   2.245   0.228   4.299  0.6913  3.6188 -2.1309
 6201SOL     OW30061   4.116   4.376   2.611 -0.0079 -0.2512 -0.0122
 6201SOL    HW130062   4.177   4.316   2.569 -0.2143 -0.4298 -0.0624
 6201SOL    HW230063   4.169   4.442   2.656  1.1357 -0.7441 -0.6452
 6202SOL     OW30064   1.004   4.315  15.273  0.0902 -0.2062  0.3595
 6202SOL    HW130065   1.072   4.376  15.302 -0.9197  1.5808 -1.0625
 6202SOL    HW230066   0.986   4.351  15.186 -1.5844  0.5690  1.0208
 6203SOL     OW30067   4.135   4.396   8.814 -0.3866 -0.0068  0.3506
 6203SOL    HW130068   4.087   4.313   8.813 -0.7950  0.2589 -1.8376
 6203SOL    HW230069   4.061   4.449   8.843 -1.0351 -1.2190  0.9368
 6204SOL     OW30070   0.523   0.282   2.750 -0.6349 -0.1871 -0.1935
 6204SOL    HW130071   0.615   0.260   2.736 -0.6310 -0.0284 -0.4050
 6204SOL    HW230072   0.489   0.224   2.682 -1.9105  0.0702  0.2193
 6205SOL     OW30073   2.687   2.193   8.604  0.1490  0.0853  0.0514
 6205SOL    HW130074   2.608   2.142   8.621  0.3603 -0.7143 -1.3153
 6205SOL    HW230075   2.682   2.206   8.509 -1.3345 -0.6540  0.0333
 6206SOL     OW30076   3.974   1.827   1.672  0.3862  0.1028  0.2769
 6206SOL    HW130077   4.041   1.891   1.645 -0.0819  0.5433  0.1604
 6206SOL    HW230078   4.019   1.788   1.747 -0.2214  1.3390  1.2734
 6207SOL     OW30079   2.642   0.659   6.025  0.4308  0.2883 -0.0915
 6207SOL    HW130080   2.729   0.694   6.045  0.4159  0.6701 -0.6957
 6207SOL    HW230081   2.652   0.625   5.936 -0.7782 -2.5143  0.8688
 6208SOL     OW30082   1.112   3.946   6.690 -0.2575  0.1201 -0.1986
 6208SOL    HW130083   1.180   3.969   6.627  0.1185 -0.7664 -0.1169
 6208SOL    HW230084   1.171   3.937   6.765  2.1990  1.1539 -2.0163
 6209SOL     OW30085   3.781   2.707   6.251  0.8278 -0.5726 -0.0290
 6209SOL    HW130086   3.732   2.670   6.324 -0.7836  0.2946 -0.6691
 6209SOL    HW230087   3.872   2.699   6.281  0.6320 -2.1836  0.1041
 6210SOL     OW30088   3.051   3.176  11.295  0.0116  0.4345  0.1194
 6210SOL    HW130089   3.059   3.110  11.363 -0.7929  0.1661 -0.0400
 6210SOL    HW230090   3.137   3.217  11.284 -0.2390  0.6598 -1.0579
 6211SOL     OW30091   3.149   2.124   3.459 -0.1474 -0.6467 -0.2006
 6211SOL    HW130092   3.182   2.140   3.548  0.3520  0.8384 -0.6461
 6211SOL    HW230093   3.082   2.057   3.473 -0.3110 -0.4503 -0.0448
 6212SOL     OW30094   0.077   0.879  10.760 -0.0503  0.4265 -0.3922
 6212SOL    HW130095   0.030   0.816  10.814  1.5109 -1.2553 -0.9582
 6212SOL    HW230096   0.140   0.921  10.818 -1.7299  1.1462  0.8927
 6213SOL     OW30097   1.354   3.971   2.695 -0.5675  0.1090 -0.1867
 6213SOL    HW130098   1.413   4.025   2.747 -0.2149  1.1892 -1.7288
 6213SOL    HW230099   1.385   3.881   2.702  1.1273  0.6866 -0.2430
 6214SOL     OW30100   0.336   2.186  17.400  0.2009 -0.1398  0.5124
 6214SOL    HW130101   0.377   2.241  17.468  1.7302 -1.2667  0.5058
 6214SOL    HW230102   0.400   2.117  17.382 -0.7983 -1.2026  1.1343
 6215SOL     OW30103   0.916   2.976   1.773 -0.4414  0.2988 -0.3847
 6215SOL    HW130104   0.999   2.929   1.764 -0.2358  0.3862  1.0369
 6215SOL    HW230105   0.946   3.041   1.836 -0.6425  0.0132  0.0032
 6216SOL     OW30106   1.724   1.668   4.736  0.0553  0.0507  0.6082
 6216SOL    HW130107   1.748   1.602   4.671  0.0362  0.9514 -0.3074
 6216SOL    HW230108   1.781   1.744   4.723 -0.6747  0.2429 -1.3599
 6217SOL     OW30109   1.114   1.982   4.546  0.5062 -0.1061 -0.8121
 6217SOL    HW130110   1.084   1.921   4.479  0.3643 -1.7418  0.7186
 6217SOL    HW230111   1.035   2.026   4.576  0.6640 -0.6281  0.3774
 6218SOL     OW30112   1.909   3.949   6.733  0.4069  0.2722  0.3107
 6218SOL    HW130113   1.976   3.888   6.705 -0.2265 -0.2387 -0.0923
 6218SOL    HW230114   1.879   3.980   6.647  2.0727 -0.5029 -0.5496
 6219SOL     OW30115   4.164   2.644  16.224  0.2598 -0.4095 -0.2743
 6219SOL    HW130116   4.247   2.680  16.256 -1.0908  1.6237  0.9424
 6219SOL    HW230117   4.107   2.704  16.271  0.6072  0.3494 -0.8144
 6220SOL     OW30118   4.566   1.806   6.704 -0.5013 -0.0285  0.2152
 6220SOL    HW130119   4.558   1.784   6.796  0.8480  0.6293  0.4842
 6220SOL    HW230120   4.659   1.821   6.683 -0.6800  2.2840  1.1252
 6221SOL     OW30121   0.483   3.909  10.819 -0.1267 -0.1660  0.5811
 6221SOL    HW130122   0.509   3.850  10.749  0.7683  1.6281 -0.5926
 6221SOL    HW230123   0.411   3.960  10.784  0.1784 -1.3222 -1.7144
 6222SOL     OW30124   3.383   4.512   7.961 -0.1903  0.1542 -0.3198
 6222SOL    HW130125   3.421   4.597   7.937  0.1378 -0.2132 -1.1271
 6222SOL    HW230126   3.322   4.530   8.032  2.0335 -0.2995  1.6993
 6223SOL     OW30127   2.626   2.741   5.262 -0.0003  0.3945 -0.2631
 6223SOL    HW130128   2.705   2.690   5.246 -2.1194 -2.2446 -2.4397
 6223SOL    HW230129   2.567   2.693   5.203 -0.9787  0.4769  0.6416
 6224SOL     OW30130   1.949   0.424   6.805 -0.4181  0.0165 -0.3303
 6224SOL    HW130131   2.032   0.465   6.781  0.6202 -0.3753  2.5575
 6224SOL    HW230132   1.886   0.491   6.778 -2.1463 -2.5956 -2.6491
 6225SOL     OW30133   1.592   3.588   2.540  0.1148  0.2259 -0.4136
 6225SOL    HW130134   1.629   3.502   2.560  0.6581 -0.1502 -3.0228
 6225SOL    HW230135   1.506   3.580   2.500 -0.0624  0.0410  0.0197
 6226SOL     OW30136   4.353   0.890   1.943  0.1191 -0.2593  1.0538
 6226SOL    HW130137   4.356   0.873   2.037 -1.4377  1.3181  1.3843
 6226SOL    HW230138   4.345   0.985   1.946  2.3088 -0.0280 -0.0964
 6227SOL     OW30139   0.569   4.241   7.380  0.4549  0.2840  0.3591
 6227SOL    HW130140   0.480   4.250   7.414  0.5097  0.5630  0.4248
 6227SOL    HW230141   0.625   4.250   7.457 -0.5552  0.5506  1.0631
 6228SOL     OW30142   3.029   4.359  11.010 -0.0187  0.4375 -0.0764
 6228SOL    HW130143   3.010   4.402  11.093  1.0753  1.5823 -0.3996
 6228SOL    HW230144   3.045   4.268  11.032  2.0435  0.3433 -1.9657
 6229SOL     OW30145   4.012   0.418   9.956 -0.4195 -0.1265  0.0229
 6229SOL    HW130146   4.067   0.474  10.011 -1.7440 -0.0766  1.3046
 6229SOL    HW230147   4.060   0.335   9.963 -1.5161 -0.7702 -0.1578
 6230SOL     OW30148   1.687   1.922   5.263  0.2121  0.3231  0.3962
 6230SOL    HW130149   1.699   1.915   5.168  1.3739  0.4044  0.5353
 6230SOL    HW230150   1.675   2.016   5.256 -1.6579 -0.0488 -1.1658
 6231SOL     OW30151   4.324   2.591   7.431  0.1457  0.4428  0.2555
 6231SOL    HW130152   4.267   2.517   7.408  0.6024 -0.5993  2.4711
 6231SOL    HW230153   4.270   2.632   7.498 -0.4944 -2.2554  1.3878
 6232SOL     OW30154   2.713   3.949   8.942  0.4641  0.6507 -0.5919
 6232SOL    HW130155   2.705   4.030   8.992  0.7743  0.2605  0.0912
 6232SOL    HW230156   2.728   3.994   8.859  0.2296 -0.4389 -1.2212
 6233SOL     OW30157   4.140   3.178   8.141  0.9831  0.9696  0.0436
 6233SOL    HW130158   4.151   3.228   8.222  0.8033  0.1905  0.5446
 6233SOL    HW230159   4.134   3.245   8.072  0.2508 -1.0565 -1.8616
 6234SOL     OW30160   3.724   1.898   5.041 -0.2083  0.4176  0.3654
 6234SOL    HW130161   3.771   1.892   5.123 -1.1233 -0.0311  0.8596
 6234SOL    HW230162   3.657   1.963   5.066 -0.6100  0.1047  0.1036
 6235SOL     OW30163   3.300   0.455  13.622  0.3292  0.3602  0.8247
 6235SOL    HW130164   3.271   0.468  13.712  0.0850 -0.4444  0.8685
 6235SOL    HW230165   3.356   0.379  13.639  0.4166  0.5727  1.5003
 6236SOL     OW30166   2.036   3.677   6.654  0.3096 -0.2315  0.0386
 6236SOL    HW130167   2.066   3.597   6.698 -0.2946 -0.2316  0.4425
 6236SOL    HW230168   2.116   3.701   6.608 -0.7312  2.9284 -0.0726
 6237SOL     OW30169   0.724   3.749   3.252  0.4039  0.0812  0.4974
 6237SOL    HW130170   0.726   3.697   3.172  1.6264  0.6769  0.1310
 6237SOL    HW230171   0.650   3.808   3.235  1.0318  1.1866  1.5636
 6238SOL     OW30172   3.485   4.227   6.666  0.2059  0.4812  0.0938
 6238SOL    HW130173   3.520   4.316   6.668  0.7196  0.2482  1.6420
 6238SOL    HW230174   3.565   4.179   6.643  0.8439  0.6037  2.0182
 6239SOL     OW30175   0.756   3.497   7.072 -0.9682  0.3884  0.2867
 6239SOL    HW130176   0.831   3.464   7.023 -3.3946 -0.5830 -2.8063
 6239SOL    HW230177   0.699   3.517   6.998 -0.9693  1.9256  0.7166
 6240SOL     OW30178   3.994   2.828   8.362  0.7051  0.6815 -0.2123
 6240SOL    HW130179   3.989   2.777   8.442 -0.2805 -1.7609 -1.8335
 6240SOL    HW230180   4.020   2.769   8.291 -2.0717 -2.7047  1.5961
 6241SOL     OW30181   4.573   2.692   4.052  0.2632 -0.0783 -0.2680
 6241SOL    HW130182   4.562   2.612   4.001 -1.4153  0.2283 -0.4048
 6241SOL    HW230183   4.490   2.726   4.019  1.5213  0.8990 -2.4308
 6242SOL     OW30184   4.272   0.897   6.341  0.0043  0.5874 -0.4470
 6242SOL    HW130185   4.319   0.826   6.296 -1.3666 -1.4921  1.4043
 6242SOL    HW230186   4.346   0.944   6.380  0.0299  0.6445 -0.5636
 6243SOL     OW30187   2.221   4.312  10.859  0.2576  0.3365 -0.3664
 6243SOL    HW130188   2.146   4.255  10.879  1.5547 -0.0690  3.3736
 6243SOL    HW230189   2.298   4.274  10.901  0.2253 -0.2850 -0.8620
 6244SOL     OW30190   0.033   0.669   8.022 -0.2992  0.4307  0.3257
 6244SOL    HW130191   0.071   0.757   8.021  0.4558  0.1085  0.6281
 6244SOL    HW230192   0.084   0.631   8.094 -2.2268 -0.4559  1.2184
 6245SOL     OW30193   4.206   2.868  16.840 -0.0906  0.0544  0.0676
 6245SOL    HW130194   4.289   2.867  16.793 -0.0470 -2.9694  0.1770
 6245SOL    HW230195   4.226   2.934  16.907  0.2633 -0.5278  0.5333
 6246SOL     OW30196   4.370   3.967   9.314  0.0479 -0.2519 -0.0671
 6246SOL    HW130197   4.360   4.044   9.369  1.4828 -0.2976  0.2523
 6246SOL    HW230198   4.285   3.923   9.324  0.2579 -1.0527 -1.6936
 6247SOL     OW30199   0.977   3.449  10.288  0.0281  0.3089 -0.3019
 6247SOL    HW130200   0.927   3.463  10.207  1.7394  2.4830 -0.9858
 6247SOL    HW230201   1.067   3.463  10.260 -0.5438 -0.9069 -2.8133
 6248SOL     OW30202   2.318   1.560   8.327  0.0722  0.6451  0.1822
 6248SOL    HW130203   2.377   1.486   8.310  0.8455  1.1927  0.4663
 6248SOL    HW230204   2.387   1.619   8.359 -0.9195  1.5786  0.6079
 6249SOL     OW30205   1.098   3.773   5.673  0.1288  0.0087  0.1353
 6249SOL    HW130206   1.048   3.744   5.597  0.4735 -0.0246 -0.0790
 6249SOL    HW230207   1.107   3.864   5.644  1.6969 -0.8617 -2.0760
 6250SOL     OW30208   4.117   3.861   9.264  0.4636 -0.2097  0.1902
 6250SOL    HW130209   4.069   3.928   9.216  0.6207 -0.3611 -0.1779
 6250SOL    HW230210   4.069   3.779   9.249  3.1491 -1.6106 -0.7248
 6251SOL     OW30211   3.664   3.482   1.704  0.2279  0.1637 -0.0541
 6251SOL    HW130212   3.739   3.500   1.648 -0.0294 -0.6782 -0.6583
 6251SOL    HW230213   3.664   3.387   1.714 -1.0563  0.0759 -0.8625
 6252SOL     OW30214   3.262   0.272   2.125  1.3097 -0.8129  0.1064
 6252SOL    HW130215   3.308   0.333   2.067  0.4972  1.2940  1.6581
 6252SOL    HW230216   3.192   0.243   2.066  0.9128 -0.7184  0.5264
 6253SOL     OW30217   0.273   3.342  17.659 -0.2591  0.1596 -0.3401
 6253SOL    HW130218   0.247   3.352   0.054 -0.7613 -0.2035 -0.4420
 6253SOL    HW230219   0.323   3.423  17.649 -1.4436  1.0484  0.9153
 6254SOL     OW30220   4.441   0.719   2.980 -0.2331  0.4310 -0.0151
 6254SOL    HW130221   4.511   0.781   3.002  0.5393 -0.2186 -0.6400
 6254SOL    HW230222   4.469   0.640   3.026  1.8578  0.4586 -1.2225
 6255SOL     OW30223   1.874   1.800  10.457 -0.0354  0.0638 -0.1832
 6255SOL    HW130224   1.944   1.864  10.456  1.1417 -1.2589 -4.2917
 6255SOL    HW230225   1.876   1.760  10.369  0.3865 -0.9746  0.3010
 6256SOL     OW30226   2.210   1.938   0.754  0.0282  0.0082  0.7449
 6256SOL    HW130227   2.245   1.971   0.837  0.0575 -0.4254  0.9056
 6256SOL    HW230228   2.254   1.854   0.740 -1.6401 -0.5073 -1.3268
 6257SOL     OW30229   0.842   2.298  14.985 -0.4293  0.1684  0.0294
 6257SOL    HW130230   0.822   2.281  14.893 -0.3410 -0.8549  0.2038
 6257SOL    HW230231   0.905   2.227  15.000 -0.0380  0.2915 -1.0513
 6258SOL     OW30232   2.358   0.777   8.806 -0.2516 -0.5431  0.0348
 6258SOL    HW130233   2.290   0.748   8.866 -0.0778 -0.8645  0.0752
 6258SOL    HW230234   2.414   0.701   8.791  1.5189  0.9621 -0.9190
 6259SOL     OW30235   2.068   1.795  10.810 -0.0317  0.1119 -0.2531
 6259SOL    HW130236   2.004   1.818  10.878 -0.1555  1.6917 -0.8985
 6259SOL    HW230237   2.150   1.792  10.859 -0.5366  0.0321  0.5779
 6260SOL     OW30238   1.492   0.670   3.484 -0.2189 -0.0020  0.0242
 6260SOL    HW130239   1.469   0.593   3.432 -0.6393 -0.7347  1.2817
 6260SOL    HW230240   1.575   0.696   3.443 -0.7086 -0.7832 -1.4510
 6261SOL     OW30241   4.653   1.769   2.944  0.0687 -0.3651 -0.0536
 6261SOL    HW130242   4.708   1.847   2.934 -2.0158  1.2028  0.6506
 6261SOL    HW230243   4.572   1.798   2.903  0.8829  1.0574 -0.6919
 6262SOL     OW30244   0.433   4.566  15.241  0.4581  0.6516  0.4960
 6262SOL    HW130245   0.510   4.622  15.253  1.0030  0.4813 -2.2016
 6262SOL    HW230246   0.463   4.490  15.290  0.1652 -0.7065 -1.4272
 6263SOL     OW30247   0.296   2.390   4.325 -0.1218 -0.8599  0.6028
 6263SOL    HW130248   0.217   2.396   4.271 -0.5071  0.6096  1.3448
 6263SOL    HW230249   0.361   2.386   4.254  0.9665 -2.9672  1.7023
 6264SOL     OW30250   4.242   4.345   2.049  0.0798 -0.2840  0.7702
 6264SOL    HW130251   4.247   4.384   2.136  1.0534  2.0851 -0.3398
 6264SOL    HW230252   4.280   4.419   2.000  1.3569 -1.3514  0.1595
 6265SOL     OW30253   1.884   1.058   0.691  0.2090 -0.9724 -0.6185
 6265SOL    HW130254   1.955   0.995   0.696  1.5855  0.5466 -1.0452
 6265SOL    HW230255   1.826   1.024   0.623 -2.0915  1.6205 -0.0054
 6266SOL     OW30256   2.069   2.559   6.331 -0.0044  0.6681 -0.5168
 6266SOL    HW130257   2.109   2.645   6.341  0.9718 -0.2974  4.1242
 6266SOL    HW230258   2.077   2.546   6.237 -0.1027 -3.0004 -0.0336
 6267SOL     OW30259   3.692   0.842   0.490  0.1178 -0.0403  0.0199
 6267SOL    HW130260   3.659   0.809   0.406 -0.3789 -1.0759  0.6246
 6267SOL    HW230261   3.693   0.764   0.546 -1.0967  0.4348  0.7041
 6268SOL     OW30262   1.283   1.892  16.299 -0.4021 -0.1582 -0.4618
 6268SOL    HW130263   1.195   1.900  16.260 -1.2875 -0.6408  1.4165
 6268SOL    HW230264   1.302   1.979  16.331 -0.5476 -0.5666  0.7345
 6269SOL     OW30265   2.248   2.315   6.925  0.4208 -0.3304 -0.4263
 6269SOL    HW130266   2.217   2.368   6.852  0.4888  0.5908  0.2037
 6269SOL    HW230267   2.223   2.226   6.901 -1.6490 -0.4479  2.1509
 6270SOL     OW30268   3.197   0.928   1.911  0.0721  0.1913 -0.2374
 6270SOL    HW130269   3.228   0.927   2.001 -0.0920 -2.7802 -0.2150
 6270SOL    HW230270   3.121   0.987   1.917  0.0872  0.4922 -2.7321
 6271SOL     OW30271   1.585   3.741   1.950 -0.0927 -0.7065  0.4566
 6271SOL    HW130272   1.628   3.657   1.966  0.4994 -0.7114 -1.1915
 6271SOL    HW230273   1.555   3.727   1.860 -0.4709 -2.5056  0.8613
 6272SOL     OW30274   3.656   4.220   8.339  0.5041  0.9142 -0.1778
 6272SOL    HW130275   3.705   4.266   8.407 -0.4605  2.9696 -0.8870
 6272SOL    HW230276   3.701   4.246   8.258  0.3634  1.1044 -0.1928
 6273SOL     OW30277   2.278   1.437   0.419  0.0990  0.7423 -0.7926
 6273SOL    HW130278   2.246   1.368   0.477  1.5074 -0.2134 -1.1725
 6273SOL    HW230279   2.239   1.517   0.456 -2.4489 -0.3720 -1.0775
 6274SOL     OW30280   2.574   2.109   7.717 -0.2878  0.0881  0.1653
 6274SOL    HW130281   2.576   2.052   7.794 -1.5874  0.1298  0.2240
 6274SOL    HW230282   2.619   2.186   7.753  1.1010  0.2272 -1.8834
 6275SOL     OW30283   2.830   4.040   1.819  0.2523 -0.0978  0.2012
 6275SOL    HW130284   2.756   3.988   1.787 -0.3967  2.2404 -2.0649
 6275SOL    HW230285   2.834   4.107   1.751  1.4677  0.0567  0.4193
 6276SOL     OW30286   4.224   2.703   4.845  0.5493 -0.6499 -0.3296
 6276SOL    HW130287   4.148   2.757   4.865 -0.2213 -0.2589 -4.4139
 6276SOL    HW230288   4.253   2.759   4.773  0.4317  0.3065  0.3555
 6277SOL     OW30289   3.628   2.543   3.932  0.3172 -0.4062  0.0184
 6277SOL    HW130290   3.679   2.500   4.000  1.0215 -0.7714 -0.7342
 6277SOL    HW230291   3.571   2.602   3.982 -0.9444 -0.9866 -0.7340
 6278SOL     OW30292   0.048   3.717   4.712 -0.2235 -0.3705 -0.1517
 6278SOL    HW130293   0.009   3.706   4.626 -1.9044  1.5269  0.3637
 6278SOL    HW230294   0.040   3.623   4.730 -3.3471  0.0835  0.7195
 6279SOL     OW30295   0.042   3.393   4.233 -0.9174  0.1070  0.3773
 6279SOL    HW130296   4.707   3.425   4.164 -0.6745 -1.4216 -0.5416
 6279SOL    HW230297   0.120   3.372   4.181  0.3235  0.7039  2.0124
 6280SOL     OW30298   0.839   0.448  16.941  0.2147  0.0396  0.0880
 6280SOL    HW130299   0.833   0.361  16.981 -1.2425 -0.2145 -0.6831
 6280SOL    HW230300   0.933   0.462  16.929  0.0725 -0.6421 -1.7271
 6281SOL     OW30301   2.224   0.060   7.620 -0.2568  0.1492 -0.3470
 6281SOL    HW130302   2.269   0.039   7.702 -0.1944 -1.0335 -0.6911
 6281SOL    HW230303   2.237   0.155   7.614 -1.8486  0.3747 -0.3958
 6282SOL     OW30304   0.109   0.566   4.489 -0.5979 -0.2550  0.3024
 6282SOL    HW130305   0.170   0.495   4.508 -0.8861 -0.6495 -0.2372
 6282SOL    HW230306   0.138   0.632   4.553  0.5543 -0.2865 -0.1981
 6283SOL     OW30307   3.879   0.778   3.318  0.1382 -0.6134 -0.0203
 6283SOL    HW130308   3.803   0.750   3.268  0.1618  0.6877 -0.7863
 6283SOL    HW230309   3.891   0.862   3.273 -1.2001 -0.3629  0.0926
 6284SOL     OW30310   3.273   3.894   4.258  0.5438  0.2668  0.2792
 6284SOL    HW130311   3.190   3.906   4.211 -0.2727  0.0887  1.7011
 6284SOL    HW230312   3.322   3.973   4.235 -0.6115  0.5803 -1.1520
 6285SOL     OW30313   3.705   1.470   7.405  0.3776  0.4568  0.1298
 6285SOL    HW130314   3.655   1.549   7.385  1.8584  1.0809 -1.1715
 6285SOL    HW230315   3.707   1.481   7.500  0.3504  1.1074  0.0590
 6286SOL     OW30316   4.589   1.346   5.543  0.9718 -0.7569  0.1952
 6286SOL    HW130317   4.674   1.389   5.552  0.4462 -0.5250  4.1648
 6286SOL    HW230318   4.562   1.348   5.635  0.3390  0.7737 -0.0242
 6287SOL     OW30319   3.557   3.615   3.230  0.3302  0.6305  0.1072
 6287SOL    HW130320   3.571   3.710   3.227  0.7178  0.6336  2.0994
 6287SOL    HW230321   3.644   3.578   3.242 -0.7034 -1.5700  0.8594
 6288SOL     OW30322   3.545   0.864   6.336  0.2481  0.2502  0.4615
 6288SOL    HW130323   3.624   0.818   6.309 -0.4196 -0.3834 -0.4121
 6288SOL    HW230324   3.581   0.925   6.400 -1.8164 -1.2390  3.0340
 6289SOL     OW30325   1.412   4.186   6.970  0.9265 -0.4287 -0.1180
 6289SOL    HW130326   1.488   4.217   6.921 -0.8185 -0.9164 -3.1195
 6289SOL    HW230327   1.444   4.096   6.966 -1.9781 -1.4435 -0.6785
 6290SOL     OW30328   2.762   3.417   2.409 -0.2751 -0.0670  0.2268
 6290SOL    HW130329   2.721   3.333   2.430 -0.1138  0.0434  0.9745
 6290SOL    HW230330   2.852   3.390   2.427 -0.0383  0.5480 -0.0328
 6291SOL     OW30331   3.066   0.859  15.367 -0.3654 -0.2739 -0.1441
 6291SOL    HW130332   3.107   0.933  15.323 -1.8917  0.4953 -0.2785
 6291SOL    HW230333   2.977   0.859  15.330 -0.5015  1.8123  0.2138
 6292SOL     OW30334   1.713   2.887   2.454 -0.2953  0.1062 -0.4203
 6292SOL    HW130335   1.647   2.918   2.393 -1.1444  0.5242  0.7067
 6292SOL    HW230336   1.779   2.854   2.392  0.4990  0.2966  0.3173
 6293SOL     OW30337   1.014   1.980   9.494  0.4305  0.1880 -0.1669
 6293SOL    HW130338   1.042   2.056   9.442  1.0849 -0.4065 -0.6743
 6293SOL    HW230339   1.024   2.013   9.583  0.9447  0.4987 -0.3420
 6294SOL     OW30340   3.648   1.259  10.175  0.2464 -0.4267  0.2098
 6294SOL    HW130341   3.712   1.307  10.227  0.6612 -1.6596  0.8168
 6294SOL    HW230342   3.661   1.169  10.204  0.2617 -1.4931 -3.0866
 6295SOL     OW30343   1.786   3.434  17.539  0.3676  0.1515  0.7263
 6295SOL    HW130344   1.800   3.471  17.626 -0.7501 -1.3340  1.5193
 6295SOL    HW230345   1.838   3.496  17.487 -0.4029  0.4628  0.3330
 6296SOL     OW30346   3.464   1.282   2.811  0.2944  0.3788 -0.1792
 6296SOL    HW130347   3.397   1.302   2.746  0.4375  0.2902 -0.3536
 6296SOL    HW230348   3.524   1.354   2.790  1.4661 -0.3922  0.5026
 6297SOL     OW30349   2.292   0.605   8.519  0.1287 -0.4930 -0.0558
 6297SOL    HW130350   2.345   0.565   8.587  1.8845  1.6661 -0.1447
 6297SOL    HW230351   2.212   0.625   8.567  0.0419 -1.2649  0.1230
 6298SOL     OW30352   1.479   4.683  13.224 -0.2863  0.4567 -0.2278
 6298SOL    HW130353   1.499   4.608  13.167  1.3422  0.5481  0.2365
 6298SOL    HW230354   1.563   4.712  13.258  0.2618  0.0311 -1.2003
 6299SOL     OW30355   3.293   0.325  13.192  0.6226 -0.7180  0.4861
 6299SOL    HW130356   3.331   0.395  13.139  0.0900 -1.3799 -0.8019
 6299SOL    HW230357   3.374   0.286  13.222  0.0777 -1.8809  0.4522
 6300SOL     OW30358   0.335   2.818  10.361 -0.1771  0.5981 -0.0124
 6300SOL    HW130359   0.320   2.837  10.454 -0.5201  0.8794 -0.1253
 6300SOL    HW230360   0.400   2.887  10.347  1.4392 -1.5249 -2.8479
 6301SOL     OW30361   2.260   2.293   5.166  0.2698 -0.0042 -0.2871
 6301SOL    HW130362   2.194   2.223   5.164  0.4191 -0.1601  0.2808
 6301SOL    HW230363   2.327   2.246   5.217  0.4904  0.0316 -0.5443
 6302SOL     OW30364   1.180   0.341   7.135 -0.2157  0.1970 -0.3696
 6302SOL    HW130365   1.244   0.406   7.107  0.3988 -1.0661 -1.8667
 6302SOL    HW230366   1.234   0.273   7.174 -0.5009 -0.3548 -0.9395
 6303SOL     OW30367   2.231   2.609   9.881 -0.3357 -0.2409  0.4329
 6303SOL    HW130368   2.255   2.564   9.800 -0.9769 -1.2957  0.8174
 6303SOL    HW230369   2.135   2.602   9.880 -0.2167 -1.7827 -0.0757
 6304SOL     OW30370   4.624   1.817   9.688  0.4236  0.1284  0.0461
 6304SOL    HW130371   4.666   1.863   9.615 -0.2372  1.5092  0.5255
 6304SOL    HW230372   4.651   1.879   9.756 -0.4457  1.9046 -1.1986
 6305SOL     OW30373   3.422   3.531   8.198  0.0182 -0.0160 -0.5645
 6305SOL    HW130374   3.409   3.558   8.289 -1.3352  0.4720 -0.8957
 6305SOL    HW230375   3.368   3.453   8.190  0.5145 -0.5595  1.3888
 6306SOL     OW30376   1.307   1.117   5.097  0.2961 -0.3109  0.0864
 6306SOL    HW130377   1.400   1.100   5.106  0.1329 -0.6206  1.1200
 6306SOL    HW230378   1.271   1.115   5.186 -1.7448  0.4610 -0.6994
 6307SOL     OW30379   3.152   1.363  13.293 -0.2811  0.3276 -0.3618
 6307SOL    HW130380   3.070   1.403  13.324 -2.0510 -2.6060 -1.2305
 6307SOL    HW230381   3.133   1.271  13.314 -0.2738  0.7137  1.2937
 6308SOL     OW30382   1.791   0.158   2.778  0.1913 -0.2398 -0.0250
 6308SOL    HW130383   1.843   0.091   2.735  2.3418  0.9617  0.7156
 6308SOL    HW230384   1.849   0.229   2.750  0.9616 -0.3685  1.2624
 6309SOL     OW30385   4.172   0.220   4.191 -0.2930  0.2064  0.3726
 6309SOL    HW130386   4.267   0.216   4.190 -0.3788 -1.4231 -2.4077
 6309SOL    HW230387   4.150   0.177   4.108  2.5996  1.3295 -0.9871
 6310SOL     OW30388   0.161   3.406   4.980 -0.5726 -0.3734 -0.0126
 6310SOL    HW130389   0.243   3.392   5.028 -0.7528 -2.0227 -0.2057
 6310SOL    HW230390   0.159   3.502   4.986 -1.3636 -0.4934  1.7413
 6311SOL     OW30391   3.888   4.614  14.936 -0.1057 -0.0269 -0.3777
 6311SOL    HW130392   3.841   4.677  14.991 -1.4973 -1.6088  0.2678
 6311SOL    HW230393   3.940   4.574  15.006 -0.9926 -0.7853 -0.1547
 6312SOL     OW30394   3.345   4.166   7.906  0.0689  0.0424  0.1709
 6312SOL    HW130395   3.279   4.199   7.967  0.2379  0.5737  0.0689
 6312SOL    HW230396   3.344   4.077   7.941 -0.9503  0.2591  0.6740
 6313SOL     OW30397   4.268   2.246  15.437  0.4993 -0.3958  0.3811
 6313SOL    HW130398   4.251   2.271  15.346  2.0615  0.0705  0.2226
 6313SOL    HW230399   4.290   2.330  15.476  0.9341  0.0111 -0.7483
 6314SOL     OW30400   3.044   0.866   7.728  0.4242 -0.1757 -0.2928
 6314SOL    HW130401   3.057   0.800   7.796 -2.4808 -2.0772 -1.5851
 6314SOL    HW230402   3.134   0.879   7.698  0.4452 -1.0903 -0.6025
 6315SOL     OW30403   2.703   1.454  16.650 -0.6283  0.4293  0.0869
 6315SOL    HW130404   2.627   1.432  16.704 -1.7145  1.0505 -1.1819
 6315SOL    HW230405   2.751   1.506  16.715 -1.7927 -0.9880  2.0798
 6316SOL     OW30406   3.266   3.706   0.036  0.2721  0.2201  0.3523
 6316SOL    HW130407   3.230   3.774  17.676  3.1726  0.7504 -0.8358
 6316SOL    HW230408   3.187   3.688   0.087  1.4684 -2.1136  1.3675
 6317SOL     OW30409   2.027   1.928   7.657 -0.2445  0.0308 -0.1703
 6317SOL    HW130410   1.978   1.876   7.594 -0.2666  0.5865 -0.6119
 6317SOL    HW230411   2.005   1.890   7.742  1.7685  1.9222  1.1935
 6318SOL     OW30412   1.142   2.982   4.838  0.3860 -0.5961  0.5306
 6318SOL    HW130413   1.217   3.025   4.879 -0.2465  0.1256  0.9370
 6318SOL    HW230414   1.108   2.923   4.905  1.0831 -2.4205 -0.7164
 6319SOL     OW30415   0.068   4.024   4.801 -0.0526 -0.2003 -0.2063
 6319SOL    HW130416   0.138   4.055   4.743  1.0519  1.9647  2.3092
 6319SOL    HW230417   4.715   4.075   4.779 -1.0225 -2.2793 -1.6675
 6320SOL     OW30418   0.704   2.250   7.286 -0.4735 -0.1105 -0.1892
 6320SOL    HW130419   0.688   2.164   7.326  0.6189  0.2494  1.0254
 6320SOL    HW230420   0.682   2.224   7.196 -1.2166  1.8051 -0.5624
 6321SOL     OW30421   1.484   0.501  12.586 -0.3522 -0.3928  0.3347
 6321SOL    HW130422   1.404   0.501  12.533 -0.7666  0.2295  0.9708
 6321SOL    HW230423   1.488   0.405  12.587  0.3539 -0.3689 -0.1167
 6322SOL     OW30424   4.002   3.726  13.922  0.2993  0.1490 -0.2704
 6322SOL    HW130425   4.089   3.730  13.882  0.9784  1.5869  1.4021
 6322SOL    HW230426   3.970   3.638  13.900 -0.8171  0.0464  1.7649
 6323SOL     OW30427   0.448   0.601   8.080 -0.3113 -0.0787 -0.1809
 6323SOL    HW130428   0.409   0.524   8.039  1.3645  0.2002 -2.3073
 6323SOL    HW230429   0.521   0.548   8.113 -1.6568 -0.1753  2.6683
 6324SOL     OW30430   0.345   0.854  16.480  0.1801 -0.3369  0.0553
 6324SOL    HW130431   0.388   0.923  16.429  0.1069 -0.1012  0.3102
 6324SOL    HW230432   0.416   0.819  16.533 -1.4147 -1.9775  1.0859
 6325SOL     OW30433   1.611   3.051   7.071 -0.4187 -0.0686  0.1893
 6325SOL    HW130434   1.568   3.134   7.049  1.0250  0.2507 -1.3846
 6325SOL    HW230435   1.639   3.017   6.986  0.9217 -0.6306  0.8615
 6326SOL     OW30436   2.854   0.016   3.639 -0.2224  0.3643  0.1783
 6326SOL    HW130437   2.857   0.052   3.550 -1.2415 -3.1645 -1.2613
 6326SOL    HW230438   2.921   4.672   3.630  0.6912  1.3385 -0.4099
 6327SOL     OW30439   0.342   3.236   2.929  0.0614  0.1503  0.1040
 6327SOL    HW130440   0.267   3.268   2.979  0.2953  2.2737 -0.9340
 6327SOL    HW230441   0.330   3.280   2.846 -0.4787  0.9400  0.6093
 6328SOL     OW30442   0.238   2.529   7.176 -0.4135 -0.2854  0.0796
 6328SOL    HW130443   0.263   2.542   7.267 -3.2867 -0.6636  0.9135
 6328SOL    HW230444   0.153   2.489   7.192 -1.0638  1.1860  0.3540
 6329SOL     OW30445   2.688   0.333   3.671  0.2739  0.0141  0.1380
 6329SOL    HW130446   2.600   0.344   3.633  0.4714 -0.2043 -0.3869
 6329SOL    HW230447   2.735   0.364   3.594 -1.4057  0.5093 -0.7065
 6330SOL     OW30448   3.587   2.574   4.525  0.1300  0.1533 -0.4679
 6330SOL    HW130449   3.493   2.562   4.517  0.2389  0.0869 -1.6442
 6330SOL    HW230450   3.611   2.558   4.434  0.5931  0.2588 -0.3648
 6331SOL     OW30451   2.033   4.106   0.743  0.2833 -0.0045  0.3571
 6331SOL    HW130452   2.097   4.176   0.757  0.2969 -0.0772  0.6676
 6331SOL    HW230453   2.080   4.032   0.782 -1.0141 -0.1491  1.6565
 6332SOL     OW30454   0.228   1.118   5.812  0.0648 -0.2061  1.0278
 6332SOL    HW130455   0.160   1.183   5.823  0.4211  0.5020 -1.1163
 6332SOL    HW230456   0.290   1.161   5.754  2.5843 -0.7021  3.3053
 6333SOL     OW30457   2.577   0.944   0.165  0.0169 -0.4895 -0.7816
 6333SOL    HW130458   2.653   0.994   0.196 -2.6738  1.9773  1.8546
 6333SOL    HW230459   2.545   1.000   0.094  0.0513  0.9384  0.3276
 6334SOL     OW30460   2.315   2.669  13.737 -0.2704 -0.0905  0.3340
 6334SOL    HW130461   2.329   2.577  13.714 -1.7913 -0.6556  1.7060
 6334SOL    HW230462   2.407   2.696  13.747 -0.4151  0.1449  0.9704
 6335SOL     OW30463   1.455   4.434   4.498 -0.0465 -0.5602 -0.1483
 6335SOL    HW130464   1.443   4.517   4.451  1.4122 -1.0111 -1.3190
 6335SOL    HW230465   1.371   4.420   4.541  0.7589 -0.4534  1.4557
 6336SOL     OW30466   0.629   2.891  11.691 -0.1301  0.2251  0.0398
 6336SOL    HW130467   0.668   2.848  11.615 -2.0360 -1.2396 -0.1013
 6336SOL    HW230468   0.669   2.834  11.757  0.3464  0.0105 -0.4280
 6337SOL     OW30469   4.673   2.251   0.408 -0.1719 -0.2920 -0.1351
 6337SOL    HW130470   4.583   2.249   0.376  0.0966  3.5696 -1.0493
 6337SOL    HW230471   4.710   2.324   0.359  2.1308 -1.1367  0.3004
 6338SOL     OW30472   0.373   0.429   2.353 -0.1017 -0.3230 -0.5386
 6338SOL    HW130473   0.312   0.415   2.425  0.7022  0.9271  0.3714
 6338SOL    HW230474   0.433   0.498   2.379 -1.1443  0.1355  0.6452
 6339SOL     OW30475   3.890   1.570  11.085 -0.1184 -0.1357  0.1663
 6339SOL    HW130476   3.859   1.605  11.001  0.1278 -2.0952 -0.7461
 6339SOL    HW230477   3.982   1.593  11.098  0.5148 -1.0873 -2.5250
 6340SOL     OW30478   2.022   2.626  10.874 -0.1576 -0.2645 -0.0588
 6340SOL    HW130479   2.088   2.692  10.854 -1.1646  0.1605 -1.9222
 6340SOL    HW230480   1.958   2.641  10.805  2.7116  1.9146 -2.2841
 6341SOL     OW30481   0.606   3.415   2.924  0.4052  0.2000  0.0889
 6341SOL    HW130482   0.540   3.440   2.860 -0.1892 -1.8057 -0.0884
 6341SOL    HW230483   0.573   3.332   2.960 -0.3508 -0.0638 -1.2354
 6342SOL     OW30484   0.867   1.525   4.938 -0.4454  0.5761 -0.2631
 6342SOL    HW130485   0.956   1.557   4.922  0.4740 -1.7333  0.2829
 6342SOL    HW230486   0.876   1.457   5.004  1.2968  1.1980  0.1481
 6343SOL     OW30487   2.877   0.970   9.242  0.3093  0.0679  0.4765
 6343SOL    HW130488   2.806   1.030   9.264 -0.0140 -0.5709  1.1743
 6343SOL    HW230489   2.844   0.926   9.164  0.5639 -0.2042  0.5210
 6344SOL     OW30490   0.377   3.802   5.197 -0.4258  0.1651 -0.1206
 6344SOL    HW130491   0.405   3.893   5.205 -4.3127  1.4438 -0.7236
 6344SOL    HW230492   0.412   3.775   5.281  0.8147 -1.9665 -1.3062
 6345SOL     OW30493   1.905   3.695   2.816 -0.2405  0.3579 -0.1809
 6345SOL    HW130494   1.918   3.606   2.849  1.6286  0.5563 -0.3940
 6345SOL    HW230495   1.903   3.679   2.721 -1.1509 -1.2287  0.1073
 6346SOL     OW30496   3.928   1.833   3.631 -0.0917  0.0007  0.5473
 6346SOL    HW130497   3.886   1.813   3.714 -1.3220 -2.6790 -0.7065
 6346SOL    HW230498   3.854   1.821   3.571 -0.0251 -4.3620  1.3419
 6347SOL     OW30499   2.880   3.223   0.523  0.0100 -0.2092 -0.2920
 6347SOL    HW130500   2.880   3.241   0.617 -1.0667 -0.0787 -0.3274
 6347SOL    HW230501   2.932   3.295   0.485 -0.6554  0.6000  0.3482
 6348SOL     OW30502   2.247   3.399   1.438  0.1382 -0.2014  0.4489
 6348SOL    HW130503   2.195   3.429   1.364  2.4088  0.3290 -0.9498
 6348SOL    HW230504   2.197   3.440   1.508  1.4610  0.9892  0.6917
 6349SOL     OW30505   1.278   0.883   3.381 -0.1362  0.2170  0.2463
 6349SOL    HW130506   1.326   0.965   3.393  0.9441 -0.5681  1.2529
 6349SOL    HW230507   1.353   0.824   3.376  1.0908  1.8227 -0.3279
 6350SOL     OW30508   3.398   1.159   1.351 -0.6553  0.4196  0.4960
 6350SOL    HW130509   3.491   1.136   1.360 -0.4647  1.6152  1.7040
 6350SOL    HW230510   3.347   1.101   1.406 -0.1269 -2.1199 -1.7092
 6351SOL     OW30511   1.767   1.660   8.661 -0.1159  0.6358 -0.6983
 6351SOL    HW130512   1.797   1.741   8.703  0.1987  0.6231 -0.9008
 6351SOL    HW230513   1.789   1.678   8.569  1.1677  1.3916 -0.2388
 6352SOL     OW30514   4.539   2.692   6.610  0.5420 -0.6570  0.5974
 6352SOL    HW130515   4.543   2.647   6.694  2.4619 -0.9003  0.3671
 6352SOL    HW230516   4.621   2.742   6.617 -0.6861  1.3340  0.9138
 6353SOL     OW30517   2.426   3.056  14.143  0.1199  0.3141  0.2652
 6353SOL    HW130518   2.347   3.107  14.125 -1.3655 -1.6504  1.2442
 6353SOL    HW230519   2.422   2.993  14.071 -0.7660  3.6108 -2.5775
 6354SOL     OW30520   1.925   3.395   4.990  0.7121  0.3675  0.2963
 6354SOL    HW130521   1.838   3.362   5.015  1.5160  1.1213  4.1273
 6354SOL    HW230522   1.972   3.379   5.071 -1.0388 -1.9125  0.8741
 6355SOL     OW30523   0.355   2.006   5.952 -0.4402 -0.0685  0.2116
 6355SOL    HW130524   0.438   2.043   5.982 -0.4148 -1.1937  1.5443
 6355SOL    HW230525   0.369   1.912   5.963 -2.0141 -0.0807  2.2122
 6356SOL     OW30526   3.539   4.204   9.757  0.5395 -0.5048  0.0229
 6356SOL    HW130527   3.487   4.145   9.812  0.2162 -0.8299 -0.6281
 6356SOL    HW230528   3.594   4.142   9.710  0.5492  0.3377 -1.0898
 6357SOL     OW30529   0.142   2.468  11.275  0.5395 -0.4566  0.3863
 6357SOL    HW130530   0.059   2.515  11.286  2.2771  2.9917 -0.9662
 6357SOL    HW230531   0.133   2.380  11.310  2.0002 -0.1529  1.5608
 6358SOL     OW30532   3.044   1.553   3.756 -0.1323 -0.3708  0.4001
 6358SOL    HW130533   3.099   1.496   3.810  1.0896 -0.4292 -0.9008
 6358SOL    HW230534   3.051   1.630   3.811 -0.9119  1.1771 -1.6668
 6359SOL     OW30535   4.461   2.933   7.795 -0.1646  0.2489  0.5295
 6359SOL    HW130536   4.487   2.857   7.847  1.0385  0.1096 -0.2821
 6359SOL    HW230537   4.460   3.010   7.852 -1.3073  0.3122  0.4295
 6360SOL     OW30538   0.990   2.847   7.958  0.0206 -0.1985 -0.0635
 6360SOL    HW130539   1.050   2.866   7.886 -1.5141  2.3728 -0.6407
 6360SOL    HW230540   0.991   2.922   8.017 -0.8994 -0.9594  0.9197
 6361SOL     OW30541   4.157   1.745   8.411  0.0727 -0.0969  0.0636
 6361SOL    HW130542   4.108   1.797   8.348  2.4487  1.7173 -0.2707
 6361SOL    HW230543   4.130   1.654   8.397  2.8620 -1.0224  0.6625
 6362SOL     OW30544   3.431   3.241   2.934 -0.3262 -0.6209  0.0533
 6362SOL    HW130545   3.509   3.271   2.886 -0.5417  1.3867  0.9528
 6362SOL    HW230546   3.362   3.298   2.901  1.9388  0.5075 -2.8308
 6363SOL     OW30547   3.855   3.562   3.229 -0.2074  0.3438  0.6607
 6363SOL    HW130548   3.894   3.581   3.144  1.5377  0.6259  1.5133
 6363SOL    HW230549   3.860   3.648   3.272  0.7684  1.0891 -0.9616
 6364SOL     OW30550   3.332   0.497  10.590  0.9469  0.5339  0.5078
 6364SOL    HW130551   3.359   0.473  10.679  0.2807 -1.5633  0.1497
 6364SOL    HW230552   3.357   0.416  10.546 -1.1914 -0.4454  1.0892
 6365SOL     OW30553   3.926   3.226   2.237 -0.3536 -0.1928 -0.3967
 6365SOL    HW130554   3.845   3.240   2.188  0.1819 -0.2308 -1.2952
 6365SOL    HW230555   3.904   3.230   2.330 -0.0741 -1.4381 -0.2839
 6366SOL     OW30556   1.464   2.142   7.312  0.1997 -0.3870 -0.4195
 6366SOL    HW130557   1.516   2.062   7.320  0.1242 -0.2547  1.4198
 6366SOL    HW230558   1.383   2.114   7.268 -2.2262  2.3333  2.2924
 6367SOL     OW30559   3.340   3.429   0.870 -0.2026  0.0204 -0.1766
 6367SOL    HW130560   3.393   3.446   0.793  0.9726  1.5552  0.9805
 6367SOL    HW230561   3.411   3.422   0.934 -0.2100  0.6957 -0.1010
 6368SOL     OW30562   0.120   3.434   3.710 -0.1743 -0.7600 -0.0277
 6368SOL    HW130563   0.203   3.413   3.668 -0.2741 -0.0828 -0.5575
 6368SOL    HW230564   0.114   3.361   3.771  3.5328 -1.5179 -0.5824
 6369SOL     OW30565   4.398   1.310   3.320 -0.2664  0.4364  0.3036
 6369SOL    HW130566   4.305   1.291   3.321  0.0125 -0.9958 -1.3357
 6369SOL    HW230567   4.399   1.393   3.369 -0.0547  0.3125  0.5107
 6370SOL     OW30568   3.930   0.763   1.677 -0.4506  0.5082  0.1919
 6370SOL    HW130569   3.991   0.786   1.747  1.1695  0.4391 -1.1823
 6370SOL    HW230570   3.978   0.809   1.608 -1.0412 -1.5929 -1.6416
 6371SOL     OW30571   4.086   0.847   2.665 -0.5532  0.0308 -0.1712
 6371SOL    HW130572   4.159   0.851   2.727 -0.6830  3.6513 -0.2854
 6371SOL    HW230573   4.024   0.802   2.722 -2.2022  0.3246 -1.7379
 6372SOL     OW30574   3.079   3.867   6.505  0.2344 -0.0125  0.5705
 6372SOL    HW130575   3.158   3.864   6.451 -0.2698 -0.8519 -0.1164
 6372SOL    HW230576   3.074   3.962   6.512 -1.9003 -0.1086  0.3745
 6373SOL     OW30577   1.230   2.956   3.768  0.2428 -0.9077 -0.1432
 6373SOL    HW130578   1.239   3.033   3.711 -1.0826 -0.9972 -0.4634
 6373SOL    HW230579   1.249   2.994   3.854 -0.5473  2.4881 -1.4317
 6374SOL     OW30580   3.360   1.125   3.304  0.3550 -0.3932 -0.1450
 6374SOL    HW130581   3.410   1.175   3.241 -0.9991  1.6350  0.3865
 6374SOL    HW230582   3.307   1.074   3.243  0.4283  0.1832 -0.6853
 6375SOL     OW30583   3.009   0.250   1.496  0.1788 -0.0942 -0.4737
 6375SOL    HW130584   2.951   0.232   1.570 -2.0816  3.2651 -1.4261
 6375SOL    HW230585   3.045   0.163   1.478 -2.8519 -1.2270 -0.9263
 6376SOL     OW30586   2.096   2.935   2.423 -0.1046  0.6294 -0.2799
 6376SOL    HW130587   2.170   2.952   2.481  0.5655 -0.4186 -0.8217
 6376SOL    HW230588   2.048   2.892   2.493 -0.3264 -0.8305 -1.3247
 6377SOL     OW30589   2.036   2.938   2.855 -0.2453  0.7282 -0.4651
 6377SOL    HW130590   2.011   2.864   2.799  0.0388 -0.8765  1.5268
 6377SOL    HW230591   2.124   2.909   2.880 -1.4192 -1.2304  1.4427
 6378SOL     OW30592   2.022   0.253   9.320 -0.2988  0.2237 -0.0172
 6378SOL    HW130593   1.958   0.306   9.368 -0.7920 -1.4963  1.2264
 6378SOL    HW230594   2.008   0.165   9.355  0.0053 -0.7618 -2.4375
 6379SOL     OW30595   3.729   2.732   4.197 -0.0402 -0.4854  0.0081
 6379SOL    HW130596   3.824   2.734   4.180  0.1619 -0.4459  1.1575
 6379SOL    HW230597   3.703   2.640   4.201  0.9133 -0.6965  1.5674
 6380SOL     OW30598   4.057   2.842  16.403  0.6066 -0.5378  0.4463
 6380SOL    HW130599   4.145   2.874  16.426  0.9938 -0.4203 -1.2298
 6380SOL    HW230600   4.018   2.839  16.490 -1.0374  0.9775 -0.2398
 6381SOL     OW30601   0.276   4.138   7.853 -0.1706  0.5480 -0.5615
 6381SOL    HW130602   0.182   4.118   7.856 -0.3503  1.1769 -2.2642
 6381SOL    HW230603   0.274   4.221   7.805  1.2261  2.3675  2.4893
 6382SOL     OW30604   0.169   3.294   8.810 -0.3910  0.2442  0.1148
 6382SOL    HW130605   0.110   3.307   8.736 -1.2642 -0.0285  0.7577
 6382SOL    HW230606   0.136   3.350   8.881  0.1455 -1.7553  1.9465
 6383SOL     OW30607   3.043   1.242   3.282 -0.2201 -0.3205  0.4522
 6383SOL    HW130608   2.950   1.224   3.297 -0.1278  0.1962  1.6776
 6383SOL    HW230609   3.043   1.317   3.222 -0.9158 -2.2343 -1.9265
 6384SOL     OW30610   4.336   1.819  13.548  0.2444 -0.1598  0.3705
 6384SOL    HW130611   4.373   1.892  13.597 -2.3234  1.1763  0.3111
 6384SOL    HW230612   4.260   1.851  13.499  0.8173  1.3822  0.5035
 6385SOL     OW30613   0.396   2.496  11.352  0.0434 -0.0286  0.3805
 6385SOL    HW130614   0.310   2.484  11.311 -0.8336  0.8703  1.9682
 6385SOL    HW230615   0.412   2.589  11.337  1.9515 -0.6415 -1.3017
 6386SOL     OW30616   4.118   1.205   4.004  0.5174 -0.2500  0.2448
 6386SOL    HW130617   4.121   1.261   3.926 -1.9142 -0.3643  0.0830
 6386SOL    HW230618   4.034   1.162   3.989  1.5762 -2.0773 -0.3343
 6387SOL     OW30619   2.189   3.209   2.034  0.0438 -0.2933  0.3165
 6387SOL    HW130620   2.137   3.288   2.047  2.2231  0.9327  1.6363
 6387SOL    HW230621   2.215   3.190   2.124  1.7698  1.3180  0.1687
 6388SOL     OW30622   4.338   2.118   8.671 -0.0928 -0.4323 -0.3208
 6388SOL    HW130623   4.314   2.087   8.758  0.9743  1.6441  0.7136
 6388SOL    HW230624   4.347   2.211   8.693  2.0381 -0.7666  0.2721
 6389SOL     OW30625   2.446   3.784   2.334  0.3563 -0.3194  0.1398
 6389SOL    HW130626   2.486   3.748   2.255  0.8300 -1.7181  1.0155
 6389SOL    HW230627   2.495   3.721   2.387 -0.5867 -0.4493  0.8605
 6390SOL     OW30628   4.595   1.645   4.941  0.2315  0.0554 -0.0637
 6390SOL    HW130629   4.561   1.734   4.930 -0.5558 -0.0630  1.4014
 6390SOL    HW230630   4.556   1.615   5.023  1.7761  1.2051  1.0986
 6391SOL     OW30631   1.785   3.419   0.722  0.0258  0.4833 -0.0691
 6391SOL    HW130632   1.829   3.359   0.661  1.0759  0.4234  0.7358
 6391SOL    HW230633   1.862   3.470   0.747  1.4865 -0.2937 -3.0661
 6392SOL     OW30634   0.822   4.401   7.000  0.8751  0.1385 -0.5741
 6392SOL    HW130635   0.822   4.343   7.076  0.5216  1.5747  0.5264
 6392SOL    HW230636   0.915   4.422   7.006  1.1843 -0.6570 -2.7180
 6393SOL     OW30637   0.539   2.898   5.005  0.0346 -0.1917 -0.3864
 6393SOL    HW130638   0.505   2.922   4.919  1.5368 -2.3500 -1.5800
 6393SOL    HW230639   0.504   2.809   5.001 -1.2624  0.2888  0.3135
 6394SOL     OW30640   3.502   0.727   9.368 -0.1269  0.0004  0.1714
 6394SOL    HW130641   3.452   0.781   9.429 -0.8627  2.1769 -2.3175
 6394SOL    HW230642   3.438   0.717   9.297 -0.4053  1.3564  0.2200
 6395SOL     OW30643   4.545   0.166   8.855  0.4498 -0.6401  0.9803
 6395SOL    HW130644   4.452   0.144   8.857  0.6572 -1.8631 -2.3738
 6395SOL    HW230645   4.553   0.206   8.942 -2.4000  0.1640  0.8915
 6396SOL     OW30646   2.729   0.511   5.421 -0.0716  0.5200 -0.6174
 6396SOL    HW130647   2.642   0.551   5.429 -1.2692 -2.5380  1.3048
 6396SOL    HW230648   2.711   0.418   5.430  1.9403  0.1113 -0.9089
 6397SOL     OW30649   1.388   4.338   9.299  0.2807  0.1815 -0.0502
 6397SOL    HW130650   1.455   4.380   9.353  1.4460  1.0160 -2.1250
 6397SOL    HW230651   1.346   4.281   9.363  0.5881 -0.2260 -0.2085
 6398SOL     OW30652   0.213   0.723   8.237 -0.3165  0.2401  0.4304
 6398SOL    HW130653   0.184   0.814   8.230 -0.2652  0.2282  0.0420
 6398SOL    HW230654   0.288   0.730   8.178  1.1455 -3.1240  1.9322
 6399SOL     OW30655   0.036   1.507   2.977 -0.5061 -0.2413 -0.4120
 6399SOL    HW130656   4.715   1.592   2.976  0.0985  0.0551 -3.5706
 6399SOL    HW230657   4.717   1.458   3.047  0.8735 -1.6029 -0.5033
 6400SOL     OW30658   0.174   3.843   6.961 -0.7180 -0.0384 -0.3824
 6400SOL    HW130659   0.254   3.791   6.953 -0.3221  0.3714  0.8518
 6400SOL    HW230660   0.194   3.901   6.888 -1.4107  1.2420  0.4547
 6401SOL     OW30661   2.144   3.871   8.765  0.5176  0.0938 -0.1341
 6401SOL    HW130662   2.129   3.883   8.671  0.0542 -1.2678 -0.2441
 6401SOL    HW230663   2.209   3.800   8.761 -0.9024 -1.1677 -0.8169
 6402SOL     OW30664   3.565   0.208   6.383  0.1692 -0.4552  0.3229
 6402SOL    HW130665   3.525   0.207   6.470 -0.1432 -1.6463  0.1650
 6402SOL    HW230666   3.648   0.166   6.405  1.0738  0.7107 -0.8714
 6403SOL     OW30667   1.903   3.178   6.314  0.8048  0.0640 -0.4555
 6403SOL    HW130668   1.981   3.207   6.361 -0.1550  1.1479  0.4750
 6403SOL    HW230669   1.866   3.266   6.325 -0.7283 -0.4951 -1.2727
 6404SOL     OW30670   4.423   4.110  15.856 -0.0524 -0.2684  0.0071
 6404SOL    HW130671   4.383   4.162  15.925 -0.1116 -2.5867  1.7366
 6404SOL    HW230672   4.372   4.029  15.853  1.1503 -1.0636  0.9583
 6405SOL     OW30673   4.066   2.718   7.511 -0.0800 -0.1259 -0.7261
 6405SOL    HW130674   3.980   2.752   7.536 -0.1538 -2.1960  1.7828
 6405SOL    HW230675   4.125   2.768   7.568  0.9445  0.8557 -2.6370
 6406SOL     OW30676   3.477   0.821  12.462 -0.0626 -0.3514 -0.7095
 6406SOL    HW130677   3.462   0.869  12.543  0.2146 -2.1220  0.4065
 6406SOL    HW230678   3.483   0.901  12.411 -1.1809  1.3522  1.8226
 6407SOL     OW30679   4.384   2.233   0.686 -0.0069 -1.0146  0.4034
 6407SOL    HW130680   4.331   2.175   0.631 -0.0983 -2.2463  1.7963
 6407SOL    HW230681   4.451   2.181   0.728  1.4986  2.0652  1.8416
 6408SOL     OW30682   0.563   0.927  15.246 -0.0522 -0.0036 -0.2645
 6408SOL    HW130683   0.535   0.951  15.158  0.6636  0.0738 -0.4743
 6408SOL    HW230684   0.645   0.977  15.244 -0.5471  0.7134 -2.2954
 6409SOL     OW30685   2.626   2.562   8.510  0.3469 -0.5658  0.1726
 6409SOL    HW130686   2.691   2.620   8.550 -0.8213  1.2311 -0.5615
 6409SOL    HW230687   2.653   2.553   8.418  1.9932  0.5903  0.5277
 6410SOL     OW30688   2.479   1.764  16.849  0.3500  0.0636  0.0625
 6410SOL    HW130689   2.497   1.710  16.926  0.5329 -2.9174 -2.0665
 6410SOL    HW230690   2.568   1.792  16.826 -0.3479 -0.1867 -2.9515
 6411SOL     OW30691   1.499   2.449   4.120  0.3861 -0.0479 -0.2125
 6411SOL    HW130692   1.473   2.506   4.192 -5.5555 -1.9635 -0.8220
 6411SOL    HW230693   1.433   2.463   4.052 -2.0620  1.1842  2.4183
 6412SOL     OW30694   0.653   0.006  15.333 -0.7753 -0.1937  0.3830
 6412SOL    HW130695   0.612   0.019  15.419  0.2766  0.9719  0.6993
 6412SOL    HW230696   0.706   0.085  15.329 -2.5734  0.9659 -0.3564
 6413SOL     OW30697   2.992   4.494  12.849  0.3511  0.4657 -0.3471
 6413SOL    HW130698   3.033   4.425  12.796 -2.8905 -2.4374  0.8951
 6413SOL    HW230699   2.910   4.514  12.804 -0.4848 -0.6268  0.6775
 6414SOL     OW30700   3.576   3.942   2.296 -0.2504 -0.5223  0.4818
 6414SOL    HW130701   3.597   3.987   2.378  0.1974  2.0859 -1.0593
 6414SOL    HW230702   3.481   3.947   2.286 -0.0503  2.7109  0.0006
 6415SOL     OW30703   1.333   4.153  13.280  0.0029  0.5169 -0.3855
 6415SOL    HW130704   1.311   4.209  13.355  0.9352 -1.8324  1.6466
 6415SOL    HW230705   1.246   4.156  13.241  0.4069 -0.2464 -1.3525
 6416SOL     OW30706   4.470   3.232   9.922 -0.1192  0.2510  0.2096
 6416SOL    HW130707   4.394   3.249   9.978 -0.3347  3.3655 -1.0542
 6416SOL    HW230708   4.538   3.237   9.990 -1.0315 -0.3176  1.1692
 6417SOL     OW30709   1.403   0.504  13.354  0.2268 -0.2877  0.0725
 6417SOL    HW130710   1.464   0.448  13.306 -1.0027 -1.1314 -0.5205
 6417SOL    HW230711   1.355   0.544  13.281 -1.7719 -0.7766  1.1048
 6418SOL     OW30712   2.509   1.305   8.233  0.5745 -0.7312  0.3119
 6418SOL    HW130713   2.572   1.314   8.304 -0.3934  1.5075  0.8910
 6418SOL    HW230714   2.548   1.376   8.181 -0.4465  0.9472  1.8553
 6419SOL     OW30715   4.535   2.761   8.014  0.4230  0.5570 -0.1571
 6419SOL    HW130716   4.523   2.736   8.106  0.3448 -2.9976 -1.1470
 6419SOL    HW230717   4.598   2.834   8.017  0.1580  0.7842 -0.1232
 6420SOL     OW30718   3.552   3.093   2.512  0.9764  0.5677  0.0857
 6420SOL    HW130719   3.469   3.138   2.529  0.1977 -0.0722 -2.0272
 6420SOL    HW230720   3.611   3.163   2.540 -0.2700  1.5030  0.3927
 6421SOL     OW30721   2.852   2.949   2.332  0.0669 -0.6356  0.3707
 6421SOL    HW130722   2.934   2.910   2.362 -0.5184 -1.1409  1.2948
 6421SOL    HW230723   2.787   2.879   2.334 -0.6745  0.0088 -1.5103
 6422SOL     OW30724   0.130   2.396   2.311  0.0394 -0.1991 -0.9459
 6422SOL    HW130725   0.136   2.412   2.405 -1.5211 -0.0990 -0.8750
 6422SOL    HW230726   0.193   2.460   2.278  2.3075 -2.7067 -1.4770
 6423SOL     OW30727   4.688   1.512   3.390  0.2765  0.1938  0.3506
 6423SOL    HW130728   4.700   1.573   3.317 -1.5056  1.4834  1.1383
 6423SOL    HW230729   0.029   1.446   3.365  1.0740  0.5386  1.4862
 6424SOL     OW30730   1.409   4.561  16.128  0.0648  0.5507 -0.7020
 6424SOL    HW130731   1.432   4.649  16.098  2.7626 -0.9967 -3.1161
 6424SOL    HW230732   1.469   4.557  16.202  0.4850 -0.1508 -1.0868
 6425SOL     OW30733   0.898   0.315   6.982  0.1344 -0.2660  0.3867
 6425SOL    HW130734   0.970   0.296   7.043 -1.0791 -1.5671  1.4141
 6425SOL    HW230735   0.885   0.409   6.999 -0.4388 -0.5869  1.7403
 6426SOL     OW30736   0.432   2.585   5.868 -0.4297  0.0431 -0.1184
 6426SOL    HW130737   0.367   2.567   5.936 -0.0987 -0.3332  0.1029
 6426SOL    HW230738   0.512   2.551   5.910  0.5219  0.8221 -1.3025
 6427SOL     OW30739   0.798   2.281   5.042  0.0719 -0.0227 -0.3053
 6427SOL    HW130740   0.868   2.250   5.100  0.0553  1.0932  0.2980
 6427SOL    HW230741   0.828   2.259   4.954 -1.5943 -2.7538 -0.2057
 6428SOL     OW30742   2.506   2.251  16.422  0.4079 -0.1874  0.1797
 6428SOL    HW130743   2.421   2.285  16.449 -0.3112 -1.3459 -0.6116
 6428SOL    HW230744   2.485   2.190  16.351 -0.4453  1.2500 -0.7842
 6429SOL     OW30745   2.547   3.842  11.845 -0.0207 -0.1340  0.1974
 6429SOL    HW130746   2.566   3.767  11.900 -0.4818 -0.3392  0.0764
 6429SOL    HW230747   2.455   3.861  11.863  0.4527  0.6898  1.7253
 6430SOL     OW30748   3.767   1.805   0.743  0.0457 -0.1939  0.3256
 6430SOL    HW130749   3.734   1.890   0.771 -0.1254 -0.1606  0.0261
 6430SOL    HW230750   3.777   1.837   0.653 -1.1395  0.5491  0.4540
 6431SOL     OW30751   1.927   1.399   4.236  0.4863  0.3040  0.0122
 6431SOL    HW130752   1.849   1.347   4.215  0.3701  0.9400 -1.1347
 6431SOL    HW230753   1.974   1.335   4.289 -0.7562 -0.2433  0.4700
 6432SOL     OW30754   4.028   4.299   3.341  0.2173  0.3045 -0.3903
 6432SOL    HW130755   4.087   4.236   3.299  0.9944  1.5709 -1.2123
 6432SOL    HW230756   4.084   4.333   3.411  0.7639  1.6871 -1.4926
 6433SOL     OW30757   2.403   4.077  10.806 -0.1267 -0.3357 -0.4793
 6433SOL    HW130758   2.421   4.047  10.895 -1.8070  1.3614  0.4576
 6433SOL    HW230759   2.475   4.042  10.754  1.0047  0.3577  0.6174
 6434SOL     OW30760   3.470   3.316   7.447  0.7559  0.2541 -0.1012
 6434SOL    HW130761   3.528   3.304   7.522 -1.3577 -2.7961  1.0652
 6434SOL    HW230762   3.502   3.395   7.404 -2.4095  1.1123 -0.8711
 6435SOL     OW30763   4.531   1.926   1.398  0.3311 -0.3373 -0.1405
 6435SOL    HW130764   4.573   1.921   1.312  0.2880 -4.9226  0.1068
 6435SOL    HW230765   4.549   1.837   1.429  2.3325  0.6560  1.6005
 6436SOL     OW30766   4.048   3.079   0.603  0.0602  0.1803 -0.5704
 6436SOL    HW130767   3.983   3.090   0.672 -0.3104 -1.4730 -0.6604
 6436SOL    HW230768   4.056   3.172   0.580 -1.5006  0.9354  2.0211
 6437SOL     OW30769   2.710   3.798   5.198  0.5162  0.0317 -0.0540
 6437SOL    HW130770   2.663   3.775   5.278  1.2531 -1.0492  0.0686
 6437SOL    HW230771   2.787   3.743   5.215  0.1140  0.0231  1.6955
 6438SOL     OW30772   3.033   3.953   4.105  0.0811 -0.0943 -0.0425
 6438SOL    HW130773   3.061   4.037   4.068  0.3271  0.9981  2.6051
 6438SOL    HW230774   2.989   3.990   4.181 -3.1822 -2.3058 -0.8716
 6439SOL     OW30775   0.100   2.384   4.102  0.0407 -0.1242 -0.3125
 6439SOL    HW130776   0.032   2.338   4.151  1.6084 -0.6746  1.3771
 6439SOL    HW230777   0.136   2.313   4.049  0.3023  0.3062 -0.7092
 6440SOL     OW30778   2.619   4.603   6.835 -0.2565 -0.1444 -0.5185
 6440SOL    HW130779   2.639   4.552   6.756 -1.0097 -0.0266 -0.7863
 6440SOL    HW230780   2.632   4.692   6.802 -0.5568  0.0022 -0.2426
 6441SOL     OW30781   1.212   4.593  16.397  0.0277 -0.4582 -0.1602
 6441SOL    HW130782   1.303   4.617  16.381 -0.6109  1.5919 -0.6870
 6441SOL    HW230783   1.214   4.506  16.356  0.4175 -0.7104  0.3973
 6442SOL     OW30784   3.144   1.552  12.366  0.3917 -0.1241  0.3611
 6442SOL    HW130785   3.153   1.619  12.434 -2.5520 -1.2911  1.9263
 6442SOL    HW230786   3.098   1.479  12.407  1.0388  0.2860  1.8238
 6443SOL     OW30787   1.994   2.398  16.709  0.3109 -0.0759  0.2703
 6443SOL    HW130788   2.027   2.424  16.795  1.4933  1.7490 -0.7452
 6443SOL    HW230789   2.064   2.336  16.688  1.7361  1.3943  0.7180
 6444SOL     OW30790   2.035   4.521   7.407 -0.1743  0.4382  0.3096
 6444SOL    HW130791   2.037   4.450   7.471  0.3951  0.4795  0.3367
 6444SOL    HW230792   1.977   4.587   7.444 -0.1016  0.6281  0.0864
 6445SOL     OW30793   4.418   0.459   0.060 -0.2925 -0.0557 -0.2407
 6445SOL    HW130794   4.475   0.387   0.033  0.9378  0.4888  0.9016
 6445SOL    HW230795   4.343   0.399   0.065  1.3558 -2.0656  0.3739
 6446SOL     OW30796   4.180   2.612   0.678 -0.1476 -0.2331 -0.2214
 6446SOL    HW130797   4.098   2.656   0.657  0.3497 -0.4319 -2.5664
 6446SOL    HW230798   4.205   2.574   0.594 -0.0714 -0.0104 -0.2976
 6447SOL     OW30799   3.859   3.016  15.514  0.0487  0.2007  0.2940
 6447SOL    HW130800   3.836   3.106  15.492 -1.4461  0.3483  2.5000
 6447SOL    HW230801   3.786   2.994  15.571  0.8471  0.6895  1.5061
 6448SOL     OW30802   0.026   1.323   1.101 -1.4633 -0.1517  0.4453
 6448SOL    HW130803   0.036   1.232   1.074 -0.5306  0.1138 -0.0939
 6448SOL    HW230804   4.702   1.322   1.185  1.4174 -0.3483  2.0750
 6449SOL     OW30805   2.842   3.577   8.783  0.1594  0.2816  0.4576
 6449SOL    HW130806   2.925   3.597   8.824 -0.5168  1.8203  1.0649
 6449SOL    HW230807   2.852   3.484   8.763  2.8149  0.5537  0.5581
 6450SOL     OW30808   3.615   2.693   8.237  0.0680 -0.1571  0.3772
 6450SOL    HW130809   3.607   2.787   8.227 -0.0140 -0.3682 -1.4814
 6450SOL    HW230810   3.683   2.673   8.173 -0.8134  1.7693 -1.1681
 6451SOL     OW30811   1.314   2.764   3.603  0.2445  0.0464 -0.4222
 6451SOL    HW130812   1.269   2.832   3.653  0.2129 -0.2311 -0.0761
 6451SOL    HW230813   1.397   2.806   3.581  0.4828 -0.3554 -0.2843
 6452SOL     OW30814   1.132   2.075   5.657  0.0368  0.8596 -0.1227
 6452SOL    HW130815   1.223   2.048   5.641  0.4858  2.0426  0.4047
 6452SOL    HW230816   1.085   2.027   5.589 -0.0258 -0.5363  0.9239
 6453SOL     OW30817   1.643   1.810   8.210 -0.8937  0.5859  0.3007
 6453SOL    HW130818   1.564   1.815   8.157 -1.0468  0.5818  0.5286
 6453SOL    HW230819   1.671   1.721   8.189  0.0133  1.3424 -1.6820
 6454SOL     OW30820   1.690   3.263   2.475 -0.7198  0.1918 -0.1495
 6454SOL    HW130821   1.624   3.272   2.406 -0.1774 -0.1365 -0.7114
 6454SOL    HW230822   1.630   3.223   2.539 -0.8569 -0.2460 -0.5497
 6455SOL     OW30823   2.606   1.464   3.762  0.3613 -0.0011  0.0431
 6455SOL    HW130824   2.689   1.417   3.749 -0.8060 -2.4517  1.4898
 6455SOL    HW230825   2.628   1.547   3.720  4.1123 -1.6301 -1.2368
 6456SOL     OW30826   0.475   4.337   5.141  0.1653  0.1751  0.2166
 6456SOL    HW130827   0.395   4.364   5.186 -0.7867  0.4991 -1.6843
 6456SOL    HW230828   0.502   4.415   5.093 -1.0954 -0.4834 -1.5354
 6457SOL     OW30829   1.052   1.110   4.944 -0.2024 -0.7020  0.1530
 6457SOL    HW130830   1.121   1.060   4.988  0.2341 -1.4845 -1.3844
 6457SOL    HW230831   1.010   1.167   5.008 -0.4968  0.7782 -1.3573
 6458SOL     OW30832   2.724   0.026   8.184 -0.3522  0.1228 -0.2730
 6458SOL    HW130833   2.731   4.670   8.132  0.6610 -0.7548  1.1993
 6458SOL    HW230834   2.645   0.061   8.144  0.0157  1.0414 -0.2136
 6459SOL     OW30835   4.456   3.486   4.331  0.0374  0.0706  0.3367
 6459SOL    HW130836   4.507   3.567   4.333 -0.2722  0.2637  0.4041
 6459SOL    HW230837   4.473   3.448   4.418  0.3610  0.4181  0.4273
 6460SOL     OW30838   0.826   4.278  14.078 -0.6381 -0.1961 -0.3127
 6460SOL    HW130839   0.735   4.304  14.098 -0.6699 -1.8936  1.7550
 6460SOL    HW230840   0.806   4.223  14.003  0.4440  1.8242 -2.0786
 6461SOL     OW30841   2.259   2.677   1.090  0.0794  0.0840 -0.2186
 6461SOL    HW130842   2.237   2.694   1.181 -0.2809  0.0416 -0.2983
 6461SOL    HW230843   2.191   2.722   1.040  0.2420  0.4983 -0.0658
 6462SOL     OW30844   2.327   2.743   0.736 -0.3717  0.0970  0.5813
 6462SOL    HW130845   2.379   2.770   0.812  0.9714  0.7229 -0.5568
 6462SOL    HW230846   2.353   2.651   0.744 -1.0614 -0.2231 -0.8307
 6463SOL     OW30847   1.925   1.863   8.772  0.1135 -0.4551  0.4383
 6463SOL    HW130848   1.916   1.832   8.862 -0.7812 -0.4971  0.3401
 6463SOL    HW230849   2.013   1.899   8.774  0.0583 -0.2738 -0.4728
 6464SOL     OW30850   3.630   1.332  16.473 -0.0661  0.1043 -0.0507
 6464SOL    HW130851   3.669   1.413  16.441  0.7521  0.8741  2.8436
 6464SOL    HW230852   3.556   1.322  16.413  1.1195 -0.9354 -1.3253
 6465SOL     OW30853   4.717   1.425   6.569  0.4427  0.0767  0.5994
 6465SOL    HW130854   0.010   1.410   6.662 -0.7297 -1.4548  0.5760
 6465SOL    HW230855   0.054   1.363   6.528 -2.4916 -1.5141 -1.3378
 6466SOL     OW30856   2.373   3.738   8.760 -0.3710  0.1674  0.3109
 6466SOL    HW130857   2.433   3.718   8.831  0.3503 -1.3398 -0.7237
 6466SOL    HW230858   2.431   3.772   8.692 -2.5533  0.8813 -1.2130
 6467SOL     OW30859   2.245   0.077  15.379 -0.5123  0.3165 -0.1529
 6467SOL    HW130860   2.324   0.128  15.393 -0.1586 -0.4142  0.5310
 6467SOL    HW230861   2.200   0.129  15.445 -1.7763 -1.5580  0.4915
 6468SOL     OW30862   4.608   1.592   3.912  0.1258  0.4603  0.0794
 6468SOL    HW130863   4.663   1.543   3.851  0.1505 -0.5263  0.9000
 6468SOL    HW230864   4.572   1.663   3.859 -1.3664  1.2483  2.1493
 6469SOL     OW30865   1.758   0.554   3.320  0.5703 -0.5270 -0.3569
 6469SOL    HW130866   1.748   0.641   3.359  2.4318 -0.6838  0.5005
 6469SOL    HW230867   1.854   0.549   3.319  0.7171  1.6573  1.0264
 6470SOL     OW30868   0.668   0.004   7.342 -0.2239  0.2820 -0.1149
 6470SOL    HW130869   0.741   4.717   7.402 -1.8666  0.2745  1.8978
 6470SOL    HW230870   0.651   4.639   7.309  1.7885 -0.1637  0.0759
 6471SOL     OW30871   4.246   1.210   2.294 -0.1990  0.7774 -0.0664
 6471SOL    HW130872   4.168   1.220   2.349 -1.0578  0.7762 -1.2799
 6471SOL    HW230873   4.252   1.115   2.282 -2.0466  0.5780  0.5108
 6472SOL     OW30874   1.111   1.220   4.307  0.0337 -0.0732 -0.8802
 6472SOL    HW130875   1.134   1.236   4.216  1.2645  0.8281 -0.4196
 6472SOL    HW230876   1.043   1.154   4.299 -0.9823  0.8397  0.2355
 6473SOL     OW30877   2.616   3.579   2.201 -0.5664 -0.1419  0.1116
 6473SOL    HW130878   2.571   3.494   2.201 -1.7075  0.4555 -1.0159
 6473SOL    HW230879   2.702   3.551   2.232  0.1758  0.2264 -1.5958
 6474SOL     OW30880   2.217   0.698  14.286 -0.2685 -0.3520 -0.1196
 6474SOL    HW130881   2.269   0.687  14.206  1.8275 -1.5088  1.4055
 6474SOL    HW230882   2.147   0.633  14.277 -0.9547  0.5374 -1.2340
 6475SOL     OW30883   2.487   4.503   8.225  0.4823  0.4502 -0.7317
 6475SOL    HW130884   2.473   4.416   8.187 -1.9984  0.2672  0.5981
 6475SOL    HW230885   2.514   4.547   8.144  1.9681 -1.3060 -1.1926
 6476SOL     OW30886   3.638   2.436   3.100 -0.0622 -0.1603 -0.2953
 6476SOL    HW130887   3.580   2.412   3.172  0.6917  0.9035  0.6534
 6476SOL    HW230888   3.713   2.379   3.114 -0.4793 -0.7805 -0.6074
 6477SOL     OW30889   4.371   2.796  17.570  0.5090  0.9134  1.0888
 6477SOL    HW130890   4.450   2.743  17.557 -1.0024 -0.7877 -1.0693
 6477SOL    HW230891   4.378   2.807  17.664 -2.7503 -0.7835  1.4994
 6478SOL     OW30892   1.006   3.816   8.426  0.0060 -0.2698 -0.2809
 6478SOL    HW130893   0.957   3.898   8.427 -1.3733 -1.0973  1.0816
 6478SOL    HW230894   0.958   3.766   8.493  0.5964  0.7579  0.9181
 6479SOL     OW30895   0.445   0.862  10.998  0.1509 -0.1897 -0.4767
 6479SOL    HW130896   0.485   0.904  10.921  1.1642  0.2524  0.2878
 6479SOL    HW230897   0.362   0.909  10.988  0.0798 -0.0396  0.8591
 6480SOL     OW30898   2.875   4.045   6.952  0.6319  0.1715  0.1032
 6480SOL    HW130899   2.833   4.094   7.022 -2.3150  0.7044 -2.0195
 6480SOL    HW230900   2.897   4.115   6.890  0.7630 -1.2606 -1.4662
 6481SOL     OW30901   0.518   2.904   2.745 -0.4198  0.3778  0.2573
 6481SOL    HW130902   0.573   2.982   2.748 -0.1046  0.1172  1.2406
 6481SOL    HW230903   0.471   2.917   2.828 -0.4954  0.9393  0.1301
 6482SOL     OW30904   0.491   1.747   1.810  0.3171 -0.2284  0.0845
 6482SOL    HW130905   0.434   1.678   1.776  0.4971 -0.1834 -0.3094
 6482SOL    HW230906   0.521   1.787   1.728 -0.3398  1.4635  0.6919
 6483SOL     OW30907   4.002   1.136   9.601  0.1758  0.2505 -0.9442
 6483SOL    HW130908   3.912   1.162   9.583 -0.3120  0.3712  1.6034
 6483SOL    HW230909   4.007   1.134   9.697 -0.9839  1.9754 -0.8487
 6484SOL     OW30910   4.385   2.215   7.480 -0.3144  0.8961 -0.1329
 6484SOL    HW130911   4.319   2.241   7.544  0.5724  2.5891  0.1018
 6484SOL    HW230912   4.354   2.236   7.392  1.0255  1.9798 -0.3515
 6485SOL     OW30913   2.891   2.059  16.554  0.2753  0.2756  0.5050
 6485SOL    HW130914   2.984   2.054  16.573  0.4127 -0.0967 -0.2650
 6485SOL    HW230915   2.883   1.966  16.530  0.3288  0.4433 -0.1600
 6486SOL     OW30916   3.674   0.192   3.075 -0.4976 -0.0258  0.2994
 6486SOL    HW130917   3.671   0.096   3.079  1.1679 -0.0846  0.1865
 6486SOL    HW230918   3.753   0.212   3.125 -0.8231  2.5652 -0.2267
 6487SOL     OW30919   2.539   2.860   3.437 -0.1168 -0.3764  0.1891
 6487SOL    HW130920   2.598   2.858   3.512  1.1787 -0.6931 -0.8474
 6487SOL    HW230921   2.604   2.840   3.370 -0.7212  0.8750 -0.7615
 6488SOL     OW30922   3.052   3.210   7.266 -0.0884  0.2657 -0.1268
 6488SOL    HW130923   3.140   3.187   7.296 -0.1551 -0.2112 -0.3038
 6488SOL    HW230924   3.025   3.136   7.212  0.2475  0.0823 -0.0421
 6489SOL     OW30925   2.504   3.189   3.627  0.2170 -0.1460  0.4757
 6489SOL    HW130926   2.551   3.127   3.682  3.2957  1.4112 -0.4485
 6489SOL    HW230927   2.557   3.267   3.644 -0.4758  0.2524  0.8410
 6490SOL     OW30928   1.139   1.434   8.798 -0.2449 -0.1997 -0.2527
 6490SOL    HW130929   1.077   1.396   8.736  0.9834  0.0906 -1.6453
 6490SOL    HW230930   1.139   1.360   8.858  1.7556  0.2224  0.2605
 6491SOL     OW30931   1.699   0.073  16.119  0.2662  0.0516 -0.1499
 6491SOL    HW130932   1.706   4.702  16.109 -0.2415 -0.0441  0.4172
 6491SOL    HW230933   1.617   0.088  16.070 -0.1645  1.6515  1.0656
 6492SOL     OW30934   0.241   4.009   6.757 -0.1664  0.0307 -0.1165
 6492SOL    HW130935   0.237   4.094   6.714  0.7658 -0.7248 -1.7140
 6492SOL    HW230936   0.335   4.001   6.772 -0.5871 -1.9227  1.4761
 6493SOL     OW30937   1.529   1.625   6.189 -0.0736  0.4399 -0.2176
 6493SOL    HW130938   1.611   1.609   6.236  0.0815 -0.0215 -0.6457
 6493SOL    HW230939   1.533   1.560   6.119  0.4084 -0.0227  0.2381
 6494SOL     OW30940   4.459   1.135   0.438 -0.6198 -0.4401 -0.4035
 6494SOL    HW130941   4.408   1.062   0.474 -2.7656  1.5641  0.6084
 6494SOL    HW230942   4.425   1.204   0.495 -1.6637 -3.0301  2.0958
 6495SOL     OW30943   3.461   4.110  12.870  0.0865 -0.0226 -0.0647
 6495SOL    HW130944   3.532   4.102  12.934  1.6775  0.9576 -1.6869
 6495SOL    HW230945   3.398   4.041  12.887 -1.2431  0.5612 -2.5609
 6496SOL     OW30946   3.882   3.500   2.326 -0.3959 -0.3048  0.5640
 6496SOL    HW130947   3.789   3.498   2.349 -0.7692 -1.0468 -0.9763
 6496SOL    HW230948   3.888   3.583   2.278 -1.6224 -1.2095 -1.1473
 6497SOL     OW30949   2.963   3.934   0.912 -0.0184 -0.0054 -0.1211
 6497SOL    HW130950   3.008   3.949   0.828  0.9470  1.9875  0.7639
 6497SOL    HW230951   2.928   3.846   0.899  0.3155 -0.2066  0.3628
 6498SOL     OW30952   0.136   4.619   9.119 -0.0435  0.1350  0.4177
 6498SOL    HW130953   0.147   4.533   9.160  0.8093 -0.8684 -1.9210
 6498SOL    HW230954   0.060   4.623   9.060 -0.4707 -0.9111  0.9016
 6499SOL     OW30955   2.601   0.600   4.887  0.1504 -0.1438  0.1847
 6499SOL    HW130956   2.544   0.597   4.964 -1.2087  1.3705 -0.7503
 6499SOL    HW230957   2.554   0.538   4.832 -0.5692  0.3249  0.2567
 6500SOL     OW30958   2.211   4.074  11.289 -0.4465 -0.4632 -0.3448
 6500SOL    HW130959   2.247   4.112  11.209 -0.5273 -2.2595 -1.2391
 6500SOL    HW230960   2.116   4.089  11.280 -0.4758 -0.1319  0.5046
 6501SOL     OW30961   2.464   1.998   3.853  0.3422  0.1726 -0.5324
 6501SOL    HW130962   2.424   2.007   3.767 -3.3704  0.1635  1.1970
 6501SOL    HW230963   2.487   2.088   3.878 -2.9584  0.8056  0.2452
 6502SOL     OW30964   3.303   2.746   6.275 -0.3744 -0.1949 -0.4153
 6502SOL    HW130965   3.337   2.657   6.268 -0.7497 -0.5237  2.0297
 6502SOL    HW230966   3.327   2.764   6.366 -5.0838  3.2609  0.1177
 6503SOL     OW30967   0.222   3.412   0.570 -0.3364 -0.0623  0.0808
 6503SOL    HW130968   0.306   3.437   0.610 -0.4958  0.5923  0.0027
 6503SOL    HW230969   0.227   3.317   0.561  0.2774  0.2153 -2.4843
 6504SOL     OW30970   3.702   2.624  14.877  0.2887 -0.2841 -0.4737
 6504SOL    HW130971   3.630   2.651  14.934  0.8425 -0.2880  0.2247
 6504SOL    HW230972   3.769   2.594  14.939 -0.1593 -1.6138 -0.6341
 6505SOL     OW30973   4.222   4.617   9.432 -0.3063 -0.1548 -0.0320
 6505SOL    HW130974   4.160   4.673   9.479  0.7374 -0.4527  1.6773
 6505SOL    HW230975   4.283   4.606   9.505 -0.6721 -2.4602 -0.0826
 6506SOL     OW30976   1.095   2.310   6.704 -0.1773 -0.2737 -0.2663
 6506SOL    HW130977   1.124   2.388   6.751  0.8106  0.0360 -1.3802
 6506SOL    HW230978   1.146   2.314   6.623  0.8289  2.2155  0.4872
 6507SOL     OW30979   3.857   0.657   7.109  0.0218 -0.2107  0.2039
 6507SOL    HW130980   3.793   0.613   7.053  0.0886  1.0066 -0.8312
 6507SOL    HW230981   3.889   0.589   7.169 -1.5118 -0.9585  0.1545
 6508SOL     OW30982   2.017   2.142   5.179  0.0862  0.1275  0.3204
 6508SOL    HW130983   1.961   2.181   5.246  2.0328  3.8389 -0.2260
 6508SOL    HW230984   1.959   2.155   5.104 -0.8718 -0.7146  0.9076
 6509SOL     OW30985   0.616   1.671   9.517 -0.1171  0.0147 -0.0903
 6509SOL    HW130986   0.638   1.586   9.555 -2.4752 -0.1705  0.8540
 6509SOL    HW230987   0.704   1.701   9.496 -0.1917  0.1628 -0.1919
 6510SOL     OW30988   3.536   3.120  12.815  0.3155 -0.6766 -0.4653
 6510SOL    HW130989   3.591   3.185  12.859  1.5390 -0.4306 -2.3430
 6510SOL    HW230990   3.548   3.046  12.875 -0.4053  0.2308  0.7976
 6511SOL     OW30991   3.185   3.634   5.456  0.3601  0.0193 -0.0009
 6511SOL    HW130992   3.148   3.702   5.399  3.5866 -0.0440 -2.1824
 6511SOL    HW230993   3.236   3.689   5.515  2.0123 -1.8882  0.3444
 6512SOL     OW30994   4.149   1.437   1.259 -0.1038  0.4422  0.1749
 6512SOL    HW130995   4.158   1.397   1.346 -3.5682  0.5258  0.5894
 6512SOL    HW230996   4.231   1.485   1.254  0.0189  0.0534 -1.5167
 6513SOL     OW30997   1.663   1.103   8.825 -0.6846 -0.6098 -0.0678
 6513SOL    HW130998   1.689   1.152   8.903  0.7437 -1.3899 -0.0473
 6513SOL    HW230999   1.746   1.077   8.785 -1.3845 -0.5929 -1.5161
 6514SOL     OW31000   0.582   2.277   3.408 -0.7071 -0.0049  0.5353
 6514SOL    HW131001   0.633   2.357   3.415  0.1446 -0.5034  0.0868
 6514SOL    HW231002   0.589   2.254   3.315 -1.1366 -1.2685  0.8177
 6515SOL     OW31003   3.225   0.720   2.917  1.0249 -0.4004  0.0908
 6515SOL    HW131004   3.297   0.683   2.868 -0.5621 -2.2132 -0.8817
 6515SOL    HW231005   3.224   0.814   2.896 -0.9799 -0.4528 -0.0749
 6516SOL     OW31006   2.448   2.398   6.710 -0.0801 -0.6182  0.0215
 6516SOL    HW131007   2.382   2.339   6.674 -1.9237  1.5272 -0.1429
 6516SOL    HW231008   2.491   2.342   6.774 -0.8452  0.8819  1.8539
 6517SOL     OW31009   3.673   4.290   4.611  0.0697 -0.1616  0.0730
 6517SOL    HW131010   3.753   4.329   4.647 -0.2351  0.9975 -0.4959
 6517SOL    HW231011   3.707   4.249   4.532 -0.3199  1.8788 -1.1428
 6518SOL     OW31012   2.821   4.575   5.912 -0.4211  0.4763 -0.7437
 6518SOL    HW131013   2.784   4.590   5.999 -1.2829  1.2499 -1.2386
 6518SOL    HW231014   2.899   4.523   5.930 -1.6589 -0.9073  0.5935
 6519SOL     OW31015   2.151   0.634   8.252  0.5195  0.4879 -0.4076
 6519SOL    HW131016   2.200   0.627   8.334 -0.4713 -1.3283  0.0418
 6519SOL    HW231017   2.061   0.633   8.285  0.6901  2.2524  0.0814
 6520SOL     OW31018   3.508   1.567   4.374  0.1151  0.0806 -0.4598
 6520SOL    HW131019   3.507   1.529   4.462 -2.2501 -0.3116 -0.6453
 6520SOL    HW231020   3.599   1.577   4.349 -0.3059 -0.6035 -2.2963
 6521SOL     OW31021   3.482   0.991   2.858 -0.0552 -0.3128 -0.2067
 6521SOL    HW131022   3.445   0.979   2.945 -0.9320 -3.5625 -1.0370
 6521SOL    HW231023   3.453   1.077   2.826 -1.0367 -0.9621 -1.0729
 6522SOL     OW31024   4.536   0.393   7.890  0.0118  0.3609 -0.0444
 6522SOL    HW131025   4.517   0.433   7.975 -0.7883 -1.4386  0.6274
 6522SOL    HW231026   4.605   0.336   7.924  0.3193  0.8242  0.1161
 6523SOL     OW31027   2.393   2.083   7.316 -0.3235  0.2661 -0.0812
 6523SOL    HW131028   2.408   2.067   7.409 -2.0774  3.9411  0.8624
 6523SOL    HW231029   2.302   2.114   7.313 -0.9915 -1.5723  1.3192
 6524SOL     OW31030   2.629   3.849   6.131 -0.1275 -0.0333  0.1132
 6524SOL    HW131031   2.600   3.917   6.070 -0.7026 -0.3001  0.0909
 6524SOL    HW231032   2.697   3.895   6.182  0.1330 -1.4547  1.0401
 6525SOL     OW31033   2.809   2.309   5.697  0.0570  0.2104 -0.1981
 6525SOL    HW131034   2.718   2.290   5.676  0.1001 -0.5421  0.2740
 6525SOL    HW231035   2.815   2.265   5.782 -1.3264 -0.4001 -0.4169
 6526SOL     OW31036   4.682   0.360  16.077 -0.5555 -0.0379 -0.4779
 6526SOL    HW131037   4.604   0.307  16.089  0.8368 -2.8976 -4.1356
 6526SOL    HW231038   4.662   0.422  16.007 -1.6910 -1.2543 -1.2085
 6527SOL     OW31039   1.677   3.296   4.986  0.5324  0.3548  0.4423
 6527SOL    HW131040   1.626   3.312   4.906  1.4246 -0.4805 -0.2931
 6527SOL    HW231041   1.610   3.285   5.053  0.9631 -0.4997  0.7271
 6528SOL     OW31042   2.411   0.550   5.073  0.2385  0.6503  0.8601
 6528SOL    HW131043   2.372   0.479   5.123  1.5272  0.5646  1.7405
 6528SOL    HW231044   2.344   0.618   5.073  0.2526  0.6734 -2.6562
 6529SOL     OW31045   4.405   1.324   7.563 -0.3898  0.1523 -0.5986
 6529SOL    HW131046   4.395   1.235   7.530 -1.4568  0.1569 -0.3026
 6529SOL    HW231047   4.497   1.333   7.588 -1.2423  0.1257  2.5547
 6530SOL     OW31048   2.859   0.902  11.407  0.3395  0.4133  0.1015
 6530SOL    HW131049   2.924   0.955  11.360  1.5054 -1.2175 -0.1179
 6530SOL    HW231050   2.780   0.931  11.362 -0.0665  0.9880  1.1875
 6531SOL     OW31051   0.565   3.700  10.616 -0.1904  0.5080 -0.1678
 6531SOL    HW131052   0.494   3.655  10.662  0.0997  0.3762  0.1490
 6531SOL    HW231053   0.551   3.679  10.524  1.2593 -1.0743 -0.0307
 6532SOL     OW31054   3.211   1.650  16.069  0.3058 -0.1267 -0.0561
 6532SOL    HW131055   3.300   1.678  16.089  0.3061  0.1030 -0.3794
 6532SOL    HW231056   3.225   1.555  16.077  0.1841 -0.2997 -1.8526
 6533SOL     OW31057   0.106   2.853   1.413 -0.3457 -0.0290 -0.4478
 6533SOL    HW131058   0.064   2.913   1.351  0.0385  0.8819  0.1762
 6533SOL    HW231059   0.045   2.782   1.396 -0.0321 -0.7059  1.2631
 6534SOL     OW31060   1.773   3.794   5.770  0.5880 -0.7394  0.2019
 6534SOL    HW131061   1.841   3.812   5.836 -0.0683  0.6052  0.5061
 6534SOL    HW231062   1.713   3.754   5.832 -0.6940  1.3387  0.3254
 6535SOL     OW31063   0.019   2.231  13.466  0.3041  0.0919  0.2366
 6535SOL    HW131064   0.096   2.261  13.515  1.7750 -0.2849 -1.8218
 6535SOL    HW231065   0.016   2.144  13.507  2.1965 -0.1765 -0.1880
 6536SOL     OW31066   1.749   0.623   8.172  0.3538  0.0321  0.8325
 6536SOL    HW131067   1.804   0.661   8.240  0.2756  0.1379  0.8366
 6536SOL    HW231068   1.714   0.549   8.221  1.9347 -1.9931 -1.0716
 6537SOL     OW31069   0.505   0.675   4.456  0.0476  0.3707  0.1896
 6537SOL    HW131070   0.458   0.755   4.435  2.7110  1.2373 -2.5053
 6537SOL    HW231071   0.483   0.663   4.548 -0.6415 -0.9704 -0.1450
 6538SOL     OW31072   2.591   3.354  12.799 -0.3484 -0.1083 -0.4103
 6538SOL    HW131073   2.608   3.265  12.769  1.0621  0.0723 -0.1602
 6538SOL    HW231074   2.575   3.338  12.892 -1.9174 -1.1381 -0.8700
 6539SOL     OW31075   2.198   0.341   2.244 -0.0448 -0.1790 -0.2706
 6539SOL    HW131076   2.175   0.287   2.168  2.7000 -1.4522 -0.2324
 6539SOL    HW231077   2.243   0.409   2.194 -2.4519  0.0133 -2.1994
 6540SOL     OW31078   2.284   4.306   7.344  0.0926  0.0039 -0.2887
 6540SOL    HW131079   2.335   4.366   7.289  1.4310 -1.1407 -0.3005
 6540SOL    HW231080   2.268   4.361   7.420 -1.3829  0.1520 -0.7072
 6541SOL     OW31081   2.252   2.122   1.277 -0.0977  0.1482 -0.5450
 6541SOL    HW131082   2.311   2.080   1.339  0.3727  3.6430  1.3552
 6541SOL    HW231083   2.263   2.211   1.310 -1.9886  0.4118 -0.6413
 6542SOL     OW31084   2.487   4.427   4.815 -0.1803 -0.1053  0.4865
 6542SOL    HW131085   2.430   4.370   4.763 -0.9512  0.4591  0.7062
 6542SOL    HW231086   2.558   4.371   4.845 -0.4320 -2.4926 -3.4084
 6543SOL     OW31087   4.408   0.006   3.634 -0.4925  0.6427 -0.0777
 6543SOL    HW131088   4.402   4.663   3.702 -0.4973  0.9254  0.2035
 6543SOL    HW231089   4.503   0.018   3.634 -0.1699 -1.9832 -2.4388
 6544SOL     OW31090   2.468   4.658   5.416  0.0192  0.0609 -0.5137
 6544SOL    HW131091   2.397   4.598   5.437  0.4878 -0.9760 -1.9237
 6544SOL    HW231092   2.500   4.665   5.506 -1.6951  1.8122 -0.0387
 6545SOL     OW31093   4.132   0.509   5.864  0.8120 -0.0076 -0.0144
 6545SOL    HW131094   4.131   0.564   5.785  4.4691  1.2183  0.8275
 6545SOL    HW231095   4.215   0.540   5.899  1.7624 -0.9398 -1.4267
 6546SOL     OW31096   1.659   1.361   6.820 -0.1134  0.1854 -0.2845
 6546SOL    HW131097   1.643   1.406   6.737  0.0924  2.8280  1.1154
 6546SOL    HW231098   1.736   1.408   6.852  0.4190 -0.1731 -1.0414
 6547SOL     OW31099   3.853   1.623  15.881  0.6478  0.2870 -0.9903
 6547SOL    HW131100   3.843   1.645  15.788  1.2520 -1.2432 -1.4053
 6547SOL    HW231101   3.786   1.555  15.890 -0.4117  1.6192  1.3494
 6548SOL     OW31102   1.233   2.081   9.766  0.0572  0.0366  0.3530
 6548SOL    HW131103   1.259   2.078   9.674  1.3182 -0.9421  0.7305
 6548SOL    HW231104   1.139   2.093   9.764  0.0576 -0.2978 -1.2127
 6549SOL     OW31105   0.260   2.179   2.200  0.0955 -0.1967  0.4528
 6549SOL    HW131106   0.205   2.241   2.248  2.2858  1.5214  0.7210
 6549SOL    HW231107   0.339   2.190   2.252 -0.5769  0.5086  1.3382
 6550SOL     OW31108   1.277   1.001   6.381  0.4406 -0.1995  0.7744
 6550SOL    HW131109   1.261   0.995   6.475  1.7718  2.7414  1.1899
 6550SOL    HW231110   1.368   1.028   6.387  0.1043  0.7924  1.4885
 6551SOL     OW31111   3.155   4.136  12.191  0.1832 -0.4359 -0.0689
 6551SOL    HW131112   3.140   4.059  12.246  1.1573 -1.7366 -1.6207
 6551SOL    HW231113   3.250   4.145  12.198  0.0491 -1.0418  2.6634
 6552SOL     OW31114   2.249   4.208   4.197 -0.1190 -0.4275  0.0149
 6552SOL    HW131115   2.256   4.282   4.257  0.6334 -1.5494  1.3069
 6552SOL    HW231116   2.206   4.146   4.256 -2.1583 -0.8260 -1.8994
 6553SOL     OW31117   2.336   4.016   9.384  0.4356 -0.1222  0.2908
 6553SOL    HW131118   2.319   3.932   9.426 -1.0470  0.3702  0.6662
 6553SOL    HW231119   2.312   4.001   9.293  1.4529  1.8158 -0.3090
 6554SOL     OW31120   1.371   0.465   7.370 -0.1544  0.9414 -0.2153
 6554SOL    HW131121   1.412   0.453   7.455  0.6806 -0.9513 -0.8686
 6554SOL    HW231122   1.432   0.520   7.321 -0.6136  1.6822  0.0471
 6555SOL     OW31123   4.374   3.788   7.027 -0.2311 -0.6433  0.2672
 6555SOL    HW131124   4.323   3.867   7.046 -0.7205 -0.3514 -2.2074
 6555SOL    HW231125   4.440   3.829   6.971  0.5628 -1.6200  0.5031
 6556SOL     OW31126   3.274   0.379   3.282 -0.2975 -0.0732 -0.2429
 6556SOL    HW131127   3.215   0.344   3.348 -0.0155  0.6896  0.4153
 6556SOL    HW231128   3.295   0.297   3.237 -0.8085  1.0555 -2.5670
 6557SOL     OW31129   0.036   3.253   1.252  0.3888  0.2662 -0.5334
 6557SOL    HW131130   4.717   3.173   1.283  0.4111  0.2282 -0.6010
 6557SOL    HW231131   0.126   3.226   1.240  0.3267 -0.2038  0.0678
 6558SOL     OW31132   0.846   2.402  11.978  0.1358 -0.3700  0.4207
 6558SOL    HW131133   0.848   2.345  12.055  2.3683 -0.0449  0.5992
 6558SOL    HW231134   0.761   2.372  11.947  0.2042 -2.4246  2.2743
 6559SOL     OW31135   0.497   3.474   2.240 -0.4513 -0.2396 -0.0859
 6559SOL    HW131136   0.561   3.403   2.240 -0.2326 -0.0449 -0.3470
 6559SOL    HW231137   0.413   3.430   2.229 -1.9086  1.7957  2.8860
 6560SOL     OW31138   4.506   0.446   6.134 -0.0663  0.3271 -0.0129
 6560SOL    HW131139   4.477   0.374   6.079  2.2922 -0.3728 -0.3171
 6560SOL    HW231140   4.575   0.419   6.194 -0.6137 -0.1120  0.4191
 6561SOL     OW31141   2.101   0.444   1.977 -0.1914  0.0426  0.3269
 6561SOL    HW131142   2.070   0.533   1.992  1.4577  0.4606  1.3229
 6561SOL    HW231143   2.164   0.454   1.905  2.0463  0.1341  2.2889
 6562SOL     OW31144   1.144   1.085  12.227  0.0592  0.5199 -0.3673
 6562SOL    HW131145   1.095   1.012  12.191  1.7186  0.2495 -2.0647
 6562SOL    HW231146   1.079   1.123  12.286 -0.8634  0.2708 -1.2254
 6563SOL     OW31147   1.513   4.450   3.819 -0.6432  0.5552  0.6267
 6563SOL    HW131148   1.434   4.504   3.824 -1.8249 -1.2307  1.5005
 6563SOL    HW231149   1.564   4.511   3.765 -1.0199  0.1930 -0.1482
 6564SOL     OW31150   0.496   2.460   7.061  0.0080 -0.1334 -0.6020
 6564SOL    HW131151   0.404   2.482   7.078  0.3564 -0.8443  2.1587
 6564SOL    HW231152   0.504   2.462   6.965  3.4039  1.6437 -0.2894
 6565SOL     OW31153   0.825   0.530   5.076 -0.4534 -0.6945 -0.3179
 6565SOL    HW131154   0.828   0.451   5.131  1.7334  0.3967  1.1804
 6565SOL    HW231155   0.820   0.603   5.138  0.6150 -0.8904  0.0086
 6566SOL     OW31156   3.884   3.714   5.629 -0.0741  0.6871  0.2874
 6566SOL    HW131157   3.855   3.763   5.552 -1.1114 -1.8892 -0.9530
 6566SOL    HW231158   3.804   3.723   5.680 -0.5564  2.7190 -0.8298
 6567SOL     OW31159   1.230   3.644  17.310 -0.4042 -0.0623  0.2654
 6567SOL    HW131160   1.290   3.570  17.313  1.5753  1.5206  0.1526
 6567SOL    HW231161   1.245   3.710  17.379  1.4829 -0.0016 -0.2030
 6568SOL     OW31162   2.192   2.103   6.587 -0.9228  0.3015  0.1458
 6568SOL    HW131163   2.141   2.180   6.611 -0.6533 -0.2592  2.4444
 6568SOL    HW231164   2.238   2.079   6.667 -1.7828 -0.1171  0.5024
 6569SOL     OW31165   3.856   3.445   3.564  0.4760  0.2417 -0.1106
 6569SOL    HW131166   3.908   3.370   3.592  0.9953  0.8965  0.6527
 6569SOL    HW231167   3.880   3.515   3.625  0.0617 -1.3144  1.8377
 6570SOL     OW31168   2.478   4.118   4.084  0.2665 -0.0768 -0.1573
 6570SOL    HW131169   2.397   4.151   4.124  1.5641  0.9490  1.5977
 6570SOL    HW231170   2.529   4.185   4.129 -0.4392  1.1008 -1.0916
 6571SOL     OW31171   0.418   0.041  14.212  0.1625 -0.3020  0.0525
 6571SOL    HW131172   0.423   0.116  14.271 -3.5900 -0.3410  0.4287
 6571SOL    HW231173   0.416   4.694  14.277 -0.3552 -0.4515 -0.1202
 6572SOL     OW31174   3.075   3.460   3.497 -0.5601  0.3932 -0.1051
 6572SOL    HW131175   3.032   3.484   3.578  0.3449 -1.3174  0.8751
 6572SOL    HW231176   3.046   3.369   3.487 -3.1728  1.1684  0.4710
 6573SOL     OW31177   0.746   3.904  11.183  0.6009 -0.3215 -0.3587
 6573SOL    HW131178   0.727   3.944  11.098  0.0420 -1.6951 -0.8834
 6573SOL    HW231179   0.818   3.954  11.222 -0.1876  0.8338 -0.3655
 6574SOL     OW31180   1.059   1.710   3.488 -0.0676  0.0582 -0.5252
 6574SOL    HW131181   0.993   1.693   3.422  0.2216 -0.2699 -0.7336
 6574SOL    HW231182   1.115   1.633   3.471 -0.9055 -0.2280 -1.8940
 6575SOL     OW31183   1.904   1.900  11.010 -0.0812 -0.3386 -0.1220
 6575SOL    HW131184   1.841   1.921  11.078  0.2798 -1.2998  0.4982
 6575SOL    HW231185   1.859   1.928  10.930 -0.3570 -2.5250 -0.7220
 6576SOL     OW31186   2.313   2.245   4.147 -0.3629  0.9851 -0.4348
 6576SOL    HW131187   2.392   2.261   4.199 -0.1356 -1.9254  0.1246
 6576SOL    HW231188   2.300   2.154   4.172 -0.0401  0.9529 -0.3779
 6577SOL     OW31189   0.582   0.982   9.308  0.5646  0.6959  0.2037
 6577SOL    HW131190   0.632   0.989   9.389  0.5305  0.3952  0.2529
 6577SOL    HW231191   0.605   1.064   9.264  0.7817 -0.7327 -2.3088
 6578SOL     OW31192   2.146   4.597  13.736  0.3569 -0.0677  0.0770
 6578SOL    HW131193   2.198   4.671  13.704 -0.4989  0.5188  0.0218
 6578SOL    HW231194   2.130   4.625  13.826 -0.8208  2.1275 -0.7986
 6579SOL     OW31195   2.805   2.035   0.718  0.1312  0.3313 -0.3448
 6579SOL    HW131196   2.786   1.961   0.776  0.6086  0.4183 -0.0718
 6579SOL    HW231197   2.725   2.032   0.666 -0.3296  0.3977  0.3634
 6580SOL     OW31198   0.300   3.128  10.253  0.0225  0.4093 -0.1797
 6580SOL    HW131199   0.263   3.127  10.164  0.4245  0.5446 -0.3486
 6580SOL    HW231200   0.313   3.035  10.269  0.3204  0.1251 -2.0224
 6581SOL     OW31201   0.677   1.252   6.921  0.3659  0.5953 -0.2197
 6581SOL    HW131202   0.664   1.346   6.936 -0.6942  0.8653 -2.8860
 6581SOL    HW231203   0.609   1.213   6.975  3.3036 -0.0956  3.0221
 6582SOL     OW31204   3.518   3.898  14.404 -0.5527 -0.0441  0.0202
 6582SOL    HW131205   3.555   3.847  14.476 -1.7018  0.0981  0.7050
 6582SOL    HW231206   3.531   3.984  14.443  0.0840  0.0177 -0.3164
 6583SOL     OW31207   1.164   4.300   6.830 -0.6847 -0.4389 -0.1213
 6583SOL    HW131208   1.246   4.254   6.849 -0.8363 -0.3111  0.8149
 6583SOL    HW231209   1.162   4.363   6.902 -0.5458  0.6692 -1.0883
 6584SOL     OW31210   0.652   2.911  14.610 -0.0781  0.0750 -0.2711
 6584SOL    HW131211   0.606   2.892  14.528  1.1159 -0.5894 -0.7982
 6584SOL    HW231212   0.739   2.875  14.592 -0.1411 -0.0867 -0.2545
 6585SOL     OW31213   0.715   4.313   2.255  0.0812 -0.5159  0.0598
 6585SOL    HW131214   0.758   4.262   2.324  0.8029 -2.8333 -2.1365
 6585SOL    HW231215   0.724   4.243   2.191  1.2934 -0.9577  0.7198
 6586SOL     OW31216   1.444   3.737  16.459 -0.2179 -0.4812  0.1521
 6586SOL    HW131217   1.360   3.733  16.413 -0.9482  2.0778  1.3129
 6586SOL    HW231218   1.500   3.795  16.408 -1.8332  0.3575 -0.6519
 6587SOL     OW31219   4.672   0.237  14.029 -0.2564 -0.4574 -0.6406
 6587SOL    HW131220   4.695   0.145  14.016  0.1584 -0.1845 -1.8535
 6587SOL    HW231221   0.021   0.258  14.088 -2.3771  0.8479  1.5374
 6588SOL     OW31222   1.916   3.554   9.106 -0.6948 -0.2149  0.1346
 6588SOL    HW131223   1.974   3.548   9.029 -1.0640  0.3616 -0.1882
 6588SOL    HW231224   1.838   3.510   9.072  0.0516 -2.7615  1.7407
 6589SOL     OW31225   2.451   3.381   4.553 -0.1129 -0.0926  0.2212
 6589SOL    HW131226   2.479   3.454   4.607  1.1731  0.0879 -0.6924
 6589SOL    HW231227   2.414   3.320   4.618  0.4473 -1.4752 -0.7439
 6590SOL     OW31228   0.255   1.952  12.227 -0.5121  0.0208 -0.0148
 6590SOL    HW131229   0.287   1.940  12.138 -2.0700  1.0785 -0.7155
 6590SOL    HW231230   0.244   1.862  12.257  2.0391 -1.2762 -3.0530
 6591SOL     OW31231   1.331   4.566  16.804 -0.2692 -0.1569 -0.1272
 6591SOL    HW131232   1.262   4.563  16.738  0.2224 -1.8471 -0.5452
 6591SOL    HW231233   1.379   4.648  16.790 -3.0624  1.4094 -0.5888
 6592SOL     OW31234   2.778   2.060   8.137  0.0452 -0.3241  0.3704
 6592SOL    HW131235   2.800   2.000   8.209  0.7139 -1.4712 -0.7861
 6592SOL    HW231236   2.860   2.108   8.127 -0.4706  0.6335  0.7692
 6593SOL     OW31237   1.772   4.418  17.547 -0.4515  0.1648 -0.1620
 6593SOL    HW131238   1.782   4.411  17.642  2.4566 -0.4805 -0.5267
 6593SOL    HW231239   1.800   4.509  17.536 -0.1863  0.4990  3.1347
 6594SOL     OW31240   1.709   4.226   2.591 -0.0061 -0.0016 -0.1718
 6594SOL    HW131241   1.735   4.137   2.566 -0.9448  0.1625 -1.7320
 6594SOL    HW231242   1.614   4.222   2.579  0.0449  1.6406 -1.0872
 6595SOL     OW31243   1.359   3.230   0.463 -0.8175 -0.4444  0.3644
 6595SOL    HW131244   1.317   3.300   0.512 -1.3798 -1.8461  1.8686
 6595SOL    HW231245   1.448   3.226   0.498 -0.5531  0.9898 -0.1263
 6596SOL     OW31246   4.093   3.739   8.490  0.5520  0.1896  0.0145
 6596SOL    HW131247   4.119   3.667   8.547 -1.3890 -0.7204 -0.2467
 6596SOL    HW231248   4.180   3.779   8.485  0.8691 -0.6440 -1.0605
 6597SOL     OW31249   0.455   3.940   2.069  0.2542  0.1102  0.6256
 6597SOL    HW131250   0.435   4.013   2.011  0.9455 -1.2845 -1.3720
 6597SOL    HW231251   0.365   3.916   2.091  0.3438 -0.7512  0.0632
 6598SOL     OW31252   4.212   3.076   1.750 -0.2944 -0.2773  0.1094
 6598SOL    HW131253   4.252   3.162   1.761 -1.5261 -0.0416  2.6801
 6598SOL    HW231254   4.167   3.060   1.833 -0.0597  0.7872  0.4438
 6599SOL     OW31255   3.067   0.252  15.207 -0.1347 -0.0716 -0.1407
 6599SOL    HW131256   3.073   0.329  15.150 -1.0256  0.6474  0.7398
 6599SOL    HW231257   2.984   0.213  15.178 -0.9621  1.5944 -0.0111
 6600SOL     OW31258   1.415   0.162  13.015  0.1697 -0.0329  0.3846
 6600SOL    HW131259   1.460   0.101  12.957 -0.1755  0.5094 -0.4627
 6600SOL    HW231260   1.400   0.244  12.967 -1.0403  0.3951  1.4862
 6601SOL     OW31261   1.597   3.461   1.799 -0.6195  0.0905  0.1348
 6601SOL    HW131262   1.662   3.427   1.860 -0.5708  0.2192  0.1536
 6601SOL    HW231263   1.514   3.446   1.847 -0.3199  0.8805  0.8968
 6602SOL     OW31264   3.722   0.101  16.907  0.0639 -0.6195 -0.0505
 6602SOL    HW131265   3.798   0.127  16.959  0.3489  3.5078 -2.5028
 6602SOL    HW231266   3.645   0.135  16.953  1.0159 -1.4389  2.1233
 6603SOL     OW31267   2.384   4.230  11.103  0.4948 -0.3402  0.1305
 6603SOL    HW131268   2.407   4.138  11.092  0.0104 -0.4981  0.4532
 6603SOL    HW231269   2.465   4.277  11.083 -0.6181  1.9108  0.8587
 6604SOL     OW31270   4.038   0.074   9.573 -0.1985  0.1801  0.1636
 6604SOL    HW131271   3.964   0.133   9.557  0.2741  0.3151 -1.5376
 6604SOL    HW231272   4.090   0.124   9.636 -2.0614  0.3465  1.5695
 6605SOL     OW31273   2.089   4.011  17.583 -0.5831 -0.0813  0.4214
 6605SOL    HW131274   2.089   4.015  17.487  1.7523 -1.2295  0.3757
 6605SOL    HW231275   2.108   3.918  17.597  1.3021 -0.2497 -3.2890
 6606SOL     OW31276   2.229   4.379  11.268  0.2927  0.0502 -0.2493
 6606SOL    HW131277   2.156   4.338  11.221  0.8983  2.8318 -3.5970
 6606SOL    HW231278   2.300   4.333  11.224  0.3743 -2.1400  2.1720
 6607SOL     OW31279   1.066   0.491   6.815  0.0527 -0.6482 -0.2986
 6607SOL    HW131280   0.983   0.482   6.861  0.6247 -2.3395  0.4001
 6607SOL    HW231281   1.053   0.426   6.746 -2.6132 -0.6852  0.2301
 6608SOL     OW31282   4.379   2.370   6.575  0.2592  0.2604  0.6400
 6608SOL    HW131283   4.461   2.419   6.573  0.7354 -0.6087 -0.7905
 6608SOL    HW231284   4.356   2.373   6.482 -0.6549  0.5031  0.8681
 6609SOL     OW31285   2.481   2.813   7.342  0.1647 -0.3626 -0.2441
 6609SOL    HW131286   2.432   2.800   7.261 -0.3741  0.0621  0.0136
 6609SOL    HW231287   2.436   2.772   7.417  2.9282 -0.3212  1.4446
 6610SOL     OW31288   0.142   2.356   3.228 -1.1908  0.3713 -0.0202
 6610SOL    HW131289   0.088   2.424   3.188  0.3311  1.3730 -0.3684
 6610SOL    HW231290   0.223   2.368   3.178 -1.2535 -0.0963 -0.2384
 6611SOL     OW31291   4.461   0.178  16.082  0.1576 -0.5869  0.6648
 6611SOL    HW131292   4.426   0.181  16.171 -0.1971  0.2296  0.4959
 6611SOL    HW231293   4.524   0.107  16.089 -1.6254 -2.4372 -2.2611
 6612SOL     OW31294   2.473   0.116   6.439 -0.8094  0.8206  0.6434
 6612SOL    HW131295   2.442   0.184   6.379 -0.1395  0.6099  0.0597
 6612SOL    HW231296   2.394   0.063   6.424  0.0235  0.3599 -2.0395
 6613SOL     OW31297   0.192   1.210   7.398 -0.1828  0.1198 -0.8821
 6613SOL    HW131298   0.277   1.180   7.431 -0.2188  1.4401  0.4299
 6613SOL    HW231299   0.134   1.141   7.431 -2.5583  1.7540 -1.6545
 6614SOL     OW31300   0.041   2.907   8.041 -0.2671 -0.0574 -0.1149
 6614SOL    HW131301   0.115   2.855   8.069 -1.5857 -2.7449 -1.6425
 6614SOL    HW231302   0.042   2.974   8.109  1.3049  2.4413 -2.5743
 6615SOL     OW31303   2.525   4.214   0.221  0.4468 -0.4860  0.0603
 6615SOL    HW131304   2.502   4.302   0.192 -0.3299  0.0880  2.4468
 6615SOL    HW231305   2.492   4.153   0.154  0.4506 -0.8839  0.4193
 6616SOL     OW31306   1.178   4.721   8.853  0.8586 -0.4591  0.3239
 6616SOL    HW131307   1.239   4.677   8.794 -0.4148  0.5621 -1.7546
 6616SOL    HW231308   1.177   0.085   8.813  0.7191 -2.2823 -3.6797
 6617SOL     OW31309   0.209   1.956   2.028 -0.5728 -0.6086  0.0623
 6617SOL    HW131310   0.199   2.027   2.092  2.9781  0.4270 -0.5017
 6617SOL    HW231311   0.194   2.014   1.954  0.0141  0.1483  0.5335
 6618SOL     OW31312   2.484   2.777   7.801  0.1393  0.3951 -0.2602
 6618SOL    HW131313   2.431   2.767   7.880  2.0136 -0.1403  0.9332
 6618SOL    HW231314   2.439   2.710   7.750  0.0576  1.0546 -1.0560
 6619SOL     OW31315   1.525   3.736   1.580 -0.1666 -0.3321 -0.2185
 6619SOL    HW131316   1.539   3.733   1.485 -1.3419 -2.4015 -0.3403
 6619SOL    HW231317   1.435   3.704   1.586  0.0248 -1.0970 -1.4089
 6620SOL     OW31318   1.801   0.679  15.021  0.3376 -0.5313 -0.5583
 6620SOL    HW131319   1.848   0.652  14.942 -0.0710 -2.5019 -0.1218
 6620SOL    HW231320   1.877   0.693  15.077 -0.5305 -0.2451  0.5342
 6621SOL     OW31321   0.545   1.858   0.883  0.8946  0.0669  0.2809
 6621SOL    HW131322   0.481   1.851   0.955  2.4680  2.3093  1.8963
 6621SOL    HW231323   0.493   1.900   0.815  1.3776  4.0515  2.3820
 6622SOL     OW31324   1.024   2.068  14.939 -0.6508  0.1141 -0.0169
 6622SOL    HW131325   1.026   1.975  14.962 -1.2457 -0.0747 -0.7610
 6622SOL    HW231326   1.107   2.071  14.891 -1.6414 -0.6287 -1.7673
 6623SOL     OW31327   1.334   2.151  16.349  0.4009 -0.0150  0.3742
 6623SOL    HW131328   1.429   2.155  16.334  0.6687  1.8822  2.4518
 6623SOL    HW231329   1.311   2.234  16.393  2.4312  0.4926  0.4810
 6624SOL     OW31330   1.539   4.506   8.415 -0.1730  0.5810 -0.3328
 6624SOL    HW131331   1.547   4.479   8.324  1.2129  0.2556 -0.1186
 6624SOL    HW231332   1.606   4.575   8.421 -0.2431  0.9065 -3.1691
 6625SOL     OW31333   2.547   0.125   6.706  0.9030  0.6075 -0.1800
 6625SOL    HW131334   2.584   0.210   6.730 -0.5878  1.3708 -0.5767
 6625SOL    HW231335   2.510   0.143   6.619  0.2782  0.1768 -0.0059
 6626SOL     OW31336   3.076   4.390  10.741 -0.1692  0.2334  0.1098
 6626SOL    HW131337   3.058   4.382  10.835  0.7396  2.5231  0.4885
 6626SOL    HW231338   3.119   4.475  10.731 -1.0514  0.7182  0.4172
 6627SOL     OW31339   4.184   0.847   9.650  0.2141  0.1215  0.2464
 6627SOL    HW131340   4.186   0.757   9.684  0.6381 -0.0702 -0.2988
 6627SOL    HW231341   4.091   0.852   9.626  0.6183  0.4822 -1.2339
 6628SOL     OW31342   1.099   0.939   3.649 -0.2720  0.0237 -0.0678
 6628SOL    HW131343   1.060   1.007   3.705 -0.8898 -1.9901  1.9726
 6628SOL    HW231344   1.129   0.983   3.570 -2.2675  0.9725 -0.2926
 6629SOL     OW31345   1.391   1.213   8.759 -0.1645  0.2024  0.0621
 6629SOL    HW131346   1.394   1.307   8.741 -1.4683  0.4724  1.2758
 6629SOL    HW231347   1.482   1.184   8.752  0.4871  1.6598  2.5189
 6630SOL     OW31348   3.468   1.596   3.711 -0.1329  0.0268  0.3899
 6630SOL    HW131349   3.544   1.556   3.752 -1.3826  0.7702  3.3999
 6630SOL    HW231350   3.394   1.560   3.761 -1.5691 -2.8643 -3.7440
 6631SOL     OW31351   1.346   0.873   9.100  0.2676 -0.2047 -0.4632
 6631SOL    HW131352   1.363   0.962   9.070 -2.1257  0.5967  0.5328
 6631SOL    HW231353   1.418   0.857   9.161  0.0056  1.0620  0.1667
 6632SOL     OW31354   0.518   1.814   8.308  0.1137  0.1256  0.2451
 6632SOL    HW131355   0.592   1.859   8.266  1.0654 -2.6263 -1.0308
 6632SOL    HW231356   0.456   1.883   8.331  0.3505 -0.3138  2.2453
 6633SOL     OW31357   0.634   4.339  17.022 -0.7579  0.1057  0.4363
 6633SOL    HW131358   0.540   4.322  17.014 -0.6661  0.4773 -1.4157
 6633SOL    HW231359   0.639   4.374  17.111  1.2805  1.5257 -0.2220
 6634SOL     OW31360   0.289   3.540   4.180 -0.6706  0.4570 -0.2082
 6634SOL    HW131361   0.305   3.447   4.192  0.4083  0.7346  0.4750
 6634SOL    HW231362   0.322   3.546   4.090  0.9947 -2.4965  0.2257
 6635SOL     OW31363   0.642   3.074   6.424  0.1296 -0.1123  0.2787
 6635SOL    HW131364   0.596   3.115   6.350  2.5364  0.8457 -0.6868
 6635SOL    HW231365   0.730   3.097   6.394 -0.2078  0.4880 -0.2566
 6636SOL     OW31366   0.849   4.287   9.890  0.4407  0.3059 -0.2852
 6636SOL    HW131367   0.937   4.310   9.919  0.4772  0.4306 -0.5023
 6636SOL    HW231368   0.851   4.347   9.816 -0.1612 -2.1999 -2.3166
 6637SOL     OW31369   2.628   1.363   4.235  0.3912 -0.1966 -0.7500
 6637SOL    HW131370   2.565   1.431   4.212 -1.5863 -1.2616  1.5787
 6637SOL    HW231371   2.605   1.334   4.323  0.8043  0.2352 -0.5057
 6638SOL     OW31372   1.075   3.519   6.066  0.5576 -0.1326 -0.6217
 6638SOL    HW131373   1.107   3.526   5.976 -0.3788  1.6449 -0.8109
 6638SOL    HW231374   1.027   3.601   6.080 -2.1367 -1.5639 -1.3974
 6639SOL     OW31375   0.469   4.420   0.861  0.2082 -0.1020 -0.4221
 6639SOL    HW131376   0.389   4.367   0.853  0.0370 -0.1315  1.6576
 6639SOL    HW231377   0.469   4.470   0.779  0.1124  2.2575  1.0110
 6640SOL     OW31378   2.845   1.872   4.491 -0.1804 -0.2250  0.1926
 6640SOL    HW131379   2.916   1.848   4.551  1.9555  2.0718 -1.4353
 6640SOL    HW231380   2.787   1.796   4.483  0.5244 -0.8616  1.1160
 6641SOL     OW31381   4.217   3.328   2.588 -0.3511 -0.6326  0.4799
 6641SOL    HW131382   4.203   3.297   2.499  0.9286 -4.1350  1.5202
 6641SOL    HW231383   4.146   3.389   2.608  1.5839  1.7482  0.1778
 6642SOL     OW31384   2.467   4.287   9.614  0.0674  0.3017 -0.0647
 6642SOL    HW131385   2.392   4.241   9.652 -1.3606  2.1281 -0.6216
 6642SOL    HW231386   2.446   4.378   9.638  1.5276  0.5417  0.2733
 6643SOL     OW31387   0.475   0.353   0.526 -0.1545  1.0711 -0.3236
 6643SOL    HW131388   0.548   0.300   0.494 -0.0301  1.6998 -1.1024
 6643SOL    HW231389   0.514   0.439   0.506  2.6558  0.3376  1.9937
 6644SOL     OW31390   3.506   2.199  16.092 -0.2679 -0.3668  0.4755
 6644SOL    HW131391   3.556   2.220  16.013  0.7587 -1.2676  0.8885
 6644SOL    HW231392   3.423   2.245  16.075 -0.5072 -0.6847  0.7854
 6645SOL     OW31393   4.649   1.592   2.402  0.2308  0.0814 -0.2379
 6645SOL    HW131394   4.627   1.617   2.492 -1.4311  3.0482 -1.4571
 6645SOL    HW231395   4.562   1.600   2.362 -0.0895 -0.6131  0.3071
 6646SOL     OW31396   2.215   2.470   1.481  0.0162 -0.4846 -0.5683
 6646SOL    HW131397   2.190   2.429   1.563 -3.8964  0.0056 -1.5166
 6646SOL    HW231398   2.283   2.421   1.435  1.1294  2.6912 -2.3223
 6647SOL     OW31399   4.320   1.841   3.527 -0.1942 -0.5372  0.1572
 6647SOL    HW131400   4.356   1.866   3.442  1.5563 -3.2808  0.0973
 6647SOL    HW231401   4.250   1.904   3.544 -1.6321 -1.8383 -0.9694
 6648SOL     OW31402   1.966   3.725   3.626 -0.0858  0.0980  0.3493
 6648SOL    HW131403   1.941   3.783   3.698 -2.1312  0.3984 -0.6089
 6648SOL    HW231404   1.945   3.635   3.654 -1.2731  0.4775  0.6859
 6649SOL     OW31405   2.292   2.411  16.457 -0.1569 -0.4152  0.0591
 6649SOL    HW131406   2.219   2.398  16.396 -0.9887 -1.4845  1.2686
 6649SOL    HW231407   2.255   2.372  16.536  0.2714  1.0142  0.9767
 6650SOL     OW31408   2.529   0.012  12.270  0.0086 -0.0949 -0.1491
 6650SOL    HW131409   2.462   4.670  12.250  0.0925 -0.0188 -0.6772
 6650SOL    HW231410   2.501   0.088  12.221  0.5668  0.2945  0.1371
 6651SOL     OW31411   2.094   0.483   6.382 -0.2596 -0.3651 -0.3995
 6651SOL    HW131412   2.132   0.549   6.324 -0.0737 -0.1913 -0.0809
 6651SOL    HW231413   2.153   0.410   6.363  1.3011  0.3252  1.7773
 6652SOL     OW31414   2.828   0.378   5.691 -0.2543  0.4181  0.0220
 6652SOL    HW131415   2.809   0.456   5.743 -0.8257  0.8438 -0.8346
 6652SOL    HW231416   2.891   0.402   5.624 -0.8356 -2.8052 -1.6867
 6653SOL     OW31417   4.602   4.323  16.866  0.3934  0.3830 -0.1563
 6653SOL    HW131418   4.680   4.274  16.892  0.8721  1.2867  0.0925
 6653SOL    HW231419   4.615   4.408  16.908  0.4467  0.8195 -1.0542
 6654SOL     OW31420   1.887   2.985   2.207 -0.2157  0.1017 -0.4730
 6654SOL    HW131421   1.940   2.989   2.286 -0.6093  2.5794 -0.3643
 6654SOL    HW231422   1.878   2.891   2.191 -1.7381 -0.1795  2.0641
 6655SOL     OW31423   2.925   3.445   7.585  0.0585 -0.4956  0.0165
 6655SOL    HW131424   2.984   3.460   7.659  0.0918  0.5398 -0.2204
 6655SOL    HW231425   2.973   3.476   7.508 -0.9820 -1.5616 -1.0717
 6656SOL     OW31426   1.318   0.456   8.134  0.3136 -0.2985 -0.2917
 6656SOL    HW131427   1.311   0.395   8.061 -1.1836 -2.0876  1.3641
 6656SOL    HW231428   1.308   0.398   8.209 -2.1249 -0.1084 -0.4911
 6657SOL     OW31429   4.528   1.310   1.332 -0.0679  0.1794  0.4556
 6657SOL    HW131430   4.483   1.393   1.312  0.5910  0.6022  0.7596
 6657SOL    HW231431   4.475   1.243   1.288  2.7367 -0.2860 -2.1475
 6658SOL     OW31432   0.786   2.013   6.107  0.7783  0.2310 -0.4573
 6658SOL    HW131433   0.821   1.976   6.026  1.4947 -0.4203  0.1555
 6658SOL    HW231434   0.788   1.941   6.170 -0.9976  1.0456  0.5505
 6659SOL     OW31435   0.789   0.767   8.092 -0.7325 -0.2409 -0.2487
 6659SOL    HW131436   0.811   0.729   8.177 -0.9605  1.4772  0.5689
 6659SOL    HW231437   0.764   0.680   8.059  0.7273 -1.0742  0.8751
 6660SOL     OW31438   0.226   1.778   1.351 -0.2133 -0.6388  0.0764
 6660SOL    HW131439   0.219   1.869   1.382 -1.2668 -0.8498  0.4603
 6660SOL    HW231440   0.302   1.741   1.396  0.3516  0.3496 -0.0476
 6661SOL     OW31441   3.644   2.460   4.185  0.2435  0.2783 -0.8225
 6661SOL    HW131442   3.564   2.430   4.142  0.7920 -0.0002 -1.6277
 6661SOL    HW231443   3.692   2.378   4.187  0.6255  0.5289  0.6318
 6662SOL     OW31444   0.683   1.321   4.109  0.0323  0.0952 -0.2046
 6662SOL    HW131445   0.689   1.283   4.021 -2.3666 -1.1748  0.1643
 6662SOL    HW231446   0.720   1.406   4.086  1.6485 -0.0182  2.0180
 6663SOL     OW31447   1.518   4.022   5.407  0.2099 -0.1498 -0.1442
 6663SOL    HW131448   1.587   4.001   5.470 -0.6814  4.4015  2.3169
 6663SOL    HW231449   1.569   4.051   5.331 -0.1902  0.1295 -0.3048
 6664SOL     OW31450   0.545   2.834  15.514 -0.4620  0.4018  0.0315
 6664SOL    HW131451   0.451   2.823  15.521 -0.3610 -1.0076 -0.6901
 6664SOL    HW231452   0.563   2.753  15.466 -0.3238  0.8993 -0.7672
 6665SOL     OW31453   4.615   0.542   3.645  0.0370  0.1180 -0.1907
 6665SOL    HW131454   4.539   0.592   3.614  2.2123  2.8320 -1.2118
 6665SOL    HW231455   4.584   0.452   3.632  1.1257  0.0185 -2.1399
 6666SOL     OW31456   1.247   3.309   7.727 -0.6099  0.4296  0.3878
 6666SOL    HW131457   1.259   3.320   7.632 -2.4051  0.1081  0.1221
 6666SOL    HW231458   1.248   3.402   7.749  1.5903  0.8981 -1.7504
 6667SOL     OW31459   1.461   1.431   9.086 -0.5652 -0.1566 -0.2885
 6667SOL    HW131460   1.390   1.438   9.150 -1.8606  1.7677 -1.9501
 6667SOL    HW231461   1.424   1.482   9.014 -0.5810 -0.0260 -0.1895
 6668SOL     OW31462   3.294   1.390   6.090 -0.1978  0.4951  0.1874
 6668SOL    HW131463   3.334   1.333   6.156  0.1806  1.8120  1.1185
 6668SOL    HW231464   3.218   1.340   6.061 -0.2824 -0.6919  2.4955
 6669SOL     OW31465   4.635   3.150   5.062 -1.0169 -0.4970  0.2913
 6669SOL    HW131466   4.576   3.154   5.137 -1.0121  0.3302  0.2538
 6669SOL    HW231467   4.723   3.151   5.100 -0.0333 -1.4632 -1.9694
 6670SOL     OW31468   4.685   0.322   3.862  0.6323  0.2144  0.3882
 6670SOL    HW131469   4.650   0.365   3.940 -1.8718 -0.7844 -0.1795
 6670SOL    HW231470   4.718   0.397   3.812  0.0982 -0.9181 -1.6550
 6671SOL     OW31471   0.938   4.499   5.955 -0.1487  0.4146 -0.3880
 6671SOL    HW131472   0.979   4.446   6.024 -0.1324  1.3689  0.3357
 6671SOL    HW231473   0.977   4.453   5.881  0.9252  0.2366  0.2814
 6672SOL     OW31474   2.139   2.549   5.563 -0.2941  0.7000 -0.4508
 6672SOL    HW131475   2.059   2.516   5.604  1.7600 -1.6624  1.6546
 6672SOL    HW231476   2.208   2.499   5.607 -0.7693 -0.5152 -1.1168
 6673SOL     OW31477   4.357   2.072   5.830 -0.5167 -0.3845  1.2281
 6673SOL    HW131478   4.419   2.098   5.898  0.6448  1.0947 -0.3829
 6673SOL    HW231479   4.418   2.014   5.784 -1.3286  0.2112 -0.6137
 6674SOL     OW31480   1.038   3.392   3.106  0.2269  0.0396  0.5115
 6674SOL    HW131481   0.994   3.441   3.037 -0.5077  0.3509  1.2101
 6674SOL    HW231482   1.128   3.423   3.093  0.0925  0.4085  0.4779
 6675SOL     OW31483   4.551   0.813  11.406  0.2947 -0.1738  0.6139
 6675SOL    HW131484   4.475   0.816  11.464  0.5313 -0.2652  0.9298
 6675SOL    HW231485   4.554   0.717  11.406 -0.2456 -0.1892  0.2958
 6676SOL     OW31486   1.265   3.541   4.124  0.0086  0.3484  0.0809
 6676SOL    HW131487   1.266   3.456   4.167 -1.7142 -0.1285 -0.8111
 6676SOL    HW231488   1.175   3.569   4.139 -0.1476  0.1022 -0.3840
 6677SOL     OW31489   2.823   4.025   9.221  0.2359 -0.2324  0.1082
 6677SOL    HW131490   2.892   4.081   9.185  1.3370 -2.0534 -0.5941
 6677SOL    HW231491   2.755   4.091   9.232  1.3966  0.9584  0.1428
 6678SOL     OW31492   3.670   2.132   6.280  0.1075 -0.0359 -0.6071
 6678SOL    HW131493   3.743   2.192   6.261 -0.2363  1.0072  1.4096
 6678SOL    HW231494   3.714   2.096   6.357 -1.5610 -1.5137 -0.3567
 6679SOL     OW31495   4.525   1.811   0.079 -0.2743  0.0882 -0.3683
 6679SOL    HW131496   4.505   1.724   0.115 -1.8007  0.4765 -0.3221
 6679SOL    HW231497   4.571   1.792  17.693  0.5771  2.0800 -0.3407
 6680SOL     OW31498   0.382   4.356   4.183 -0.3026  0.2716 -0.3348
 6680SOL    HW131499   0.437   4.284   4.151 -0.6604  0.3382 -1.0940
 6680SOL    HW231500   0.320   4.299   4.229 -1.8994  1.8679 -0.5312
 6681SOL     OW31501   2.012   1.013  14.521 -0.0001 -0.3211  0.2970
 6681SOL    HW131502   1.989   1.011  14.613  2.4620  3.0090  1.0253
 6681SOL    HW231503   2.104   0.985  14.524 -0.2654 -1.2666 -0.2671
 6682SOL     OW31504   2.781   3.391   3.243  0.4599 -0.4147  0.3040
 6682SOL    HW131505   2.851   3.344   3.199  1.0933  0.9535 -0.1730
 6682SOL    HW231506   2.809   3.381   3.334  4.2025 -0.4533 -0.8571
 6683SOL     OW31507   0.907   0.264  13.075 -0.0898  0.0283  0.6422
 6683SOL    HW131508   0.919   0.224  13.161  2.0376 -0.5416  0.0726
 6683SOL    HW231509   0.977   0.218  13.030 -1.2474 -0.3032 -0.8500
 6684SOL     OW31510   3.229   0.941   6.429  0.0831 -1.0792 -0.2513
 6684SOL    HW131511   3.271   0.988   6.501  0.8733  0.8619 -1.9725
 6684SOL    HW231512   3.181   0.876   6.481 -1.3012  2.1805  2.5320
 6685SOL     OW31513   1.504   2.430   7.248 -0.8008  0.5954 -0.1423
 6685SOL    HW131514   1.453   2.429   7.167 -0.3823  0.5602 -0.4045
 6685SOL    HW231515   1.502   2.336   7.269  0.2556  0.2042 -1.7635
 6686SOL     OW31516   4.073   4.091   3.582  0.1278  0.2149  0.2390
 6686SOL    HW131517   3.980   4.078   3.563  0.1022  0.9014 -0.1257
 6686SOL    HW231518   4.073   4.076   3.676  0.2615 -0.2671  0.1611
 6687SOL     OW31519   1.583   3.096  16.583 -0.3373  0.0075 -0.0995
 6687SOL    HW131520   1.643   3.083  16.656 -1.8076 -0.3148  1.0446
 6687SOL    HW231521   1.631   3.067  16.505 -0.0047  0.5590 -0.0996
 6688SOL     OW31522   3.184   2.984  17.124 -0.1220 -0.3304 -0.1074
 6688SOL    HW131523   3.271   2.965  17.160  0.6594  1.6029 -0.9681
 6688SOL    HW231524   3.205   3.028  17.041  1.8872 -1.5746 -0.2708
 6689SOL     OW31525   2.620   3.375   3.758 -0.3680 -0.0332 -0.1730
 6689SOL    HW131526   2.696   3.369   3.816  0.6173 -0.9646 -1.5637
 6689SOL    HW231527   2.595   3.464   3.782 -4.1023 -1.0890 -0.1478
 6690SOL     OW31528   2.365   2.074   2.046 -0.1537 -0.0440 -0.0758
 6690SOL    HW131529   2.280   2.116   2.042  0.5402  1.1823 -2.2529
 6690SOL    HW231530   2.367   2.045   2.137  1.2987  2.4343  0.6789
 6691SOL     OW31531   0.687   2.710   4.103 -0.8216  0.2171  1.0678
 6691SOL    HW131532   0.665   2.726   4.011 -0.6371 -4.2268  0.2689
 6691SOL    HW231533   0.603   2.731   4.143 -1.2425  1.7101 -0.5988
 6692SOL     OW31534   3.584   2.589  10.406 -0.2440  0.4470 -0.4140
 6692SOL    HW131535   3.654   2.524  10.394 -1.3384 -0.7345 -0.4250
 6692SOL    HW231536   3.612   2.641  10.481  1.9579 -0.1712 -0.8021
 6693SOL     OW31537   1.327   1.727  15.144  0.1831  0.2730  0.1056
 6693SOL    HW131538   1.412   1.696  15.113  0.6676  3.2943 -1.6439
 6693SOL    HW231539   1.346   1.761  15.232 -0.6643 -0.5565  0.6020
 6694SOL     OW31540   1.331   1.687   2.287 -0.2280 -0.0847 -0.5861
 6694SOL    HW131541   1.313   1.625   2.216  1.4243 -2.1876  0.8338
 6694SOL    HW231542   1.245   1.668   2.323 -0.5659  2.0311 -0.2993
 6695SOL     OW31543   1.861   3.957  16.351  0.1912  0.3585 -0.6432
 6695SOL    HW131544   1.949   3.988  16.370 -0.0801  1.5063 -1.2190
 6695SOL    HW231545   1.857   3.974  16.257 -1.3116 -2.7682 -1.1381
 6696SOL     OW31546   3.031   1.393   4.155 -0.0033 -0.4947  0.0818
 6696SOL    HW131547   3.110   1.341   4.140  1.4319  1.4232  0.9693
 6696SOL    HW231548   2.971   1.320   4.138  0.6395 -0.7552 -1.1113
 6697SOL     OW31549   4.639   0.263   4.381 -0.3225 -0.6770  0.1349
 6697SOL    HW131550   4.576   0.194   4.403 -0.0784 -0.4636  1.5120
 6697SOL    HW231551   4.710   0.233   4.438 -0.0732 -0.6575 -0.1663
 6698SOL     OW31552   1.507   1.545   4.262 -0.1267 -0.6045 -0.0272
 6698SOL    HW131553   1.527   1.452   4.249  0.6868 -0.3756 -0.3481
 6698SOL    HW231554   1.470   1.585   4.184  0.3117  0.3923  0.2799
 6699SOL     OW31555   0.166   0.413   9.390  0.4032  0.3941  0.2041
 6699SOL    HW131556   0.177   0.505   9.415 -0.7524  0.3798  0.7521
 6699SOL    HW231557   0.075   0.409   9.361 -0.4460 -0.3633  2.9985
 6700SOL     OW31558   0.055   1.435  11.624 -0.0474  0.6088  0.0587
 6700SOL    HW131559   0.123   1.369  11.610 -0.2019 -0.0279  2.2461
 6700SOL    HW231560   0.046   1.421  11.719  0.4646 -1.8447 -0.2439
 6701SOL     OW31561   1.073   1.568   2.691 -0.0684 -0.2636 -0.1725
 6701SOL    HW131562   1.148   1.627   2.704  1.1097 -2.0582  1.1289
 6701SOL    HW231563   1.005   1.633   2.671 -0.3026 -0.3595  0.3299
 6702SOL     OW31564   2.060   4.456   4.831 -0.0933 -0.1047  0.0251
 6702SOL    HW131565   2.106   4.426   4.753  0.9778  0.1149  0.5739
 6702SOL    HW231566   2.135   4.454   4.891 -0.5883 -0.3731  0.6354
 6703SOL     OW31567   2.815   1.355   3.380 -0.6892  0.2120  0.3012
 6703SOL    HW131568   2.897   1.399   3.402  0.5282 -2.2358  0.6504
 6703SOL    HW231569   2.749   1.423   3.368  0.8485  1.3201 -1.8525
 6704SOL     OW31570   2.222   4.688   0.366 -0.4947 -0.1801  0.4322
 6704SOL    HW131571   2.147   4.632   0.349 -0.6443  0.4500 -1.0072
 6704SOL    HW231572   2.300   4.645   0.329 -0.7498  1.8882 -2.5327
 6705SOL     OW31573   3.893   1.623   9.092  0.0082  0.4548  0.1531
 6705SOL    HW131574   3.858   1.542   9.054  0.0624 -0.2677  1.6395
 6705SOL    HW231575   3.969   1.646   9.039 -1.2773  1.0076 -1.4549
 6706SOL     OW31576   1.409   1.687   4.069  0.3750 -0.0821 -0.2286
 6706SOL    HW131577   1.440   1.767   4.112 -0.5008  0.8952 -1.4256
 6706SOL    HW231578   1.457   1.695   3.987  1.4682 -0.4420  0.3685
 6707SOL     OW31579   3.978   2.730  10.648 -0.0284 -0.4609 -0.3423
 6707SOL    HW131580   4.014   2.708  10.562  1.0698 -1.4369  0.3599
 6707SOL    HW231581   3.980   2.644  10.690  0.5827  0.4268  1.4529
 6708SOL     OW31582   4.048   1.719   3.149  0.6862 -0.1049 -0.4747
 6708SOL    HW131583   4.099   1.771   3.210  0.1861  1.8836 -1.7554
 6708SOL    HW231584   3.960   1.757   3.147  0.9395  0.5458  0.9382
 6709SOL     OW31585   2.310   3.707   4.962 -0.4907  0.1146  0.7649
 6709SOL    HW131586   2.381   3.772   4.963 -0.1782 -0.2260  0.9579
 6709SOL    HW231587   2.348   3.627   4.997  1.2135  1.1164  1.2159
 6710SOL     OW31588   1.590   3.935  16.347 -0.0705 -0.7113  0.8728
 6710SOL    HW131589   1.677   3.971  16.364 -0.9432  1.2572  1.0954
 6710SOL    HW231590   1.556   4.023  16.331 -2.2749 -1.9899 -1.5405
 6711SOL     OW31591   2.719   4.551   4.145 -0.1790  0.3172 -0.3151
 6711SOL    HW131592   2.807   4.570   4.177 -1.0157  0.2444  2.0196
 6711SOL    HW231593   2.673   4.620   4.194 -1.5849 -0.4401 -0.5659
 6712SOL     OW31594   2.643   0.428   6.192 -0.5347  0.3888 -0.1814
 6712SOL    HW131595   2.662   0.496   6.128  1.8637 -2.0573 -2.0385
 6712SOL    HW231596   2.702   0.456   6.261 -1.6157  1.2177  0.4023
 6713SOL     OW31597   0.967   4.387   3.230  0.2821  0.0750  0.7171
 6713SOL    HW131598   1.039   4.361   3.173  1.8798  1.4280  2.1073
 6713SOL    HW231599   0.909   4.410   3.157  0.2871 -1.6456  0.1835
 6714SOL     OW31600   4.069   0.528   0.149  0.5018 -0.1888 -0.0900
 6714SOL    HW131601   4.052   0.442   0.109 -0.4500 -0.1729  0.2857
 6714SOL    HW231602   4.113   0.577   0.079  0.2948  1.2144  0.7664
 6715SOL     OW31603   2.976   1.021   8.388 -0.3021 -0.6054 -0.6368
 6715SOL    HW131604   2.905   1.064   8.340 -0.6659 -0.0421  0.4260
 6715SOL    HW231605   3.024   1.094   8.425  0.0309 -1.2393  0.1700
 6716SOL     OW31606   2.428   2.631   2.599 -0.0968 -0.3137  0.1597
 6716SOL    HW131607   2.453   2.722   2.609  1.0444 -0.3857 -2.2270
 6716SOL    HW231608   2.508   2.585   2.573 -0.8270 -0.9229 -1.0011
 6717SOL     OW31609   4.224   2.593   2.478  0.3107 -0.1810 -0.1616
 6717SOL    HW131610   4.191   2.653   2.411  0.5837  0.0823 -0.0547
 6717SOL    HW231611   4.151   2.530   2.481  1.3300 -1.3381  0.5175
 6718SOL     OW31612   4.491   3.791   7.686 -0.0452 -0.4422 -0.7114
 6718SOL    HW131613   4.509   3.842   7.607  0.1715 -0.6669 -0.8082
 6718SOL    HW231614   4.396   3.786   7.688 -0.1253  1.4000 -0.0006
 6719SOL     OW31615   0.214   2.259   3.906  0.2094 -0.0674  0.1757
 6719SOL    HW131616   0.189   2.205   3.831  2.0925  1.4863 -1.5548
 6719SOL    HW231617   0.296   2.295   3.870 -0.2371 -0.6447 -1.4132
 6720SOL     OW31618   4.249   3.953   0.588 -0.6508 -0.2185  0.5377
 6720SOL    HW131619   4.302   4.021   0.545 -1.7015 -0.0720 -0.5271
 6720SOL    HW231620   4.311   3.881   0.579 -1.3246 -0.8413  0.9205
 6721SOL     OW31621   0.078   2.950   8.622  0.5533  0.0128 -0.0940
 6721SOL    HW131622   0.023   3.028   8.628 -0.0187 -0.3052 -1.2485
 6721SOL    HW231623   0.046   2.889   8.688 -1.8375 -1.4236 -2.6174
 6722SOL     OW31624   3.923   2.691  10.013  0.3913 -0.3033  0.6604
 6722SOL    HW131625   3.981   2.692  10.089  0.8543  0.7498  0.2799
 6722SOL    HW231626   3.873   2.610  10.025 -0.7006  0.3829  0.7848
 6723SOL     OW31627   2.479   3.348   4.211 -0.5478  0.0302  0.3958
 6723SOL    HW131628   2.507   3.263   4.245 -1.4211  0.0917  1.2746
 6723SOL    HW231629   2.473   3.325   4.119  1.0649  1.0295  0.0321
 6724SOL     OW31630   2.879   4.186   0.640  1.0559 -0.6256  0.2768
 6724SOL    HW131631   2.797   4.220   0.605  1.8220 -0.2154 -1.0859
 6724SOL    HW231632   2.847   4.193   0.730 -0.2575  1.8352 -0.3968
 6725SOL     OW31633   1.856   3.427  13.448  0.3493 -0.3474  0.2472
 6725SOL    HW131634   1.838   3.498  13.509 -1.7586 -0.4122 -0.2931
 6725SOL    HW231635   1.774   3.378  13.453 -0.1542  0.8491  3.6995
 6726SOL     OW31636   2.435   4.319  16.125 -0.0248 -0.2364 -0.0612
 6726SOL    HW131637   2.490   4.272  16.062  0.1038  0.8775 -0.7758
 6726SOL    HW231638   2.403   4.385  16.063 -1.1676 -1.4175 -0.7321
 6727SOL     OW31639   3.793   4.288   9.265  0.4607  0.1079  0.6654
 6727SOL    HW131640   3.788   4.325   9.353 -2.5304 -0.6708  0.8198
 6727SOL    HW231641   3.879   4.320   9.237  0.7454 -0.0058  1.3985
 6728SOL     OW31642   2.793   0.141   0.120  0.6556 -0.0055  0.6653
 6728SOL    HW131643   2.753   0.169   0.203 -2.5540  1.9302 -1.5116
 6728SOL    HW231644   2.718   0.088   0.092  1.0166  0.6056 -1.4195
 6729SOL     OW31645   2.247   0.679  14.854 -0.1088  0.1093 -0.6580
 6729SOL    HW131646   2.240   0.640  14.767  1.1290 -1.3289 -0.1118
 6729SOL    HW231647   2.176   0.743  14.851 -0.0312  0.3853  2.9322
 6730SOL     OW31648   3.270   0.768   4.084  0.3245 -0.1264 -0.1784
 6730SOL    HW131649   3.320   0.850   4.093 -0.6248  0.3986  0.2804
 6730SOL    HW231650   3.310   0.717   4.014 -0.3101  1.5750 -1.7755
 6731SOL     OW31651   4.056   2.113   2.732  0.2809  0.1852  0.1816
 6731SOL    HW131652   3.971   2.147   2.703 -0.4816 -1.3932  0.5546
 6731SOL    HW231653   4.099   2.112   2.646  0.3834  3.1331  0.1996
 6732SOL     OW31654   3.112   2.526   2.864  0.0984 -0.1815 -1.0404
 6732SOL    HW131655   3.142   2.609   2.900  1.1616 -0.7453 -0.6384
 6732SOL    HW231656   3.017   2.531   2.876  0.1254  0.1739 -0.9790
 6733SOL     OW31657   0.186   0.070   7.885  0.2808  0.0546 -0.0788
 6733SOL    HW131658   0.243   0.141   7.853 -3.2034  2.3666 -1.1521
 6733SOL    HW231659   0.249   4.723   7.897 -0.3808 -0.8482 -1.8903
 6734SOL     OW31660   2.671   3.517  12.610 -0.7075 -0.1213 -0.2045
 6734SOL    HW131661   2.638   3.459  12.542  0.7676 -0.6247 -0.4887
 6734SOL    HW231662   2.628   3.478  12.686  2.2136 -1.5317  0.7481
 6735SOL     OW31663   0.434   3.931   0.459 -0.2113 -0.0788  0.1748
 6735SOL    HW131664   0.403   4.021   0.451 -0.4061 -0.1997 -0.4382
 6735SOL    HW231665   0.420   3.919   0.553  1.9310 -0.3120  0.4577
 6736SOL     OW31666   0.069   0.503   5.139 -0.7037 -0.3736  0.1176
 6736SOL    HW131667   0.126   0.477   5.211  0.2261  0.4171 -0.3401
 6736SOL    HW231668   4.718   0.443   5.141 -1.1995  0.3081  2.3239
 6737SOL     OW31669   2.613   3.645   9.525  0.0180 -0.6542  0.0388
 6737SOL    HW131670   2.661   3.711   9.576 -1.7184  1.0244 -0.5046
 6737SOL    HW231671   2.618   3.678   9.435 -0.4610 -1.6322 -0.3439
 6738SOL     OW31672   2.916   3.164   7.783 -0.6134 -0.3809 -0.0379
 6738SOL    HW131673   2.824   3.171   7.759 -0.8547  0.4227  1.1041
 6738SOL    HW231674   2.954   3.150   7.696  2.2005 -0.6167  1.2393
 6739SOL     OW31675   2.752   1.598   4.434  0.3721 -0.7209 -0.0700
 6739SOL    HW131676   2.789   1.598   4.345 -1.2589  0.5465 -0.7593
 6739SOL    HW231677   2.768   1.508   4.461  0.3660 -0.5870  0.3800
 6740SOL     OW31678   0.988   0.685   6.104 -0.0605 -0.6062  0.3228
 6740SOL    HW131679   1.017   0.594   6.103  0.7903 -0.3398  1.9888
 6740SOL    HW231680   0.949   0.688   6.191 -0.1493 -0.4018  0.2772
 6741SOL     OW31681   2.529   2.711   4.121 -0.1589  0.2248 -0.1962
 6741SOL    HW131682   2.501   2.718   4.213  0.7782 -0.1932  0.1242
 6741SOL    HW231683   2.530   2.806   4.108  1.8160  0.2954  0.4335
 6742SOL     OW31684   1.365   2.023   3.811  0.4231  0.6528 -0.0849
 6742SOL    HW131685   1.430   2.043   3.743 -0.0850 -1.0393 -1.0701
 6742SOL    HW231686   1.420   2.020   3.889 -0.9296  4.0046  0.9757
 6743SOL     OW31687   3.946   0.698   2.858 -0.2390  0.0579 -0.3369
 6743SOL    HW131688   3.896   0.623   2.892  0.5734 -0.7194 -0.8652
 6743SOL    HW231689   4.035   0.684   2.891  0.1521 -1.0028 -1.8703
 6744SOL     OW31690   2.114   4.093   4.438  0.4178  0.0968 -0.0352
 6744SOL    HW131691   2.104   4.078   4.532 -2.6225  2.3100  0.0006
 6744SOL    HW231692   2.037   4.151   4.431 -0.9118 -1.5875  0.6006
 6745SOL     OW31693   3.462   0.040  17.494  0.8353  0.3465 -0.5136
 6745SOL    HW131694   3.499   0.046  17.582 -1.3555 -1.0953  0.5071
 6745SOL    HW231695   3.482   4.677  17.459 -1.5734  1.0353 -3.6340
 6746SOL     OW31696   0.697   2.503  15.098  0.2849  0.3871  0.5034
 6746SOL    HW131697   0.709   2.556  15.019  3.2911 -0.6712  0.2097
 6746SOL    HW231698   0.756   2.431  15.073 -0.6954 -0.3962  0.4689
 6747SOL     OW31699   0.997   1.891   9.039  0.1451  0.0488  0.2868
 6747SOL    HW131700   1.008   1.805   9.081 -0.8676 -2.0484 -3.7214
 6747SOL    HW231701   1.068   1.881   8.976 -0.2897 -1.8301  0.0732
 6748SOL     OW31702   1.148   1.983   3.341 -0.2546 -0.1196  0.0940
 6748SOL    HW131703   1.131   1.923   3.413  2.4197  0.5220  1.2490
 6748SOL    HW231704   1.111   2.065   3.375  1.1320  0.3289  0.5108
 6749SOL     OW31705   4.359   1.014   6.594  0.2122 -0.1786  0.0285
 6749SOL    HW131706   4.438   1.021   6.540 -0.4871  4.3256 -0.3998
 6749SOL    HW231707   4.356   1.101   6.635 -1.3089 -0.6568  0.9207
 6750SOL     OW31708   3.266   3.135   7.467  0.6541 -0.1240  0.3090
 6750SOL    HW131709   3.330   3.071   7.435 -0.9860  0.1740 -3.5228
 6750SOL    HW231710   3.315   3.217   7.460 -1.1709  0.8829 -0.5741
 6751SOL     OW31711   3.506   4.400  11.405  0.2820  0.0385  0.3517
 6751SOL    HW131712   3.417   4.399  11.369 -0.7186  1.0055  2.7698
 6751SOL    HW231713   3.557   4.447  11.340 -1.6710  1.2252 -0.3123
 6752SOL     OW31714   3.328   4.256   2.819  0.7934  0.2212  0.6150
 6752SOL    HW131715   3.348   4.254   2.912 -1.9914  1.5842  1.2386
 6752SOL    HW231716   3.387   4.320   2.779  0.7665  0.5222  1.0543
 6753SOL     OW31717   0.487   0.134   2.526  0.1266 -0.2843  0.3102
 6753SOL    HW131718   0.440   0.120   2.444  1.7273 -1.2196 -0.4434
 6753SOL    HW231719   0.572   0.097   2.504  0.8753  0.8326  1.3163
 6754SOL     OW31720   4.420   4.611   8.270  0.1374  0.6121 -0.0258
 6754SOL    HW131721   4.334   4.572   8.252  0.7914 -0.3412 -1.0488
 6754SOL    HW231722   4.455   4.589   8.183  0.3304 -0.7805  0.4016
 6755SOL     OW31723   3.115   2.135  14.794 -0.3430 -0.9013  0.3353
 6755SOL    HW131724   3.091   2.051  14.832  0.1073 -2.3623 -2.5813
 6755SOL    HW231725   3.134   2.096  14.709  0.4613 -0.3571  0.2641
 6756SOL     OW31726   4.083   3.721   6.314  0.3212  0.1059  0.0657
 6756SOL    HW131727   4.006   3.763   6.276 -0.7793 -1.8382  0.1088
 6756SOL    HW231728   4.096   3.762   6.399  1.0021  0.8527 -0.3973
 6757SOL     OW31729   0.662   3.195   0.044 -0.8251  0.0650 -0.1506
 6757SOL    HW131730   0.648   3.119   0.099 -1.2993  1.6251  1.8698
 6757SOL    HW231731   0.598   3.185  17.669 -0.0396  1.5157 -1.0753
 6758SOL     OW31732   0.644   4.466   5.917 -0.3211 -0.1302  0.1822
 6758SOL    HW131733   0.731   4.493   5.890 -0.9001  0.1882 -1.3848
 6758SOL    HW231734   0.596   4.549   5.914 -0.9709 -0.6012 -2.9070
 6759SOL     OW31735   3.759   0.520   6.330 -0.0648  0.0059  0.0444
 6759SOL    HW131736   3.842   0.536   6.375 -1.5182 -0.7087  2.9808
 6759SOL    HW231737   3.750   0.604   6.285 -1.2836 -1.0333 -1.6460
 6760SOL     OW31738   2.742   3.505   9.194 -0.3727  0.3948 -0.4204
 6760SOL    HW131739   2.790   3.587   9.181  1.9177 -0.4453  2.4457
 6760SOL    HW231740   2.654   3.520   9.162 -1.5245 -1.3031  1.9536
 6761SOL     OW31741   1.837   3.942   2.605 -0.5131  0.6509  0.5202
 6761SOL    HW131742   1.772   3.946   2.535  0.1385 -1.7741 -0.2392
 6761SOL    HW231743   1.859   3.850   2.589  1.0175  1.1505 -0.2660
 6762SOL     OW31744   0.411   1.365   0.374  0.3026  0.3021 -0.5439
 6762SOL    HW131745   0.470   1.419   0.321 -0.2411  1.3994 -0.0209
 6762SOL    HW231746   0.334   1.400   0.330  0.9377 -1.0769 -2.8005
 6763SOL     OW31747   3.750   4.573   9.113 -0.0239 -0.4645  0.2846
 6763SOL    HW131748   3.815   4.517   9.156 -0.1417 -1.2421 -0.5666
 6763SOL    HW231749   3.731   4.637   9.182  2.3120  1.1730 -0.5954
 6764SOL     OW31750   2.487   0.562   9.676 -0.1526  0.3624  0.5005
 6764SOL    HW131751   2.431   0.631   9.641 -1.0563  1.1828  3.5097
 6764SOL    HW231752   2.572   0.605   9.678 -0.3312  0.6906  0.9897
 6765SOL     OW31753   1.345   0.871   4.399 -0.4493  0.0198  0.0539
 6765SOL    HW131754   1.374   0.915   4.478 -1.0528 -1.3146  1.0168
 6765SOL    HW231755   1.362   0.939   4.334  2.1617 -0.4598  0.2499
 6766SOL     OW31756   0.967   0.129  15.097  0.3771 -0.0190  0.1084
 6766SOL    HW131757   0.899   0.146  15.163  0.6372 -0.8191  0.5862
 6766SOL    HW231758   0.996   0.219  15.085  0.4230  0.2825  2.4367
 6767SOL     OW31759   4.714   2.036   3.856 -0.1422  0.5689  0.5013
 6767SOL    HW131760   0.054   1.976   3.897 -1.0084 -1.6484 -1.3893
 6767SOL    HW231761   0.037   2.119   3.857 -2.7509  2.0650 -3.0672
 6768SOL     OW31762   4.576   0.508  14.931  0.5004  0.2050  0.2968
 6768SOL    HW131763   4.559   0.602  14.932  1.6699  0.4254 -0.5608
 6768SOL    HW231764   4.560   0.488  14.839 -1.9914  1.8073  0.3818
 6769SOL     OW31765   2.997   4.715  10.168  0.4976  0.0936 -0.0528
 6769SOL    HW131766   2.982   4.639  10.111 -2.4552  0.7397 -0.0986
 6769SOL    HW231767   2.965   0.068  10.121  0.6194 -1.9593 -3.5335
 6770SOL     OW31768   0.386   1.311   4.594  0.3437 -0.1022  0.1846
 6770SOL    HW131769   0.356   1.359   4.516 -1.9686 -2.6444 -0.5050
 6770SOL    HW231770   0.465   1.359   4.617 -0.2341  1.7299 -1.5971
 6771SOL     OW31771   2.765   3.109   1.291 -0.1029  0.0745 -0.2789
 6771SOL    HW131772   2.789   3.038   1.351 -1.1259 -0.7398 -0.8259
 6771SOL    HW231773   2.852   3.125   1.254 -1.0137  1.1627 -1.9705
 6772SOL     OW31774   1.574   2.201  15.500  0.0982 -0.2692  0.6177
 6772SOL    HW131775   1.630   2.235  15.430 -0.9625 -1.2978 -0.7363
 6772SOL    HW231776   1.629   2.196  15.578  0.2991 -0.0110  0.4938
 6773SOL     OW31777   3.460   2.768   4.093 -0.2590  0.5983  0.0417
 6773SOL    HW131778   3.415   2.848   4.119  0.5156  0.1067  2.9181
 6773SOL    HW231779   3.531   2.752   4.154 -0.7245 -0.2415  0.3688
 6774SOL     OW31780   4.226   2.416   1.361 -0.3739 -0.3170 -0.1569
 6774SOL    HW131781   4.156   2.408   1.296 -1.4844 -1.3230  1.1550
 6774SOL    HW231782   4.204   2.341   1.416 -0.7586 -2.6241 -3.4336
 6775SOL     OW31783   2.207   3.457  13.786  0.4660  0.4451  0.0982
 6775SOL    HW131784   2.203   3.518  13.712 -2.6193 -0.2731 -0.3135
 6775SOL    HW231785   2.217   3.369  13.749  1.4717  0.2538  0.8193
 6776SOL     OW31786   3.201   3.427   5.744 -0.0688 -0.6376 -0.5504
 6776SOL    HW131787   3.143   3.470   5.807 -0.1585 -0.3730 -0.8172
 6776SOL    HW231788   3.261   3.389   5.808  0.0460 -0.4149 -0.5279
 6777SOL     OW31789   1.871   4.417   5.868  0.6650  0.0681  0.5723
 6777SOL    HW131790   1.823   4.403   5.950  0.9107 -2.0503  0.3682
 6777SOL    HW231791   1.846   4.340   5.817  1.6543  0.1180  0.0138
 6778SOL     OW31792   3.721   4.304   7.687 -0.6739  0.0409 -0.2159
 6778SOL    HW131793   3.646   4.358   7.664 -1.2308 -0.1860  1.0369
 6778SOL    HW231794   3.702   4.281   7.778 -2.2905  0.5930 -0.4289
 6779SOL     OW31795   3.572   1.426  12.378 -0.4343 -0.0483 -0.2802
 6779SOL    HW131796   3.584   1.408  12.471 -2.2568  0.0799 -0.0310
 6779SOL    HW231797   3.623   1.359  12.332  0.3590 -0.4580  1.1910
 6780SOL     OW31798   3.639   4.021  11.565  0.2063  0.4000 -0.0732
 6780SOL    HW131799   3.664   4.005  11.474 -1.7751  1.4409 -0.7993
 6780SOL    HW231800   3.704   3.963  11.604  2.5276  2.5580 -0.7526
 6781SOL     OW31801   2.173   3.970   7.495 -0.3847 -0.0417  0.1721
 6781SOL    HW131802   2.123   4.015   7.428 -0.1673  0.8934  0.6443
 6781SOL    HW231803   2.139   3.880   7.493 -2.6827  0.8045  1.3697
 6782SOL     OW31804   2.210   3.249  11.632  0.1020  0.1709 -0.6972
 6782SOL    HW131805   2.208   3.157  11.658 -0.0835  0.1980 -0.6138
 6782SOL    HW231806   2.117   3.272  11.624 -0.2814 -1.4405 -0.8298
 6783SOL     OW31807   1.269   4.567   8.146 -0.2034  0.1167  0.3623
 6783SOL    HW131808   1.177   4.545   8.131 -0.3672 -0.2773  1.9156
 6783SOL    HW231809   1.312   4.509   8.084  0.3695  1.1940 -0.2444
 6784SOL     OW31810   2.717   3.774  12.517  0.3562  0.1022 -0.4342
 6784SOL    HW131811   2.629   3.810  12.507  0.8014  1.2214 -0.3650
 6784SOL    HW231812   2.704   3.684  12.548  0.1138 -0.2754 -1.6576
 6785SOL     OW31813   3.190   2.089   5.197  0.2655  0.3692  0.0932
 6785SOL    HW131814   3.279   2.108   5.168  0.3401  0.4897  0.4016
 6785SOL    HW231815   3.199   2.115   5.289 -0.1612 -1.9281  0.7861
 6786SOL     OW31816   0.328   1.794   1.107 -0.0627  0.1877 -0.7359
 6786SOL    HW131817   0.280   1.827   1.183  0.0320 -0.3534 -0.4411
 6786SOL    HW231818   0.337   1.702   1.131  0.5688  0.9533  1.9586
 6787SOL     OW31819   3.592   3.760   9.143 -0.3258 -0.1095 -0.0610
 6787SOL    HW131820   3.559   3.762   9.233  0.0318 -0.2991  0.0769
 6787SOL    HW231821   3.595   3.665   9.136  1.2814 -0.1921  1.5287
 6788SOL     OW31822   0.890   4.117  17.091 -0.0175  0.0982  0.1649
 6788SOL    HW131823   0.953   4.045  17.088  0.0060  0.1735 -1.0097
 6788SOL    HW231824   0.898   4.139  17.184  1.2600 -1.3748  0.4090
 6789SOL     OW31825   1.375   1.047   8.466 -0.0861  0.6189 -0.4003
 6789SOL    HW131826   1.298   1.051   8.524  2.2710  0.8976  2.7023
 6789SOL    HW231827   1.427   0.992   8.525  1.4679  2.8455  0.3065
 6790SOL     OW31828   0.307   1.118  15.655  0.3837  0.1300  0.1282
 6790SOL    HW131829   0.339   1.082  15.572  1.3080 -0.8304  0.8991
 6790SOL    HW231830   0.251   1.044  15.678  1.6895 -0.3901  1.6242
 6791SOL     OW31831   4.482   0.731  15.134 -0.2905 -0.4608  0.1284
 6791SOL    HW131832   4.569   0.695  15.150  0.3930  1.8168  1.6467
 6791SOL    HW231833   4.498   0.825  15.140 -2.8824 -0.0984  1.3323
 6792SOL     OW31834   3.993   4.634   4.139  0.3078  0.2578  0.0378
 6792SOL    HW131835   4.002   4.588   4.223 -0.6141 -0.4811 -0.2821
 6792SOL    HW231836   3.898   4.646   4.135  0.0778 -2.0629 -1.2760
 6793SOL     OW31837   0.814   2.697   4.847  0.0673 -0.1775 -0.2237
 6793SOL    HW131838   0.758   2.766   4.882 -1.3279 -1.4275  0.0492
 6793SOL    HW231839   0.847   2.658   4.928 -2.0862  0.0599  0.7795
 6794SOL     OW31840   0.092   0.591   9.136 -0.2388 -0.0168  0.1627
 6794SOL    HW131841   0.144   0.620   9.211 -0.1826 -2.0885  0.9250
 6794SOL    HW231842   0.015   0.648   9.146  0.0883  0.8116 -2.0163
 6795SOL     OW31843   3.469   0.760   5.461 -0.2149 -0.2728  0.1515
 6795SOL    HW131844   3.414   0.681   5.462  0.6935 -0.9225 -1.2720
 6795SOL    HW231845   3.452   0.796   5.374 -1.7262  1.6335  1.2279
 6796SOL     OW31846   0.768   1.962   3.310  0.4602  0.0371 -0.4997
 6796SOL    HW131847   0.745   2.046   3.351  3.2065  0.1500  0.7949
 6796SOL    HW231848   0.800   1.909   3.383 -0.9045  0.5337  0.4690
 6797SOL     OW31849   0.841   0.055   4.914  0.0930 -0.0947  0.5962
 6797SOL    HW131850   0.852   0.101   4.998 -1.2371  1.2337  0.0348
 6797SOL    HW231851   0.905   0.096   4.856 -1.9653 -0.7146 -2.0773
 6798SOL     OW31852   3.110   0.606   7.891 -0.2359  0.2458  0.0920
 6798SOL    HW131853   3.111   0.513   7.912 -0.4144 -0.2734 -2.2297
 6798SOL    HW231854   3.189   0.613   7.838  0.8137 -1.0629  1.4858
 6799SOL     OW31855   3.281   4.066   2.226  0.4266  0.3369  0.9253
 6799SOL    HW131856   3.233   3.983   2.234  1.0204  0.1651  2.6418
 6799SOL    HW231857   3.260   4.107   2.310  1.1824  2.2195  0.1835
 6800SOL     OW31858   1.271   0.775   6.219  0.3014 -0.2964 -0.1538
 6800SOL    HW131859   1.263   0.828   6.298  1.6903  0.1750 -0.3348
 6800SOL    HW231860   1.229   0.835   6.157 -0.3814  1.6474  2.2210
 6801SOL     OW31861   1.507   0.379   9.387 -0.0477  0.2843  0.6048
 6801SOL    HW131862   1.442   0.449   9.375  1.2381  1.0534 -1.8757
 6801SOL    HW231863   1.590   0.426   9.375  0.7120 -0.8567  1.4789
 6802SOL     OW31864   4.650   2.969   1.243  0.3439  0.3290 -0.5057
 6802SOL    HW131865   4.664   2.995   1.152  1.6194  1.7545  0.0941
 6802SOL    HW231866   4.555   2.980   1.245  0.1850 -0.9277 -1.3908
 6803SOL     OW31867   4.376   2.281   7.028 -0.3857 -0.0907 -0.5386
 6803SOL    HW131868   4.328   2.239   7.099  2.3346 -1.3656  0.5502
 6803SOL    HW231869   4.406   2.362   7.068  0.7517  0.5931 -2.7210
 6804SOL     OW31870   0.034   1.225  11.093  0.4784  0.4590 -0.1489
 6804SOL    HW131871   4.672   1.259  11.070  0.9027  0.8859 -1.1032
 6804SOL    HW231872   0.009   1.167  11.165  0.7728  0.4224 -0.0728
 6805SOL     OW31873   3.987   3.290   5.140 -0.6501  0.3821  0.9619
 6805SOL    HW131874   3.998   3.283   5.045 -0.6373 -0.3797  1.0161
 6805SOL    HW231875   3.893   3.274   5.150 -1.0893  1.5009 -1.3560
 6806SOL     OW31876   4.235   2.829  15.266 -0.3005  0.2197  0.3942
 6806SOL    HW131877   4.265   2.777  15.191 -2.4777  2.1272 -1.7719
 6806SOL    HW231878   4.140   2.827  15.265 -0.3082  1.1414 -0.4742
 6807SOL     OW31879   0.794   1.663   1.904 -0.1888  0.2901  0.2379
 6807SOL    HW131880   0.712   1.708   1.884 -0.8260 -0.3102  1.4976
 6807SOL    HW231881   0.768   1.572   1.892  0.0411  0.3587 -0.7673
 6808SOL     OW31882   3.163   1.443  14.100 -0.6009 -0.2899  0.3818
 6808SOL    HW131883   3.228   1.445  14.170 -0.8727 -1.5626  0.6802
 6808SOL    HW231884   3.095   1.388  14.140 -1.7073  0.5302 -0.3775
 6809SOL     OW31885   4.320   2.702  12.427  0.0369  0.4337 -0.2457
 6809SOL    HW131886   4.231   2.735  12.427 -0.4838 -0.9483  1.7167
 6809SOL    HW231887   4.335   2.707  12.522 -0.5069 -1.1106 -0.0806
 6810SOL     OW31888   0.426   3.572   1.679 -0.1091  0.3232  0.1056
 6810SOL    HW131889   0.501   3.538   1.727 -0.3257  1.2886  1.1276
 6810SOL    HW231890   0.450   3.661   1.654  1.4915  0.2420  1.3865
 6811SOL     OW31891   0.461   4.075   0.752  0.5014 -0.5645 -0.0581
 6811SOL    HW131892   0.428   4.072   0.842  2.2832 -1.4341  0.5705
 6811SOL    HW231893   0.540   4.021   0.752  0.0146 -1.2828  0.9521
 6812SOL     OW31894   0.351   2.259   5.806  0.4060  0.4301  0.1654
 6812SOL    HW131895   0.430   2.260   5.751  0.9851 -0.5690  0.9814
 6812SOL    HW231896   0.370   2.178   5.853  0.5074  0.5325  0.3021
 6813SOL     OW31897   4.267   2.060   8.934 -0.5469 -0.1566 -0.0091
 6813SOL    HW131898   4.272   2.147   8.974  0.8034 -0.0785 -0.3280
 6813SOL    HW231899   4.285   1.994   9.000 -2.3962  0.7653  1.4209
 6814SOL     OW31900   0.089   0.852  16.579  0.8486 -0.0512  0.1814
 6814SOL    HW131901   0.181   0.842  16.557  0.4486 -1.9253 -0.6175
 6814SOL    HW231902   0.080   0.945  16.557  0.6695  0.2526  1.5164
 6815SOL     OW31903   2.235   1.403   4.459 -0.2385  0.8124 -0.2675
 6815SOL    HW131904   2.159   1.358   4.422  0.2838 -1.0550  0.9709
 6815SOL    HW231905   2.305   1.348   4.424 -1.6296  0.5621 -2.6030
 6816SOL     OW31906   2.503   0.002   0.516 -1.2609 -0.3806  0.5979
 6816SOL    HW131907   2.582   4.720   0.463 -1.1416  2.1505  0.4911
 6816SOL    HW231908   2.435   0.016   0.450  0.2238 -1.1071 -1.0850
 6817SOL     OW31909   4.407   2.109  15.716 -0.4561 -0.1915 -0.1100
 6817SOL    HW131910   4.493   2.141  15.690 -1.0288  1.7872  0.4037
 6817SOL    HW231911   4.359   2.192  15.720 -0.7062 -0.4096  1.4320
 6818SOL     OW31912   4.215   2.275   4.075 -0.2125 -0.3045  0.2518
 6818SOL    HW131913   4.259   2.201   4.117  0.9649 -0.3079 -1.0009
 6818SOL    HW231914   4.132   2.272   4.122  0.4407 -0.1899  1.4458
 6819SOL     OW31915   3.614   1.546   6.795 -0.1367  0.0481  0.2081
 6819SOL    HW131916   3.687   1.600   6.765  1.7422 -2.2810  0.5643
 6819SOL    HW231917   3.656   1.503   6.869 -0.5479 -0.7462 -0.0122
 6820SOL     OW31918   1.457   2.749   6.701 -0.9761 -0.5642 -0.0938
 6820SOL    HW131919   1.522   2.721   6.766  0.4527 -2.0201 -2.1343
 6820SOL    HW231920   1.478   2.691   6.627  0.0689 -1.3913  0.8526
 6821SOL     OW31921   1.934   3.491  10.981 -0.0507  0.3217 -0.2253
 6821SOL    HW131922   1.941   3.468  10.888  0.5956  2.3085 -0.6677
 6821SOL    HW231923   2.025   3.518  10.988 -0.8537  2.6143  1.2139
 6822SOL     OW31924   1.069   3.077   1.577 -0.5952 -0.6010  0.2636
 6822SOL    HW131925   1.104   3.023   1.506  2.5388  1.8289 -0.0297
 6822SOL    HW231926   0.974   3.077   1.562 -0.5848  0.7017  0.1315
 6823SOL     OW31927   3.156   4.254   4.814  0.3277 -0.4183 -0.2566
 6823SOL    HW131928   3.067   4.284   4.797  0.2800  0.2393  1.1519
 6823SOL    HW231929   3.199   4.339   4.813 -1.2880  0.3847 -2.9786
 6824SOL     OW31930   4.441   1.131   4.140  0.5180  0.6360 -0.0058
 6824SOL    HW131931   4.359   1.137   4.090 -1.0794  2.4447  2.8223
 6824SOL    HW231932   4.490   1.071   4.085 -2.1997 -0.3065 -1.4213
 6825SOL     OW31933   1.482   0.055   8.916 -0.1293  0.3351 -0.0953
 6825SOL    HW131934   1.431   4.717   8.967  0.9566 -0.4401  0.0448
 6825SOL    HW231935   1.489   0.001   8.838 -2.6560  0.0809 -0.1394
 6826SOL     OW31936   3.076   3.704   1.672  0.5476 -0.2974  0.7742
 6826SOL    HW131937   3.028   3.633   1.714  2.6872 -1.8350  0.6563
 6826SOL    HW231938   3.166   3.712   1.706 -0.2507 -1.6475  3.2501
 6827SOL     OW31939   0.497   1.735   6.328 -0.9589  0.4535 -0.1656
 6827SOL    HW131940   0.411   1.775   6.340 -0.6747  0.4513  1.8023
 6827SOL    HW231941   0.472   1.646   6.352 -0.4333  0.7209  1.3612
 6828SOL     OW31942   2.487   2.376  15.477 -0.0384 -0.0658  0.8091
 6828SOL    HW131943   2.395   2.349  15.471 -0.5595  1.3675  2.3903
 6828SOL    HW231944   2.515   2.405  15.391 -0.0284  0.9479  1.1513
 6829SOL     OW31945   0.303   1.589   1.720  0.4555  0.3789 -0.2367
 6829SOL    HW131946   0.304   1.578   1.625 -2.2285  1.0016 -0.3354
 6829SOL    HW231947   0.216   1.627   1.734 -0.3529 -1.3625 -0.5074
 6830SOL     OW31948   2.577   3.831   5.737  0.1426 -0.2613 -0.3660
 6830SOL    HW131949   2.666   3.864   5.737 -0.4093  1.2105 -1.8414
 6830SOL    HW231950   2.586   3.743   5.775  2.4285 -0.3016 -1.0090
 6831SOL     OW31951   4.353   1.174   1.903 -0.3700  0.0640 -0.2841
 6831SOL    HW131952   4.327   1.262   1.930 -0.2187  0.1281 -0.3524
 6831SOL    HW231953   4.446   1.170   1.925  0.3066 -0.9852 -3.2906
 6832SOL     OW31954   3.949   2.359  10.989  0.0140  0.9711 -0.3189
 6832SOL    HW131955   4.035   2.346  11.030  0.4466  1.3176 -1.1119
 6832SOL    HW231956   3.899   2.294  11.038  3.2841 -0.7372  0.7131
 6833SOL     OW31957   0.888   2.939   7.015  0.7235  0.1416 -0.1314
 6833SOL    HW131958   0.800   2.899   7.017  0.8446 -0.1211 -0.0265
 6833SOL    HW231959   0.924   2.888   7.087  0.8259 -0.1109 -0.3603
 6834SOL     OW31960   0.801   1.859   4.865  0.6571 -0.1959  0.0114
 6834SOL    HW131961   0.865   1.841   4.934  0.9127  0.0303 -0.1651
 6834SOL    HW231962   0.819   1.797   4.795  0.0740  0.0903 -0.3934
 6835SOL     OW31963   2.820   2.881  17.638 -0.2524 -0.0994  0.3458
 6835SOL    HW131964   2.750   2.917  17.692  1.3881  3.2137  0.2531
 6835SOL    HW231965   2.891   2.945  17.646 -0.8495  0.5871  0.2098
 6836SOL     OW31966   1.137   0.720   9.178  0.2960 -0.0387 -0.1441
 6836SOL    HW131967   1.148   0.726   9.273 -1.8405 -1.3166  0.1796
 6836SOL    HW231968   1.213   0.760   9.136 -0.9108  1.5527 -0.8180
 6837SOL     OW31969   3.952   0.874   9.469  0.1930  0.3880  0.0298
 6837SOL    HW131970   4.007   0.869   9.391 -0.9152  0.3287 -0.7555
 6837SOL    HW231971   3.987   0.958   9.499 -0.8712  0.8488 -0.0248
 6838SOL     OW31972   0.761   0.119   2.386  0.3937  0.0112  0.1189
 6838SOL    HW131973   0.768   0.058   2.312 -2.3651  1.3786 -1.2678
 6838SOL    HW231974   0.755   0.205   2.343 -4.0261 -0.7006 -0.6982
 6839SOL     OW31975   0.355   4.380  14.600  0.1811 -0.6854 -0.1524
 6839SOL    HW131976   0.367   4.309  14.538 -0.9449 -0.3427 -0.7522
 6839SOL    HW231977   0.296   4.431  14.545 -1.3195  0.9957  2.9720
 6840SOL     OW31978   1.517   0.695   6.710  0.1359 -0.4311 -0.4146
 6840SOL    HW131979   1.467   0.765   6.753  0.2750 -1.3229  1.2186
 6840SOL    HW231980   1.447   0.631   6.699  0.5616 -0.7764 -1.0606
 6841SOL     OW31981   0.436   2.028   9.785  0.4767  0.0373 -0.1812
 6841SOL    HW131982   0.422   2.059   9.696 -0.1535  0.8891  0.2079
 6841SOL    HW231983   0.490   1.949   9.778 -1.6118 -1.2743 -1.5921
 6842SOL     OW31984   0.338   3.381   6.906 -0.2869  0.2469 -0.3070
 6842SOL    HW131985   0.365   3.331   6.830  2.2497 -0.5619  1.1321
 6842SOL    HW231986   0.306   3.307   6.958 -1.2295  1.9906  1.6225
 6843SOL     OW31987   0.862   4.657   9.197 -0.1606  0.1578 -0.4114
 6843SOL    HW131988   0.873   4.645   9.292  1.8568  1.4743 -0.4711
 6843SOL    HW231989   0.947   4.659   9.154 -0.3801  0.2520 -0.8383
 6844SOL     OW31990   4.482   1.277   6.409 -0.3885 -0.8368  0.1589
 6844SOL    HW131991   4.540   1.339   6.454 -1.7203  0.6085 -0.0861
 6844SOL    HW231992   4.523   1.297   6.325  0.8879 -1.8886  0.5355
 6845SOL     OW31993   1.597   3.496   4.218 -0.2627 -0.4105 -0.2767
 6845SOL    HW131994   1.516   3.543   4.234 -1.7464 -2.8738 -0.5625
 6845SOL    HW231995   1.579   3.459   4.131  1.6580  1.1697 -1.3603
 6846SOL     OW31996   4.653   4.637   8.930  0.0193 -0.2397  0.1790
 6846SOL    HW131997   4.692   4.608   8.848  0.4511  0.9507 -0.0281
 6846SOL    HW231998   4.608   4.718   8.907 -0.4423 -0.4940  0.1916
 6847SOL     OW31999   3.920   4.182   8.814 -0.4538  0.2666 -0.1829
 6847SOL    HW132000   3.838   4.230   8.823 -1.0817 -0.5371 -1.5967
 6847SOL    HW232001   3.913   4.149   8.724  1.4622 -0.0084 -0.2347
 6848SOL     OW32002   3.054   4.154   4.530  0.5110  0.1657 -0.1978
 6848SOL    HW132003   3.074   4.248   4.526  0.3721  0.1563 -1.0613
 6848SOL    HW232004   3.086   4.135   4.619 -1.1445  0.5268  0.4698
 6849SOL     OW32005   3.798   0.084   7.628 -0.5031 -0.0279 -0.1806
 6849SOL    HW132006   3.733   0.038   7.680  3.1318 -3.0322  1.7681
 6849SOL    HW232007   3.820   0.019   7.561 -0.1662 -0.3499  0.2396
 6850SOL     OW32008   1.926   0.141   5.496  0.1586 -0.1140  0.2658
 6850SOL    HW132009   1.831   0.154   5.501  0.3781  2.0111 -1.2447
 6850SOL    HW232010   1.937   0.053   5.533 -0.9588 -0.8482 -1.1465
 6851SOL     OW32011   0.506   0.056  15.557 -0.3946  0.2420  0.2621
 6851SOL    HW132012   0.456   0.004  15.621 -0.1937 -1.1791 -0.7322
 6851SOL    HW232013   0.478   0.143  15.585 -2.0368  0.7352 -2.9377
 6852SOL     OW32014   1.175   3.588   7.663  0.1369  0.1888 -0.1951
 6852SOL    HW132015   1.095   3.549   7.630  0.9995 -1.6320 -0.1100
 6852SOL    HW232016   1.145   3.614   7.750 -0.2523 -0.9701  0.0036
 6853SOL     OW32017   2.434   0.207   3.722 -0.2880  0.4059  0.0721
 6853SOL    HW132018   2.427   0.118   3.689 -0.6246  0.3894  0.1801
 6853SOL    HW232019   2.490   0.187   3.798 -0.8519 -1.3341  0.0270
 6854SOL     OW32020   0.341   1.870  11.992  0.1491  0.2024 -0.1665
 6854SOL    HW132021   0.423   1.851  12.038 -0.6256 -0.7316  0.8402
 6854SOL    HW232022   0.365   1.872  11.900 -2.5709 -0.3082 -0.8899
 6855SOL     OW32023   2.782   0.812   4.959  0.1948  0.3341  0.9251
 6855SOL    HW132024   2.739   0.740   4.912  1.2201 -0.3563  1.0475
 6855SOL    HW232025   2.800   0.778   5.047  1.4865 -0.4562  0.3526
 6856SOL     OW32026   1.053   0.508   4.942 -0.0936  0.5133 -0.3674
 6856SOL    HW132027   0.972   0.533   4.986 -0.8299 -2.7673  0.1988
 6856SOL    HW232028   1.064   0.581   4.882  0.8601  0.2536 -0.5166
 6857SOL     OW32029   4.599   1.835   8.527  0.1699  0.4119  0.2831
 6857SOL    HW132030   4.627   1.812   8.438 -0.1884  0.8855  0.0484
 6857SOL    HW232031   4.683   1.864   8.563  1.0596 -1.4725 -0.2311
 6858SOL     OW32032   0.125   3.617   1.668  0.2832  0.7766 -0.3839
 6858SOL    HW132033   0.079   3.631   1.750  3.0806  1.5088  1.0802
 6858SOL    HW232034   0.193   3.684   1.681 -1.4063  2.6374 -1.1747
 6859SOL     OW32035   1.825   1.023   8.277  0.3819  0.1393 -0.3932
 6859SOL    HW132036   1.886   0.995   8.209 -0.0035 -1.3362 -0.1306
 6859SOL    HW232037   1.855   1.111   8.298 -0.9270  0.6615 -0.6950
 6860SOL     OW32038   0.133   1.539   7.835  0.4020 -0.4145 -0.7885
 6860SOL    HW132039   0.156   1.475   7.902 -1.0398 -0.2661 -0.1541
 6860SOL    HW232040   0.092   1.487   7.766 -0.4420  0.7089 -1.1278
 6861SOL     OW32041   2.279   0.553  13.645  0.0705  0.2971 -1.1105
 6861SOL    HW132042   2.283   0.577  13.552 -1.7064  1.6464 -0.8343
 6861SOL    HW232043   2.244   0.632  13.687  2.3757  0.1235  1.1207
 6862SOL     OW32044   0.501   1.116   3.916  0.4475 -0.3505  0.5094
 6862SOL    HW132045   0.520   1.210   3.915  0.0947 -0.2849  0.2782
 6862SOL    HW232046   0.440   1.111   3.843  0.9655  1.1015 -0.0084
 6863SOL     OW32047   1.866   1.723   2.358 -0.2033 -0.1858 -0.4966
 6863SOL    HW132048   1.784   1.703   2.312 -0.3264 -0.8781  0.0193
 6863SOL    HW232049   1.834   1.780   2.429  0.6012 -1.1964  0.6875
 6864SOL     OW32050   3.844   2.208   8.944  0.4587 -0.0094 -0.1670
 6864SOL    HW132051   3.759   2.253   8.940 -0.1247 -0.9377  1.6162
 6864SOL    HW232052   3.818   2.123   8.910  0.9636  0.1295 -0.8980
 6865SOL     OW32053   1.346   0.030  13.554 -0.2128  0.2326 -0.9621
 6865SOL    HW132054   1.387   4.667  13.563  0.9012  0.6940 -1.6441
 6865SOL    HW232055   1.415   0.067  13.499 -0.3683 -0.4509 -1.6277
 6866SOL     OW32056   0.532   3.480  14.869  0.4342  0.3306  0.4501
 6866SOL    HW132057   0.570   3.393  14.859 -0.2265 -0.1137  1.8628
 6866SOL    HW232058   0.499   3.501  14.782 -0.5903  1.5267  1.1301
 6867SOL     OW32059   0.967   4.199   2.301  0.0755  0.7493  0.5524
 6867SOL    HW132060   1.006   4.113   2.289 -0.9862  0.2709  0.5281
 6867SOL    HW232061   1.019   4.231   2.375  0.4433  1.2162  0.0908
 6868SOL     OW32062   0.933   3.713  13.586  0.6991  0.1482 -0.3143
 6868SOL    HW132063   0.969   3.624  13.583  0.5055  0.1269 -1.7005
 6868SOL    HW232064   0.938   3.730  13.680  1.7082  0.7366 -0.4707
 6869SOL     OW32065   0.318   3.759  14.444 -0.4490 -0.0016  0.0172
 6869SOL    HW132066   0.351   3.832  14.391 -1.0413  0.6324  0.5323
 6869SOL    HW232067   0.257   3.718  14.383  1.5210 -0.4102 -1.7019
 6870SOL     OW32068   4.030   0.221  15.457 -0.5662 -0.0738  0.1016
 6870SOL    HW132069   3.984   0.141  15.432  1.0258 -0.5816 -1.2275
 6870SOL    HW232070   3.956   0.279  15.436 -1.8576 -1.3996  0.9926
 6871SOL     OW32071   3.835   4.679   5.073  0.8536 -0.2318  0.2535
 6871SOL    HW132072   3.812   4.702   5.163  1.6661 -0.1307  0.4354
 6871SOL    HW232073   3.881   0.032   5.040  1.7560 -1.5509 -1.5727
 6872SOL     OW32074   1.407   1.130  10.576 -0.4510  0.2326  0.4560
 6872SOL    HW132075   1.449   1.107  10.658  0.9180  2.7157  0.4419
 6872SOL    HW232076   1.473   1.189  10.539  1.2168 -0.6703  1.9989
 6873SOL     OW32077   1.868   3.654   2.565  0.1727  0.3118  0.6378
 6873SOL    HW132078   1.788   3.627   2.519  0.0647  0.8715  0.5059
 6873SOL    HW232079   1.917   3.572   2.570 -2.1259 -1.1293 -0.3313
 6874SOL     OW32080   0.220   4.004  14.292  0.2816  0.2948  0.5583
 6874SOL    HW132081   0.136   3.967  14.320  0.9149 -0.5804  1.2884
 6874SOL    HW232082   0.183   4.080  14.246  1.6354 -0.8238 -2.3775
 6875SOL     OW32083   3.970   2.136  11.160 -0.2069  0.0090  0.0926
 6875SOL    HW132084   3.896   2.179  11.203  0.3003 -0.1362  1.1168
 6875SOL    HW232085   4.038   2.198  11.187 -0.7445  0.5902  0.1099
 6876SOL     OW32086   2.274   0.189   5.643  0.5003 -0.1228  0.1408
 6876SOL    HW132087   2.260   0.264   5.702 -1.3270 -3.1530  3.6054
 6876SOL    HW232088   2.289   0.111   5.698 -1.4066 -1.4276 -1.2026
 6877SOL     OW32089   3.127   2.758   3.065  0.5600 -0.2308 -0.3584
 6877SOL    HW132090   3.212   2.775   3.105 -0.7869  4.1046  0.7246
 6877SOL    HW232091   3.085   2.697   3.126  0.2125  1.0384  0.6741
 6878SOL     OW32092   2.057   1.866  14.685 -0.3322 -0.0784 -0.9476
 6878SOL    HW132093   2.041   1.944  14.632  0.2061 -0.2940 -1.4136
 6878SOL    HW232094   2.151   1.874  14.698 -0.0887 -1.7148 -1.7468
 6879SOL     OW32095   0.069   3.472   3.348 -0.0232  0.0203 -0.5866
 6879SOL    HW132096   0.116   3.412   3.290 -0.3521 -1.4971  0.7337
 6879SOL    HW232097   0.066   3.428   3.433 -0.2981 -0.6824 -0.9567
 6880SOL     OW32098   2.750   4.719   9.851  0.2234 -0.5327  0.4418
 6880SOL    HW132099   2.798   4.643   9.884  0.1032 -0.3302  1.0872
 6880SOL    HW232100   2.811   0.070   9.855 -0.6430  0.2150 -0.2123
 6881SOL     OW32101   3.021   4.344   2.538  0.4779  0.3201  0.3488
 6881SOL    HW132102   2.993   4.290   2.464 -2.2782  1.7500  0.3305
 6881SOL    HW232103   3.038   4.432   2.507 -2.0759  1.0441  0.9988
 6882SOL     OW32104   4.012   1.871   0.578 -0.1780  0.1318  0.0627
 6882SOL    HW132105   4.018   1.952   0.628 -1.8193  0.3267 -0.0825
 6882SOL    HW232106   4.012   1.803   0.645  0.2166  0.8736  0.8072
 6883SOL     OW32107   2.371   1.769  17.215 -0.1365 -0.2248  0.2676
 6883SOL    HW132108   2.430   1.752  17.289  0.5655  0.0813 -0.2232
 6883SOL    HW232109   2.400   1.847  17.169  1.2145 -0.2716  1.0404
 6884SOL     OW32110   1.994   2.476   1.306  0.4010  0.6688  0.1480
 6884SOL    HW132111   2.068   2.470   1.367 -0.8389  1.2560  1.7230
 6884SOL    HW232112   1.915   2.474   1.361  1.0696 -1.0346  1.0332
 6885SOL     OW32113   1.320   1.908   1.944  0.3095 -0.2305  0.1511
 6885SOL    HW132114   1.264   1.964   1.997  0.4856  0.2901 -0.2171
 6885SOL    HW232115   1.250   1.871   1.890 -0.2328  1.0626 -0.0303
 6886SOL     OW32116   2.491   0.172  10.206  1.0009 -0.1585  0.1491
 6886SOL    HW132117   2.554   0.221  10.153  0.5978 -1.9922 -1.9719
 6886SOL    HW232118   2.544   0.134  10.276  2.4810 -1.2633 -1.5994
 6887SOL     OW32119   0.353   2.716   6.324  0.2178  0.0629  0.3390
 6887SOL    HW132120   0.416   2.649   6.296  0.0523  0.2431 -0.4650
 6887SOL    HW232121   0.378   2.739   6.413  0.2138  1.0738  0.0785
 6888SOL     OW32122   0.944   2.762   8.618 -0.3315  0.6656  0.3836
 6888SOL    HW132123   1.022   2.733   8.666 -1.8394 -4.0961 -0.0734
 6888SOL    HW232124   0.934   2.684   8.562  2.3410 -0.9446  2.1582
 6889SOL     OW32125   1.601   4.577   6.377  0.3066 -0.6409 -0.2410
 6889SOL    HW132126   1.572   4.639   6.445  0.9750 -1.2064  0.5613
 6889SOL    HW232127   1.673   4.539   6.428  0.4069  0.8749  0.7525
 6890SOL     OW32128   0.306   0.202  10.062 -0.2184 -0.1206 -0.0841
 6890SOL    HW132129   0.375   0.138  10.045  0.0152  0.6591 -2.0356
 6890SOL    HW232130   0.357   0.269  10.108 -1.6864  0.1821  1.1163
 6891SOL     OW32131   3.307   3.786   9.077  0.3746 -0.0551  0.0545
 6891SOL    HW132132   3.253   3.772   9.155 -0.8470  3.1255 -0.2551
 6891SOL    HW232133   3.394   3.751   9.096  0.0306 -0.7823  0.3129
 6892SOL     OW32134   2.327   3.941  13.285 -0.3364 -0.1009  0.7475
 6892SOL    HW132135   2.329   3.972  13.194  1.0091 -1.4236  0.3323
 6892SOL    HW232136   2.340   3.848  13.266 -2.5074 -0.0989 -0.7432
 6893SOL     OW32137   3.078   2.484   7.491 -0.2157  0.1677  0.6481
 6893SOL    HW132138   3.155   2.453   7.444 -0.8431  0.0184 -0.2673
 6893SOL    HW232139   3.084   2.580   7.494 -1.3442  0.2248  1.0790
 6894SOL     OW32140   2.667   1.814  13.623 -0.6148 -0.0618  0.0001
 6894SOL    HW132141   2.599   1.748  13.616 -0.5901 -0.0435 -0.4156
 6894SOL    HW232142   2.619   1.891  13.653 -1.4956 -0.7799  0.4261
 6895SOL     OW32143   0.066   4.458   5.397 -0.0834 -0.3708  0.1332
 6895SOL    HW132144   0.040   4.366   5.403  0.0695 -0.3298  1.4329
 6895SOL    HW232145   4.706   4.504   5.408  0.8990  0.8580  2.5240
 6896SOL     OW32146   0.678   0.903   7.558 -0.4768 -0.3196  0.5895
 6896SOL    HW132147   0.760   0.953   7.563 -0.5551 -0.1157 -0.0952
 6896SOL    HW232148   0.678   0.855   7.641 -0.4529 -1.2505  0.0511
 6897SOL     OW32149   1.234   1.934  15.595  0.7648  0.2068 -0.0151
 6897SOL    HW132150   1.218   1.920  15.688  1.2585 -0.5942 -0.0532
 6897SOL    HW232151   1.268   2.023  15.595 -1.9027  1.2102 -0.5428
 6898SOL     OW32152   4.138   3.885   3.912 -0.0351 -0.3264 -0.1041
 6898SOL    HW132153   4.185   3.814   3.870 -0.2952 -1.5232  1.6062
 6898SOL    HW232154   4.209   3.917   3.967  0.5493  0.2934 -1.2280
 6899SOL     OW32155   3.539   4.181  14.468  0.7419  0.2348  0.6752
 6899SOL    HW132156   3.624   4.199  14.509  0.9355 -2.4459  1.4633
 6899SOL    HW232157   3.465   4.211  14.520  0.2036  1.1091 -0.5930
 6900SOL     OW32158   2.800   3.300   7.291  0.6423  0.1742  0.2704
 6900SOL    HW132159   2.764   3.231   7.347  1.2970 -2.1297 -2.2126
 6900SOL    HW232160   2.885   3.262   7.272  0.5738  0.8599 -1.3691
 6901SOL     OW32161   0.873   3.407   6.438 -0.0607  0.1978  0.4782
 6901SOL    HW132162   0.820   3.413   6.517 -0.0641 -0.0219  0.4938
 6901SOL    HW232163   0.845   3.484   6.389  1.4428  0.3220 -0.1917
 6902SOL     OW32164   2.649   2.943   7.613 -0.2631 -0.0236 -0.2945
 6902SOL    HW132165   2.657   2.913   7.523 -0.9412  0.3217 -0.4668
 6902SOL    HW232166   2.577   2.895   7.653 -1.4186  1.2941 -0.8264
 6903SOL     OW32167   0.340   0.003   0.095  0.2148  0.1299  0.0818
 6903SOL    HW132168   0.335   4.694   0.005  1.2759 -0.9265  0.4108
 6903SOL    HW232169   0.344   0.098   0.086 -0.1624  0.2240  0.9515
 6904SOL     OW32170   3.600   0.958   7.362 -0.1340 -0.4441  0.6461
 6904SOL    HW132171   3.565   1.041   7.330 -0.8862  0.1454  3.0339
 6904SOL    HW232172   3.621   0.990   7.449 -0.7404  0.9513  0.2738
 6905SOL     OW32173   3.276   0.687   9.220  0.2811 -0.5732  0.9405
 6905SOL    HW132174   3.278   0.599   9.182  1.7728  0.1246 -0.5936
 6905SOL    HW232175   3.200   0.674   9.278  0.2181 -1.5772  0.6278
 6906SOL     OW32176   2.645   0.337  10.040  0.2006  0.1318 -0.3809
 6906SOL    HW132177   2.592   0.417  10.046  0.6438  0.4830 -1.1042
 6906SOL    HW232178   2.625   0.308   9.952 -0.6160  0.7525 -0.3962
 6907SOL     OW32179   2.638   4.153   2.370 -0.3392 -0.6176 -0.1236
 6907SOL    HW132180   2.574   4.091   2.404 -1.7113 -0.4192 -2.3038
 6907SOL    HW232181   2.615   4.171   2.279  2.0350  1.1565 -0.3671
 6908SOL     OW32182   3.730   3.637   6.732 -0.1997  0.2396 -0.3337
 6908SOL    HW132183   3.733   3.568   6.798 -0.4393  1.0006  0.4743
 6908SOL    HW232184   3.745   3.590   6.650  0.5903  0.7066 -0.4545
 6909SOL     OW32185   4.093   1.367  17.111 -0.3282  0.5721  0.2977
 6909SOL    HW132186   4.186   1.358  17.131 -0.1256  2.4395  0.2129
 6909SOL    HW232187   4.094   1.461  17.092  0.1324  0.8875  1.8796
 6910SOL     OW32188   0.304   0.728   5.362 -0.5552  0.2424 -0.1051
 6910SOL    HW132189   0.278   0.783   5.288 -1.0113 -2.5222 -1.9805
 6910SOL    HW232190   0.264   0.775   5.436 -1.9661 -1.3449  0.1429
 6911SOL     OW32191   0.868   1.925   1.712 -0.2880  0.2805  0.3780
 6911SOL    HW132192   0.946   1.915   1.767  1.0367 -0.2358 -1.5999
 6911SOL    HW232193   0.814   1.984   1.764 -1.4869 -0.2008 -0.3353
 6912SOL     OW32194   2.571   3.339   8.910  0.5673 -0.0243 -0.3978
 6912SOL    HW132195   2.592   3.286   8.832 -2.5680  0.4196 -1.5418
 6912SOL    HW232196   2.532   3.417   8.870  1.9145 -0.0086 -1.6705
 6913SOL     OW32197   1.707   1.698   0.532  0.3309  0.2116 -0.3370
 6913SOL    HW132198   1.664   1.781   0.554 -1.8505 -1.2628  0.8795
 6913SOL    HW232199   1.688   1.686   0.439 -1.9944  2.5645 -0.1795
 6914SOL     OW32200   1.142   2.188   8.695  0.2218 -0.8514  0.2215
 6914SOL    HW132201   1.173   2.156   8.780  1.8766  1.1542  0.3668
 6914SOL    HW232202   1.076   2.122   8.676 -0.9955 -0.2807  2.4722
 6915SOL     OW32203   0.357   3.039   3.219  0.0916  0.2324  0.1103
 6915SOL    HW132204   0.316   3.124   3.238  0.3214  0.2401  0.5832
 6915SOL    HW232205   0.304   2.985   3.279  0.1901  0.7642  0.6772
 6916SOL     OW32206   1.154   0.148  14.122 -0.2746  0.0609 -0.1001
 6916SOL    HW132207   1.153   0.104  14.207 -0.7161  1.5158  0.6473
 6916SOL    HW232208   1.073   0.121  14.079  0.2239 -0.4027 -0.7498
 6917SOL     OW32209   0.255   1.871   6.384  0.4325 -0.4443  0.6798
 6917SOL    HW132210   0.324   1.899   6.444 -1.5125 -0.9825  3.1591
 6917SOL    HW232211   0.187   1.923   6.426 -1.8748 -1.7052 -1.4700
 6918SOL     OW32212   0.451   0.219  15.208  0.6725  0.3937  0.8138
 6918SOL    HW132213   0.402   0.264  15.276  2.6336  1.3155  1.5979
 6918SOL    HW232214   0.540   0.239  15.235  0.6275  0.1504  1.1407
 6919SOL     OW32215   1.950   3.416   3.184 -0.0010  0.0174  0.1997
 6919SOL    HW132216   1.896   3.466   3.245 -0.6973 -0.3670 -0.0956
 6919SOL    HW232217   1.944   3.325   3.212  1.1319 -0.4046 -0.9596
 6920SOL     OW32218   2.119   2.037   2.616 -0.7795 -0.7633  0.3355
 6920SOL    HW132219   2.100   2.004   2.704  0.0554  0.4205  0.9465
 6920SOL    HW232220   2.044   2.000   2.568 -1.3176  0.7256  0.0377
 6921SOL     OW32221   4.041   0.652   7.563  0.2951 -0.2025  0.0198
 6921SOL    HW132222   3.965   0.594   7.556 -1.1100  1.4914  1.1367
 6921SOL    HW232223   4.101   0.607   7.504 -0.3984 -2.4551  1.0044
 6922SOL     OW32224   4.263   2.398   3.765  0.1834  0.7363  0.2726
 6922SOL    HW132225   4.254   2.330   3.698 -1.6662  2.7343 -1.5068
 6922SOL    HW232226   4.340   2.371   3.816  0.4071  3.0976  1.2095
 6923SOL     OW32227   3.689   1.474   2.723  0.2145  0.2699  0.3194
 6923SOL    HW132228   3.724   1.442   2.640  0.9840  1.7295  0.0812
 6923SOL    HW232229   3.765   1.453   2.777  1.2156 -0.0557 -1.2026
 6924SOL     OW32230   0.868   2.771   5.278  0.3120  0.0470 -0.1225
 6924SOL    HW132231   0.777   2.799   5.286  0.0289 -0.0322 -2.9596
 6924SOL    HW232232   0.856   2.707   5.347 -0.5620  0.3720  0.0197
 6925SOL     OW32233   2.649   0.822   2.343 -0.2187  0.1677 -0.0670
 6925SOL    HW132234   2.575   0.876   2.314  0.6760  0.6058 -1.5161
 6925SOL    HW232235   2.701   0.805   2.265  0.6291 -2.3747  1.0363
 6926SOL     OW32236   1.925   1.452   6.868 -0.1054  0.1920 -0.2987
 6926SOL    HW132237   1.974   1.449   6.950  2.2958  1.3133 -1.7300
 6926SOL    HW232238   1.981   1.437   6.793  2.1174  0.5775  1.2962
 6927SOL     OW32239   2.096   1.747  13.351 -0.0108  0.2710 -0.4397
 6927SOL    HW132240   2.110   1.660  13.314 -2.2172  0.7391 -2.4208
 6927SOL    HW232241   2.003   1.756  13.328 -0.2231 -0.8012  0.0103
 6928SOL     OW32242   2.634   3.719   1.931 -0.2094 -0.1749 -0.0475
 6928SOL    HW132243   2.650   3.698   2.023  1.0189 -0.7227 -0.3964
 6928SOL    HW232244   2.715   3.695   1.886 -1.1432 -2.6201 -0.4243
 6929SOL     OW32245   0.156   1.956   8.621 -0.1517  0.9245 -0.0061
 6929SOL    HW132246   0.247   1.986   8.618  0.4922 -0.9288  1.1440
 6929SOL    HW232247   0.174   1.865   8.645  1.0081  1.5652  1.6211
 6930SOL     OW32248   3.922   1.455   9.691 -0.3833  0.4154  0.5175
 6930SOL    HW132249   4.000   1.485   9.642 -1.2705  1.0920 -0.4928
 6930SOL    HW232250   3.962   1.437   9.776 -1.6280  0.2786  1.0680
 6931SOL     OW32251   0.843   2.667   6.365  0.2069 -0.1239  0.3964
 6931SOL    HW132252   0.791   2.587   6.369  2.3534 -1.3997  2.7752
 6931SOL    HW232253   0.839   2.695   6.274 -3.5635  0.5255  0.7535
 6932SOL     OW32254   3.502   1.802  14.602 -0.0147 -0.1927 -0.3405
 6932SOL    HW132255   3.587   1.845  14.603  0.2039 -0.6247 -0.3926
 6932SOL    HW232256   3.443   1.865  14.642 -1.2462 -1.6336  0.1297
 6933SOL     OW32257   3.489   1.700   5.944  0.2181 -0.3449 -0.3759
 6933SOL    HW132258   3.419   1.676   5.883 -0.3384  0.0384  0.1128
 6933SOL    HW232259   3.438   1.745   6.011 -3.1832 -3.8607 -0.6176
 6934SOL     OW32260   2.578   0.619  11.887  0.6712  0.5163  0.6872
 6934SOL    HW132261   2.599   0.545  11.944 -0.1758  0.9111  1.5132
 6934SOL    HW232262   2.645   0.627  11.819 -1.2492 -0.0823 -1.3036
 6935SOL     OW32263   1.935   4.299   4.437 -0.0007  0.2098 -0.2012
 6935SOL    HW132264   1.861   4.318   4.494  2.5377  0.0229  3.1301
 6935SOL    HW232265   1.895   4.302   4.350  2.5371  0.5764 -1.3604
 6936SOL     OW32266   3.239   1.322  11.644  0.1728  0.4394 -0.2150
 6936SOL    HW132267   3.240   1.417  11.660 -1.6158  0.0389  2.2940
 6936SOL    HW232268   3.330   1.299  11.663 -1.0580 -1.4782  3.4805
 6937SOL     OW32269   2.357   4.665   4.849  0.2086  0.1787 -0.2250
 6937SOL    HW132270   2.340   4.571   4.840  0.7497  0.0671 -0.0848
 6937SOL    HW232271   2.447   4.667   4.880 -0.1076  0.5793  0.6547
 6938SOL     OW32272   1.594   3.623   5.253 -0.1531 -0.4682  0.4402
 6938SOL    HW132273   1.689   3.618   5.240  0.0672 -0.0123  1.9323
 6938SOL    HW232274   1.581   3.673   5.172  0.8488 -1.3054 -0.2371
 6939SOL     OW32275   3.932   3.891   0.101 -0.2793  0.9698  0.1030
 6939SOL    HW132276   3.960   3.855   0.017 -1.7057  1.4278 -0.5771
 6939SOL    HW232277   3.837   3.876   0.102  0.3404 -2.9909  1.0464
 6940SOL     OW32278   0.166   3.212   0.851 -1.1402 -0.5304  0.0560
 6940SOL    HW132279   0.126   3.154   0.786 -1.8554  1.2596 -1.1077
 6940SOL    HW232280   0.145   3.296   0.811 -1.7508 -0.2297  1.0143
 6941SOL     OW32281   4.142   1.628   2.844  0.0439  0.3890  0.0697
 6941SOL    HW132282   4.198   1.677   2.904  0.6556 -0.7833  0.4570
 6941SOL    HW232283   4.059   1.652   2.886 -0.1841 -0.0226 -0.1448
 6942SOL     OW32284   1.261   0.042   7.161  1.0617  0.2470 -0.3493
 6942SOL    HW132285   1.210   0.037   7.080  0.0683 -2.2186  0.4565
 6942SOL    HW232286   1.350   0.044   7.126  1.3366 -1.1883  0.2676
 6943SOL     OW32287   0.238   1.415   6.072  0.3367  0.1615  0.5859
 6943SOL    HW132288   0.169   1.453   6.016  0.0152  0.4318  1.1594
 6943SOL    HW232289   0.319   1.419   6.022 -1.7603 -1.4314 -2.9911
 6944SOL     OW32290   2.759   3.530   4.348 -0.1133 -0.5408 -0.6111
 6944SOL    HW132291   2.784   3.512   4.258  4.1642  2.4214 -0.0399
 6944SOL    HW232292   2.749   3.442   4.385  4.2839 -0.5462  0.6474
 6945SOL     OW32293   0.229   0.579  12.406  0.4909 -0.1016 -0.4939
 6945SOL    HW132294   0.302   0.634  12.378  0.3075  0.0672 -0.6423
 6945SOL    HW232295   0.255   0.494  12.371  2.7358  0.7130 -0.8150
 6946SOL     OW32296   4.028   2.579   9.207 -0.0806  0.6774  0.0367
 6946SOL    HW132297   3.946   2.531   9.199  0.7759 -0.5797 -1.0975
 6946SOL    HW232298   4.045   2.615   9.120  2.1054  0.3506  0.3360
 6947SOL     OW32299   2.931   2.872   9.385  0.2550 -0.3128 -0.2013
 6947SOL    HW132300   2.991   2.834   9.320 -0.0880  0.8865 -1.2258
 6947SOL    HW232301   2.972   2.950   9.422  0.1469  0.8452 -2.5267
 6948SOL     OW32302   1.804   2.953   3.034  0.8884 -0.1231  0.0191
 6948SOL    HW132303   1.736   2.910   2.981  0.9005 -1.4449  1.0769
 6948SOL    HW232304   1.875   2.952   2.970  1.0649  1.0138  0.2052
 6949SOL     OW32305   2.704   4.328   8.593 -0.2950  0.0261 -0.4891
 6949SOL    HW132306   2.760   4.394   8.636  1.7324 -0.9772 -1.6074
 6949SOL    HW232307   2.689   4.376   8.512  1.8103  0.1953 -0.7888
 6950SOL     OW32308   4.558   3.824   5.241 -0.4021  0.9915  0.3088
 6950SOL    HW132309   4.550   3.799   5.149 -1.4791  1.4838  0.2667
 6950SOL    HW232310   4.483   3.883   5.250 -1.2203  0.1329 -1.0184
 6951SOL     OW32311   2.332   1.290  14.657  0.1359  0.3135  0.1940
 6951SOL    HW132312   2.327   1.337  14.574 -1.1995 -0.6447 -0.2725
 6951SOL    HW232313   2.240   1.285  14.686 -0.3178  4.2265 -0.5542
 6952SOL     OW32314   0.825   0.563   7.324  0.0925  0.0795  0.2081
 6952SOL    HW132315   0.914   0.540   7.350 -0.5372 -0.8339  1.5696
 6952SOL    HW232316   0.787   0.557   7.412 -0.1245 -0.2795  0.0875
 6953SOL     OW32317   3.037   1.214   8.017  0.2721 -0.3493  0.0667
 6953SOL    HW132318   2.987   1.296   8.019  1.2989  0.3102 -1.0907
 6953SOL    HW232319   3.095   1.235   8.090 -0.3121  2.3977 -0.2306
 6954SOL     OW32320   3.330   0.224   2.576  0.2139 -0.3373  0.0859
 6954SOL    HW132321   3.364   0.200   2.663 -1.1021  2.5993  1.4257
 6954SOL    HW232322   3.250   0.271   2.598  0.6784 -0.1723  1.4422
 6955SOL     OW32323   3.616   1.218   9.898 -0.6171 -0.0284  0.2676
 6955SOL    HW132324   3.645   1.241   9.987  0.2216  0.3558 -0.0968
 6955SOL    HW232325   3.525   1.245   9.908 -0.2678  0.7094  1.5714
 6956SOL     OW32326   0.826   0.076  17.347  0.4715 -0.5478  0.2293
 6956SOL    HW132327   0.820   0.086  17.442  1.2520  0.2772  0.1921
 6956SOL    HW232328   0.766   0.002  17.338  0.2468 -0.2314 -0.9082
 6957SOL     OW32329   0.513   3.276  10.884  0.1100  0.3650  0.7525
 6957SOL    HW132330   0.430   3.318  10.861  1.2465  2.4095  0.3860
 6957SOL    HW232331   0.481   3.202  10.936 -0.9052  0.3743  0.1472
 6958SOL     OW32332   1.336   3.238   8.363  0.0314 -0.1746 -0.1937
 6958SOL    HW132333   1.370   3.160   8.407 -0.8525 -0.5602 -0.1834
 6958SOL    HW232334   1.387   3.309   8.403  0.5471 -1.5426  1.5692
 6959SOL     OW32335   1.956   0.342  13.043  0.1119  0.7558  0.0569
 6959SOL    HW132336   1.980   0.296  12.963  1.5460  1.4506  0.0902
 6959SOL    HW232337   1.862   0.355  13.042 -0.1410 -1.4714 -4.0429
 6960SOL     OW32338   4.662   0.100  11.529 -0.2788 -0.3850 -0.1565
 6960SOL    HW132339   0.008   0.043  11.495 -0.8341 -1.7267  0.9513
 6960SOL    HW232340   4.648   0.060  11.615  1.5358  2.5637  1.4864
 6961SOL     OW32341   4.513   3.258  12.732  0.0398  0.0005  0.3915
 6961SOL    HW132342   4.435   3.218  12.693 -0.2501  0.4731  0.4795
 6961SOL    HW232343   4.542   3.194  12.796  0.1791 -0.3611 -0.0356
 6962SOL     OW32344   2.680   2.853   6.349  0.0917 -0.6240 -0.2059
 6962SOL    HW132345   2.707   2.918   6.284 -1.0135 -0.1973 -0.2514
 6962SOL    HW232346   2.617   2.790   6.313 -0.9662 -0.3666  1.2050
 6963SOL     OW32347   0.401   3.051   7.279 -0.4827  0.5302 -0.2740
 6963SOL    HW132348   0.365   3.048   7.368  1.3089 -1.0581  0.4205
 6963SOL    HW232349   0.475   3.112   7.276  0.7345 -0.9472 -0.1600
 6964SOL     OW32350   2.595   2.143   0.558  0.0878 -0.2116  0.3568
 6964SOL    HW132351   2.507   2.107   0.567  1.2707 -3.2578 -0.2897
 6964SOL    HW232352   2.600   2.208   0.628  0.9942 -0.5782  0.6291
 6965SOL     OW32353   3.089   4.313   4.224 -0.2834  0.7211  0.3138
 6965SOL    HW132354   3.078   4.401   4.259  2.7950  0.5589  1.6916
 6965SOL    HW232355   3.174   4.297   4.266  0.9698  0.7665 -2.1666
 6966SOL     OW32356   3.933   2.689  13.660 -0.8131  0.0976 -0.0553
 6966SOL    HW132357   3.988   2.733  13.596  0.1847 -3.7830 -1.8927
 6966SOL    HW232358   3.981   2.701  13.743 -0.7506  0.7067 -0.1806
 6967SOL     OW32359   1.534   1.560  16.244 -0.9878 -1.0334 -0.1347
 6967SOL    HW132360   1.470   1.576  16.174  1.6223  3.4200 -1.5503
 6967SOL    HW232361   1.574   1.486  16.198 -1.9744  0.1710 -2.9507
 6968SOL     OW32362   4.322   2.307  12.361  0.0486  0.7346 -0.3857
 6968SOL    HW132363   4.266   2.288  12.436  0.3963  1.0841 -0.0403
 6968SOL    HW232364   4.407   2.288  12.400 -1.0014 -2.1121  0.5438
 6969SOL     OW32365   2.093   2.474  16.969  0.2681  0.3260  0.9660
 6969SOL    HW132366   2.028   2.494  17.036 -2.0085 -1.0856 -0.8188
 6969SOL    HW232367   2.174   2.495  17.016  1.1578  3.2610 -1.8453
 6970SOL     OW32368   3.174   1.494   5.277  0.1808 -0.4012 -0.5550
 6970SOL    HW132369   3.192   1.400   5.270 -0.3106 -0.6105  0.9365
 6970SOL    HW232370   3.180   1.509   5.371 -0.2778  0.6057 -0.6867
 6971SOL     OW32371   0.980   2.899  17.619 -0.0047  0.3100 -0.1545
 6971SOL    HW132372   1.042   2.827  17.633  0.6251  1.1532  1.3607
 6971SOL    HW232373   1.011   2.965  17.681  0.1738  0.9299 -0.9071
 6972SOL     OW32374   1.191   1.809  12.128 -0.4563 -0.0561  0.2364
 6972SOL    HW132375   1.159   1.740  12.187 -0.5383 -1.1673 -1.1289
 6972SOL    HW232376   1.276   1.770  12.112 -1.1224 -0.9071 -1.2070
 6973SOL     OW32377   2.280   2.746   2.892  0.1789  0.5205  0.2971
 6973SOL    HW132378   2.265   2.652   2.880  1.0811  0.3226  0.7095
 6973SOL    HW232379   2.261   2.742   2.986  0.5489  0.8457  0.3857
 6974SOL     OW32380   4.241   1.522   1.847 -0.4736 -0.0782 -0.2330
 6974SOL    HW132381   4.187   1.601   1.855 -0.3208 -0.2308  2.2949
 6974SOL    HW232382   4.228   1.475   1.929 -0.5233  1.2063  0.4982
 6975SOL     OW32383   2.615   4.569   1.018 -0.6899  0.7741 -0.2958
 6975SOL    HW132384   2.699   4.524   1.015 -0.2522  1.5625  0.1950
 6975SOL    HW232385   2.639   4.655   1.053 -0.1185 -0.0871  1.3862
 6976SOL     OW32386   4.186   3.068   3.273  0.7623 -0.4879  0.1724
 6976SOL    HW132387   4.123   3.006   3.311 -0.3270  0.1930 -0.4996
 6976SOL    HW232388   4.257   3.005   3.275  1.2229 -0.0348 -2.1756
 6977SOL     OW32389   0.161   1.352   3.834 -0.8712  0.1751 -0.4387
 6977SOL    HW132390   0.094   1.338   3.768  1.3439 -2.1840 -2.1847
 6977SOL    HW232391   0.172   1.447   3.829 -2.4839  0.4965  1.8320
 6978SOL     OW32392   0.094   0.977   8.301  0.1953  0.4111 -0.5108
 6978SOL    HW132393   0.074   0.926   8.380  0.5524 -0.2354 -0.8326
 6978SOL    HW232394   0.074   1.067   8.326  0.3267  0.5615 -0.9416
 6979SOL     OW32395   4.097   3.668   4.170 -0.1210  0.2037  0.2520
 6979SOL    HW132396   4.048   3.711   4.100 -0.4288 -0.9198 -0.2189
 6979SOL    HW232397   4.022   3.640   4.222 -0.2499  1.3781  0.6926
 6980SOL     OW32398   4.109   0.584   1.446  0.4452 -0.5016  0.0183
 6980SOL    HW132399   4.088   0.658   1.503  1.7204 -0.1672  0.0357
 6980SOL    HW232400   4.038   0.520   1.449  0.6583 -0.7406 -0.1304
 6981SOL     OW32401   4.079   0.170  10.000  0.0800  0.3807  0.0995
 6981SOL    HW132402   4.000   0.132   9.962  0.7413  0.9039 -1.8319
 6981SOL    HW232403   4.072   0.147  10.092  0.2618  1.3683  0.3583
 6982SOL     OW32404   2.002   4.108   4.698  0.4974 -0.4975  0.0006
 6982SOL    HW132405   1.978   4.145   4.783  0.4683 -0.5061 -0.0040
 6982SOL    HW232406   2.064   4.040   4.728 -2.8596 -2.7954  1.7064
 6983SOL     OW32407   2.013   4.517   3.787 -0.6167  0.0918 -0.8793
 6983SOL    HW132408   2.018   4.507   3.882 -1.7284  1.3299 -0.6878
 6983SOL    HW232409   1.933   4.466   3.771 -0.6437  0.5126 -2.0907
 6984SOL     OW32410   4.422   1.570   3.420 -0.0758  0.0504 -0.3429
 6984SOL    HW132411   4.514   1.544   3.421  0.1614  0.9752  1.9026
 6984SOL    HW232412   4.432   1.664   3.404 -2.2962  0.5319  1.0596
 6985SOL     OW32413   1.340   3.450  11.813  0.1210 -0.5026  0.5789
 6985SOL    HW132414   1.382   3.367  11.791  0.7561 -0.1180  0.3015
 6985SOL    HW232415   1.370   3.503  11.738 -1.0178 -1.0162 -0.2395
 6986SOL     OW32416   3.662   4.352   9.526  0.0266 -0.2954 -0.5088
 6986SOL    HW132417   3.628   4.338   9.614 -2.6337  1.0188 -1.3102
 6986SOL    HW232418   3.587   4.322   9.474 -0.3149  0.5278 -0.4967
 6987SOL     OW32419   3.712   1.137   3.331 -0.3699 -0.3551 -0.1616
 6987SOL    HW132420   3.639   1.197   3.344  0.8666  1.0671  0.2731
 6987SOL    HW232421   3.667   1.069   3.282 -3.0747  1.1382  0.2960
 6988SOL     OW32422   4.050   3.553  14.244 -0.0168  0.0015  0.3610
 6988SOL    HW132423   4.018   3.472  14.283  1.5234 -0.3257  0.9499
 6988SOL    HW232424   3.979   3.581  14.186 -0.1869 -0.4705  0.3476
 6989SOL     OW32425   0.270   4.141   4.370 -0.1581  0.5374 -0.2340
 6989SOL    HW132426   0.304   4.059   4.406 -0.9749  0.1364 -0.3785
 6989SOL    HW232427   0.221   4.171   4.447 -1.2161 -1.6584 -0.0593
 6990SOL     OW32428   3.316   2.206   1.772  0.4049 -0.4014  1.2107
 6990SOL    HW132429   3.331   2.232   1.682  1.9421 -1.0955  1.2674
 6990SOL    HW232430   3.375   2.131   1.783 -0.3465 -1.3144 -0.9906
 6991SOL     OW32431   0.902   3.893   2.060  0.1836 -0.1458 -0.1752
 6991SOL    HW132432   0.843   3.904   1.985  1.7242 -1.7426 -1.6315
 6991SOL    HW232433   0.845   3.905   2.135  0.1310  3.2328 -0.7510
 6992SOL     OW32434   2.094   0.894  13.992  0.1913 -0.3641  0.3949
 6992SOL    HW132435   2.144   0.947  14.053 -0.8163  0.7518  0.2512
 6992SOL    HW232436   2.026   0.846  14.040  0.2363 -0.2300  0.5921
 6993SOL     OW32437   1.037   3.742  10.785  0.6429 -0.6689  0.4667
 6993SOL    HW132438   1.067   3.653  10.799  2.1101 -0.3333 -0.5302
 6993SOL    HW232439   0.945   3.721  10.798  0.5803 -0.1406  0.8713
 6994SOL     OW32440   1.716   0.126   3.877 -0.7595  0.6637 -0.0998
 6994SOL    HW132441   1.673   0.079   3.807 -2.2933  0.7914  0.7705
 6994SOL    HW232442   1.765   0.195   3.831  1.2440  0.3774  1.6167
 6995SOL     OW32443   3.298   0.129   3.494  0.0462 -0.2034  0.3134
 6995SOL    HW132444   3.235   0.160   3.429  0.5311  0.0157 -0.0574
 6995SOL    HW232445   3.366   0.088   3.440  1.4273  2.6358 -0.1137
 6996SOL     OW32446   0.445   3.009   3.557 -0.1364 -0.2860  0.0260
 6996SOL    HW132447   0.372   3.035   3.613  1.5209  0.3135  1.9398
 6996SOL    HW232448   0.505   3.083   3.569 -1.1001  0.4990  0.0345
 6997SOL     OW32449   3.337   0.775   5.726 -0.2973 -0.0334 -0.2591
 6997SOL    HW132450   3.308   0.698   5.677 -0.1815 -0.7435  0.7788
 6997SOL    HW232451   3.411   0.799   5.670 -0.3293  0.7427  0.0324
 6998SOL     OW32452   0.585   4.282   3.557 -0.2552  1.2901  0.0947
 6998SOL    HW132453   0.659   4.340   3.544  0.7670 -0.2787 -1.0699
 6998SOL    HW232454   0.587   4.233   3.475 -0.7792 -0.8581  1.3744
 6999SOL     OW32455   2.463   1.334  10.243 -0.6766  0.1728 -0.2802
 6999SOL    HW132456   2.495   1.275  10.175 -2.8368 -1.7893  0.4163
 6999SOL    HW232457   2.545   1.379  10.264 -1.7833  1.0264  2.2116
 7000SOL     OW32458   2.579   4.561  17.463  0.2132  0.0493 -0.6075
 7000SOL    HW132459   2.535   4.485  17.426 -2.8433  0.7240  1.6392
 7000SOL    HW232460   2.632   4.520  17.530 -0.4891  0.9617  0.5117
 7001SOL     OW32461   4.315   0.566   3.941 -0.2194  0.1576 -0.1262
 7001SOL    HW132462   4.381   0.636   3.947 -0.1229 -0.1233  2.0753
 7001SOL    HW232463   4.255   0.594   4.010  1.5178 -0.3917  1.6287
 7002SOL     OW32464   4.450   0.262   4.154  0.0765 -0.1273  0.2656
 7002SOL    HW132465   4.499   0.263   4.237 -1.7913  0.3337  1.3638
 7002SOL    HW232466   4.502   0.320   4.099 -1.1023 -0.9713 -1.7150
 7003SOL     OW32467   3.751   1.843  12.541  0.2273 -0.0359 -0.0570
 7003SOL    HW132468   3.768   1.795  12.622 -0.9221 -1.6176 -0.7677
 7003SOL    HW232469   3.833   1.888  12.522  1.4444 -1.3280  2.0816
 7004SOL     OW32470   3.845   2.610   4.942 -0.4955 -0.0423 -0.5675
 7004SOL    HW132471   3.851   2.517   4.922  0.6096 -0.0091 -0.3773
 7004SOL    HW232472   3.854   2.642   4.852 -1.0976 -1.4675 -1.1375
 7005SOL     OW32473   2.491   3.095   4.336 -0.3487  0.0220 -0.2167
 7005SOL    HW132474   2.398   3.115   4.346 -0.8341 -1.3680 -1.9846
 7005SOL    HW232475   2.511   3.046   4.415  1.3819 -0.7880 -1.1445
 7006SOL     OW32476   0.778   1.403   2.585 -0.1551 -0.1188  0.3963
 7006SOL    HW132477   0.762   1.494   2.607  0.5916 -0.2017  1.2671
 7006SOL    HW232478   0.813   1.363   2.664  0.1592 -0.5194  0.0570
 7007SOL     OW32479   0.523   0.839   8.825  0.2623  0.1384  0.2362
 7007SOL    HW132480   0.528   0.793   8.909 -0.9557  0.1317  0.3059
 7007SOL    HW232481   0.454   0.905   8.826 -1.3992 -1.6171  0.9765
 7008SOL     OW32482   1.904   1.470   1.168 -0.3222  0.1897 -0.4346
 7008SOL    HW132483   1.995   1.488   1.143 -0.9457  1.6913 -1.6373
 7008SOL    HW232484   1.895   1.490   1.261  0.9654 -1.0607 -0.0357
 7009SOL     OW32485   0.346   4.132   2.692 -0.5720  0.1194 -0.4095
 7009SOL    HW132486   0.399   4.155   2.616 -0.2116  1.0537  0.1229
 7009SOL    HW232487   0.345   4.216   2.739  1.5023 -0.5232  0.7848
 7010SOL     OW32488   4.705   3.227   5.826 -0.6424 -0.3770 -0.6013
 7010SOL    HW132489   4.627   3.227   5.770 -1.4327 -0.3215  0.5056
 7010SOL    HW232490   4.665   3.190   5.905  3.6741 -1.4660  1.0304
 7011SOL     OW32491   3.264   4.463   5.923 -0.4703 -0.4259 -0.1342
 7011SOL    HW132492   3.224   4.546   5.897  0.0143 -0.4975 -1.0965
 7011SOL    HW232493   3.348   4.481   5.881 -0.6765 -0.2798 -0.4810
 7012SOL     OW32494   0.679   0.927   4.516 -0.1354 -0.1572 -0.3446
 7012SOL    HW132495   0.591   0.912   4.480 -1.1810  2.1065  1.1872
 7012SOL    HW232496   0.709   0.837   4.525  0.3673  0.1781  1.4207
 7013SOL     OW32497   3.850   3.547   1.521  0.6675  0.1574  0.1174
 7013SOL    HW132498   3.879   3.625   1.473 -3.2415  2.1584  1.0066
 7013SOL    HW232499   3.928   3.505   1.556 -0.8168  1.0212  4.4310
 7014SOL     OW32500   2.561   4.690   5.664 -0.7265  0.1212 -0.4022
 7014SOL    HW132501   2.640   0.017   5.649 -0.8471  0.6492  0.7659
 7014SOL    HW232502   2.590   4.630   5.733  0.0567  2.5537  1.3542
 7015SOL     OW32503   2.697   4.296   9.725  0.1355 -0.3000 -0.2191
 7015SOL    HW132504   2.733   4.338   9.647  2.7142 -3.4363 -0.7323
 7015SOL    HW232505   2.611   4.291   9.684  0.7029  0.5125 -1.5097
 7016SOL     OW32506   0.883   4.521   5.495 -0.7582 -0.2647  0.3939
 7016SOL    HW132507   0.854   4.578   5.566 -1.2728  0.6273 -0.5204
 7016SOL    HW232508   0.972   4.498   5.518 -0.1428  1.7890  0.0394
 7017SOL     OW32509   3.219   0.472   8.194 -0.0932 -0.5232  0.0635
 7017SOL    HW132510   3.159   0.453   8.266 -0.9211 -0.6533 -0.6501
 7017SOL    HW232511   3.275   0.540   8.231  1.1705 -1.3522 -0.3393
 7018SOL     OW32512   1.114   3.899  15.611 -0.2103  0.0760 -0.1384
 7018SOL    HW132513   1.100   3.984  15.568  3.8830 -0.3602 -2.3079
 7018SOL    HW232514   1.185   3.861  15.561  0.3916 -0.3517  1.0265
 7019SOL     OW32515   1.156   0.959   5.830 -0.7859  0.7516  0.6094
 7019SOL    HW132516   1.245   0.955   5.865 -0.2161 -1.1090 -1.0957
 7019SOL    HW232517   1.111   0.989   5.910  0.2157  2.4849  0.5310
 7020SOL     OW32518   1.433   1.955  12.412 -0.2918  0.0039 -0.1966
 7020SOL    HW132519   1.367   2.014  12.451 -1.8476 -1.5847 -0.4387
 7020SOL    HW232520   1.455   1.893  12.481 -1.2501 -0.3920 -0.2410
 7021SOL     OW32521   0.463   2.087  11.807  0.0297 -0.1474 -0.5238
 7021SOL    HW132522   0.438   1.995  11.795 -3.7959  0.9642 -1.2999
 7021SOL    HW232523   0.458   2.113  11.715 -1.1662  0.6858 -0.2255
 7022SOL     OW32524   2.628   0.258   5.835  0.0288  0.0892  0.6050
 7022SOL    HW132525   2.569   0.221   5.770 -1.1638  2.7770  0.1212
 7022SOL    HW232526   2.696   0.296   5.780 -1.5591  0.8587 -0.8265
 7023SOL     OW32527   3.927   1.010   3.186 -0.3167 -0.0206 -0.1665
 7023SOL    HW132528   3.912   1.092   3.234 -0.7138 -1.6614  2.5382
 7023SOL    HW232529   3.837   0.996   3.159 -0.0297 -0.5724 -0.8114
 7024SOL     OW32530   0.909   3.494   3.852  0.8538  0.1589 -0.7166
 7024SOL    HW132531   0.972   3.564   3.833  1.6861  0.3620  2.8616
 7024SOL    HW232532   0.882   3.520   3.940  1.8512 -1.1517 -0.0281
 7025SOL     OW32533   4.316   0.131   6.773  0.2144 -0.3741  0.0417
 7025SOL    HW132534   4.391   0.175   6.732  1.5994 -1.2267  1.6811
 7025SOL    HW232535   4.369   0.087   6.840  1.3337  0.3066 -0.3875
 7026SOL     OW32536   0.344   3.277  15.790 -0.0812  0.1702 -0.0422
 7026SOL    HW132537   0.394   3.196  15.778  1.5770  0.9654  1.6405
 7026SOL    HW232538   0.383   3.337  15.726  1.5666 -0.2815  0.5484
 7027SOL     OW32539   2.471   1.373   5.791  0.2932 -0.1599 -0.3895
 7027SOL    HW132540   2.559   1.374   5.755  0.3682 -1.2815 -0.2268
 7027SOL    HW232541   2.450   1.467   5.796 -0.2784 -0.3565  1.0030
 7028SOL     OW32542   3.462   0.577   8.586 -0.0720 -0.1103  0.3301
 7028SOL    HW132543   3.477   0.603   8.677 -0.9189  0.6511  0.2558
 7028SOL    HW232544   3.492   0.487   8.594 -1.5477 -0.4699  1.8362
 7029SOL     OW32545   1.725   1.398  11.791  0.4323 -0.2398 -0.3812
 7029SOL    HW132546   1.707   1.448  11.711  1.1461  2.0778  0.9204
 7029SOL    HW232547   1.754   1.309  11.770  2.4888  0.3106  0.1952
 7030SOL     OW32548   3.545   0.641   8.209 -0.6195 -0.3959 -0.6966
 7030SOL    HW132549   3.608   0.604   8.271 -0.7941 -0.4043 -0.5244
 7030SOL    HW232550   3.479   0.673   8.270  0.6816  0.5861  0.1788
 7031SOL     OW32551   2.487   0.155  13.364  0.2301  0.4502  0.6644
 7031SOL    HW132552   2.459   0.218  13.431 -0.5660 -0.8770  1.5705
 7031SOL    HW232553   2.578   0.183  13.355  0.2693 -0.1106 -0.6705
 7032SOL     OW32554   4.332   3.639   9.379 -0.0841 -0.3920 -0.6167
 7032SOL    HW132555   4.248   3.665   9.418  0.2637 -0.1164 -0.0565
 7032SOL    HW232556   4.363   3.574   9.442 -1.3985  0.9008  1.3503
 7033SOL     OW32557   0.609   0.726  11.540  0.1964  0.3512 -0.3341
 7033SOL    HW132558   0.594   0.808  11.587 -2.1974 -0.5821  0.5633
 7033SOL    HW232559   0.663   0.686  11.608  0.0287  3.2946  1.5448
 7034SOL     OW32560   0.768   3.211  10.890 -0.3229  0.1458 -0.1699
 7034SOL    HW132561   0.789   3.257  10.809 -0.5286  1.1598  0.3614
 7034SOL    HW232562   0.678   3.241  10.895 -0.9695 -1.4645 -2.0995
 7035SOL     OW32563   4.197   0.706   8.036 -0.0847  0.0420 -0.6185
 7035SOL    HW132564   4.178   0.718   7.943  1.8527  1.6729 -0.7917
 7035SOL    HW232565   4.246   0.785   8.058 -0.8031 -0.1922  1.8007
 7036SOL     OW32566   4.293   2.238   4.728 -0.1555 -0.2452 -0.3054
 7036SOL    HW132567   4.247   2.318   4.752  0.3627 -0.1661  0.4143
 7036SOL    HW232568   4.237   2.201   4.659 -0.8641 -0.8431  0.6002
 7037SOL     OW32569   1.189   4.234  14.767 -0.3154  0.0845 -0.3971
 7037SOL    HW132570   1.152   4.291  14.700 -0.6294 -1.4369 -1.5182
 7037SOL    HW232571   1.170   4.291  14.842  0.4942  1.8860 -1.5531
 7038SOL     OW32572   0.429   2.071   0.703 -0.0982  0.6947  0.5737
 7038SOL    HW132573   0.446   2.150   0.754  0.3052 -0.3797  2.0668
 7038SOL    HW232574   0.453   2.107   0.617  2.0172 -0.8763  0.5217
 7039SOL     OW32575   1.911   1.717   3.017  0.2496  0.1082 -0.2029
 7039SOL    HW132576   1.860   1.669   2.951  2.7788 -1.9906 -0.6230
 7039SOL    HW232577   1.845   1.713   3.086 -0.4883 -1.2565 -0.9842
 7040SOL     OW32578   2.704   3.947   4.277  0.6588  0.0216 -0.2111
 7040SOL    HW132579   2.795   3.965   4.302  1.0680 -3.4948  0.8230
 7040SOL    HW232580   2.681   4.036   4.248  4.1664  1.7574  2.2957
 7041SOL     OW32581   2.751   2.709   7.386  0.4738  0.5013 -0.3375
 7041SOL    HW132582   2.727   2.621   7.414  1.1784  0.5921  0.5334
 7041SOL    HW232583   2.671   2.728   7.337 -0.5406 -0.4570  0.9469
 7042SOL     OW32584   1.205   2.510   3.661  0.1092 -0.6763 -1.3861
 7042SOL    HW132585   1.253   2.513   3.743  0.1083 -2.0906 -1.3313
 7042SOL    HW232586   1.222   2.599   3.632  0.9239  0.1254  1.6236
 7043SOL     OW32587   1.821   2.458   2.113  0.0808 -0.4207  0.1567
 7043SOL    HW132588   1.817   2.407   2.032 -1.4580 -0.3194  0.1693
 7043SOL    HW232589   1.916   2.465   2.117  0.0209  0.2103  0.4039
 7044SOL     OW32590   2.447   3.934   3.866  0.2352  0.4730 -0.1602
 7044SOL    HW132591   2.471   3.975   3.949 -3.0973 -1.4488  1.7733
 7044SOL    HW232592   2.352   3.923   3.871  0.5944 -1.9860  1.7431
 7045SOL     OW32593   1.688   3.600  12.838  0.2598  0.0638 -0.1224
 7045SOL    HW132594   1.618   3.622  12.900 -0.8309  1.2530 -1.7761
 7045SOL    HW232595   1.761   3.602  12.899  0.9292  0.1885 -0.9335
 7046SOL     OW32596   1.543   3.821   9.375 -0.1048  0.0585 -0.1099
 7046SOL    HW132597   1.530   3.766   9.453  1.5205  1.0918  0.8779
 7046SOL    HW232598   1.498   3.768   9.309  3.1207 -2.9779  0.1268
 7047SOL     OW32599   1.953   1.319   5.309  0.4175  0.6001 -0.5159
 7047SOL    HW132600   1.959   1.240   5.257 -0.1478  0.1461  0.1086
 7047SOL    HW232601   1.911   1.287   5.389  1.9649  0.7594  0.3437
 7048SOL     OW32602   4.200   3.632   4.500 -0.4147 -0.1812 -0.7072
 7048SOL    HW132603   4.243   3.667   4.422  0.7968  1.3229  0.6212
 7048SOL    HW232604   4.238   3.694   4.562  0.1188 -0.6869 -0.5316
 7049SOL     OW32605   0.917   3.533  12.201 -0.0210 -0.2288  0.2096
 7049SOL    HW132606   0.958   3.594  12.262 -0.9933  2.1544 -1.5280
 7049SOL    HW232607   0.839   3.581  12.172  0.2862  1.3792  2.0800
 7050SOL     OW32608   1.334   1.674   8.380 -0.2830 -0.2372 -0.3934
 7050SOL    HW132609   1.303   1.623   8.305  0.8625 -3.4616  1.2814
 7050SOL    HW232610   1.254   1.714   8.414 -0.1034 -0.2277  0.0265
 7051SOL     OW32611   1.078   3.811   3.547  0.3204 -0.7425  0.3694
 7051SOL    HW132612   1.074   3.805   3.452  0.7911 -0.6171  0.3398
 7051SOL    HW232613   1.143   3.881   3.558  0.5721 -0.7012 -1.5209
 7052SOL     OW32614   1.128   4.297   4.978  0.0116  0.2414  0.4161
 7052SOL    HW132615   1.165   4.355   5.044  0.7378 -0.8053  0.9279
 7052SOL    HW232616   1.102   4.220   5.029  1.9004 -1.5477 -1.2789
 7053SOL     OW32617   3.884   0.327   3.971 -0.0446  0.0159  0.1416
 7053SOL    HW132618   3.924   0.397   4.023  1.9674  0.1763 -1.6688
 7053SOL    HW232619   3.795   0.329   4.007 -0.3268  0.0764 -0.5610
 7054SOL     OW32620   0.618   3.112  15.520  0.1960  0.2078 -0.6876
 7054SOL    HW132621   0.612   3.119  15.424 -0.6604 -1.2069 -0.7263
 7054SOL    HW232622   0.605   3.018  15.524 -0.0547  0.1995 -1.6306
 7055SOL     OW32623   1.393   2.386  15.442  0.9026  0.3799  0.0029
 7055SOL    HW132624   1.425   2.442  15.514  1.1262  0.2744 -0.0151
 7055SOL    HW232625   1.430   2.301  15.465 -1.0131 -0.8662 -1.5145
 7056SOL     OW32626   2.429   2.124   8.706  0.1266 -0.0456  0.4547
 7056SOL    HW132627   2.482   2.167   8.773  0.1419  2.7954 -1.3653
 7056SOL    HW232628   2.409   2.204   8.657 -1.2144 -0.9864 -0.5506
 7057SOL     OW32629   4.098   1.959   6.822 -0.3869  0.1142 -0.1844
 7057SOL    HW132630   4.093   1.934   6.730 -0.9914  0.0926 -0.1480
 7057SOL    HW232631   4.104   2.055   6.817  4.6683 -0.2333  0.0594
 7058SOL     OW32632   3.136   4.613   7.644  0.1842 -0.2008 -0.3191
 7058SOL    HW132633   3.148   4.644   7.554 -0.9571  0.3890 -0.2660
 7058SOL    HW232634   3.041   4.618   7.653  0.3325  2.8162 -0.2967
 7059SOL     OW32635   3.346   3.055   9.408 -0.0685 -0.1352 -0.1766
 7059SOL    HW132636   3.386   2.974   9.378  2.2969  0.8470  0.3158
 7059SOL    HW232637   3.334   3.092   9.320 -0.7739 -1.0041 -0.4435
 7060SOL     OW32638   3.071   0.577   5.817  0.5102  0.4105 -0.1873
 7060SOL    HW132639   3.050   0.606   5.728  3.6084 -0.3457 -1.1380
 7060SOL    HW232640   3.138   0.642   5.839 -0.2771  1.8232 -1.9218
 7061SOL     OW32641   1.496   1.101  15.708  0.0232 -0.0274 -0.0270
 7061SOL    HW132642   1.449   1.182  15.728  0.9557  0.5136 -0.0636
 7061SOL    HW232643   1.446   1.090  15.626 -0.3078 -1.0816  0.3158
 7062SOL     OW32644   2.329   1.737   3.319 -0.1835  0.4341  0.0428
 7062SOL    HW132645   2.395   1.687   3.270  0.4677  0.5867  0.7714
 7062SOL    HW232646   2.260   1.749   3.254 -0.1160 -0.5408 -0.2155
 7063SOL     OW32647   3.022   2.520  13.935  0.2161  0.2081 -0.7398
 7063SOL    HW132648   2.997   2.443  13.985  0.7166  2.5838  3.1244
 7063SOL    HW232649   3.061   2.476  13.859  0.5130 -0.6797 -0.0675
 7064SOL     OW32650   1.471   0.281   5.778  0.2588 -0.2588  0.1198
 7064SOL    HW132651   1.377   0.263   5.779  1.0325 -4.0779  0.7541
 7064SOL    HW232652   1.484   0.277   5.873 -0.3625  0.5845  0.2421
 7065SOL     OW32653   0.189   0.637   2.180 -0.0304 -0.1210  0.3244
 7065SOL    HW132654   0.195   0.588   2.099 -1.3777 -0.1331  0.2352
 7065SOL    HW232655   0.283   0.644   2.200  0.4840  2.0148 -2.9577
 7066SOL     OW32656   4.010   2.756   6.405  0.5412 -0.3242  0.0223
 7066SOL    HW132657   4.007   2.789   6.495  1.9431 -0.1332 -0.0003
 7066SOL    HW232658   4.099   2.784   6.385  0.0699  0.1926 -1.3199
 7067SOL     OW32659   4.721   4.659   2.814  0.1080 -0.2291  0.8322
 7067SOL    HW132660   0.002   4.630   2.906 -2.4287  0.6698  1.2264
 7067SOL    HW232661   0.069   4.723   2.815  0.7857 -1.0007  2.6450
 7068SOL     OW32662   1.987   0.251   3.609  0.3526  0.0386 -0.5775
 7068SOL    HW132663   1.996   0.319   3.543 -0.3913  0.7281  0.0394
 7068SOL    HW232664   1.903   0.274   3.648  1.5422 -0.5812  2.3725
 7069SOL     OW32665   3.127   0.451   2.257 -0.2575  0.4235  0.2910
 7069SOL    HW132666   3.188   0.387   2.221 -1.8097 -0.6763 -0.3987
 7069SOL    HW232667   3.175   0.533   2.256  1.6016 -0.6549  1.1648
 7070SOL     OW32668   3.000   3.009  16.066 -0.1429  0.2642 -0.1369
 7070SOL    HW132669   2.978   2.995  16.158 -1.1791  0.0246 -0.4161
 7070SOL    HW232670   2.914   2.985  16.031 -0.0556  1.1220 -0.9317
 7071SOL     OW32671   0.530   1.982  10.590  0.3920 -0.2966  0.6499
 7071SOL    HW132672   0.471   2.017  10.522  0.5228 -1.4719 -0.0712
 7071SOL    HW232673   0.498   2.050  10.649 -0.1911 -0.6874  0.7871
 7072SOL     OW32674   4.223   2.808   3.459  0.1564 -0.0620 -0.9531
 7072SOL    HW132675   4.234   2.714   3.470  2.8488  0.5125  1.2443
 7072SOL    HW232676   4.248   2.815   3.367  0.5609 -2.1286 -0.9817
 7073SOL     OW32677   2.300   0.992  14.553  0.2350 -0.2165  0.1707
 7073SOL    HW132678   2.370   0.927  14.563 -0.6021 -0.9735  1.1450
 7073SOL    HW232679   2.346   1.066  14.591  0.4830 -0.1477 -0.2584
 7074SOL     OW32680   2.730   2.213   9.436 -0.1649 -0.0376 -0.4273
 7074SOL    HW132681   2.710   2.147   9.503  1.3085  0.4644  0.4930
 7074SOL    HW232682   2.680   2.289   9.465  2.2307  1.4957 -0.3780
 7075SOL     OW32683   1.052   4.697   2.375  0.3325  0.3140 -0.1932
 7075SOL    HW132684   1.130   4.671   2.423 -0.3292  0.5954  1.0309
 7075SOL    HW232685   1.024   4.612   2.339  0.3126 -0.0850  0.7511
 7076SOL     OW32686   4.567   2.546   3.143  0.3836 -0.3455  0.1570
 7076SOL    HW132687   4.519   2.597   3.077 -1.9354 -0.9337  1.3675
 7076SOL    HW232688   4.646   2.533   3.092  1.2512 -1.4954  1.7957
 7077SOL     OW32689   0.896   0.211  14.378  0.2302 -0.3523 -0.2616
 7077SOL    HW132690   0.808   0.183  14.400  0.0584 -0.5866 -1.2400
 7077SOL    HW232691   0.900   0.178  14.288 -1.4952 -0.9177 -0.1312
 7078SOL     OW32692   1.850   2.721   1.481 -0.5102 -0.3646  0.6726
 7078SOL    HW132693   1.773   2.668   1.462  0.4319 -1.1849 -0.8990
 7078SOL    HW232694   1.871   2.697   1.572 -1.9745 -0.7576  0.9036
 7079SOL     OW32695   2.397   2.010  15.663  0.6943  0.0151 -0.1918
 7079SOL    HW132696   2.457   1.954  15.615 -1.3975 -0.7913 -1.8748
 7079SOL    HW232697   2.334   2.052  15.604 -1.4263 -0.4892  1.7190
 7080SOL     OW32698   3.040   2.248   7.616  0.4483  0.2259 -0.1131
 7080SOL    HW132699   3.031   2.339   7.585  0.5058  0.3026  0.0998
 7080SOL    HW232700   2.991   2.198   7.550  1.6037  0.6174 -1.2711
 7081SOL     OW32701   0.050   3.272   6.769  0.3462 -0.0529 -0.3098
 7081SOL    HW132702   4.705   3.207   6.784  0.3049 -0.7755 -3.6634
 7081SOL    HW232703   0.116   3.253   6.837  0.8212  0.5154 -0.6054
 7082SOL     OW32704   3.375   4.532   4.181 -0.1055  0.7391 -0.4925
 7082SOL    HW132705   3.366   4.552   4.088 -0.9744 -0.0436 -0.5716
 7082SOL    HW232706   3.429   4.454   4.172  3.0669  2.5778  2.5918
 7083SOL     OW32707   3.968   4.548   2.844 -0.0817 -0.0547  0.1795
 7083SOL    HW132708   4.027   4.572   2.772 -2.0517  0.1571 -1.3571
 7083SOL    HW232709   3.964   4.631   2.892  3.2888 -1.5833  3.1433
 7084SOL     OW32710   4.527   3.085   0.692 -0.0548  0.0847  0.3150
 7084SOL    HW132711   4.589   3.083   0.765 -0.5944 -2.8400  0.6855
 7084SOL    HW232712   4.448   3.055   0.738 -0.3275 -0.1432 -0.2925
 7085SOL     OW32713   4.240   0.488   8.669  0.5640 -0.5509  0.0217
 7085SOL    HW132714   4.314   0.527   8.623 -0.0288  0.9263  0.3236
 7085SOL    HW232715   4.235   0.535   8.752 -2.4745  0.0432 -0.4798
 7086SOL     OW32716   1.763   1.823  10.735 -0.4083 -0.1435 -0.4602
 7086SOL    HW132717   1.682   1.797  10.779 -0.3675  0.8451  0.1980
 7086SOL    HW232718   1.756   1.914  10.763  1.3853  0.3000 -1.4592
 7087SOL     OW32719   2.439   2.830  16.309  0.6873 -0.3436  0.5446
 7087SOL    HW132720   2.413   2.740  16.326  1.2846 -0.8845 -1.3989
 7087SOL    HW232721   2.375   2.886  16.353  1.4314  0.7710  0.1973
 7088SOL     OW32722   2.764   0.545  13.198 -0.8070  0.3640  0.0277
 7088SOL    HW132723   2.854   0.548  13.166 -0.5816  0.1716  0.6485
 7088SOL    HW232724   2.757   0.638  13.220 -0.1994 -0.1990  2.5876
 7089SOL     OW32725   2.055   3.383   5.239 -0.1736 -0.4535  0.4150
 7089SOL    HW132726   2.048   3.330   5.319  0.2639  1.3120  1.6237
 7089SOL    HW232727   2.151   3.388   5.237 -0.1914 -0.1405  0.3125
 7090SOL     OW32728   1.426   4.306   3.144 -0.8508 -0.8950 -0.0423
 7090SOL    HW132729   1.434   4.329   3.051 -1.4697  2.6766  0.7881
 7090SOL    HW232730   1.464   4.381   3.190  0.3079 -1.5917  0.1385
 7091SOL     OW32731   3.772   2.231   4.259 -0.1245  0.5978 -0.1209
 7091SOL    HW132732   3.819   2.305   4.298  2.2599 -1.8508  1.6534
 7091SOL    HW232733   3.705   2.215   4.326  0.7232 -2.1470  0.0722
 7092SOL     OW32734   2.537   2.248   3.943 -0.5409  0.2614  0.1791
 7092SOL    HW132735   2.459   2.245   3.999 -0.3174  0.5648  0.5037
 7092SOL    HW232736   2.555   2.339   3.917  1.4101 -0.8391 -2.3431
 7093SOL     OW32737   1.434   2.797   5.318 -0.1755  0.2059 -0.6325
 7093SOL    HW132738   1.437   2.705   5.346  1.1070  0.0530 -1.2445
 7093SOL    HW232739   1.435   2.841   5.403  2.4863  0.6861 -0.9214
 7094SOL     OW32740   2.920   0.133   8.510 -0.1481  0.1323  0.7434
 7094SOL    HW132741   2.922   0.119   8.605 -2.9164 -1.2391  0.6125
 7094SOL    HW232742   2.891   0.046   8.481 -1.0813 -0.0160  2.1099
 7095SOL     OW32743   4.215   2.675   8.683 -0.2996 -0.3928 -0.1385
 7095SOL    HW132744   4.274   2.656   8.610  0.3375 -0.1761  0.3119
 7095SOL    HW232745   4.259   2.754   8.715 -2.7582  0.0521  2.1925
 7096SOL     OW32746   0.371   2.440   5.046  0.3281 -0.2282  0.2981
 7096SOL    HW132747   0.443   2.492   5.082 -0.3052 -0.1064  1.3998
 7096SOL    HW232748   0.413   2.392   4.975  0.0402  0.1774 -0.1501
 7097SOL     OW32749   1.203   3.361   6.204 -0.0533  0.0097  0.1911
 7097SOL    HW132750   1.158   3.434   6.161  0.3097  0.8982  1.3313
 7097SOL    HW232751   1.294   3.391   6.199 -0.2834  0.5845 -0.6813
 7098SOL     OW32752   1.073   3.502   9.108  0.0469  0.1492  0.6848
 7098SOL    HW132753   1.129   3.436   9.151  0.9193 -0.9592 -2.1335
 7098SOL    HW232754   1.003   3.449   9.070 -0.4506  0.6093  0.9674
 7099SOL     OW32755   1.425   1.043   4.181 -0.0234  0.2570 -0.1084
 7099SOL    HW132756   1.499   0.987   4.157  0.6593  1.6437 -1.2646
 7099SOL    HW232757   1.472   1.126   4.181 -0.0974  0.3109  1.1564
 7100SOL     OW32758   0.480   0.099   1.920  0.3627  0.1556 -0.5978
 7100SOL    HW132759   0.513   0.009   1.932  0.8187  0.4889  0.6553
 7100SOL    HW232760   0.440   0.116   2.006  1.0818 -0.6121 -0.1015
 7101SOL     OW32761   2.135   1.557  16.510  0.4974 -0.1625  0.3971
 7101SOL    HW132762   2.065   1.618  16.534 -0.5925 -1.1472 -0.3124
 7101SOL    HW232763   2.083   1.493  16.463  1.4983  0.1371 -1.1274
 7102SOL     OW32764   4.382   1.215   5.160  0.4980 -0.2272 -0.2678
 7102SOL    HW132765   4.456   1.164   5.193 -1.4008 -0.9861  2.8423
 7102SOL    HW232766   4.403   1.237   5.069 -0.3313  3.5917  0.4467
 7103SOL     OW32767   2.142   2.751   6.131  0.3325  0.1591 -0.3155
 7103SOL    HW132768   2.161   2.797   6.049  0.3357  0.9006  0.1109
 7103SOL    HW232769   2.048   2.768   6.136  0.1297 -0.9203 -0.3997
 7104SOL     OW32770   1.010   1.421   5.714  0.6319 -0.0972 -0.1740
 7104SOL    HW132771   1.071   1.489   5.741  1.3007 -0.0922 -1.7224
 7104SOL    HW232772   0.963   1.395   5.794  0.7294  0.8040  0.1758
 7105SOL     OW32773   3.501   0.293  16.010 -0.0730  0.1837  0.0069
 7105SOL    HW132774   3.424   0.340  15.978  0.9437  1.1406 -1.0325
 7105SOL    HW232775   3.561   0.330  15.945 -0.3431 -2.2572 -1.6698
 7106SOL     OW32776   1.186   1.944   8.135  0.0563  0.3481  0.1963
 7106SOL    HW132777   1.153   2.024   8.094  0.6317  0.8307  0.6735
 7106SOL    HW232778   1.217   1.893   8.060  0.8742  1.3405 -0.1411
 7107SOL     OW32779   0.933   3.406   2.734 -0.3019 -0.3816  0.3230
 7107SOL    HW132780   0.958   3.415   2.642 -1.6988  0.9773  0.0846
 7107SOL    HW232781   0.901   3.495   2.752  1.4679 -0.2129  2.7215
 7108SOL     OW32782   1.229   1.330   6.279  0.0929 -0.3807  0.0017
 7108SOL    HW132783   1.241   1.403   6.218 -1.8934 -0.5759 -0.5940
 7108SOL    HW232784   1.146   1.362   6.313  1.2880  1.0348  1.6013
 7109SOL     OW32785   0.518   3.551   0.389 -0.1557 -0.1878 -0.0066
 7109SOL    HW132786   0.441   3.512   0.346  0.5673 -2.4202  0.7162
 7109SOL    HW232787   0.592   3.510   0.344  0.4185  0.8475 -0.0155
 7110SOL     OW32788   4.081   3.346   8.369  0.5533  0.1819 -0.1909
 7110SOL    HW132789   4.022   3.351   8.444  3.0207  2.6220  1.5769
 7110SOL    HW232790   4.161   3.365   8.419  0.5080 -0.0157 -0.0437
 7111SOL     OW32791   3.863   1.337   1.189  0.7058 -0.6205 -0.0815
 7111SOL    HW132792   3.796   1.273   1.214 -0.3329  0.1924 -0.7597
 7111SOL    HW232793   3.906   1.349   1.274 -0.6972  0.8120  0.4273
 7112SOL     OW32794   4.514   2.095   1.035  0.0404  0.3553 -0.3687
 7112SOL    HW132795   4.506   2.188   1.057 -1.6217  0.4142 -1.1699
 7112SOL    HW232796   4.458   2.048   1.096 -0.6579  1.9208  0.2010
 7113SOL     OW32797   0.883   2.191   7.941  0.2174  0.5606 -0.0686
 7113SOL    HW132798   0.938   2.266   7.964 -1.0593  1.1281  1.1052
 7113SOL    HW232799   0.885   2.184   7.845  3.4030  2.3786 -0.1678
 7114SOL     OW32800   4.109   3.658  10.440 -0.3406 -0.0529 -0.0745
 7114SOL    HW132801   4.034   3.695  10.486  0.7560  2.6224 -0.4413
 7114SOL    HW232802   4.128   3.739  10.393 -3.4938  1.3776  1.1512
 7115SOL     OW32803   4.285   4.605   7.378  0.2589 -0.1939 -0.4766
 7115SOL    HW132804   4.212   4.666   7.389 -0.0105 -1.0197  2.3112
 7115SOL    HW232805   4.281   4.603   7.282  0.7844 -3.4616 -0.4344
 7116SOL     OW32806   3.735   1.754   8.911  0.3668  0.0753 -0.4830
 7116SOL    HW132807   3.748   1.696   8.836 -1.5379  0.0500 -0.7812
 7116SOL    HW232808   3.801   1.728   8.976  0.9345  0.6017 -0.8529
 7117SOL     OW32809   2.061   3.366   3.681 -0.3230  0.1031 -0.1203
 7117SOL    HW132810   2.154   3.381   3.698 -0.1684 -0.9708  0.0133
 7117SOL    HW232811   2.062   3.348   3.587 -1.4496  2.0458 -0.5029
 7118SOL     OW32812   3.750   4.551  17.151 -0.4146 -0.7408 -0.4816
 7118SOL    HW132813   3.679   4.574  17.212  0.7805  0.8803  0.3120
 7118SOL    HW232814   3.808   4.502  17.210  0.9263  3.8637  2.0782
 7119SOL     OW32815   0.579   0.591  13.141  0.2740  0.1479  0.4952
 7119SOL    HW132816   0.539   0.556  13.220  0.0170 -0.2006  0.2118
 7119SOL    HW232817   0.605   0.509  13.097  1.1381  1.3628 -1.2638
 7120SOL     OW32818   2.483   2.925  16.046  0.3765  0.1408 -0.4123
 7120SOL    HW132819   2.410   2.979  16.018  0.6685  1.7865  1.9374
 7120SOL    HW232820   2.461   2.902  16.136 -2.3870 -1.5269 -1.5200
 7121SOL     OW32821   2.903   3.675   0.763  0.1691  0.1699 -0.4921
 7121SOL    HW132822   2.876   3.614   0.831  1.7979 -0.2385 -0.2159
 7121SOL    HW232823   2.990   3.641   0.745  0.6428  1.0059  0.2218
 7122SOL     OW32824   1.147   4.628  15.148 -0.6452  0.4065 -0.1728
 7122SOL    HW132825   1.081   4.559  15.140 -0.9541  0.6881 -0.0085
 7122SOL    HW232826   1.095   4.695  15.104 -1.2041  0.5544  0.7304
 7123SOL     OW32827   2.768   3.608   0.256 -0.1467  0.2567 -0.2166
 7123SOL    HW132828   2.829   3.681   0.269 -0.9682  1.1801 -1.5228
 7123SOL    HW232829   2.767   3.585   0.348 -1.3400  0.5078 -0.1609
 7124SOL     OW32830   2.051   2.993   7.980  0.0152  0.1843  0.7678
 7124SOL    HW132831   2.043   3.065   7.918  0.2688 -0.5732 -0.1587
 7124SOL    HW232832   2.144   2.976   7.969 -0.5570 -1.4333 -1.7881
 7125SOL     OW32833   1.028   1.873   3.700 -0.3693 -0.4629 -0.3415
 7125SOL    HW132834   1.040   1.817   3.624  1.0784 -1.0352  0.3112
 7125SOL    HW232835   1.098   1.836   3.754 -1.8607 -0.3106  1.7123
 7126SOL     OW32836   1.622   3.814   5.062  0.2563 -0.0107  0.3634
 7126SOL    HW132837   1.701   3.849   5.104 -0.1789  0.3493  0.8815
 7126SOL    HW232838   1.637   3.835   4.970  0.3847  1.7417  0.7934
 7127SOL     OW32839   3.994   2.408   6.552 -0.6287  0.0202 -0.6372
 7127SOL    HW132840   3.900   2.413   6.569 -0.6865  0.2440 -1.0118
 7127SOL    HW232841   4.018   2.324   6.589 -2.9891  0.7568  2.5164
 7128SOL     OW32842   0.761   0.595   5.916 -0.4736 -0.0751 -0.2491
 7128SOL    HW132843   0.828   0.662   5.903 -1.6286  0.8372 -1.5145
 7128SOL    HW232844   0.728   0.618   6.003  1.7505 -0.5277  0.7076
 7129SOL     OW32845   4.479   1.380   0.922 -0.2033 -0.1496  0.2254
 7129SOL    HW132846   4.562   1.361   0.966 -0.3949  0.8561  1.0209
 7129SOL    HW232847   4.516   1.377   0.834  0.0667  0.3198  0.3217
 7130SOL     OW32848   2.446   1.345  14.088  0.4834 -0.1679  0.9815
 7130SOL    HW132849   2.531   1.382  14.063 -0.9171  3.7617  2.0283
 7130SOL    HW232850   2.388   1.420  14.084 -1.0802 -1.3770  0.9643
 7131SOL     OW32851   0.552   1.539   6.683 -0.0387 -0.1797 -0.1816
 7131SOL    HW132852   0.457   1.552   6.682  0.0510  0.3750 -1.2958
 7131SOL    HW232853   0.570   1.457   6.729 -3.3393 -0.8048  0.0504
 7132SOL     OW32854   3.373   2.428   4.409  0.7831  0.1107  0.3537
 7132SOL    HW132855   3.306   2.425   4.477  0.7904  2.4988  0.4628
 7132SOL    HW232856   3.316   2.387   4.344  1.2662 -0.4066  0.2643
 7133SOL     OW32857   2.425   0.135   0.213  0.5434 -0.0107 -0.7065
 7133SOL    HW132858   2.497   0.185   0.253  1.1458 -1.0530 -0.5017
 7133SOL    HW232859   2.465   0.110   0.130 -0.2447 -0.5800 -0.9150
 7134SOL     OW32860   3.371   2.345  12.174 -0.3862 -0.1190 -0.2080
 7134SOL    HW132861   3.399   2.309  12.258  0.5980  0.9029 -0.1055
 7134SOL    HW232862   3.461   2.365  12.147  0.0792 -1.0554  0.6630
 7135SOL     OW32863   2.764   3.160  17.124 -0.5470  0.7488 -0.0020
 7135SOL    HW132864   2.708   3.233  17.152 -0.9724  0.2987  0.3099
 7135SOL    HW232865   2.839   3.138  17.180 -0.5641 -0.1967 -0.3593
 7136SOL     OW32866   3.125   3.449   0.710 -0.0812 -0.4433 -1.0368
 7136SOL    HW132867   3.080   3.367   0.731 -0.8806  0.6618  1.5145
 7136SOL    HW232868   3.186   3.446   0.783 -0.3036  0.4406 -0.8131
 7137SOL     OW32869   2.398   2.249   8.193 -0.3183  0.0527  0.8120
 7137SOL    HW132870   2.401   2.313   8.264  1.9602  0.8921 -0.0563
 7137SOL    HW232871   2.305   2.235   8.173  0.7413 -1.4428 -3.1102
 7138SOL     OW32872   0.430   0.227   5.648  0.1820  0.1820  0.4600
 7138SOL    HW132873   0.496   0.192   5.587 -1.6640 -0.8214 -0.9692
 7138SOL    HW232874   0.475   0.306   5.679 -1.2585  0.5398  1.5944
 7139SOL     OW32875   0.661   0.975   2.379  0.1700 -0.2353  0.3895
 7139SOL    HW132876   0.619   1.013   2.456 -2.4600 -3.1415  0.3543
 7139SOL    HW232877   0.745   0.954   2.421  0.5522 -0.2816 -0.3959
 7140SOL     OW32878   2.351   1.164   5.150  0.1379 -0.1552 -0.0289
 7140SOL    HW132879   2.403   1.155   5.070 -0.0948  0.5419 -0.2539
 7140SOL    HW232880   2.308   1.079   5.136  1.9380 -0.9466 -0.7960
 7141SOL     OW32881   2.893   2.609   5.736  0.2771 -0.2063  0.2559
 7141SOL    HW132882   2.864   2.518   5.728 -1.6382  0.5373 -1.1539
 7141SOL    HW232883   2.810   2.644   5.768 -0.6227  0.2805 -2.6049
 7142SOL     OW32884   4.676   1.296  13.453  0.2475 -0.4810  0.1109
 7142SOL    HW132885   0.033   1.315  13.502  0.9132  0.7943 -1.4913
 7142SOL    HW232886   4.642   1.218  13.497 -0.0633 -1.2441 -1.5039
 7143SOL     OW32887   3.474   0.817  16.910 -0.1732  0.2665 -0.3060
 7143SOL    HW132888   3.432   0.873  16.976 -4.5375 -1.3536 -1.7072
 7143SOL    HW232889   3.488   0.731  16.949 -0.9711  0.0965 -0.3932
 7144SOL     OW32890   4.594   3.417   7.511  0.2604  0.1055  0.2375
 7144SOL    HW132891   4.595   3.323   7.532 -0.4551 -0.0421 -0.3894
 7144SOL    HW232892   4.607   3.451   7.599 -1.5373  4.5650 -1.2112
 7145SOL     OW32893   2.035   1.517   0.904 -0.5801 -0.4071 -0.0869
 7145SOL    HW132894   2.106   1.581   0.907 -1.1469  0.1801  0.7485
 7145SOL    HW232895   1.994   1.525   0.818 -0.8902  1.3014  0.2299
 7146SOL     OW32896   4.499   2.778   2.621  0.0377 -0.1396  0.1886
 7146SOL    HW132897   4.463   2.758   2.535 -2.6861  2.1052  0.8141
 7146SOL    HW232898   4.424   2.803   2.675  0.1916 -0.8011  0.7059
 7147SOL     OW32899   2.357   2.606  10.979 -0.0829  0.3523 -0.2142
 7147SOL    HW132900   2.435   2.660  10.969 -0.3293  0.0303 -3.7517
 7147SOL    HW232901   2.357   2.599  11.075 -1.2714 -1.3104 -0.3297
 7148SOL     OW32902   2.173   1.207   8.787  0.0514 -0.4417  0.0007
 7148SOL    HW132903   2.157   1.236   8.876 -2.5943  1.6270 -1.1550
 7148SOL    HW232904   2.144   1.288   8.745  0.3784 -0.6129 -0.5652
 7149SOL     OW32905   0.796   1.885   8.127  0.1802 -0.1191  0.3935
 7149SOL    HW132906   0.862   1.837   8.178 -1.1310 -0.0392  2.1597
 7149SOL    HW232907   0.822   1.852   8.041 -0.7448 -0.4150  0.2308
 7150SOL     OW32908   0.024   3.444  14.215 -0.0325  0.5572  0.2734
 7150SOL    HW132909   0.030   3.438  14.120  0.7569  1.3190  0.2709
 7150SOL    HW232910   4.676   3.384  14.237 -1.8460  2.3086 -0.9352
 7151SOL     OW32911   0.735   1.217   5.567 -0.3231  0.2855 -0.3474
 7151SOL    HW132912   0.713   1.125   5.555  0.8174 -0.2575  1.6736
 7151SOL    HW232913   0.815   1.204   5.618 -0.3377 -0.9464 -0.6529
 7152SOL     OW32914   3.745   0.467  15.122 -0.3862  0.1377  0.0329
 7152SOL    HW132915   3.750   0.521  15.042 -0.0924  1.4709  0.9567
 7152SOL    HW232916   3.753   0.376  15.095 -0.6760 -0.3832  1.7025
 7153SOL     OW32917   3.077   3.681   3.349 -0.4852  0.2471 -0.2610
 7153SOL    HW132918   3.163   3.721   3.363  0.2567  0.3671 -5.0674
 7153SOL    HW232919   3.083   3.601   3.403 -0.1421  0.1280 -0.4730
 7154SOL     OW32920   4.584   0.225   9.801  0.6572 -0.1707 -0.0055
 7154SOL    HW132921   4.571   0.258   9.711  2.2113  1.7921  0.5060
 7154SOL    HW232922   4.676   0.199   9.797  0.6747 -0.0787 -0.2341
 7155SOL     OW32923   3.763   4.580   5.778 -0.3637 -0.0526  0.2607
 7155SOL    HW132924   3.827   4.614   5.715 -0.8792 -0.5525 -0.5391
 7155SOL    HW232925   3.829   4.574   5.847 -2.1285 -1.3354  1.8276
 7156SOL     OW32926   1.682   3.153   1.862  0.7625 -0.3791  0.2686
 7156SOL    HW132927   1.688   3.065   1.824  3.6275  0.0645 -0.2663
 7156SOL    HW232928   1.757   3.158   1.921  1.7437  1.1028 -1.1002
 7157SOL     OW32929   2.673   3.427   9.661  0.2385 -0.0835  0.9767
 7157SOL    HW132930   2.664   3.509   9.613 -1.1131 -1.1432 -0.5737
 7157SOL    HW232931   2.608   3.449   9.728 -0.7286  1.1709 -0.3518
 7158SOL     OW32932   0.467   1.947   0.150 -0.1739  0.5590  0.1600
 7158SOL    HW132933   0.531   2.005   0.107 -0.2309 -0.3010 -1.0659
 7158SOL    HW232934   0.379   1.978   0.129 -0.3181 -0.2235 -0.3824
 7159SOL     OW32935   3.112   3.918   7.024  0.3093  0.4567 -0.2869
 7159SOL    HW132936   3.034   3.967   7.000 -0.2565  0.6659  2.0520
 7159SOL    HW232937   3.163   3.919   6.942  0.6697 -0.3039 -0.0700
 7160SOL     OW32938   3.247   3.443   9.133 -0.3989  0.6969  0.0251
 7160SOL    HW132939   3.167   3.446   9.184 -0.4139  1.1145 -0.0215
 7160SOL    HW232940   3.311   3.423   9.202  0.2648 -0.8940 -1.0765
 7161SOL     OW32941   3.524   1.492   6.276  0.6570  0.5968  0.4958
 7161SOL    HW132942   3.509   1.500   6.370 -0.0150  1.6876  0.2962
 7161SOL    HW232943   3.550   1.400   6.274  0.8171  0.6513 -0.0939
 7162SOL     OW32944   0.031   1.553   0.703 -0.2090  0.0476 -0.4041
 7162SOL    HW132945   4.721   1.464   0.717  0.1236  0.1459  1.0229
 7162SOL    HW232946   0.003   1.576   0.614  0.2645  2.0741 -0.0069
 7163SOL     OW32947   4.349   2.214   5.583 -0.3275  0.5320  0.1264
 7163SOL    HW132948   4.390   2.296   5.611  0.9879 -0.3133  0.6714
 7163SOL    HW232949   4.346   2.171   5.668 -0.5505 -0.6724 -0.5006
 7164SOL     OW32950   3.537   1.365   3.456  0.4901  0.3012  0.1412
 7164SOL    HW132951   3.520   1.451   3.497  0.4583  0.6923 -0.6971
 7164SOL    HW232952   3.544   1.390   3.364 -0.5304 -0.0248 -0.0164
 7165SOL     OW32953   4.575   4.181   3.440 -0.4232  0.2741  0.1480
 7165SOL    HW132954   4.542   4.197   3.352  1.1108 -0.1537 -0.5049
 7165SOL    HW232955   4.663   4.149   3.420  0.7760  5.3597 -2.4516
 7166SOL     OW32956   3.824   0.260   7.852 -0.0499 -0.3254 -0.1895
 7166SOL    HW132957   3.730   0.280   7.850  0.3384  1.6630  1.0900
 7166SOL    HW232958   3.830   0.192   7.785 -0.1422 -2.3776  1.8846
 7167SOL     OW32959   3.125   0.793   7.186 -0.0809  0.6614 -0.0940
 7167SOL    HW132960   3.133   0.735   7.262  1.6591  1.3042  0.2116
 7167SOL    HW232961   3.216   0.800   7.155  0.2171 -1.5848  0.2752
 7168SOL     OW32962   1.706   3.354   8.965  0.1328 -0.1820 -0.7010
 7168SOL    HW132963   1.644   3.290   8.930  1.7525 -0.7494 -2.5433
 7168SOL    HW232964   1.761   3.368   8.888 -0.1649 -2.2460 -1.2873
 7169SOL     OW32965   1.857   1.765   0.993  0.1216  0.8459  0.2745
 7169SOL    HW132966   1.940   1.770   1.041 -0.0390  1.0501  0.5292
 7169SOL    HW232967   1.881   1.788   0.903  1.8270  0.8078  0.7132
 7170SOL     OW32968   4.023   2.435   2.529  0.2579 -0.1368 -0.5935
 7170SOL    HW132969   4.044   2.350   2.566 -3.1590 -0.2128  1.2048
 7170SOL    HW232970   3.927   2.440   2.535  0.2419 -0.3854 -0.6382
 7171SOL     OW32971   2.831   3.402  16.136  0.0041  0.1823  0.4862
 7171SOL    HW132972   2.868   3.329  16.185 -1.3168 -0.6039  0.2904
 7171SOL    HW232973   2.904   3.412  16.075 -0.5708  2.5302  0.1636
 7172SOL     OW32974   2.639   0.220  16.454 -0.0083 -0.0514  0.2487
 7172SOL    HW132975   2.699   0.294  16.444  0.3525 -0.1283  1.8084
 7172SOL    HW232976   2.554   0.259  16.434 -0.5452  0.6113  3.8335
 7173SOL     OW32977   0.680   4.381  14.371  0.1818  0.1322 -0.5083
 7173SOL    HW132978   0.673   4.353  14.462 -0.1709  0.1391 -0.5352
 7173SOL    HW232979   0.776   4.388  14.364  0.2275  0.7633  0.7942
 7174SOL     OW32980   4.584   0.335   5.145 -0.8695 -0.4205 -0.3216
 7174SOL    HW132981   4.504   0.296   5.108 -0.4646 -1.5733 -0.0029
 7174SOL    HW232982   4.547   0.356   5.230 -0.7230 -2.9313  0.3545
 7175SOL     OW32983   1.631   3.304   7.666  0.3393 -0.5993 -0.1767
 7175SOL    HW132984   1.707   3.270   7.713  0.8869  1.3531  0.3588
 7175SOL    HW232985   1.637   3.399   7.678  0.1351 -0.1775 -3.3390
 7176SOL     OW32986   3.391   4.317  13.799  0.2379  0.4033  0.3341
 7176SOL    HW132987   3.485   4.300  13.801 -0.1270 -1.4443  1.7642
 7176SOL    HW232988   3.377   4.363  13.717  0.8845  1.6275  0.9172
 7177SOL     OW32989   2.839   4.446   1.281 -0.5253  0.4034 -0.2252
 7177SOL    HW132990   2.744   4.446   1.274 -0.5106  2.9618 -0.2991
 7177SOL    HW232991   2.852   4.469   1.189  4.2421 -1.3459 -0.0107
 7178SOL     OW32992   4.465   2.445   5.680 -0.3081 -0.3525 -0.0147
 7178SOL    HW132993   4.451   2.517   5.618  3.3001  0.5054  0.2001
 7178SOL    HW232994   4.483   2.499   5.756  2.5678  1.2701 -1.8662
 7179SOL     OW32995   1.636   0.811   5.782 -0.0660  0.3832  0.0815
 7179SOL    HW132996   1.559   0.796   5.836 -1.5056 -1.0508 -2.3556
 7179SOL    HW232997   1.659   0.889   5.832 -1.6962 -0.1556  1.6657
 7180SOL     OW32998   0.465   2.085   9.144 -0.2042  0.2103  0.7832
 7180SOL    HW132999   0.476   2.178   9.123 -0.6661  0.0580 -0.1224
 7180SOL    HW233000   0.498   2.041   9.066  0.6274  1.3218  0.5128
 7181SOL     OW33001   2.288   0.793   4.031  0.5036 -0.3673 -0.1696
 7181SOL    HW133002   2.369   0.843   4.017 -1.7344  2.7988 -1.7952
 7181SOL    HW233003   2.256   0.767   3.945 -0.9557  0.9549 -0.0265
 7182SOL     OW33004   1.677   2.586   7.004 -0.7205 -0.3738 -0.5851
 7182SOL    HW133005   1.605   2.531   6.976 -1.1301 -0.8697  1.4648
 7182SOL    HW233006   1.614   2.646   7.045  1.0782 -0.5300  2.4677
 7183SOL     OW33007   4.113   0.070   2.890  0.0047 -0.3738 -0.2733
 7183SOL    HW133008   4.113   0.088   2.984  1.6485  1.2938 -0.5939
 7183SOL    HW233009   4.108   0.159   2.857  1.1092  0.1231  0.8896
 7184SOL     OW33010   2.486   3.322  11.654  0.0528 -0.0152  0.3632
 7184SOL    HW133011   2.397   3.295  11.631 -0.3859  3.3450 -1.8629
 7184SOL    HW233012   2.462   3.411  11.680  1.4704 -0.2890  2.6229
 7185SOL     OW33013   2.010   4.218   2.450 -0.0625 -0.2749 -0.0556
 7185SOL    HW133014   1.939   4.191   2.507  1.7916 -1.8885  1.4776
 7185SOL    HW233015   2.086   4.230   2.507 -0.0421  0.7132 -0.2957
 7186SOL     OW33016   1.943   3.198   4.465 -0.4239 -0.2932 -0.2579
 7186SOL    HW133017   1.956   3.110   4.427 -0.5638 -0.3272 -0.2253
 7186SOL    HW233018   1.848   3.206   4.466 -0.4131 -0.1618 -0.2848
 7187SOL     OW33019   3.155   0.572   7.376 -0.2575 -0.3094  0.2754
 7187SOL    HW133020   3.127   0.489   7.336  0.8595  0.0314 -1.1766
 7187SOL    HW233021   3.247   0.560   7.398  0.0639 -0.4865 -1.2108
 7188SOL     OW33022   3.576   1.412   8.202  0.0212 -0.6251 -0.7304
 7188SOL    HW133023   3.663   1.381   8.226 -0.3372 -0.6623  0.4920
 7188SOL    HW233024   3.559   1.480   8.266  1.9499  0.5176 -1.4350
 7189SOL     OW33025   2.745   0.810   5.261  0.0451 -0.0859  0.0622
 7189SOL    HW133026   2.765   0.887   5.314  1.0327  0.5386 -1.2187
 7189SOL    HW233027   2.683   0.759   5.312 -0.1738 -0.1520 -0.2687
 7190SOL     OW33028   1.881   2.455  15.424  0.0965 -0.0247  0.2506
 7190SOL    HW133029   1.855   2.373  15.383 -1.8385  0.7655 -0.1002
 7190SOL    HW233030   1.862   2.446  15.518  0.1956  1.6378  0.4219
 7191SOL     OW33031   3.448   0.396  15.188  0.2341  0.2004  0.2837
 7191SOL    HW133032   3.532   0.437  15.166  0.9931 -0.2664  2.2945
 7191SOL    HW233033   3.387   0.462  15.154 -0.0271  0.9344  2.1113
 7192SOL     OW33034   0.112   2.938   3.335 -0.0402 -0.1486 -0.5539
 7192SOL    HW133035   0.108   2.856   3.385  1.4055 -0.5560 -1.1303
 7192SOL    HW233036   0.113   3.003   3.406  0.0277  0.3465 -1.0037
 7193SOL     OW33037   4.044   2.394   1.171  0.0447  0.8548  0.0120
 7193SOL    HW133038   3.975   2.461   1.167 -2.5960 -1.7714  2.0777
 7193SOL    HW233039   4.088   2.407   1.086  1.7624 -1.6149  0.5251
 7194SOL     OW33040   3.591   2.308   8.997  0.1376 -0.2299 -0.0516
 7194SOL    HW133041   3.604   2.403   9.001  1.1326 -0.3358 -0.7613
 7194SOL    HW233042   3.552   2.298   9.084  0.8750 -3.2252 -0.0807
 7195SOL     OW33043   3.037   3.324   9.547 -0.4866 -0.3489 -0.4426
 7195SOL    HW133044   2.948   3.289   9.543 -0.1921 -1.2328  0.7152
 7195SOL    HW233045   3.038   3.327   9.643 -0.2550  0.0861 -0.4585
 7196SOL     OW33046   3.401   0.933   6.099 -0.6022  0.2484  0.4285
 7196SOL    HW133047   3.438   0.918   6.186  1.2736  0.4800 -0.3339
 7196SOL    HW233048   3.424   0.849   6.059 -1.2476  0.1088  0.3592
 7197SOL     OW33049   1.032   3.327  16.319  0.8017 -0.5260 -0.8012
 7197SOL    HW133050   1.037   3.249  16.265  1.7701 -1.5288  0.7600
 7197SOL    HW233051   0.945   3.358  16.292 -0.0848  0.1235  2.7406
 7198SOL     OW33052   0.215   2.316  17.205 -0.5235 -0.1775  0.3939
 7198SOL    HW133053   0.278   2.271  17.262 -0.5787  0.0369  0.6264
 7198SOL    HW233054   0.260   2.317  17.120  0.3255  2.6701  0.8550
 7199SOL     OW33055   1.814   2.900   7.726 -0.5470  0.1210 -0.0312
 7199SOL    HW133056   1.823   2.993   7.746  1.1479 -0.0162 -0.2166
 7199SOL    HW233057   1.720   2.895   7.708 -0.5171 -1.4821  0.2057
 7200SOL     OW33058   1.757   3.557   5.588 -0.7381 -0.7567 -0.4660
 7200SOL    HW133059   1.845   3.521   5.597 -1.3576 -1.9945  0.5993
 7200SOL    HW233060   1.763   3.636   5.641 -0.7221 -2.4763  2.0597
 7201SOL     OW33061   3.805   0.207   9.102 -0.2135 -0.0914 -0.1320
 7201SOL    HW133062   3.775   0.204   9.193  0.2680 -1.5381 -0.0154
 7201SOL    HW233063   3.900   0.198   9.108 -0.6564 -3.7489  1.5946
 7202SOL     OW33064   2.208   2.961   3.952 -0.5596  0.6371  0.6470
 7202SOL    HW133065   2.157   3.031   3.994  0.5347  3.0505 -2.0735
 7202SOL    HW233066   2.185   2.888   4.009  0.5161 -1.0658 -1.1331
 7203SOL     OW33067   1.156   1.558   4.955  0.1547 -0.6901  0.2101
 7203SOL    HW133068   1.175   1.617   5.028  0.3031 -0.7297  0.2046
 7203SOL    HW233069   1.234   1.503   4.962  1.2032  0.7724  0.2732
 7204SOL     OW33070   1.830   3.087   4.881 -0.1003 -0.2188  0.3406
 7204SOL    HW133071   1.778   3.155   4.924 -0.9018  0.0254 -1.0068
 7204SOL    HW233072   1.789   3.004   4.903  0.7235 -0.4970  0.8315
 7205SOL     OW33073   3.798   0.227  14.534  0.1040  0.4059  0.0429
 7205SOL    HW133074   3.731   0.248  14.599 -0.9475 -1.3552 -0.4849
 7205SOL    HW233075   3.833   0.152  14.582  1.7140  1.8270  1.1105
 7206SOL     OW33076   2.314   0.736   3.371 -0.3564  0.4988  0.0400
 7206SOL    HW133077   2.328   0.649   3.334  1.1971  0.0010  1.8126
 7206SOL    HW233078   2.245   0.776   3.317 -1.2499 -1.0588  0.0183
 7207SOL     OW33079   4.601   0.785   0.455  0.7661  0.3142 -0.3181
 7207SOL    HW133080   4.534   0.852   0.438  2.3919  2.1124  0.3595
 7207SOL    HW233081   4.583   0.727   0.381 -0.4634 -1.2176  1.1857
 7208SOL     OW33082   2.648   3.531   7.224 -0.1895 -0.4781 -0.1000
 7208SOL    HW133083   2.731   3.559   7.185 -1.0718 -0.0605 -1.6898
 7208SOL    HW233084   2.661   3.437   7.234  5.1843  0.3420  0.4705
 7209SOL     OW33085   0.334   0.572  10.896 -0.3265 -0.2232 -0.0213
 7209SOL    HW133086   0.387   0.645  10.927 -0.6938  0.5300 -1.1640
 7209SOL    HW233087   0.307   0.534  10.979  1.2656 -0.2367  0.5025
 7210SOL     OW33088   3.530   1.880  12.755 -0.5828 -0.1765 -0.4695
 7210SOL    HW133089   3.617   1.853  12.726 -0.1388 -0.3163  0.9841
 7210SOL    HW233090   3.539   1.873  12.850 -0.8982  0.1861 -0.4121
 7211SOL     OW33091   0.940   1.433   3.143  0.1878  0.3706  0.0755
 7211SOL    HW133092   0.879   1.359   3.138 -0.7926  1.0658  1.8748
 7211SOL    HW233093   0.978   1.409   3.058 -0.2520 -0.8125  0.2085
 7212SOL     OW33094   0.299   3.546  13.549 -0.2661 -0.1356 -0.3375
 7212SOL    HW133095   0.245   3.478  13.508 -1.7155 -0.4323  2.0642
 7212SOL    HW233096   0.231   3.588  13.601 -0.3538 -0.7193  0.0231
 7213SOL     OW33097   2.102   2.845   7.679 -0.4487 -0.5373 -0.1119
 7213SOL    HW133098   2.141   2.792   7.749  1.2951  1.1649  0.1906
 7213SOL    HW233099   2.043   2.902   7.728 -0.1883 -1.2838  1.0890
 7214SOL     OW33100   0.034   0.966   7.432 -0.3082 -0.0274  0.1115
 7214SOL    HW133101   0.085   0.927   7.503 -2.0282 -0.7753  0.9306
 7214SOL    HW233102   4.701   0.897   7.399 -0.0727 -0.5116  0.7357
 7215SOL     OW33103   3.310   1.995   2.024  0.8476  0.0025  0.2531
 7215SOL    HW133104   3.275   1.908   2.006  0.6182 -0.0602  0.9835
 7215SOL    HW233105   3.402   1.985   2.001  0.6066 -1.5828 -0.0347
 7216SOL     OW33106   2.813   4.319   8.086  0.4834 -0.2962 -0.0224
 7216SOL    HW133107   2.858   4.384   8.032 -1.0193 -0.3364 -1.3579
 7216SOL    HW233108   2.858   4.338   8.168  0.1724 -1.2111  0.3546
 7217SOL     OW33109   2.555   3.877   4.705  0.0777 -0.3914  0.0872
 7217SOL    HW133110   2.572   3.846   4.616  2.6772  0.6245  0.2490
 7217SOL    HW233111   2.563   3.797   4.756  1.1847 -0.0238  0.4872
 7218SOL     OW33112   3.147   0.351   6.959 -0.3519  0.0105  0.1379
 7218SOL    HW133113   3.171   0.427   6.906  0.8170 -1.3450 -1.2474
 7218SOL    HW233114   3.218   0.291   6.939 -1.3508 -1.5449  1.2353
 7219SOL     OW33115   1.796   0.344   4.690 -0.2792 -0.4548  0.3303
 7219SOL    HW133116   1.749   0.417   4.651 -0.9743 -0.9635  0.1980
 7219SOL    HW233117   1.735   0.280   4.653 -2.7118  1.5372  0.9149
 7220SOL     OW33118   4.371   1.268   8.185 -0.2522 -0.1933  0.3295
 7220SOL    HW133119   4.397   1.324   8.259 -0.9289  1.3176 -0.5802
 7220SOL    HW233120   4.418   1.291   8.105  0.3770  0.2161  0.8234
 7221SOL     OW33121   2.412   1.208   6.010  0.6061 -0.3065 -0.2688
 7221SOL    HW133122   2.485   1.222   6.069  1.4313 -0.4018 -1.2640
 7221SOL    HW233123   2.431   1.268   5.938  0.3134  1.8586  1.4607
 7222SOL     OW33124   4.268   1.614  11.537  0.2872 -0.7562 -0.2855
 7222SOL    HW133125   4.202   1.643  11.474 -0.0347  0.5853  0.6671
 7222SOL    HW233126   4.232   1.647  11.619  1.0188  0.0129 -0.2809
 7223SOL     OW33127   0.910   3.735   2.396  0.1020 -0.1910 -0.3529
 7223SOL    HW133128   0.825   3.779   2.396 -1.3923 -3.0642  0.9673
 7223SOL    HW233129   0.920   3.698   2.483 -0.2136 -0.3410 -0.3785
 7224SOL     OW33130   3.410   0.873   3.113  0.5872 -0.3874  0.0668
 7224SOL    HW133131   3.378   0.811   3.178 -1.1570 -1.0802 -1.4490
 7224SOL    HW233132   3.329   0.922   3.095  1.8393  0.8544 -2.2131
 7225SOL     OW33133   3.979   4.514   2.357 -0.2678 -0.4332  0.5872
 7225SOL    HW133134   3.955   4.458   2.283 -2.6287  1.3192  0.0515
 7225SOL    HW233135   4.045   4.461   2.402  1.8515 -0.9724 -3.1604
 7226SOL     OW33136   4.315   0.065   9.923 -0.1828 -0.0629 -0.8408
 7226SOL    HW133137   4.368   0.130   9.969  2.0830 -1.9252 -0.7841
 7226SOL    HW233138   4.231   0.098   9.954 -0.8861 -0.3129 -2.5151
 7227SOL     OW33139   2.320   4.145   5.035  0.4298  0.0262 -0.6049
 7227SOL    HW133140   2.392   4.114   5.090  0.4118  0.2469 -0.4603
 7227SOL    HW233141   2.363   4.134   4.950  1.4211 -0.0481 -0.0894
 7228SOL     OW33142   1.179   3.240  10.186 -0.4865 -0.3894 -0.1131
 7228SOL    HW133143   1.241   3.279  10.248  1.4581  0.5177 -2.6632
 7228SOL    HW233144   1.120   3.205  10.253  0.2829 -0.7899  0.3565
 7229SOL     OW33145   1.923   2.888   9.382 -0.1768 -0.1114  0.9437
 7229SOL    HW133146   1.904   2.973   9.420  2.8980  0.5113  1.0699
 7229SOL    HW233147   1.844   2.867   9.333  0.9215 -1.1390 -0.4119
 7230SOL     OW33148   0.110   2.547   8.281 -0.3075 -0.2056 -0.1412
 7230SOL    HW133149   0.170   2.528   8.353 -2.2689 -0.7007  1.3678
 7230SOL    HW233150   0.032   2.565   8.334 -0.4610 -1.8828  0.1952
 7231SOL     OW33151   3.026   4.195   8.727  0.0693  0.0312  0.1148
 7231SOL    HW133152   3.019   4.279   8.684  2.1947  0.1212 -0.0628
 7231SOL    HW233153   3.066   4.222   8.810 -1.0220  0.3031  0.5500
 7232SOL     OW33154   1.068   2.546   5.329 -0.0483 -0.1881  0.3489
 7232SOL    HW133155   1.137   2.570   5.268  0.6348 -0.0398  1.1835
 7232SOL    HW233156   0.988   2.589   5.300  0.3005 -0.6933 -1.4091
 7233SOL     OW33157   1.438   3.719   2.763  0.4013  0.2013  0.3151
 7233SOL    HW133158   1.500   3.699   2.693  0.8000  1.4389  0.3112
 7233SOL    HW233159   1.371   3.652   2.748  1.1236  0.0345 -2.2381
 7234SOL     OW33160   3.946   3.810   8.712  1.1043 -0.4303 -0.1408
 7234SOL    HW133161   3.997   3.748   8.659  0.0671  0.2418 -1.9560
 7234SOL    HW233162   3.961   3.892   8.665 -1.3879 -0.2948 -0.6923
 7235SOL     OW33163   1.367   2.028  17.370 -0.1839  0.0007  0.0902
 7235SOL    HW133164   1.407   1.981  17.443 -0.0377 -1.0029 -0.6320
 7235SOL    HW233165   1.342   2.103  17.424 -2.4198 -0.9233  0.3079
 7236SOL     OW33166   3.831   3.317   8.939  0.7862  0.4582 -0.0737
 7236SOL    HW133167   3.763   3.359   8.991  0.1381 -1.1226  0.3750
 7236SOL    HW233168   3.772   3.269   8.881 -0.9580  3.6678 -0.9307
 7237SOL     OW33169   4.214   0.061   7.163  0.1113 -0.2432 -0.5197
 7237SOL    HW133170   4.294   0.044   7.113  0.0613 -1.5436 -0.1522
 7237SOL    HW233171   4.151   0.069   7.092 -1.1308  1.5517  0.7981
 7238SOL     OW33172   1.566   0.748  13.157  0.9943  0.6815  0.6654
 7238SOL    HW133173   1.612   0.763  13.075  0.1806  0.5779  0.1930
 7238SOL    HW233174   1.621   0.678  13.192 -1.3063 -0.6428  1.6597
 7239SOL     OW33175   1.021   1.227   7.088  0.5726  0.4382 -0.2689
 7239SOL    HW133176   1.056   1.313   7.064  1.1511 -0.4787 -2.7861
 7239SOL    HW233177   1.018   1.226   7.183 -0.7483  1.7224 -0.2937
 7240SOL     OW33178   4.648   1.711   8.295  0.1020 -0.1576  0.2502
 7240SOL    HW133179   4.713   1.648   8.326 -0.2995 -0.3008  0.7926
 7240SOL    HW233180   4.688   1.701   8.209 -1.1606  0.6468 -0.4277
 7241SOL     OW33181   1.298   3.580   8.331 -0.3131 -0.6546 -0.6760
 7241SOL    HW133182   1.248   3.546   8.405  2.1342  0.7668  1.6472
 7241SOL    HW233183   1.383   3.538   8.347  0.5565  0.9368 -1.1607
 7242SOL     OW33184   1.412   3.657   9.203  0.0476  0.1193 -0.4749
 7242SOL    HW133185   1.439   3.714   9.131  0.5720 -0.3278 -0.6312
 7242SOL    HW233186   1.418   3.573   9.158 -2.3387 -1.3449  1.9427
 7243SOL     OW33187   0.063   2.372   9.290 -0.0705  0.1228  0.6226
 7243SOL    HW133188   4.702   2.342   9.259 -0.3703  0.0044  1.5488
 7243SOL    HW233189   0.067   2.326   9.374 -1.8088  1.0697  1.2323
 7244SOL     OW33190   2.341   3.108   9.991 -0.6322  0.4408  0.3333
 7244SOL    HW133191   2.307   3.187   9.949  0.0397  0.0304 -0.9844
 7244SOL    HW233192   2.280   3.039   9.966 -0.5621  1.1595 -1.7829
 7245SOL     OW33193   0.575   2.043   2.116 -0.3661  0.3807  0.1098
 7245SOL    HW133194   0.532   1.958   2.108  0.7058 -0.0960 -0.6420
 7245SOL    HW233195   0.646   2.029   2.179 -0.2600 -1.7813 -0.4998
 7246SOL     OW33196   2.752   1.491  16.214 -0.0119  0.5444  0.1100
 7246SOL    HW133197   2.815   1.472  16.283  0.1071 -0.4886 -0.2777
 7246SOL    HW233198   2.810   1.544  16.159  2.6521  0.1069  2.5067
 7247SOL     OW33199   0.585   3.339   4.887 -0.4735 -0.1641 -0.4346
 7247SOL    HW133200   0.607   3.414   4.831  1.3561  0.1963  0.7652
 7247SOL    HW233201   0.602   3.378   4.972 -2.4088 -0.2609  0.0009
 7248SOL     OW33202   4.419   0.512   9.219 -0.1925 -0.2140 -0.5560
 7248SOL    HW133203   4.359   0.545   9.286  2.7537  0.9277  1.5255
 7248SOL    HW233204   4.502   0.505   9.266  0.0455 -0.0072 -0.9483
 7249SOL     OW33205   3.060   2.647   8.119  0.0411 -0.6792  0.1792
 7249SOL    HW133206   3.067   2.593   8.040  1.1417  0.7059 -0.6828
 7249SOL    HW233207   3.152   2.664   8.139  0.0414 -0.5759  0.0901
 7250SOL     OW33208   3.573   2.107   2.881  0.1007 -0.2855 -0.1666
 7250SOL    HW133209   3.618   2.081   2.962 -1.5663 -2.1264  0.1895
 7250SOL    HW233210   3.629   2.176   2.848 -0.4919  0.1171 -0.3338
 7251SOL     OW33211   1.479   0.166   5.037  0.2917 -0.2601 -0.2679
 7251SOL    HW133212   1.521   0.238   4.990  0.0928  0.4642  0.6500
 7251SOL    HW233213   1.550   0.102   5.035 -0.3501 -0.9328 -1.2669
 7252SOL     OW33214   4.398   2.104   0.249  0.2683  0.3755  0.6205
 7252SOL    HW133215   4.329   2.167   0.271 -0.6357 -0.5143  0.3299
 7252SOL    HW233216   4.349   2.034   0.206 -0.0947  1.4782 -0.8057
 7253SOL     OW33217   4.528   4.663   7.648 -0.4038 -0.1881 -0.6643
 7253SOL    HW133218   4.438   4.673   7.680  0.9031  1.4672  2.5504
 7253SOL    HW233219   4.561   4.603   7.715 -0.5848  1.0565  0.5567
 7254SOL     OW33220   4.276   1.048   0.187 -0.4343  0.1631  0.0247
 7254SOL    HW133221   4.183   1.071   0.188 -0.2972  0.7594 -0.7873
 7254SOL    HW233222   4.315   1.094   0.261  1.4821 -0.3471 -0.6575
 7255SOL     OW33223   2.213   2.404   9.681  0.4966  0.3505 -0.2066
 7255SOL    HW133224   2.138   2.358   9.720  0.3292  0.2938 -0.5894
 7255SOL    HW233225   2.287   2.344   9.685 -1.0290 -1.5035  0.1386
 7256SOL     OW33226   4.102   4.139   6.719  0.7711  0.7507  0.5357
 7256SOL    HW133227   4.016   4.162   6.686  0.4659  0.4675  1.1285
 7256SOL    HW233228   4.075   4.136   6.811  0.1247 -0.4424  0.3045
 7257SOL     OW33229   2.711   2.696   2.419  0.0014 -0.1562  0.1985
 7257SOL    HW133230   2.704   2.607   2.454  1.1489 -0.1515  0.4468
 7257SOL    HW233231   2.804   2.678   2.403 -0.0512  1.4135 -1.7918
 7258SOL     OW33232   4.688   4.658   7.190 -0.0998 -0.2484 -0.8891
 7258SOL    HW133233   0.034   4.659   7.256 -0.8696  3.3620 -0.1462
 7258SOL    HW233234   4.610   4.682   7.240  0.0225 -1.9647  0.1717
 7259SOL     OW33235   0.220   3.435   2.181  0.7545 -0.0511  0.2363
 7259SOL    HW133236   0.148   3.492   2.209  0.9858 -0.1003  0.9363
 7259SOL    HW233237   0.250   3.479   2.101 -0.5772 -0.1639 -0.3352
 7260SOL     OW33238   4.379   3.048   7.466 -0.8357 -0.0650  0.2341
 7260SOL    HW133239   4.450   3.093   7.511 -1.6328  3.7120 -2.3073
 7260SOL    HW233240   4.332   3.013   7.542 -1.1541  0.2734  0.1938
 7261SOL     OW33241   4.265   1.023   1.299  0.3941  0.6552 -0.2595
 7261SOL    HW133242   4.328   1.058   1.237 -1.1099  1.0145 -1.5934
 7261SOL    HW233243   4.314   0.945   1.321 -2.2949 -0.4267  1.8963
 7262SOL     OW33244   4.620   1.822   1.166 -0.9609  0.5487 -0.7543
 7262SOL    HW133245   4.673   1.750   1.201 -0.5922  1.5208  0.6551
 7262SOL    HW233246   4.619   1.796   1.073  0.3728 -0.0261 -0.6065
 7263SOL     OW33247   3.579   0.930   5.647  0.2251  0.3710 -0.1624
 7263SOL    HW133248   3.655   0.879   5.674 -1.7998 -1.8842  1.2846
 7263SOL    HW233249   3.536   0.866   5.591 -1.4971  0.4548  1.0512
 7264SOL     OW33250   0.707   0.992   1.199  0.4219  0.3420  0.2449
 7264SOL    HW133251   0.777   1.050   1.230  0.6104 -0.2761  0.9985
 7264SOL    HW233252   0.675   0.963   1.285  0.5516 -1.3136 -0.2699
 7265SOL     OW33253   0.496   1.065   1.690  0.5969  0.2983 -0.4406
 7265SOL    HW133254   0.427   1.090   1.752  0.7293  1.6775 -0.8441
 7265SOL    HW233255   0.561   1.125   1.725  0.5926  0.4520 -0.6954
 7266SOL     OW33256   2.243   2.732   4.128 -0.5840  0.1848 -0.7685
 7266SOL    HW133257   2.311   2.730   4.061  1.3358 -0.0471  1.1981
 7266SOL    HW233258   2.295   2.731   4.208 -1.5644  2.3823 -0.1144
 7267SOL     OW33259   1.836   4.189   5.714 -0.0531  0.0760 -0.3859
 7267SOL    HW133260   1.783   4.124   5.668 -0.7061  0.1039  0.3265
 7267SOL    HW233261   1.922   4.148   5.711 -1.3964 -2.9413  1.8906
 7268SOL     OW33262   1.531   1.056   3.313  0.0222  0.4529 -0.9048
 7268SOL    HW133263   1.534   1.015   3.226  1.4612  1.6705 -1.4236
 7268SOL    HW233264   1.610   1.109   3.314 -0.9908  1.9850 -2.0871
 7269SOL     OW33265   4.276   2.150   7.985  0.5938  0.7834  0.3624
 7269SOL    HW133266   4.349   2.211   7.980  0.9383  0.2193 -1.7430
 7269SOL    HW233267   4.299   2.078   8.044  0.5126 -0.5956 -1.2817
 7270SOL     OW33268   3.524   0.310   8.570  0.3408 -0.1660  0.0694
 7270SOL    HW133269   3.497   0.303   8.478  0.5661 -1.5568  0.1225
 7270SOL    HW233270   3.619   0.315   8.559  0.4638  0.0366  1.2356
 7271SOL     OW33271   2.884   1.944   0.070  0.8550 -0.2694  0.1571
 7271SOL    HW133272   2.897   2.001  17.691 -2.6295  0.5437  0.1518
 7271SOL    HW233273   2.890   2.000   0.147  0.2567  1.7072 -1.2210
 7272SOL     OW33274   4.212   3.794   7.617 -0.0787 -0.3429  0.0405
 7272SOL    HW133275   4.206   3.771   7.524 -1.3068 -3.1311  0.8028
 7272SOL    HW233276   4.129   3.757   7.649  0.2978 -0.2081  1.1710
 7273SOL     OW33277   1.220   1.307  15.088 -0.0205 -0.5051  0.5102
 7273SOL    HW133278   1.241   1.357  15.009 -0.8476 -1.0804 -0.0772
 7273SOL    HW233279   1.214   1.376  15.153 -0.6813  0.4658 -0.5852
 7274SOL     OW33280   3.416   0.202  13.622 -0.1771  0.1810  1.1335
 7274SOL    HW133281   3.512   0.208  13.628  0.1599 -0.4835 -3.9942
 7274SOL    HW233282   3.407   0.179  13.715  2.9159 -0.7780  1.2124
 7275SOL     OW33283   2.579   4.239  13.059 -0.5670  0.6777 -0.5411
 7275SOL    HW133284   2.532   4.156  13.055 -2.6898  1.8406 -0.0560
 7275SOL    HW233285   2.672   4.222  13.043 -0.3964  0.7009  0.4114
 7276SOL     OW33286   2.262   4.659   5.797 -0.2031  0.1370  0.3289
 7276SOL    HW133287   2.334   4.687   5.852 -1.4102 -0.0544  2.0153
 7276SOL    HW233288   2.197   4.652   5.867  1.8654 -0.8932  2.1375
 7277SOL     OW33289   4.088   3.252   9.058 -0.7434  0.3788  0.2740
 7277SOL    HW133290   4.102   3.162   9.086  2.5672  0.1914 -1.9428
 7277SOL    HW233291   3.999   3.240   9.026 -1.1847  0.5980  1.4441
 7278SOL     OW33292   2.667   0.388   6.806 -0.2654 -0.4190  0.1800
 7278SOL    HW133293   2.701   0.472   6.836 -0.9699 -0.5908  1.5077
 7278SOL    HW233294   2.750   0.340   6.799  0.1013 -0.1099  2.1929
 7279SOL     OW33295   0.893   4.211   2.973 -0.0775  0.2971 -0.7507
 7279SOL    HW133296   0.879   4.145   2.905 -0.3148 -1.6059  1.1515
 7279SOL    HW233297   0.989   4.218   2.966 -0.0962 -0.0906 -1.3606
 7280SOL     OW33298   1.783   0.503   1.305 -0.0033 -0.1147  0.1459
 7280SOL    HW133299   1.750   0.418   1.334  2.5338 -0.8099  0.9511
 7280SOL    HW233300   1.776   0.556   1.384 -0.2018 -1.0218  0.7297
 7281SOL     OW33301   2.219   2.555   0.252 -0.6665  0.6535  0.4988
 7281SOL    HW133302   2.266   2.478   0.283 -0.7113  0.1380 -0.7255
 7281SOL    HW233303   2.252   2.628   0.306  0.0920  0.4385  0.3242
 7282SOL     OW33304   1.728   1.494   8.225 -0.5904 -0.0962 -0.2445
 7282SOL    HW133305   1.735   1.479   8.131 -0.0714  1.4290 -0.4527
 7282SOL    HW233306   1.805   1.461   8.270 -2.7576 -0.5732  3.0856
 7283SOL     OW33307   3.033   0.332  13.238  0.2637 -0.5936  0.2850
 7283SOL    HW133308   3.009   0.416  13.200  1.1434  0.0488  1.1298
 7283SOL    HW233309   3.128   0.332  13.225  0.0596  3.1107 -1.0938
 7284SOL     OW33310   2.065   0.633   8.679  0.1199 -0.3311 -0.0974
 7284SOL    HW133311   2.116   0.670   8.751  0.8612  2.2408 -1.9749
 7284SOL    HW233312   1.978   0.624   8.717 -0.3808  2.6832 -0.6145
 7285SOL     OW33313   2.684   2.716   0.397 -0.6283  0.1650  0.1436
 7285SOL    HW133314   2.746   2.769   0.346  0.2949 -0.6351  0.4458
 7285SOL    HW233315   2.678   2.643   0.335  3.0831  0.0780 -0.0825
 7286SOL     OW33316   3.876   3.890  12.904 -0.2995  0.5166 -0.6862
 7286SOL    HW133317   3.943   3.957  12.892 -0.4813  0.6364 -1.0720
 7286SOL    HW233318   3.899   3.833  12.831 -0.8968  0.6836 -1.0145
 7287SOL     OW33319   0.441   0.935   8.559 -0.3068  0.2993  0.5964
 7287SOL    HW133320   0.499   0.941   8.634  1.1622  0.4710 -0.5569
 7287SOL    HW233321   0.375   1.002   8.578 -0.4772  0.0247  0.9682
 7288SOL     OW33322   3.135   3.868  17.102  0.0896 -0.5577  0.3959
 7288SOL    HW133323   3.174   3.948  17.136  0.4953 -1.1422  1.2902
 7288SOL    HW233324   3.084   3.896  17.026  2.5116 -0.0337 -1.0367
 7289SOL     OW33325   4.021   0.592  10.996 -0.6090 -0.2626 -0.2054
 7289SOL    HW133326   4.034   0.541  10.917 -0.2868 -0.9692  0.3071
 7289SOL    HW233327   3.950   0.643  10.956 -0.3670  1.1447  1.1315
 7290SOL     OW33328   3.936   0.955   0.520  0.0298  0.3521  0.2691
 7290SOL    HW133329   3.961   0.935   0.430  0.4146 -0.0719  0.4723
 7290SOL    HW233330   3.844   0.931   0.516  0.2918 -0.2010 -2.7991
 7291SOL     OW33331   0.342   4.283   7.488 -0.1811 -0.0043  0.0488
 7291SOL    HW133332   0.264   4.235   7.515 -0.2427  0.3865  0.5737
 7291SOL    HW233333   0.333   4.355   7.550  0.4989  1.6917 -1.8334
 7292SOL     OW33334   1.096   3.192  11.946 -0.4392 -0.3698 -0.1802
 7292SOL    HW133335   1.072   3.137  11.872 -1.7234 -2.2204  1.6276
 7292SOL    HW233336   1.059   3.279  11.932 -3.1745 -1.0225  3.0308
 7293SOL     OW33337   0.547   1.419   4.338  0.5084  0.3746 -0.5430
 7293SOL    HW133338   0.489   1.480   4.294 -0.0785  0.6016  0.5340
 7293SOL    HW233339   0.544   1.339   4.286 -1.7441 -1.2246  2.0072
 7294SOL     OW33340   1.612   2.716   5.705 -0.0777 -0.1839 -0.3313
 7294SOL    HW133341   1.564   2.781   5.655  0.3734  1.9016  1.9105
 7294SOL    HW233342   1.650   2.665   5.634  0.6525  3.2827 -2.4463
 7295SOL     OW33343   0.009   0.145   4.117 -0.1830  0.4949 -0.6048
 7295SOL    HW133344   4.700   0.150   4.206 -2.3630  0.6687 -1.4186
 7295SOL    HW233345   0.096   0.186   4.123 -0.0812  0.3655 -1.1756
 7296SOL     OW33346   3.078   1.698  12.106  0.0852  0.4255 -0.7200
 7296SOL    HW133347   3.089   1.792  12.115 -0.8048  0.4091  0.5541
 7296SOL    HW233348   3.138   1.667  12.174 -0.2087  0.7408 -0.3116
 7297SOL     OW33349   4.226   1.113   6.151 -0.0320 -0.4326  0.0930
 7297SOL    HW133350   4.145   1.073   6.120 -0.2774 -0.3344  0.6013
 7297SOL    HW233351   4.249   1.048   6.218  0.9535 -1.0899 -0.8866
 7298SOL     OW33352   0.611   4.487   5.430 -0.3455 -0.1727  0.5234
 7298SOL    HW133353   0.699   4.494   5.468  0.2663 -2.2998 -0.5375
 7298SOL    HW233354   0.610   4.548   5.356 -1.5152  0.3114  0.9270
 7299SOL     OW33355   2.618   2.661   5.773 -0.7354 -0.0611 -0.2854
 7299SOL    HW133356   2.561   2.623   5.706 -1.0338  0.1064 -0.1249
 7299SOL    HW233357   2.569   2.738   5.802 -1.3681 -0.9488  0.9988
 7300SOL     OW33358   4.585   1.678   1.464 -0.2451 -0.1463  1.0024
 7300SOL    HW133359   4.670   1.637   1.484  0.5373  0.1841 -1.6501
 7300SOL    HW233360   4.526   1.627   1.520 -1.7000  0.2258 -0.1882
 7301SOL     OW33361   2.597   0.556   2.436 -0.0140 -0.2775  0.1430
 7301SOL    HW133362   2.608   0.651   2.432 -1.3449 -0.0784  1.2100
 7301SOL    HW233363   2.503   0.541   2.433 -0.0864  0.2444 -0.1622
 7302SOL     OW33364   3.380   1.896   5.382 -0.3531 -0.3056 -0.1892
 7302SOL    HW133365   3.399   1.873   5.473 -1.6251  1.4513  0.5225
 7302SOL    HW233366   3.456   1.948   5.356 -0.5773  0.9197  1.6071
 7303SOL     OW33367   2.613   2.330  16.995 -0.2789  0.3606  0.1370
 7303SOL    HW133368   2.656   2.265  16.938  0.1476 -0.7695  1.7470
 7303SOL    HW233369   2.521   2.306  16.990 -0.3070  0.2840  1.0786
 7304SOL     OW33370   1.371   1.706   6.391  0.5012 -0.8308 -0.1128
 7304SOL    HW133371   1.429   1.669   6.324  0.3774  1.4056 -1.4361
 7304SOL    HW233372   1.369   1.795   6.356 -0.7304 -1.2008 -1.0070
 7305SOL     OW33373   1.261   1.812   2.880  0.3712  0.1254 -0.0225
 7305SOL    HW133374   1.206   1.852   2.813  1.6417  0.9067 -0.6188
 7305SOL    HW233375   1.344   1.860   2.875  0.3308  0.1233 -0.7493
 7306SOL     OW33376   2.085   0.772   0.428  0.4663 -0.4901  0.1942
 7306SOL    HW133377   2.041   0.737   0.350 -0.4881 -1.6382  1.2346
 7306SOL    HW233378   2.140   0.830   0.377 -0.4351  1.3239  1.2955
 7307SOL     OW33379   2.538   0.368   2.830 -0.0836  0.2234 -0.8943
 7307SOL    HW133380   2.491   0.285   2.836  1.9694 -1.1143 -3.6226
 7307SOL    HW233381   2.567   0.350   2.741 -1.4137  1.6258 -1.6004
 7308SOL     OW33382   1.280   2.752   7.021 -0.3559  0.0311 -0.0980
 7308SOL    HW133383   1.274   2.845   7.000 -1.1621 -1.1725 -5.1919
 7308SOL    HW233384   1.370   2.742   7.051  0.2340  2.6712 -1.0321
 7309SOL     OW33385   1.316   2.228  14.462  0.6314 -0.5096 -0.6267
 7309SOL    HW133386   1.266   2.274  14.531  1.4880 -0.4581 -0.0474
 7309SOL    HW233387   1.309   2.140  14.499 -2.2395 -0.4069 -0.9023
 7310SOL     OW33388   3.347   3.061   5.486 -0.3534  0.0442 -0.0432
 7310SOL    HW133389   3.415   3.056   5.554 -0.8612 -0.4527  0.4324
 7310SOL    HW233390   3.285   3.011   5.539 -0.9897  1.1309  0.2252
 7311SOL     OW33391   4.426   1.551   1.240  0.3455  0.3335 -0.0828
 7311SOL    HW133392   4.436   1.621   1.176 -0.8250  1.6835  1.2108
 7311SOL    HW233393   4.483   1.597   1.302  2.3826  1.1809 -2.5710
 7312SOL     OW33394   0.030   3.347   6.505  0.2502 -0.2223  0.4018
 7312SOL    HW133395   4.663   3.317   6.495 -0.0957  1.3665 -1.4138
 7312SOL    HW233396   0.043   3.330   6.598 -0.0862 -2.7560 -0.0339
 7313SOL     OW33397   2.518   0.583  10.034  0.4544 -0.7382 -0.3346
 7313SOL    HW133398   2.448   0.585  10.099  1.9832 -0.3968  1.2810
 7313SOL    HW233399   2.479   0.629   9.960  1.4253  1.3188  0.4452
 7314SOL     OW33400   3.359   4.113   8.896  0.3557  0.3350  0.5908
 7314SOL    HW133401   3.308   4.096   8.976 -0.9772  2.5285  0.2134
 7314SOL    HW233402   3.437   4.062   8.921  0.2387  0.8358  2.0142
 7315SOL     OW33403   1.388   3.590  14.770  0.3293  0.5240  0.2849
 7315SOL    HW133404   1.447   3.515  14.764  1.2158  1.3370 -0.9438
 7315SOL    HW233405   1.367   3.593  14.677  1.9589 -0.0695 -0.1025
 7316SOL     OW33406   2.823   1.790   8.317  0.2970  0.1269 -0.4476
 7316SOL    HW133407   2.857   1.762   8.402  1.0584 -2.1442 -1.4943
 7316SOL    HW233408   2.736   1.755   8.332 -0.4463  1.5310 -1.4745
 7317SOL     OW33409   4.098   2.417   8.433  0.5909 -0.6170  0.3274
 7317SOL    HW133410   4.161   2.431   8.363 -1.2395 -0.3162 -1.2617
 7317SOL    HW233411   4.011   2.411   8.394  1.2977 -1.1770 -1.1243
 7318SOL     OW33412   2.454   2.669   6.183  0.0788 -0.1320 -0.6527
 7318SOL    HW133413   2.527   2.634   6.132  1.5220  0.4210  1.0212
 7318SOL    HW233414   2.394   2.701   6.115 -0.6117 -0.6948 -0.3130
 7319SOL     OW33415   4.592   4.666   0.939  0.4661 -0.3011  0.1686
 7319SOL    HW133416   4.577   4.616   1.020 -1.1810 -0.6522 -0.3584
 7319SOL    HW233417   4.563   4.609   0.869  1.2987  0.7177 -0.9971
 7320SOL     OW33418   3.157   1.056   6.190 -0.0789 -0.3524 -0.0203
 7320SOL    HW133419   3.172   1.030   6.281  0.3775  1.4798  0.4249
 7320SOL    HW233420   3.238   1.024   6.152  0.9125  0.1635  1.6611
 7321SOL     OW33421   2.509   0.925   3.944 -0.6111  0.1910 -0.6113
 7321SOL    HW133422   2.544   1.006   3.979  0.7996 -1.4243  1.7573
 7321SOL    HW233423   2.530   0.937   3.851  0.1871 -2.5290 -0.8128
 7322SOL     OW33424   1.690   0.332  11.972  0.2231 -0.7008  0.1568
 7322SOL    HW133425   1.625   0.401  11.957 -1.2169 -2.4471 -1.5779
 7322SOL    HW233426   1.770   0.384  11.967  0.3106 -0.7918  0.5497
 7323SOL     OW33427   0.528   4.350  15.401 -0.2035 -0.4868  1.1851
 7323SOL    HW133428   0.621   4.330  15.397 -0.0404  0.8984 -1.6404
 7323SOL    HW233429   0.497   4.282  15.342  0.6241  1.1727 -1.1390
 7324SOL     OW33430   4.257   0.977   0.974  0.3724 -0.2538 -0.1276
 7324SOL    HW133431   4.305   0.899   1.004  0.1860  0.3446  1.7152
 7324SOL    HW233432   4.319   1.023   0.917  1.4989  0.2718  1.5142
 7325SOL     OW33433   0.875   2.116   9.031 -0.3151 -0.5233 -0.1729
 7325SOL    HW133434   0.923   2.034   9.042  1.7236  0.7663  0.4321
 7325SOL    HW233435   0.841   2.113   9.121  0.5390 -2.1744  0.0879
 7326SOL     OW33436   2.224   0.599   6.183  0.6432 -0.0313  0.5652
 7326SOL    HW133437   2.162   0.604   6.110  3.1770  1.6281 -1.4604
 7326SOL    HW233438   2.279   0.671   6.151  0.4442 -1.2475 -2.5159
 7327SOL     OW33439   4.451   0.098   8.605 -0.1363  0.0808  0.7859
 7327SOL    HW133440   4.404   0.031   8.654  0.0382 -0.1445  0.6497
 7327SOL    HW233441   4.489   0.156   8.670 -2.8297 -0.3272  2.7159
 7328SOL     OW33442   3.042   2.957   8.532 -0.0177  0.4030 -0.8679
 7328SOL    HW133443   3.084   2.905   8.601 -0.7481  1.1324  0.1162
 7328SOL    HW233444   2.960   2.982   8.574 -0.0507  1.2075 -1.4248
 7329SOL     OW33445   3.459   3.859   0.190  0.4724  0.2921  0.4274
 7329SOL    HW133446   3.398   3.798   0.147 -1.5148  1.6166  1.3524
 7329SOL    HW233447   3.422   3.874   0.277 -0.0679  1.1149  0.0577
 7330SOL     OW33448   0.132   4.141  16.887 -0.0508 -0.3390 -0.5648
 7330SOL    HW133449   0.187   4.215  16.862 -1.5895  1.1855  0.5418
 7330SOL    HW233450   0.191   4.099  16.949 -1.1573  1.7671  1.8972
 7331SOL     OW33451   2.011   2.612   3.891 -0.0081 -0.1420  0.5754
 7331SOL    HW133452   2.087   2.568   3.928  0.3019  1.7742  2.1899
 7331SOL    HW233453   1.941   2.560   3.932 -1.7002  3.0857  1.7348
 7332SOL     OW33454   4.206   3.856   2.969 -0.2843 -0.3238 -0.0218
 7332SOL    HW133455   4.179   3.817   2.886 -0.9178 -2.6837  1.3140
 7332SOL    HW233456   4.270   3.791   2.997  1.5618  1.8701  0.8730
 7333SOL     OW33457   0.558   0.428   5.387  0.5922  0.3530  0.4107
 7333SOL    HW133458   0.640   0.402   5.345 -1.7776 -0.7957 -3.4188
 7333SOL    HW233459   0.507   0.427   5.307 -1.8081  0.4042  1.9360
 7334SOL     OW33460   3.119   2.897  17.618  0.2678  0.0452  0.5181
 7334SOL    HW133461   3.147   2.988  17.627 -0.9064  0.6763 -2.1312
 7334SOL    HW233462   3.164   2.873  17.537  1.7727  0.0020  1.3604
 7335SOL     OW33463   2.389   3.265   6.324 -0.0056 -0.0673 -0.4558
 7335SOL    HW133464   2.364   3.175   6.304  3.7121 -0.7886 -1.7665
 7335SOL    HW233465   2.317   3.313   6.282  1.8198  0.3534 -3.1243
 7336SOL     OW33466   1.521   2.280   2.729 -0.1653  0.3538 -0.4471
 7336SOL    HW133467   1.444   2.331   2.755 -2.3800 -1.2994 -3.7262
 7336SOL    HW233468   1.471   2.228   2.665 -1.3412 -0.5125  1.1491
 7337SOL     OW33469   2.880   3.553   9.931 -0.7664  0.2596 -0.2345
 7337SOL    HW133470   2.923   3.572  10.014  0.6454 -0.7817 -0.7227
 7337SOL    HW233471   2.814   3.622   9.919 -1.8182 -1.0290 -1.8634
 7338SOL     OW33472   0.304   3.252   4.188 -0.1005  0.5729 -0.3590
 7338SOL    HW133473   0.240   3.181   4.189 -1.0328  1.4170  0.0085
 7338SOL    HW233474   0.351   3.231   4.268  1.8536  2.4829 -0.9966
 7339SOL     OW33475   3.987   3.981   0.555  0.1890  0.1673 -0.0276
 7339SOL    HW133476   4.028   3.952   0.473  0.6068  0.9133 -0.0839
 7339SOL    HW233477   4.071   3.986   0.601 -0.5612  1.6393  1.1715
 7340SOL     OW33478   1.611   2.666   1.699  0.7480 -0.7286 -0.3918
 7340SOL    HW133479   1.694   2.649   1.745 -0.1571 -2.3996  0.5992
 7340SOL    HW233480   1.557   2.587   1.707 -2.6280  1.2885 -3.6662
 7341SOL     OW33481   2.085   0.690   2.767  0.1219  0.0273  0.1122
 7341SOL    HW133482   2.151   0.625   2.746 -0.0123 -0.4723  1.2676
 7341SOL    HW233483   2.008   0.657   2.720 -0.4871 -1.0123  1.8629
 7342SOL     OW33484   0.589   1.098   4.245  1.0339 -0.4732  0.3232
 7342SOL    HW133485   0.682   1.113   4.229  0.1314  0.4546 -4.2413
 7342SOL    HW233486   0.551   1.171   4.196  0.6266  1.6332  3.7942
 7343SOL     OW33487   3.408   3.127  16.942 -0.0345 -0.5660  0.1281
 7343SOL    HW133488   3.446   3.186  17.007 -0.0879 -1.3264  0.8490
 7343SOL    HW233489   3.423   3.192  16.873  5.0780  1.3442  3.0844
 7344SOL     OW33490   2.993   0.435   3.133  0.0923 -0.0845  0.5025
 7344SOL    HW133491   2.984   0.340   3.125  1.0521 -0.4371  3.5878
 7344SOL    HW233492   3.028   0.431   3.223 -1.9702 -2.1557  1.2172
 7345SOL     OW33493   1.689   1.003   5.955  0.6297  0.4602 -0.2063
 7345SOL    HW133494   1.784   1.002   5.943  0.6418  0.9176 -0.1759
 7345SOL    HW233495   1.680   1.087   6.001  0.7846  0.3521  0.0249
 7346SOL     OW33496   3.220   0.962   8.701 -0.1815 -0.0391 -0.1896
 7346SOL    HW133497   3.150   0.985   8.763 -1.5401 -1.0337 -1.3831
 7346SOL    HW233498   3.194   0.875   8.672 -2.0978  0.3087  0.4326
 7347SOL     OW33499   0.235   3.970   3.923 -0.2294 -0.4686  0.1783
 7347SOL    HW133500   0.307   3.936   3.870  0.7157  1.0095  0.5086
 7347SOL    HW233501   0.251   3.916   4.000  1.4186 -0.4398 -0.1385
 7348SOL     OW33502   3.370   2.778   5.333 -0.6314  0.3338  0.2104
 7348SOL    HW133503   3.459   2.797   5.363 -0.4634 -0.3063  0.1341
 7348SOL    HW233504   3.389   2.743   5.246 -1.9251 -0.2027  0.1431
 7349SOL     OW33505   0.426   2.023   8.645 -0.5243 -0.0877 -0.2481
 7349SOL    HW133506   0.434   2.099   8.703  1.8422 -0.6205  0.1239
 7349SOL    HW233507   0.517   2.001   8.630 -0.6083  0.7997 -2.0278
 7350SOL     OW33508   0.334   4.384  13.955  0.2248  0.0883 -0.0426
 7350SOL    HW133509   0.354   4.355  13.866 -0.9436  0.0720 -0.2914
 7350SOL    HW233510   0.387   4.325  14.008  1.1784 -0.9469 -2.1612
 7351SOL     OW33511   1.312   0.484   6.275 -0.6205 -0.3747  0.0632
 7351SOL    HW133512   1.232   0.481   6.328 -0.5046  0.0696  0.2626
 7351SOL    HW233513   1.317   0.580   6.271 -0.5813 -0.4012 -0.6749
 7352SOL     OW33514   4.529   1.164   4.922  0.7143  0.0892  0.1330
 7352SOL    HW133515   4.589   1.137   4.853 -0.9343  1.5517 -1.8704
 7352SOL    HW233516   4.537   1.107   4.999  0.5382 -0.4808 -0.2715
 7353SOL     OW33517   2.561   1.635   7.642 -0.6573 -0.0672 -0.3892
 7353SOL    HW133518   2.532   1.547   7.618  0.3548 -0.0035 -1.8512
 7353SOL    HW233519   2.618   1.624   7.717  2.3595 -0.5808 -2.7653
 7354SOL     OW33520   1.812   1.568   9.829 -0.3135 -0.3086 -0.3945
 7354SOL    HW133521   1.859   1.592   9.749  0.1805 -1.4422 -0.4494
 7354SOL    HW233522   1.863   1.490   9.852  1.3084  0.8943  0.1464
 7355SOL     OW33523   3.695   1.961   5.961 -1.0052  0.0818  0.1233
 7355SOL    HW133524   3.778   2.007   5.976 -0.3041 -0.4324 -2.2780
 7355SOL    HW233525   3.728   1.878   5.927  0.8759  0.4449  1.0359
 7356SOL     OW33526   0.376   4.011   3.541  0.2639  0.3769  0.2313
 7356SOL    HW133527   0.318   4.007   3.465  1.0399  0.0292 -0.3470
 7356SOL    HW233528   0.452   4.057   3.507  0.2550 -0.5883 -1.0992
 7357SOL     OW33529   4.117   2.057  15.259  0.0689 -0.3953 -0.1667
 7357SOL    HW133530   4.170   2.132  15.231 -1.2993  0.4497 -0.4682
 7357SOL    HW233531   4.180   2.011  15.314  0.2827  1.0430  0.7926
 7358SOL     OW33532   2.347   2.893  13.949 -0.1918  0.2088 -0.2948
 7358SOL    HW133533   2.415   2.912  13.885  2.1236  0.8092  2.3338
 7358SOL    HW233534   2.281   2.840  13.905 -0.2326  1.0378 -1.2156
 7359SOL     OW33535   0.896   1.038   7.622  0.6471 -0.1480 -0.2904
 7359SOL    HW133536   0.933   1.043   7.710 -0.9474 -1.5504  0.4529
 7359SOL    HW233537   0.962   0.991   7.572  0.7090 -2.0825  1.6288
 7360SOL     OW33538   3.277   1.299   0.127 -0.3001  0.3580  0.3718
 7360SOL    HW133539   3.204   1.360   0.117 -0.7530 -0.3436 -0.6423
 7360SOL    HW233540   3.230   1.218   0.107  0.5489 -0.2753  0.9661
 7361SOL     OW33541   4.486   3.237  13.866  0.7379  0.2659  0.0138
 7361SOL    HW133542   4.441   3.162  13.905 -1.9778  1.1172 -1.5235
 7361SOL    HW233543   4.420   3.273  13.807  0.0078 -0.6489  0.2683
 7362SOL     OW33544   2.162   2.024   8.826  0.1598 -0.1535  0.2780
 7362SOL    HW133545   2.224   1.973   8.879 -0.2796  0.5541  1.4684
 7362SOL    HW233546   2.217   2.073   8.765 -1.3719  0.5571 -0.5302
 7363SOL     OW33547   3.079   3.458   6.855 -0.1414 -0.6473  0.2175
 7363SOL    HW133548   3.001   3.505   6.885  1.7012  0.7481  2.8166
 7363SOL    HW233549   3.147   3.523   6.836 -0.6874 -0.1499 -0.0262
 7364SOL     OW33550   0.362   0.225   9.305  0.6711  0.0704 -0.0752
 7364SOL    HW133551   0.321   0.285   9.367  0.0976 -1.9839  1.5483
 7364SOL    HW233552   0.329   0.263   9.224  0.0306 -0.1837  0.0696
 7365SOL     OW33553   2.844   1.356   3.718  0.4437  0.0431  0.5053
 7365SOL    HW133554   2.882   1.273   3.690  1.6010  0.7627 -0.0606
 7365SOL    HW233555   2.919   1.414   3.731  0.4912  0.2034 -0.5296
 7366SOL     OW33556   1.988   4.372   2.927  0.7706  0.1765  0.2592
 7366SOL    HW133557   2.007   4.459   2.961  3.1064 -0.7109  1.2068
 7366SOL    HW233558   1.900   4.389   2.894  0.8193 -0.5915 -0.2668
 7367SOL     OW33559   2.570   1.149   9.065  0.5466  0.0101 -0.1285
 7367SOL    HW133560   2.609   1.227   9.025 -1.6112  0.6269 -1.0541
 7367SOL    HW233561   2.542   1.102   8.986  0.5619 -1.1022  0.5349
 7368SOL     OW33562   1.742   3.071   7.312  0.3400 -0.5646  0.0792
 7368SOL    HW133563   1.808   3.004   7.291 -0.9757 -1.5357 -0.9226
 7368SOL    HW233564   1.709   3.084   7.224 -2.8859 -1.0855  1.2302
 7369SOL     OW33565   3.623   4.012   3.471 -0.5237 -0.3945 -0.2606
 7369SOL    HW133566   3.663   3.958   3.539 -1.3289  0.4588  0.8825
 7369SOL    HW233567   3.685   4.084   3.476 -1.0250 -0.1099  1.6696
 7370SOL     OW33568   2.320   0.512  15.895 -0.0288 -0.1476  0.1363
 7370SOL    HW133569   2.284   0.482  15.979 -0.4758  0.1281  0.0435
 7370SOL    HW233570   2.240   0.522  15.844  0.4169 -0.3121 -0.5914
 7371SOL     OW33571   1.438   1.702   9.232 -0.6653 -0.4161  0.5806
 7371SOL    HW133572   1.523   1.658   9.240 -0.9463 -0.8924  0.9492
 7371SOL    HW233573   1.444   1.754   9.152 -0.2963  1.1781  1.6401
 7372SOL     OW33574   1.526   3.154   8.871  0.0788 -0.5328  0.4959
 7372SOL    HW133575   1.456   3.160   8.806 -0.8060  0.2265  1.5048
 7372SOL    HW233576   1.529   3.059   8.875  1.4582 -0.5907 -2.3422
 7373SOL     OW33577   2.002   0.706  15.195  0.2450 -0.4676 -0.1237
 7373SOL    HW133578   1.996   0.691  15.290  3.3192 -0.1497  0.1364
 7373SOL    HW233579   2.083   0.665  15.166  1.4954  2.0371 -0.1610
 7374SOL     OW33580   0.563   3.971   4.152 -0.0610  0.1002 -0.3088
 7374SOL    HW133581   0.623   3.971   4.077 -0.1234  0.8216 -0.3606
 7374SOL    HW233582   0.602   4.040   4.205 -1.5428  1.9083 -1.5711
 7375SOL     OW33583   3.153   0.013  16.027 -0.5920 -0.0206  0.4381
 7375SOL    HW133584   3.247   0.007  16.011 -0.1323 -0.4228  3.2044
 7375SOL    HW233585   3.109   4.686  15.959  1.8452 -2.6707  0.8639
 7376SOL     OW33586   0.937   0.578  12.021 -0.0138 -0.0026  0.0212
 7376SOL    HW133587   0.856   0.600  12.069  0.4519  0.6324  0.5107
 7376SOL    HW233588   0.902   0.494  11.993 -0.0826  0.0829 -0.1476
 7377SOL     OW33589   3.111   0.442   9.151 -0.6042 -0.2093  0.5020
 7377SOL    HW133590   3.095   0.354   9.116  1.3864 -0.1970 -0.4647
 7377SOL    HW233591   3.086   0.492   9.073  0.9859 -0.8283 -0.4187
 7378SOL     OW33592   0.193   0.340   0.470  0.4241 -0.3090 -0.0465
 7378SOL    HW133593   0.207   0.307   0.559 -1.2290 -0.6155  0.0997
 7378SOL    HW233594   0.277   0.316   0.431 -0.6945 -0.9924 -2.0136
 7379SOL     OW33595   4.417   1.062  12.484 -0.3943 -0.2626  0.3970
 7379SOL    HW133596   4.411   1.158  12.486 -1.7047 -0.3093 -0.9238
 7379SOL    HW233597   4.505   1.052  12.519  0.5523  0.9201 -1.6816
 7380SOL     OW33598   2.379   3.891  11.408 -0.0254 -0.0095  0.3387
 7380SOL    HW133599   2.458   3.944  11.420 -1.7079  2.7075 -0.8234
 7380SOL    HW233600   2.319   3.949  11.362 -1.5842  0.0032  2.3752
 7381SOL     OW33601   2.630   3.772   4.443 -0.2596 -0.0115  0.0887
 7381SOL    HW133602   2.663   3.831   4.375 -0.2710  0.6616  0.6785
 7381SOL    HW233603   2.685   3.694   4.433 -1.0955 -0.3371 -2.0658
 7382SOL     OW33604   3.983   0.689  13.126 -0.5639  0.5341  0.6380
 7382SOL    HW133605   3.918   0.748  13.086 -1.1490 -0.5393  0.0099
 7382SOL    HW233606   4.058   0.749  13.129 -1.6713  1.7460  4.2161
 7383SOL     OW33607   1.091   0.253  13.468  0.3951  0.3180 -0.1202
 7383SOL    HW133608   1.065   0.320  13.532 -1.5438  0.9667 -1.5662
 7383SOL    HW233609   1.173   0.228  13.509 -1.1006 -2.4175  1.2078
 7384SOL     OW33610   1.837   2.371   6.065 -0.1998  0.2411 -0.2442
 7384SOL    HW133611   1.779   2.443   6.041  0.2884  1.1085  1.1587
 7384SOL    HW233612   1.914   2.397   6.014 -0.4347 -1.6391 -1.5445
 7385SOL     OW33613   1.825   0.335  13.330 -0.0109  0.1995 -0.9725
 7385SOL    HW133614   1.830   0.344  13.425 -1.1682  0.0623 -0.8905
 7385SOL    HW233615   1.898   0.388  13.298  1.2058 -0.1268  1.2953
 7386SOL     OW33616   4.613   2.704   2.311  0.4280  0.2320  0.2745
 7386SOL    HW133617   4.648   2.681   2.224 -1.6220  0.9711 -0.7424
 7386SOL    HW233618   4.550   2.774   2.295 -0.5051 -0.7873 -0.5077
 7387SOL     OW33619   4.541   1.870   4.209 -0.2831  0.3851  0.0041
 7387SOL    HW133620   4.515   1.864   4.300 -0.5891  0.5348 -0.0735
 7387SOL    HW233621   4.575   1.782   4.196  0.0794  0.2508  1.9886
 7388SOL     OW33622   1.554   0.234   6.348 -0.2784  0.0150 -0.5806
 7388SOL    HW133623   1.571   0.148   6.387 -0.7432  1.5358  2.9696
 7388SOL    HW233624   1.458   0.224   6.349 -0.2496  0.1477  1.8836
 7389SOL     OW33625   1.462   3.653  16.727  0.1237  0.1440  0.0958
 7389SOL    HW133626   1.457   3.649  16.632  0.2940 -2.1656  0.1692
 7389SOL    HW233627   1.503   3.566  16.729  0.1972  0.1815  0.2550
 7390SOL     OW33628   1.928   3.395   9.962 -0.1885 -0.7826  0.1514
 7390SOL    HW133629   1.900   3.485   9.945  1.9326 -0.0130  0.7348
 7390SOL    HW233630   1.983   3.384   9.885  0.6911 -1.1362  0.8346
 7391SOL     OW33631   0.324   0.211   8.864 -0.5582 -0.2904 -0.4178
 7391SOL    HW133632   0.250   0.244   8.813 -1.0803  1.5101  1.5264
 7391SOL    HW233633   0.296   0.249   8.947 -0.9434  0.7839 -1.0386
 7392SOL     OW33634   0.278   2.335   8.199  0.4431 -0.0555 -0.4382
 7392SOL    HW133635   0.345   2.353   8.264  0.6757  2.1141 -1.2669
 7392SOL    HW233636   0.212   2.406   8.198 -0.3291 -0.7290  1.9933
 7393SOL     OW33637   2.138   0.444  16.101  0.1667 -0.5034 -0.3632
 7393SOL    HW133638   2.070   0.496  16.058 -1.1363 -0.7777  1.3756
 7393SOL    HW233639   2.139   0.483  16.188 -1.3989  0.6744 -0.8675
 7394SOL     OW33640   4.395   2.753   3.700 -0.0558  0.3634 -0.3561
 7394SOL    HW133641   4.429   2.668   3.673 -0.1066 -0.7079  2.9056
 7394SOL    HW233642   4.360   2.789   3.619  0.7822  0.2943 -0.7505
 7395SOL     OW33643   0.104   1.188   4.050 -0.2262 -0.1077 -0.0318
 7395SOL    HW133644   0.022   1.238   4.050  0.7512  1.4656  1.4383
 7395SOL    HW233645   0.156   1.239   3.988  0.5163  0.5652  1.1551
 7396SOL     OW33646   2.146   1.912   5.207 -0.2452  0.2935 -0.0547
 7396SOL    HW133647   2.082   1.852   5.170  1.3492 -0.3377 -1.7841
 7396SOL    HW233648   2.099   1.996   5.203 -1.2258 -0.2787 -0.6572
 7397SOL     OW33649   3.742   2.404  15.623  0.6671  0.1837 -0.1877
 7397SOL    HW133650   3.711   2.407  15.713  2.6257 -2.9192  0.5981
 7397SOL    HW233651   3.726   2.494  15.594 -1.6927 -0.0553  0.3718
 7398SOL     OW33652   4.050   3.730   2.083  0.3081 -0.1659 -0.4284
 7398SOL    HW133653   3.956   3.717   2.070 -0.0404 -0.1928  2.1999
 7398SOL    HW233654   4.063   3.823   2.067 -0.4273 -0.1253 -0.7976
 7399SOL     OW33655   4.689   3.421  13.168 -0.5582 -0.5161 -0.0123
 7399SOL    HW133656   4.720   3.410  13.258  1.9610  0.3351 -0.7686
 7399SOL    HW233657   0.031   3.475  13.123  1.4961 -2.3294  0.7864
 7400SOL     OW33658   2.926   1.765   7.123 -0.2142 -0.4221 -0.2783
 7400SOL    HW133659   2.945   1.721   7.206  1.1869  2.3733  0.8749
 7400SOL    HW233660   2.934   1.688   7.067 -1.4584 -1.4601  0.9832
 7401SOL     OW33661   4.031   3.848   8.093  0.2546  0.0592 -0.1451
 7401SOL    HW133662   3.977   3.818   8.167  1.3211 -0.4583  0.4181
 7401SOL    HW233663   3.978   3.804   8.025 -0.1668 -2.4975  1.8132
 7402SOL     OW33664   2.672   2.691   8.817  0.1278  0.1533  0.4936
 7402SOL    HW133665   2.600   2.628   8.809 -0.0963  0.4389  0.2759
 7402SOL    HW233666   2.689   2.682   8.911 -0.4437  0.5221  0.6377
 7403SOL     OW33667   3.246   0.772   8.954 -0.3783 -0.5293  0.1757
 7403SOL    HW133668   3.250   0.788   9.049 -1.2021 -2.3185  0.5124
 7403SOL    HW233669   3.179   0.706   8.935 -0.9825  0.4111 -0.9190
 7404SOL     OW33670   2.386   1.036  13.139  0.1027 -0.2178  0.7099
 7404SOL    HW133671   2.343   0.958  13.175  0.3869 -0.5252  0.3787
 7404SOL    HW233672   2.477   1.022  13.166 -0.0122 -0.2188  1.1054
 7405SOL     OW33673   3.234   2.801   7.821  0.7976 -0.1991 -0.0102
 7405SOL    HW133674   3.198   2.728   7.871 -0.0009  0.6877  0.7103
 7405SOL    HW233675   3.168   2.861   7.854 -0.1297 -1.2070 -0.0277
 7406SOL     OW33676   3.089   2.044   1.829 -0.1876 -0.7165 -0.1382
 7406SOL    HW133677   3.179   2.050   1.860 -0.6486  0.5507  0.9594
 7406SOL    HW233678   3.112   2.077   1.743  1.0547 -1.7648 -0.1981
 7407SOL     OW33679   4.430   4.305   8.484  0.6164 -0.0853  0.3158
 7407SOL    HW133680   4.360   4.314   8.419  0.7111  0.9806  0.3678
 7407SOL    HW233681   4.413   4.217   8.517  0.6867  0.0281  0.6478
 7408SOL     OW33682   1.338   1.958   8.611  0.3184 -0.3041 -0.4452
 7408SOL    HW133683   1.318   1.995   8.525  0.6092 -0.6810 -0.6733
 7408SOL    HW233684   1.427   1.926   8.600  0.3844 -0.0298 -0.7053
 7409SOL     OW33685   0.096   4.309  11.474  0.1712  0.7314 -0.1718
 7409SOL    HW133686   0.075   4.273  11.560  1.6059 -1.2548 -0.6690
 7409SOL    HW233687   0.188   4.333  11.485  0.6010 -1.9519  1.9551
 7410SOL     OW33688   1.315   2.618   2.612  0.0429  0.1017 -0.5036
 7410SOL    HW133689   1.289   2.540   2.662 -0.8721  0.0971 -0.9751
 7410SOL    HW233690   1.280   2.693   2.660  2.4543  1.8108 -1.4310
 7411SOL     OW33691   2.197   2.027   8.457  0.2333  0.1070  0.1791
 7411SOL    HW133692   2.190   1.957   8.522 -2.1309  1.0362  0.9490
 7411SOL    HW233693   2.103   2.046   8.447  0.2156 -0.6220 -1.0268
 7412SOL     OW33694   2.330   1.828  10.633  0.1893  0.3391 -0.3762
 7412SOL    HW133695   2.327   1.739  10.669  0.1427  0.2722 -0.5436
 7412SOL    HW233696   2.379   1.877  10.698  0.8861  1.0085 -1.4169
 7413SOL     OW33697   0.872   0.853   3.528  0.3503 -0.1814 -0.2188
 7413SOL    HW133698   0.797   0.902   3.563  1.2044 -1.1350  2.9528
 7413SOL    HW233699   0.943   0.863   3.592  2.7238  1.3790 -3.1498
 7414SOL     OW33700   0.931   3.440  13.827  0.4030 -0.1326  0.2339
 7414SOL    HW133701   0.957   3.453  13.736 -2.6885 -0.4284 -0.6728
 7414SOL    HW233702   0.886   3.522  13.848 -1.4268 -1.0684 -0.0030
 7415SOL     OW33703   3.681   2.209   8.124  0.0529 -0.8210  0.5302
 7415SOL    HW133704   3.731   2.140   8.080 -0.6883 -1.1735  0.2275
 7415SOL    HW233705   3.742   2.253   8.183 -1.2024  2.2810 -0.4749
 7416SOL     OW33706   2.420   4.206   3.710  0.4995 -0.2757 -0.4979
 7416SOL    HW133707   2.433   4.272   3.779  1.2807  1.0815 -1.9477
 7416SOL    HW233708   2.458   4.130   3.754  0.7742 -0.8128 -1.6787
 7417SOL     OW33709   4.386   3.227   4.177  0.1092 -0.3232  0.1032
 7417SOL    HW133710   4.464   3.281   4.171 -0.4187  0.4002 -0.2708
 7417SOL    HW233711   4.428   3.141   4.179 -1.2335 -0.9666  0.7285
 7418SOL     OW33712   1.656   4.262   1.353 -0.2209  0.0256 -0.3230
 7418SOL    HW133713   1.717   4.335   1.364 -0.2018  0.2264 -1.7505
 7418SOL    HW233714   1.708   4.190   1.318 -0.0220 -0.1337  0.3015
 7419SOL     OW33715   2.792   0.626   6.874 -0.2403 -0.2477  0.4523
 7419SOL    HW133716   2.886   0.642   6.888  0.2625 -1.2301 -1.9000
 7419SOL    HW233717   2.759   0.714   6.857 -0.5287 -0.1781  1.3840
 7420SOL     OW33718   0.646   3.637  12.684  0.1343 -0.1452  0.0799
 7420SOL    HW133719   0.698   3.557  12.691  0.4578 -0.2096 -3.3337
 7420SOL    HW233720   0.659   3.674  12.771  0.3705 -1.5198  0.6341
 7421SOL     OW33721   4.486   0.612   8.672  0.1917 -0.2129 -0.2078
 7421SOL    HW133722   4.459   0.703   8.684 -0.6795 -0.7263  1.7266
 7421SOL    HW233723   4.524   0.593   8.758 -0.5218  1.8256  0.5501
 7422SOL     OW33724   3.155   1.057   0.040  0.1685  0.2513 -0.4440
 7422SOL    HW133725   3.091   1.003   0.087  0.3016 -0.1105 -0.6810
 7422SOL    HW233726   3.109   1.054  17.652  0.2309 -0.9385 -0.4308
 7423SOL     OW33727   2.142   3.958   8.507 -0.3599  0.1116  0.0297
 7423SOL    HW133728   2.190   4.028   8.551 -0.1204 -0.7593  1.1510
 7423SOL    HW233729   2.104   4.014   8.440 -2.1363 -0.8642  0.2455
 7424SOL     OW33730   0.311   4.552   5.250  0.0893 -0.4755  0.0851
 7424SOL    HW133731   0.273   4.620   5.195 -0.1833  0.0498  0.9253
 7424SOL    HW233732   0.241   4.545   5.314 -0.6825  0.6785 -0.6263
 7425SOL     OW33733   4.471   4.669   2.642 -0.3773 -0.1648  0.8586
 7425SOL    HW133734   4.485   4.721   2.562  2.1886  0.7799  1.8988
 7425SOL    HW233735   4.556   4.679   2.685  0.2537  0.0167 -0.4104
 7426SOL     OW33736   0.427   3.135   4.401 -0.3229  0.0444  0.2105
 7426SOL    HW133737   0.514   3.097   4.402  0.2015  1.2631  0.7655
 7426SOL    HW233738   0.439   3.196   4.474  0.3786 -1.0398  0.9926
 7427SOL     OW33739   1.743   1.831   4.963 -0.1942  0.0968 -0.0086
 7427SOL    HW133740   1.742   1.744   4.921  1.2992  1.2617 -2.4430
 7427SOL    HW233741   1.834   1.829   4.994  0.5052 -2.3570 -2.1357
 7428SOL     OW33742   1.337   1.877   4.640 -0.0855 -0.4946  0.5056
 7428SOL    HW133743   1.266   1.907   4.583 -0.0177 -1.8641 -0.2859
 7428SOL    HW233744   1.371   1.806   4.586 -1.6252 -2.2268  1.8083
 7429SOL     OW33745   2.065   4.254  15.276 -0.7039  0.0890 -0.8984
 7429SOL    HW133746   2.002   4.200  15.229 -0.7299 -1.4492  0.8642
 7429SOL    HW233747   2.130   4.278  15.210 -2.0881 -3.7535 -3.6581
 7430SOL     OW33748   2.112   0.671  15.519  0.2407 -0.3015  0.3559
 7430SOL    HW133749   2.076   0.588  15.487 -1.6192  1.6508 -2.6664
 7430SOL    HW233750   2.180   0.681  15.453  0.4135  0.7232  0.7012
 7431SOL     OW33751   0.314   0.329  12.268  0.0877  0.1602  0.1746
 7431SOL    HW133752   0.330   0.240  12.298  2.2965  1.4169  2.7546
 7431SOL    HW233753   0.267   0.313  12.186  0.8722 -1.7158  0.0959
 7432SOL     OW33754   3.825   2.101   7.417  0.3253 -0.3227  0.2168
 7432SOL    HW133755   3.851   2.012   7.390 -0.1628 -1.0992  2.3314
 7432SOL    HW233756   3.889   2.160   7.378  1.9220 -1.7569  0.6782
 7433SOL     OW33757   4.449   1.979   9.998 -0.6262 -0.6915 -0.4574
 7433SOL    HW133758   4.369   1.929   9.979 -0.0208 -1.5196 -0.8448
 7433SOL    HW233759   4.497   1.929  10.064  0.6399  1.2430  0.0910
 7434SOL     OW33760   0.847   3.204   8.758  0.1707 -0.0679  0.0762
 7434SOL    HW133761   0.822   3.112   8.764 -0.4770  0.1326  0.4584
 7434SOL    HW233762   0.928   3.216   8.708 -0.3312 -2.6491 -1.3462
 7435SOL     OW33763   0.049   4.713   6.953  0.3644  0.2783  0.6931
 7435SOL    HW133764   0.018   4.692   7.041 -1.0492 -1.1042 -0.1466
 7435SOL    HW233765   0.036   4.629   6.910  0.5483  0.7054 -0.2082
 7436SOL     OW33766   1.076   3.953   2.264  0.3865 -0.5361  0.1638
 7436SOL    HW133767   1.118   3.882   2.314 -0.4591 -2.0897 -1.3065
 7436SOL    HW233768   1.037   3.906   2.190  1.3281  0.8986 -1.2280
 7437SOL     OW33769   0.256   2.604  15.474 -0.0554 -0.9223 -0.2927
 7437SOL    HW133770   0.248   2.512  15.448 -0.6789 -0.7719 -0.6502
 7437SOL    HW233771   0.292   2.595  15.562 -2.2906 -1.5594  0.5741
 7438SOL     OW33772   2.722   2.977   7.055  0.3671 -0.0705  0.2230
 7438SOL    HW133773   2.698   2.891   7.020 -2.2120  1.1553 -0.9746
 7438SOL    HW233774   2.759   3.008   6.973 -0.2112  0.2503  0.0876
 7439SOL     OW33775   1.015   4.623   4.574 -0.1839  0.1676  0.4908
 7439SOL    HW133776   1.094   4.614   4.627  0.2456  1.4552  0.0844
 7439SOL    HW233777   1.018   4.542   4.523  0.4353  1.0796 -0.9278
 7440SOL     OW33778   2.396   3.257  16.068 -0.5088 -0.3396  0.0936
 7440SOL    HW133779   2.480   3.214  16.049  0.8846  3.1508 -1.7132
 7440SOL    HW233780   2.395   3.247  16.163  1.7890 -2.0281 -0.0490
 7441SOL     OW33781   0.603   2.634  15.893 -0.2063  0.3169 -0.6025
 7441SOL    HW133782   0.650   2.703  15.847  1.7114 -0.6306 -0.0307
 7441SOL    HW233783   0.604   2.653  15.987 -2.2286  0.2140 -0.5589
 7442SOL     OW33784   4.011   3.159   9.321  0.3764 -0.8226  0.0932
 7442SOL    HW133785   4.101   3.177   9.349  0.5849 -1.9279  0.1465
 7442SOL    HW233786   3.993   3.096   9.390 -1.3516 -0.4492 -0.0378
 7443SOL     OW33787   1.265   1.260   1.367  0.0813  0.0885  0.2403
 7443SOL    HW133788   1.349   1.298   1.391 -0.5377  1.2770  0.4929
 7443SOL    HW233789   1.203   1.333   1.373  0.1420  0.0291  1.5641
 7444SOL     OW33790   0.110   2.335   5.904  0.0444 -0.4696 -0.6737
 7444SOL    HW133791   0.193   2.288   5.896  0.0741 -0.5976  0.3183
 7444SOL    HW233792   0.130   2.399   5.972  0.3043 -0.9928 -0.2503
 7445SOL     OW33793   1.985   1.056   4.011 -0.4631 -0.0006  0.2082
 7445SOL    HW133794   2.021   1.011   3.934 -0.1165  0.0740  0.3322
 7445SOL    HW233795   2.056   1.034   4.071 -0.1453 -0.4584 -0.3342
 7446SOL     OW33796   3.844   0.000   3.356  0.6455  0.0334 -0.7880
 7446SOL    HW133797   3.896   0.065   3.308  1.2108  0.1057 -0.0653
 7446SOL    HW233798   3.846   4.642   3.307 -0.7488 -0.5292  0.0989
 7447SOL     OW33799   1.857   1.610  13.283 -0.1617  0.4609 -0.2162
 7447SOL    HW133800   1.792   1.681  13.287 -2.3457 -1.3676 -2.7964
 7447SOL    HW233801   1.852   1.571  13.370 -1.0273 -0.3890 -0.6456
 7448SOL     OW33802   3.401   4.719   8.240  0.4377 -0.5558  0.0622
 7448SOL    HW133803   3.311   4.687   8.251  1.0128 -2.0697  0.2690
 7448SOL    HW233804   3.426   0.021   8.329  1.0733 -0.2951 -0.1910
 7449SOL     OW33805   1.895   3.642   8.729 -0.2451  0.2273 -0.6012
 7449SOL    HW133806   1.977   3.594   8.720 -0.1316  0.2650  0.2503
 7449SOL    HW233807   1.911   3.678   8.816  0.7482  0.7646 -1.0114
 7450SOL     OW33808   1.852   2.700  17.375 -0.0469  0.9150  0.7076
 7450SOL    HW133809   1.839   2.784  17.419  1.8070  1.6933 -0.2133
 7450SOL    HW233810   1.766   2.660  17.367  0.9983 -0.9127 -1.5743
 7451SOL     OW33811   4.360   0.995   7.230  0.3325  0.3922  0.5421
 7451SOL    HW133812   4.324   0.909   7.250  1.4541 -0.3058 -0.5612
 7451SOL    HW233813   4.351   0.994   7.135 -1.8720  0.2634  0.7332
 7452SOL     OW33814   2.381   2.762   4.368 -0.4665 -0.1146 -0.0361
 7452SOL    HW133815   2.429   2.687   4.405 -0.3380  0.0958  0.2256
 7452SOL    HW233816   2.337   2.798   4.445 -2.4288 -0.3625 -1.0496
 7453SOL     OW33817   2.118   1.476   8.125  0.0810 -0.0128 -0.0854
 7453SOL    HW133818   2.082   1.408   8.182 -0.7326 -0.5859 -1.2675
 7453SOL    HW233819   2.184   1.519   8.180  0.7486  0.3252 -1.1553
 7454SOL     OW33820   0.069   2.899  13.164  0.4516 -0.0661  0.3621
 7454SOL    HW133821   0.091   2.810  13.136 -0.1465 -0.6546  1.7493
 7454SOL    HW233822   0.120   2.898  13.245  1.5405 -2.5273 -0.3592
 7455SOL     OW33823   0.432   4.321   7.006  0.2633  0.4004 -0.5499
 7455SOL    HW133824   0.373   4.294   7.076  1.9512 -2.2598 -0.1293
 7455SOL    HW233825   0.509   4.265   6.999  1.2726  1.5639  1.5458
 7456SOL     OW33826   0.122   3.957   5.075 -0.0826 -0.4092  0.1938
 7456SOL    HW133827   0.096   3.973   4.985 -0.3586 -0.3557  0.2827
 7456SOL    HW233828   0.136   4.040   5.120  0.6942 -0.6768  0.4579
 7457SOL     OW33829   0.028   0.640   8.415  0.3850  0.5011 -0.5956
 7457SOL    HW133830   0.104   0.652   8.358  1.5886 -2.2987  0.4217
 7457SOL    HW233831   0.051   0.715   8.470  0.2121 -0.1176  0.3209
 7458SOL     OW33832   0.874   0.132  14.095 -0.6462 -0.1019 -0.0952
 7458SOL    HW133833   0.803   0.070  14.077 -0.2270 -0.5783 -0.1011
 7458SOL    HW233834   0.850   0.207  14.041 -3.2546 -0.4801  0.5362
 7459SOL     OW33835   0.778   1.216   9.136 -0.4430 -0.6358  0.4316
 7459SOL    HW133836   0.703   1.261   9.175 -0.4860 -0.3102 -0.0245
 7459SOL    HW233837   0.834   1.206   9.213  0.1013 -0.6267  0.0336
 7460SOL     OW33838   3.177   4.609   8.398 -0.5865 -0.5357  0.2629
 7460SOL    HW133839   3.184   4.674   8.467 -1.5219 -0.4739  0.3011
 7460SOL    HW233840   3.247   4.549   8.426 -0.0531 -0.2090 -0.3596
 7461SOL     OW33841   1.596   3.272  15.845 -0.3055 -0.4763 -0.2048
 7461SOL    HW133842   1.610   3.237  15.757  0.0541  0.4973 -0.5355
 7461SOL    HW233843   1.596   3.368  15.847 -0.4012 -0.4592 -1.4607
 7462SOL     OW33844   2.184   0.288   7.847  0.1756  0.4651 -0.6689
 7462SOL    HW133845   2.203   0.361   7.788  3.2529 -0.8549 -1.3028
 7462SOL    HW233846   2.097   0.313   7.878 -0.0526 -0.0185 -0.9189
 7463SOL     OW33847   1.061   0.666   7.603 -0.5962 -0.0738 -0.3191
 7463SOL    HW133848   1.139   0.656   7.657 -0.9981 -2.4536 -0.1707
 7463SOL    HW233849   1.090   0.633   7.518  1.1135 -0.3196  0.3535
 7464SOL     OW33850   3.134   0.756   4.936  0.2328 -0.2321  0.4708
 7464SOL    HW133851   3.195   0.717   4.874  0.1404  1.6553 -0.8015
 7464SOL    HW233852   3.104   0.827   4.880  0.7049  0.4771  1.1210
 7465SOL     OW33853   2.244   0.935   2.862  0.2105 -0.2226 -0.1155
 7465SOL    HW133854   2.190   0.858   2.848  0.0691 -0.3227  0.9564
 7465SOL    HW233855   2.175   0.991   2.898  2.3330  1.8480  0.7955
 7466SOL     OW33856   0.270   0.557  16.603 -0.6686 -0.1487 -0.1814
 7466SOL    HW133857   0.327   0.502  16.656  0.5537  0.2554 -1.0833
 7466SOL    HW233858   0.315   0.555  16.519 -0.8772  1.1311 -0.3161
 7467SOL     OW33859   4.675   4.042  11.428 -0.3003 -0.5204 -0.0202
 7467SOL    HW133860   4.721   4.126  11.420 -0.8437 -0.1264  0.9439
 7467SOL    HW233861   4.693   4.017  11.519  2.6100  1.6863  0.0360
 7468SOL     OW33862   0.768   2.428   3.579 -0.0067  0.1769  0.6149
 7468SOL    HW133863   0.781   2.343   3.537  1.6246  0.1388  1.1782
 7468SOL    HW233864   0.837   2.431   3.645  0.7510  0.9705 -0.2108
 7469SOL     OW33865   1.899   3.920   2.189 -0.2862  0.0851 -0.2501
 7469SOL    HW133866   1.858   3.962   2.114 -1.4325 -0.5402  0.0287
 7469SOL    HW233867   1.979   3.973   2.196 -0.0431 -0.4227  0.8200
 7470SOL     OW33868   4.171   0.567   5.201  0.0889  0.3349  0.2268
 7470SOL    HW133869   4.164   0.590   5.108  0.5128  1.0708  0.3816
 7470SOL    HW233870   4.186   0.472   5.202  1.8956  0.6249  0.3974
 7471SOL     OW33871   1.100   3.797   7.356  0.1771 -0.0378  0.8632
 7471SOL    HW133872   1.155   3.721   7.335  1.4178  0.9057  0.7077
 7471SOL    HW233873   1.015   3.762   7.328  0.4473 -1.1116  1.3815
 7472SOL     OW33874   0.957   2.597   2.908 -0.0574  0.3026 -0.6002
 7472SOL    HW133875   1.027   2.543   2.872  0.9420  1.7348 -0.7590
 7472SOL    HW233876   0.903   2.531   2.953  2.5071 -1.3591  0.0003
 7473SOL     OW33877   0.111   1.890   5.456  0.1798  0.3318  0.0283
 7473SOL    HW133878   0.130   1.905   5.549 -3.2092  0.6567  0.6608
 7473SOL    HW233879   0.069   1.972   5.429 -2.2485 -1.1438 -0.6991
 7474SOL     OW33880   3.260   3.810   6.317 -0.1950 -0.2257  0.3481
 7474SOL    HW133881   3.191   3.820   6.252 -2.2820  3.1384  3.1106
 7474SOL    HW233882   3.346   3.822   6.277 -0.1464  1.6435  1.0204
 7475SOL     OW33883   0.259   1.450  15.699  0.1009 -0.2376  0.1309
 7475SOL    HW133884   0.205   1.392  15.645 -0.7742  2.1663 -1.5809
 7475SOL    HW233885   0.281   1.394  15.773 -2.7611 -1.6671 -0.1069
 7476SOL     OW33886   3.474   0.211  10.241  0.2143  0.2078 -0.4168
 7476SOL    HW133887   3.381   0.229  10.228  0.3449  0.9527 -0.3197
 7476SOL    HW233888   3.494   0.273  10.311  3.9402 -2.0142  0.4511
 7477SOL     OW33889   2.975   0.165   4.855 -0.5341  0.2243  0.6657
 7477SOL    HW133890   2.913   0.233   4.880 -2.1606 -0.7400 -0.7674
 7477SOL    HW233891   3.035   0.213   4.799 -1.7349 -0.2392 -1.0020
 7478SOL     OW33892   3.820   1.592   0.531 -0.3710 -1.1222 -0.1909
 7478SOL    HW133893   3.907   1.584   0.570 -0.6661 -0.0766  0.6646
 7478SOL    HW233894   3.769   1.540   0.593  0.1449  0.3260  1.4545
 7479SOL     OW33895   2.236   0.658  16.700 -0.1601  0.3166 -0.0049
 7479SOL    HW133896   2.178   0.621  16.633 -0.9456 -1.3866  1.6131
 7479SOL    HW233897   2.233   0.578  16.753  0.0384 -0.3811 -1.0481
 7480SOL     OW33898   0.660   1.111   7.306 -0.2302 -0.1571  0.0336
 7480SOL    HW133899   0.679   1.023   7.340  1.0026 -0.8431 -2.4474
 7480SOL    HW233900   0.714   1.165   7.364  1.8535 -4.3230  2.0694
 7481SOL     OW33901   1.725   0.201  13.835  0.1303 -0.6518 -0.4083
 7481SOL    HW133902   1.630   0.189  13.839  0.2287 -0.5894  2.0186
 7481SOL    HW233903   1.751   0.175  13.746  1.1825 -0.9980  0.0099
 7482SOL     OW33904   1.310   1.274   6.556  0.1198 -0.0763 -0.3707
 7482SOL    HW133905   1.391   1.224   6.559 -0.3735 -0.7739  1.4178
 7482SOL    HW233906   1.305   1.279   6.461 -0.0025 -0.1256 -0.3659
 7483SOL     OW33907   1.305   0.002   5.776  0.2937  0.4522  0.1503
 7483SOL    HW133908   1.354   4.669   5.716 -0.0886 -0.6001  0.8226
 7483SOL    HW233909   1.289   4.662   5.846  1.4222 -2.0333 -1.8361
 7484SOL     OW33910   4.653   0.455  10.246 -0.6349 -0.6528 -0.7058
 7484SOL    HW133911   4.563   0.487  10.243 -0.5377 -0.7333 -3.8612
 7484SOL    HW233912   4.684   0.497  10.327 -2.8576  1.1782 -0.8028
 7485SOL     OW33913   2.315   3.736   1.259  0.2569  0.5149 -0.2701
 7485SOL    HW133914   2.399   3.696   1.236 -1.5315 -3.1429 -0.5432
 7485SOL    HW233915   2.333   3.771   1.346  0.1889  0.2314 -0.1413
 7486SOL     OW33916   4.105   2.949   9.946  0.2143  0.3035  0.0309
 7486SOL    HW133917   4.010   2.958   9.946  0.1435 -0.5016 -0.0378
 7486SOL    HW233918   4.118   2.855   9.947  0.1733  0.2982  0.0731
 7487SOL     OW33919   4.531   2.723   6.884 -0.4747 -0.4621 -0.1488
 7487SOL    HW133920   4.597   2.699   6.949  0.0141 -0.3177 -0.5956
 7487SOL    HW233921   4.473   2.648   6.895 -0.5542 -0.5663 -1.3216
 7488SOL     OW33922   0.510   2.512   6.246  0.3142 -0.1567  0.1588
 7488SOL    HW133923   0.550   2.525   6.160  1.6242 -2.8757  0.3547
 7488SOL    HW233924   0.577   2.462   6.291 -0.0035 -1.0641 -0.3613
 7489SOL     OW33925   2.926   1.050   6.975  0.5680  0.6029 -0.0476
 7489SOL    HW133926   2.896   0.999   7.051  0.8382 -0.1674 -0.4636
 7489SOL    HW233927   2.853   1.111   6.962 -0.7569 -0.4454  2.2310
 7490SOL     OW33928   0.257   2.441   0.659  0.2409  0.4917 -0.4835
 7490SOL    HW133929   0.325   2.405   0.716 -1.7585  0.1681  1.7091
 7490SOL    HW233930   0.306   2.428   0.578  1.2671  1.1297  0.0388
 7491SOL     OW33931   2.447   3.768   7.174  0.2407  0.2181 -0.0174
 7491SOL    HW133932   2.487   3.687   7.205  0.3071  0.3676  0.2876
 7491SOL    HW233933   2.358   3.744   7.199  0.3714 -0.1201  0.1285
 7492SOL     OW33934   0.902   1.391   5.953  0.5461 -0.2661 -0.0110
 7492SOL    HW133935   0.888   1.316   6.011  0.1359 -2.1865 -2.6016
 7492SOL    HW233936   0.922   1.464   6.011  0.5221 -0.0222 -0.3063
 7493SOL     OW33937   0.854   1.149   8.894 -0.2229 -0.0954 -0.1133
 7493SOL    HW133938   0.853   1.055   8.912 -1.6318 -0.0751 -0.1015
 7493SOL    HW233939   0.817   1.177   8.977 -0.0578 -0.9826  0.2638
 7494SOL     OW33940   2.650   0.233   0.312  0.6276 -0.1267  0.1247
 7494SOL    HW133941   2.709   0.214   0.385  0.3512  0.1043  0.4120
 7494SOL    HW233942   2.664   0.327   0.321  1.3484 -0.2427  0.2156
 7495SOL     OW33943   3.490   2.315   3.595  0.1153  0.6660  0.1476
 7495SOL    HW133944   3.573   2.269   3.608 -1.6353 -2.0812  1.5394
 7495SOL    HW233945   3.524   2.402   3.614 -1.6583  1.9230 -2.4615
 7496SOL     OW33946   4.519   2.253   9.225 -0.2071 -0.2071  1.0349
 7496SOL    HW133947   4.473   2.254   9.309 -4.5477 -0.9959 -1.3242
 7496SOL    HW233948   4.536   2.159   9.215 -0.7876 -0.2188  0.1573
 7497SOL     OW33949   4.457   3.158   8.238 -0.6190  0.3006  0.3323
 7497SOL    HW133950   4.471   3.067   8.264 -2.6316 -0.0180  0.3281
 7497SOL    HW233951   4.361   3.163   8.243 -0.5352  0.5278  1.8960
 7498SOL     OW33952   1.585   1.958   8.820  0.3417 -0.5644 -0.8741
 7498SOL    HW133953   1.615   1.918   8.739  0.7233 -1.0215 -0.5064
 7498SOL    HW233954   1.592   1.881   8.876  2.5797  0.2114 -0.1095
 7499SOL     OW33955   2.713   3.830   8.124  0.3978 -0.1645 -0.0015
 7499SOL    HW133956   2.643   3.767   8.141 -0.3304  0.6454 -0.0279
 7499SOL    HW233957   2.786   3.786   8.169  0.9055  1.0605  0.3715
 7500SOL     OW33958   2.543   1.223   2.874  0.1139  0.4643  0.6391
 7500SOL    HW133959   2.464   1.272   2.898 -1.0085  0.2817 -2.7683
 7500SOL    HW233960   2.607   1.239   2.943  0.5583  2.0858 -0.1538
 7501SOL     OW33961   4.052   4.243  15.209  0.2731  0.1965 -0.0394
 7501SOL    HW133962   4.124   4.200  15.255  0.6417 -1.5614 -2.2936
 7501SOL    HW233963   4.064   4.200  15.124  0.1032  2.0028 -0.9588
 7502SOL     OW33964   0.933   4.131   6.741 -0.1284 -0.0525 -0.1948
 7502SOL    HW133965   1.002   4.195   6.761  0.1260  0.2054 -1.9220
 7502SOL    HW233966   0.995   4.059   6.733 -1.0669 -0.8460 -0.2983
 7503SOL     OW33967   3.231   0.708   2.229  0.2361 -0.3888  0.2150
 7503SOL    HW133968   3.285   0.688   2.305  1.4991 -2.1786 -1.1594
 7503SOL    HW233969   3.291   0.757   2.173 -0.5523 -0.7934 -0.9976
 7504SOL     OW33970   1.851   0.151  13.590  0.4889  0.5438 -0.4362
 7504SOL    HW133971   1.846   0.246  13.602 -0.2368  0.6631 -1.6528
 7504SOL    HW233972   1.946   0.145  13.583  0.6408  2.6691 -0.1849
 7505SOL     OW33973   2.611   0.667   1.428 -0.3264 -0.2956 -0.6512
 7505SOL    HW133974   2.536   0.630   1.381  1.3637 -2.2407 -1.7901
 7505SOL    HW233975   2.619   0.647   1.521  1.1908  1.8445 -0.3070
 7506SOL     OW33976   0.293   2.344  15.374  0.2462  0.4078  0.6336
 7506SOL    HW133977   0.386   2.320  15.382  0.5486  1.0319 -1.0925
 7506SOL    HW233978   0.247   2.285  15.434  1.1033  1.1938  2.0497
 7507SOL     OW33979   0.159   1.704   8.716  0.3473 -0.2445  0.0733
 7507SOL    HW133980   0.119   1.681   8.800  1.1792  0.4721  0.6603
 7507SOL    HW233981   0.106   1.653   8.654  3.0690 -2.5900 -0.2910
 7508SOL     OW33982   3.964   3.882   2.353 -0.3185  0.1318 -0.0312
 7508SOL    HW133983   4.035   3.922   2.304 -1.1069 -1.0107 -2.1147
 7508SOL    HW233984   3.914   3.838   2.284  0.2309 -0.0773 -0.2992
 7509SOL     OW33985   1.886   2.705   2.256  0.6079 -0.0009  0.2164
 7509SOL    HW133986   1.871   2.628   2.200 -0.6641 -0.9391  1.8781
 7509SOL    HW233987   1.981   2.698   2.270  0.6418  0.7795  0.3673
 7510SOL     OW33988   1.028   3.727  12.336 -0.2346 -0.0763  0.6096
 7510SOL    HW133989   1.054   3.766  12.419  1.7114  3.0572 -1.4639
 7510SOL    HW233990   1.072   3.796  12.287 -1.0126  0.3376  0.4894
 7511SOL     OW33991   1.313   3.028   7.499 -0.0986 -0.1982 -0.3139
 7511SOL    HW133992   1.407   3.013   7.508 -0.3200 -1.1475  0.3907
 7511SOL    HW233993   1.306   3.120   7.474  2.0248 -0.3902 -1.6515
 7512SOL     OW33994   2.951   1.536   8.408 -0.8015  0.7650 -0.0894
 7512SOL    HW133995   2.903   1.584   8.476  0.6493  0.1995  1.3536
 7512SOL    HW233996   3.030   1.590   8.403 -0.2061 -0.0702  0.1061
 7513SOL     OW33997   0.992   0.886  13.288  0.2998  0.5461  0.0518
 7513SOL    HW133998   1.008   0.900  13.381  1.1752 -1.9204  0.2666
 7513SOL    HW233999   1.042   0.805  13.293 -3.4423 -1.7352  0.0324
 7514SOL     OW34000   4.516   4.081   5.455  0.6006 -0.3017 -0.4530
 7514SOL    HW134001   4.476   4.153   5.502  0.6982 -0.4413 -0.1581
 7514SOL    HW234002   4.442   4.029   5.423 -0.2244 -0.4752  1.7414
 7515SOL     OW34003   3.707   0.789  17.193 -0.2634 -0.1427 -0.3401
 7515SOL    HW134004   3.649   0.714  17.197  0.9002 -1.0346 -0.1157
 7515SOL    HW234005   3.649   0.860  17.165  1.1886  1.1202 -0.1415
 7516SOL     OW34006   1.845   3.135   5.253 -0.0680 -0.5676 -0.4126
 7516SOL    HW134007   1.821   3.214   5.302 -0.5151 -1.3729  0.6524
 7516SOL    HW234008   1.756   3.099   5.246 -0.7906  0.9574  1.0006
 7517SOL     OW34009   4.371   1.001  10.026  0.1251 -0.1622  0.0831
 7517SOL    HW134010   4.441   0.936  10.031  1.2568  1.1706  1.3580
 7517SOL    HW234011   4.357   1.014   9.932 -0.9158  3.7447  0.7951
 7518SOL     OW34012   4.246   2.408   8.176 -0.3404  0.6841 -0.0958
 7518SOL    HW134013   4.269   2.319   8.149  2.0309  1.2026  0.2820
 7518SOL    HW234014   4.337   2.436   8.169  0.5712 -1.7598  1.9967
 7519SOL     OW34015   3.897   0.410   1.557 -0.0234  0.3341 -0.4407
 7519SOL    HW134016   3.831   0.470   1.592 -1.2601 -1.2563 -0.0157
 7519SOL    HW234017   3.933   0.378   1.640  1.1794  3.4803  0.2383
 7520SOL     OW34018   2.291   3.048   7.528  0.1488  0.1254 -0.0583
 7520SOL    HW134019   2.207   3.092   7.514  1.3620  1.9686 -1.5074
 7520SOL    HW234020   2.263   2.993   7.601 -0.6468  0.9851  0.2763
 7521SOL     OW34021   1.318   3.215   7.111 -0.0811 -0.3865  0.3644
 7521SOL    HW134022   1.327   3.146   7.045 -1.4502 -1.0368  0.8705
 7521SOL    HW234023   1.226   3.234   7.094 -0.1470 -1.2050 -0.1876
 7522SOL     OW34024   4.164   3.445   5.429  0.7011 -0.7889  0.3825
 7522SOL    HW134025   4.076   3.445   5.392  1.1308  0.2612 -0.6474
 7522SOL    HW234026   4.218   3.478   5.357  1.2264 -3.4377 -0.4273
 7523SOL     OW34027   0.080   3.061   7.667  0.1570  0.5192  0.1716
 7523SOL    HW134028   0.176   3.067   7.661  0.2587 -1.0323  0.2745
 7523SOL    HW234029   0.076   2.986   7.726  0.1230 -0.4976 -1.1518
 7524SOL     OW34030   0.566   2.793   3.428  0.2837 -0.0191  0.0313
 7524SOL    HW134031   0.505   2.843   3.483  0.2800 -3.0705  2.8188
 7524SOL    HW234032   0.511   2.778   3.351 -0.2236  1.8909  0.0392
 7525SOL     OW34033   1.867   1.651   5.758  0.0951  0.2829  0.0499
 7525SOL    HW134034   1.954   1.686   5.737  0.2389 -1.5060 -2.3561
 7525SOL    HW234035   1.892   1.561   5.780  2.9495  0.8562 -0.8430
 7526SOL     OW34036   1.690   4.148   5.967 -0.1244 -0.0173  0.1224
 7526SOL    HW134037   1.707   4.128   5.875 -0.3512  0.1675  0.0411
 7526SOL    HW234038   1.618   4.210   5.956  1.6360  2.1392  0.7031
 7527SOL     OW34039   4.432   2.452   0.816 -0.2830  0.2552  0.1697
 7527SOL    HW134040   4.415   2.372   0.765 -2.2302 -0.4228  1.8946
 7527SOL    HW234041   4.520   2.443   0.853 -1.1042 -0.0771  2.0228
 7528SOL     OW34042   0.958   4.369  16.898 -0.3427 -0.0511  0.2377
 7528SOL    HW134043   1.032   4.367  16.959  2.2110  0.5471 -2.8447
 7528SOL    HW234044   0.933   4.461  16.903  0.1241 -0.0147  1.9103
 7529SOL     OW34045   3.986   0.594  17.246  0.0464  0.1630 -0.8948
 7529SOL    HW134046   3.972   0.665  17.184  0.0170  1.9348  1.1334
 7529SOL    HW234047   3.922   0.531  17.213 -0.5141  0.0629  0.3554
 7530SOL     OW34048   0.100   0.411   6.662 -0.8398 -0.4269 -0.4406
 7530SOL    HW134049   0.050   0.430   6.741 -0.3559  1.0670 -0.4923
 7530SOL    HW234050   0.101   0.315   6.668 -1.2649 -0.5511 -2.3794
 7531SOL     OW34051   1.696   3.958   9.135 -0.2401 -0.1173 -0.1100
 7531SOL    HW134052   1.671   4.050   9.139 -0.1818  0.0191 -2.6343
 7531SOL    HW234053   1.613   3.925   9.169 -0.4293  0.2419 -0.2261
 7532SOL     OW34054   1.868   2.561   1.733 -0.2927  0.0671  0.0851
 7532SOL    HW134055   1.924   2.571   1.810 -0.2697  1.0577 -0.0618
 7532SOL    HW234056   1.906   2.481   1.695  1.6926  1.0983 -0.0965
 7533SOL     OW34057   2.222   3.626   7.207  0.2692 -0.2395  0.1412
 7533SOL    HW134058   2.127   3.618   7.202  0.4114 -0.3638 -2.3707
 7533SOL    HW234059   2.257   3.577   7.133  0.1458 -3.4882  2.2228
 7534SOL     OW34060   0.515   0.532   6.639  0.1125  0.3731 -0.8090
 7534SOL    HW134061   0.553   0.491   6.717  0.8750  1.1489 -0.7710
 7534SOL    HW234062   0.456   0.465   6.604  1.0721 -0.9552  0.1200
 7535SOL     OW34063   2.340   2.800  15.115 -0.2582 -0.1698  0.1161
 7535SOL    HW134064   2.386   2.751  15.183 -0.7239  0.0306  0.5771
 7535SOL    HW234065   2.321   2.885  15.155 -1.2314 -0.6715  0.7224
 7536SOL     OW34066   1.789   3.247   6.025  0.0545  0.6663  0.5400
 7536SOL    HW134067   1.837   3.306   5.967 -0.6689  0.4245 -0.3058
 7536SOL    HW234068   1.802   3.295   6.107  0.3397  0.3199  0.7008
 7537SOL     OW34069   2.601   0.852   6.463  0.1230  0.0596  0.1115
 7537SOL    HW134070   2.693   0.846   6.438  0.8695  2.0423  2.3346
 7537SOL    HW234071   2.606   0.913   6.537  1.2372  0.8585 -0.6263
 7538SOL     OW34072   1.324   3.096   7.931  0.0381 -0.6529  0.0309
 7538SOL    HW134073   1.314   3.146   8.011 -0.6840  3.6116 -2.7213
 7538SOL    HW234074   1.275   3.161   7.881 -0.1104  0.1069  1.1839
 7539SOL     OW34075   1.541   3.805  13.518 -0.0718  0.5627 -0.0194
 7539SOL    HW134076   1.564   3.857  13.596  0.7336  0.4128 -0.1638
 7539SOL    HW234077   1.524   3.870  13.449 -0.1439  1.4021  0.7798
 7540SOL     OW34078   3.373   1.346   8.048  0.4827 -0.1566 -0.7600
 7540SOL    HW134079   3.358   1.262   8.091 -1.6562  0.6703  0.0815
 7540SOL    HW234080   3.442   1.386   8.100  1.1867 -0.6346 -1.3353
 7541SOL     OW34081   4.421   1.879  13.844 -0.1411  0.0785 -0.1498
 7541SOL    HW134082   4.392   1.953  13.897 -0.8111 -0.5875  0.4179
 7541SOL    HW234083   4.373   1.809  13.889  1.3578  0.1639  1.5672
 7542SOL     OW34084   1.405   3.012   5.801 -0.4944  0.1731  0.3502
 7542SOL    HW134085   1.498   3.029   5.785 -0.7437  1.8384  0.6399
 7542SOL    HW234086   1.402   3.024   5.896 -0.4283  0.0183  0.3706
 7543SOL     OW34087   2.610   3.094   0.770  0.5940 -0.2375 -0.4599
 7543SOL    HW134088   2.599   3.140   0.687  0.3145  1.6746  0.6317
 7543SOL    HW234089   2.560   3.014   0.755 -0.4034  0.2424  0.3615
 7544SOL     OW34090   3.832   2.315   8.293 -0.0279 -0.2198 -0.4508
 7544SOL    HW134091   3.843   2.250   8.363  0.3837  1.3030  0.9011
 7544SOL    HW234092   3.763   2.371   8.327 -0.0108 -0.8981  0.7091
 7545SOL     OW34093   3.745   0.961   9.212 -0.5185 -0.3185 -0.3449
 7545SOL    HW134094   3.779   0.969   9.123 -1.2676  0.7714 -0.5338
 7545SOL    HW234095   3.695   1.041   9.228 -1.5722 -0.7775 -1.3297
 7546SOL     OW34096   0.973   3.685  15.565  0.5673 -0.2052 -0.4894
 7546SOL    HW134097   0.887   3.703  15.603  0.7435  2.9814 -1.5992
 7546SOL    HW234098   1.014   3.771  15.572 -0.5242  0.2620  0.1233
 7547SOL     OW34099   2.944   2.016   3.720  0.4262  0.1716 -0.5567
 7547SOL    HW134100   2.863   2.067   3.732 -0.6766 -1.7186  0.0039
 7547SOL    HW234101   2.914   1.928   3.697  1.1470 -0.1944 -0.1051
 7548SOL     OW34102   2.319   1.955   6.388  0.3553 -0.0648 -0.2970
 7548SOL    HW134103   2.313   2.022   6.320  0.1670  0.4901  0.2689
 7548SOL    HW234104   2.296   2.003   6.467  1.1187  0.3217 -0.3166
 7549SOL     OW34105   4.107   1.436  14.582  0.1882 -0.0470 -0.0137
 7549SOL    HW134106   4.197   1.421  14.612 -0.5868 -0.9932  1.8741
 7549SOL    HW234107   4.089   1.513  14.636  0.4872 -0.2970  0.4462
 7550SOL     OW34108   3.801   3.394  13.111  0.1910  0.0936  0.0068
 7550SOL    HW134109   3.733   3.352  13.164 -1.9835 -0.3961 -3.1746
 7550SOL    HW234110   3.792   3.485  13.137 -0.6473  0.4203 -1.4726
 7551SOL     OW34111   0.765   1.394   7.769  0.5300 -0.2863  0.3424
 7551SOL    HW134112   0.697   1.428   7.826  0.2473  0.7566 -0.6182
 7551SOL    HW234113   0.742   1.302   7.781  3.4837 -1.4689 -2.7320
 7552SOL     OW34114   0.228   0.869   4.157  0.3004 -0.0069 -0.1049
 7552SOL    HW134115   0.174   0.790   4.151  0.4933 -0.1530  0.0966
 7552SOL    HW234116   0.157   0.933   4.158 -0.3333 -0.7051 -0.2618
 7553SOL     OW34117   1.703   2.087   7.051  0.0783 -0.1122  0.1678
 7553SOL    HW134118   1.615   2.087   7.013 -0.1658  1.7952  0.7031
 7553SOL    HW234119   1.742   2.166   7.013 -2.7536  1.1747 -0.0623
 7554SOL     OW34120   1.172   3.245   3.961 -0.4984  0.4013 -0.1315
 7554SOL    HW134121   1.253   3.205   3.991 -1.2011  0.3910  1.7581
 7554SOL    HW234122   1.204   3.326   3.920 -0.6961  0.0363 -1.0148
 7555SOL     OW34123   0.766   3.253  10.570  0.3387 -0.2681  0.0678
 7555SOL    HW134124   0.721   3.173  10.598  0.4438 -0.7062 -1.0280
 7555SOL    HW234125   0.696   3.298  10.523 -0.2498  0.3483  1.5417
 7556SOL     OW34126   3.356   2.661   2.568 -0.2240  0.1185 -0.4209
 7556SOL    HW134127   3.293   2.650   2.640  1.2693  3.2554  1.3488
 7556SOL    HW234128   3.423   2.721   2.599 -0.5796 -0.1891  0.9330
 7557SOL     OW34129   4.260   1.212   6.777  0.4294  0.4204  0.0387
 7557SOL    HW134130   4.215   1.251   6.702 -0.5008 -2.0117 -0.6764
 7557SOL    HW234131   4.193   1.246   6.837 -0.0169 -0.2823 -0.0713
 7558SOL     OW34132   3.231   2.271  15.205  0.4034 -0.2501  0.1469
 7558SOL    HW134133   3.203   2.336  15.270  0.6083  1.3514 -1.3901
 7558SOL    HW234134   3.304   2.227  15.248 -0.6283 -0.9193  1.2333
 7559SOL     OW34135   2.209   2.868   5.332  0.0247  0.4147 -0.7434
 7559SOL    HW134136   2.260   2.830   5.260  1.4506 -0.2019  0.5983
 7559SOL    HW234137   2.254   2.835   5.410  2.9646 -0.1515 -2.6995
 7560SOL     OW34138   1.332   2.919   6.210 -0.3376 -0.2987 -0.0910
 7560SOL    HW134139   1.393   2.953   6.275  0.1734 -0.0030 -0.7224
 7560SOL    HW234140   1.255   2.972   6.229 -0.5812 -0.7159  0.0666
 7561SOL     OW34141   4.516   1.071   3.302  0.6687  0.1713 -0.1685
 7561SOL    HW134142   4.474   1.157   3.293  0.7960  0.1743 -0.7571
 7561SOL    HW234143   4.499   1.014   3.227  1.7511  0.6019 -0.7491
 7562SOL     OW34144   4.591   4.516   1.162  0.0873 -0.1549 -0.2658
 7562SOL    HW134145   4.683   4.514   1.189 -0.0450  0.7972  0.2320
 7562SOL    HW234146   4.556   4.466   1.236  0.2917  0.5146  0.2842
 7563SOL     OW34147   3.015   4.569   4.224 -0.0264 -0.0611 -0.1361
 7563SOL    HW134148   3.005   4.659   4.195 -1.4010 -0.5753 -1.2583
 7563SOL    HW234149   3.031   4.589   4.316  0.3895  3.2791 -0.9533
 7564SOL     OW34150   2.708   1.736   6.859  0.2495  0.2658 -0.3015
 7564SOL    HW134151   2.730   1.826   6.838  1.9085  0.0993  0.7630
 7564SOL    HW234152   2.705   1.744   6.955  0.9425 -0.2308 -0.2364
 7565SOL     OW34153   0.057   2.019   0.463 -0.2892 -0.1352 -0.1025
 7565SOL    HW134154   0.135   2.029   0.518 -0.9470 -0.0240  0.8114
 7565SOL    HW234155   0.026   2.109   0.459  1.8825  0.6265  0.2227
 7566SOL     OW34156   0.125   0.132   9.468 -0.0885 -0.1481  0.0065
 7566SOL    HW134157   0.179   0.063   9.505 -2.2021 -2.5854 -1.4601
 7566SOL    HW234158   0.181   0.207   9.489  0.2133 -0.4725  0.3601
 7567SOL     OW34159   4.646   0.434   6.890 -0.4772 -0.1519 -0.0127
 7567SOL    HW134160   4.637   0.361   6.952 -1.0320 -0.5816 -0.6027
 7567SOL    HW234161   4.623   0.512   6.941  0.3525  0.6290 -0.8377
 7568SOL     OW34162   2.873   2.577  12.226 -0.1088 -0.1074  0.2260
 7568SOL    HW134163   2.959   2.534  12.219  0.0005  0.3829 -1.3950
 7568SOL    HW234164   2.827   2.512  12.277  0.3811 -0.8340 -0.2534
 7569SOL     OW34165   1.797   4.695  15.221 -0.1845  0.1151 -0.0312
 7569SOL    HW134166   1.819   4.628  15.286  1.2080 -0.0499 -0.6777
 7569SOL    HW234167   1.709   4.660  15.208 -0.1455 -0.2410  0.6211
 7570SOL     OW34168   3.026   2.272   5.548 -0.0872  0.8044  0.7838
 7570SOL    HW134169   3.024   2.194   5.603 -1.0656 -1.1211 -1.9929
 7570SOL    HW234170   2.956   2.321   5.591 -0.7287  0.8792 -0.3589
 7571SOL     OW34171   4.647   3.756   8.453  0.0225  0.1259  0.2720
 7571SOL    HW134172   4.667   3.775   8.361 -0.9446 -2.3410 -0.4429
 7571SOL    HW234173   4.553   3.739   8.455 -0.1957  1.3901  0.8082
 7572SOL     OW34174   4.675   2.837   8.827  0.5929 -0.3673  0.0466
 7572SOL    HW134175   4.612   2.898   8.866  0.1576  0.5805 -2.1640
 7572SOL    HW234176   4.691   2.775   8.899 -0.3574  1.6518  2.0185
 7573SOL     OW34177   3.032   2.531   9.399 -0.4071 -0.1734 -0.2932
 7573SOL    HW134178   3.062   2.489   9.480  1.1222  1.1459 -0.1914
 7573SOL    HW234179   2.951   2.574   9.427 -2.9747 -3.6831 -2.2950
 7574SOL     OW34180   3.618   2.700  15.294  0.2358 -0.2588  0.7955
 7574SOL    HW134181   3.544   2.670  15.241  0.4686 -1.1709  0.9925
 7574SOL    HW234182   3.695   2.689  15.239 -0.2707 -0.5348  0.1480
 7575SOL     OW34183   4.600   0.721   4.846  0.6994  0.8024 -0.2924
 7575SOL    HW134184   4.554   0.744   4.766 -1.8334  1.9428  1.5034
 7575SOL    HW234185   4.586   0.627   4.837 -2.0685  1.0520  1.4596
 7576SOL     OW34186   2.809   4.666   3.169 -0.0883 -0.0072 -0.4006
 7576SOL    HW134187   2.770   4.580   3.150 -2.0821  0.8241 -0.1106
 7576SOL    HW234188   2.883   4.664   3.108  1.5576 -1.3967  1.6535
 7577SOL     OW34189   3.420   4.453  13.559  0.0342  0.0014 -0.2058
 7577SOL    HW134190   3.387   4.529  13.608 -0.1324  0.3596 -0.8867
 7577SOL    HW234191   3.390   4.476  13.472  0.1857 -0.7342 -0.4494
 7578SOL     OW34192   3.016   1.887   1.022 -0.1533  0.6124  0.1372
 7578SOL    HW134193   3.063   1.834   0.957  0.0202  0.5888  0.2842
 7578SOL    HW234194   2.926   1.869   0.996 -0.2870 -0.9978  1.7348
 7579SOL     OW34195   2.031   1.813   7.050  0.8703 -0.6903 -0.0322
 7579SOL    HW134196   2.111   1.786   7.095  1.8602 -0.7260 -1.8232
 7579SOL    HW234197   2.014   1.744   6.986  4.1414  0.3138 -1.9481
 7580SOL     OW34198   3.630   4.305   5.011 -0.1298  0.0331 -0.3483
 7580SOL    HW134199   3.617   4.370   4.942  0.5618  0.5124 -0.0297
 7580SOL    HW234200   3.639   4.219   4.969  2.2935  0.1899 -0.1492
 7581SOL     OW34201   2.191   2.683   3.429 -0.4998 -0.7900  0.9196
 7581SOL    HW134202   2.111   2.646   3.466 -0.4040 -0.9084  1.0083
 7581SOL    HW234203   2.198   2.769   3.471 -1.0924  0.1947 -0.9963
 7582SOL     OW34204   0.026   3.710   2.801 -0.0173  0.5229 -0.1898
 7582SOL    HW134205   0.086   3.660   2.856 -2.0396 -0.1646  1.4296
 7582SOL    HW234206   0.006   3.642   2.737  0.2270  1.7136 -1.5080
 7583SOL     OW34207   0.096   1.791   1.809 -0.0598  0.3143  0.0050
 7583SOL    HW134208   0.053   1.869   1.774  2.1239  1.5937  0.1635
 7583SOL    HW234209   0.147   1.823   1.884 -1.8861  2.2693  0.4047
 7584SOL     OW34210   2.670   3.041   7.316 -0.1686  0.0418  0.1867
 7584SOL    HW134211   2.621   2.959   7.321  1.6184 -0.9901  1.0090
 7584SOL    HW234212   2.689   3.033   7.223 -0.8236  2.1642 -0.1284
 7585SOL     OW34213   4.510   3.279   3.479 -0.8643 -0.4111 -0.1460
 7585SOL    HW134214   4.523   3.349   3.543 -1.6808 -0.1675 -0.2441
 7585SOL    HW234215   4.444   3.307   3.415  0.1945  0.9430 -0.6596
 7586SOL     OW34216   1.338   0.805   7.928 -0.1288 -0.5375  0.2544
 7586SOL    HW134217   1.327   0.895   7.958 -0.4938 -0.2318 -0.8288
 7586SOL    HW234218   1.328   0.763   8.014 -1.6448  1.6634  1.1462
 7587SOL     OW34219   1.708   3.723  16.201  0.0660 -0.0891  0.2926
 7587SOL    HW134220   1.690   3.798  16.257 -2.5887  0.2902 -1.0927
 7587SOL    HW234221   1.803   3.732  16.196  0.1475 -1.2141 -0.2682
 7588SOL     OW34222   4.158   0.330   2.781 -0.3880 -0.4142  0.4738
 7588SOL    HW134223   4.074   0.335   2.737  1.1286  0.9768 -2.2892
 7588SOL    HW234224   4.163   0.408   2.837 -1.1269 -0.0478  0.0220
 7589SOL     OW34225   1.991   0.536   9.205 -0.1632 -0.7379  0.0459
 7589SOL    HW134226   2.072   0.498   9.239  1.0612 -0.2420 -2.3401
 7589SOL    HW234227   2.002   0.489   9.123  2.6393 -0.6181  0.3473
 7590SOL     OW34228   2.354   3.911   9.790 -0.2386 -1.1111 -0.3907
 7590SOL    HW134229   2.389   3.892   9.703  2.5201 -1.1667  0.7198
 7590SOL    HW234230   2.353   3.828   9.839  1.3391 -0.4407  0.7840
 7591SOL     OW34231   3.790   0.242  14.050 -0.5576 -0.3145  0.0517
 7591SOL    HW134232   3.712   0.293  14.027 -0.0789  1.2534  1.8409
 7591SOL    HW234233   3.758   0.186  14.121 -0.9988  1.4130  1.2317
 7592SOL     OW34234   1.014   1.406  17.541 -0.2819  0.0753  0.3255
 7592SOL    HW134235   1.077   1.469  17.506  1.4353 -2.7084 -1.6358
 7592SOL    HW234236   1.040   1.328  17.491  1.4809  0.4963  0.5837
 7593SOL     OW34237   0.110   0.089   1.732 -0.5152  0.5767 -0.2525
 7593SOL    HW134238   0.169   0.088   1.657 -0.2664  1.8627 -0.0821
 7593SOL    HW234239   0.164   0.035   1.790  0.9781  2.1250 -0.2203
 7594SOL     OW34240   2.180   1.692   6.318 -0.5679  0.1885  0.5378
 7594SOL    HW134241   2.230   1.753   6.372  1.2318 -2.1410  1.5320
 7594SOL    HW234242   2.091   1.726   6.319 -1.3332 -1.7539 -0.9284
 7595SOL     OW34243   3.631   0.313   4.041  0.3588 -0.2418  0.0579
 7595SOL    HW134244   3.612   0.234   4.091 -1.7424 -0.6957 -1.4778
 7595SOL    HW234245   3.553   0.326   3.988  0.1213 -0.5686  0.3292
 7596SOL     OW34246   0.905   2.540   5.041  0.0909  0.0839  0.4650
 7596SOL    HW134247   0.843   2.468   5.053  0.3894 -0.1695  0.4917
 7596SOL    HW234248   0.986   2.492   5.057  0.2050  0.2911  0.5125
 7597SOL     OW34249   2.716   3.793   4.064  0.0271 -0.4830 -0.2014
 7597SOL    HW134250   2.652   3.722   4.070 -0.3099 -0.2731 -1.3986
 7597SOL    HW234251   2.712   3.829   4.153  0.3592  0.5892 -0.6282
 7598SOL     OW34252   2.199   1.778   7.312  0.3582 -0.2843 -0.0724
 7598SOL    HW134253   2.278   1.771   7.258 -0.2533 -1.5082 -0.8157
 7598SOL    HW234254   2.245   1.761   7.395 -0.9319  0.1013  0.7124
 7599SOL     OW34255   1.548   2.662   8.268  0.2342  0.6194  0.6685
 7599SOL    HW134256   1.576   2.585   8.318 -1.5525 -0.6894 -0.3511
 7599SOL    HW234257   1.479   2.694   8.327  1.6646  2.3093  1.4400
 7600SOL     OW34258   4.148   1.379   3.783  0.2331 -0.2045 -0.3216
 7600SOL    HW134259   4.215   1.322   3.745 -2.3151 -0.6757 -4.0759
 7600SOL    HW234260   4.181   1.464   3.754 -1.6523  1.3565  2.0987
 7601SOL     OW34261   0.293   2.701  17.238 -0.1236 -0.1288 -0.0532
 7601SOL    HW134262   0.234   2.775  17.223  1.4566  1.1515  0.0842
 7601SOL    HW234263   0.260   2.646  17.308 -2.2623 -0.1562 -1.0944
 7602SOL     OW34264   4.636   3.759   6.092 -0.4819  1.1276  0.3603
 7602SOL    HW134265   4.664   3.745   6.001  3.1700 -1.7417  1.9525
 7602SOL    HW234266   4.644   3.668   6.120  0.0241  0.9381 -0.3829
 7603SOL     OW34267   4.678   1.356  10.383 -0.1838  0.2369  0.0221
 7603SOL    HW134268   4.655   1.306  10.305  1.5319 -0.1150 -0.2497
 7603SOL    HW234269   4.603   1.327  10.435 -0.3077 -2.0477 -1.4211
 7604SOL     OW34270   0.315   1.045   4.590  0.3118 -0.2640 -0.2705
 7604SOL    HW134271   0.278   1.133   4.581 -1.1127 -0.7658  0.7129
 7604SOL    HW234272   0.356   1.024   4.506  0.5562  1.6384 -0.6190
 7605SOL     OW34273   0.515   4.705   5.834 -0.0786 -0.2020 -0.5512
 7605SOL    HW134274   0.431   4.719   5.877  0.8544 -0.8433  1.4999
 7605SOL    HW234275   0.477   4.703   5.747  1.7414  0.2961 -1.3522
 7606SOL     OW34276   1.901   0.264   1.999  0.3389 -0.4073 -0.2067
 7606SOL    HW134277   1.838   0.321   2.042 -0.4865 -0.7128 -1.0110
 7606SOL    HW234278   1.981   0.317   2.001  0.0438  0.0556 -0.7589
 7607SOL     OW34279   2.358   2.754  12.917 -0.3432  0.3319 -0.1651
 7607SOL    HW134280   2.337   2.829  12.974 -2.2336 -1.7337  1.8636
 7607SOL    HW234281   2.351   2.680  12.977  1.2705 -0.4229 -0.8994
 7608SOL     OW34282   4.024   0.121   5.828 -0.3971 -0.0354 -0.0621
 7608SOL    HW134283   4.012   0.065   5.751 -0.6907 -0.6499  0.4240
 7608SOL    HW234284   4.011   0.046   5.886 -0.2184  0.3692  0.5012
 7609SOL     OW34285   2.422   2.564   1.722  0.1178  0.1751  0.3402
 7609SOL    HW134286   2.435   2.475   1.754 -0.5884  0.0390  0.2499
 7609SOL    HW234287   2.427   2.617   1.802  4.0262  1.1183 -0.5343
 7610SOL     OW34288   1.567   3.541  13.569 -0.1132 -0.3910 -0.1244
 7610SOL    HW134289   1.654   3.517  13.602  0.8285  2.9920 -0.1728
 7610SOL    HW234290   1.563   3.637  13.567  1.5237 -0.2820  1.2882
 7611SOL     OW34291   1.678   3.403  11.065 -0.5950 -0.0011 -0.1745
 7611SOL    HW134292   1.760   3.433  11.027 -0.4374  0.1618  0.2923
 7611SOL    HW234293   1.617   3.475  11.050  1.1154  1.0845 -1.7732
 7612SOL     OW34294   4.269   3.395   8.034 -1.0165  0.6822  0.5108
 7612SOL    HW134295   4.358   3.425   8.052 -0.8919  0.0186  1.0336
 7612SOL    HW234296   4.256   3.426   7.944 -3.5640 -0.9563  0.3028
 7613SOL     OW34297   1.735   1.767   6.372  0.1231  0.0117 -0.1615
 7613SOL    HW134298   1.808   1.816   6.334 -0.4117 -2.4210 -4.3499
 7613SOL    HW234299   1.670   1.835   6.355 -1.5097 -1.1077  1.6729
 7614SOL     OW34300   2.551   3.309  14.139  0.1047  0.1032  0.1065
 7614SOL    HW134301   2.510   3.223  14.134  1.5228 -0.4178 -2.3459
 7614SOL    HW234302   2.553   3.335  14.231  0.0439 -0.2786  0.2144
 7615SOL     OW34303   2.606   3.845   3.279 -0.2350 -0.0315  0.4042
 7615SOL    HW134304   2.615   3.818   3.370 -0.6961 -1.4966  0.0107
 7615SOL    HW234305   2.696   3.838   3.248 -0.9378 -0.6681 -1.4705
 7616SOL     OW34306   0.680   2.926  12.338  0.0985 -0.1738  0.2764
 7616SOL    HW134307   0.705   2.834  12.328 -2.1384 -0.4840 -2.3295
 7616SOL    HW234308   0.636   2.914  12.422 -0.0768  0.3924  0.2665
 7617SOL     OW34309   4.221   2.915  12.774  0.4031 -0.1462  0.4716
 7617SOL    HW134310   4.204   2.905  12.868 -0.3095  2.3084  0.5968
 7617SOL    HW234311   4.129   2.927  12.752  0.6272 -0.9880 -0.9370
 7618SOL     OW34312   2.610   3.810   2.648  0.4739  0.2827 -0.0152
 7618SOL    HW134313   2.546   3.747   2.682  1.6024  0.2558  2.0953
 7618SOL    HW234314   2.660   3.753   2.590  0.8189  1.9824 -1.3612
 7619SOL     OW34315   3.256   1.026   5.609  0.3381 -0.0045  0.2550
 7619SOL    HW134316   3.291   0.940   5.634  2.9235  0.8638 -0.3468
 7619SOL    HW234317   3.199   1.042   5.684 -2.1668 -2.1192 -1.2111
 7620SOL     OW34318   2.570   4.317   0.898  0.4832 -0.5880  0.1959
 7620SOL    HW134319   2.492   4.355   0.858 -0.5006 -0.0398  2.5976
 7620SOL    HW234320   2.615   4.384   0.949  0.2624 -0.0851 -0.2737
 7621SOL     OW34321   2.605   3.734   6.520  0.6328 -0.0650 -0.1352
 7621SOL    HW134322   2.695   3.702   6.512 -0.0398 -2.0548  0.2473
 7621SOL    HW234323   2.627   3.806   6.580  1.0613 -0.5147  0.2391
 7622SOL     OW34324   2.363   1.284   9.197 -0.6248 -0.6910 -0.0978
 7622SOL    HW134325   2.309   1.210   9.223 -0.1095 -1.5182 -1.3910
 7622SOL    HW234326   2.415   1.244   9.127  0.3210 -0.9061  0.7193
 7623SOL     OW34327   4.628   2.586   8.701  0.6532 -0.0428 -0.5414
 7623SOL    HW134328   4.580   2.525   8.757  0.2799 -0.2498 -1.0802
 7623SOL    HW234329   4.607   2.667   8.746 -1.3597 -0.4619 -0.7139
 7624SOL     OW34330   3.757   3.900  13.254  0.4982  0.4243  0.5347
 7624SOL    HW134331   3.795   3.812  13.251  2.8950  1.4289  1.5041
 7624SOL    HW234332   3.829   3.952  13.290  1.8990 -0.9892 -0.1714
 7625SOL     OW34333   3.421   4.534   1.652 -0.1185  0.1047  0.1186
 7625SOL    HW134334   3.442   4.440   1.652 -1.3958 -0.1910 -1.5185
 7625SOL    HW234335   3.501   4.585   1.665  0.8991 -1.4159 -0.1244
 7626SOL     OW34336   1.935   0.451   2.280  0.1303  0.1508 -0.3979
 7626SOL    HW134337   1.857   0.396   2.287  0.2875 -0.3081 -2.1638
 7626SOL    HW234338   2.015   0.399   2.271 -0.3342 -0.4909 -0.8518
 7627SOL     OW34339   3.182   1.259   8.251 -0.1794  0.2015 -0.4644
 7627SOL    HW134340   3.263   1.209   8.262  0.3274  1.5327  2.0778
 7627SOL    HW234341   3.146   1.253   8.340 -2.7954  3.0808 -1.2936
 7628SOL     OW34342   2.988   3.128  17.259 -0.2095  0.0134  0.3256
 7628SOL    HW134343   3.051   3.079  17.207 -0.5750 -0.0244 -0.0876
 7628SOL    HW234344   3.023   3.216  17.247  0.9394 -0.3844  0.8252
 7629SOL     OW34345   1.656   3.054  11.983  0.5174 -0.2855 -0.0435
 7629SOL    HW134346   1.658   3.011  12.068 -0.2530  0.4509  0.3441
 7629SOL    HW234347   1.593   3.126  11.990  0.9443 -0.1796  2.5328
 7630SOL     OW34348   1.712   1.541   6.605 -0.3104  0.3035 -0.0456
 7630SOL    HW134349   1.735   1.600   6.677  2.8208  0.7744 -1.4541
 7630SOL    HW234350   1.708   1.601   6.530 -2.5151  0.6732  0.3709
 7631SOL     OW34351   3.504   4.100  15.850 -0.9977 -0.5013  0.4110
 7631SOL    HW134352   3.522   4.190  15.823 -0.5015 -0.9620 -0.7979
 7631SOL    HW234353   3.571   4.092  15.918 -2.2403  0.3918  1.7501
 7632SOL     OW34354   3.568   0.616   7.938  0.1625  0.7832 -0.0734
 7632SOL    HW134355   3.549   0.600   8.031 -1.6246  1.3742 -0.3390
 7632SOL    HW234356   3.648   0.669   7.945  1.0028 -0.6843  1.5730
 7633SOL     OW34357   3.992   2.889   4.865 -0.2394  0.2753  0.1669
 7633SOL    HW134358   3.904   2.922   4.850 -0.0507  0.3074 -0.8855
 7633SOL    HW234359   4.024   2.954   4.928 -2.1535 -0.2417  1.6643
 7634SOL     OW34360   4.577   1.278   2.347  0.1400 -0.3728  0.0643
 7634SOL    HW134361   4.629   1.357   2.361 -0.6394  0.0205  0.6723
 7634SOL    HW234362   4.510   1.280   2.415  0.5427  1.2493  0.4012
 7635SOL     OW34363   4.073   1.616   7.410  0.1033  0.6978 -0.2714
 7635SOL    HW134364   4.029   1.599   7.494 -1.6243 -0.5167 -1.4066
 7635SOL    HW234365   4.162   1.614   7.443 -0.3977  0.1162  1.0634
 7636SOL     OW34366   3.430   4.102   4.170  0.1005  0.2976 -0.2715
 7636SOL    HW134367   3.445   4.150   4.089 -1.8439  1.3845 -0.0085
 7636SOL    HW234368   3.437   4.176   4.230  0.9322 -0.3568  0.4402
 7637SOL     OW34369   2.059   3.070  10.560 -0.0010  0.5063 -0.2336
 7637SOL    HW134370   2.153   3.079  10.550  0.0749 -0.5490 -0.4445
 7637SOL    HW234371   2.025   3.062  10.471 -1.9940  0.4801  0.5164
 7638SOL     OW34372   4.015   1.254   7.346 -0.7216  0.5859  0.2420
 7638SOL    HW134373   3.961   1.224   7.273  0.5144 -0.6145 -0.1662
 7638SOL    HW234374   3.969   1.222   7.424 -0.2249 -1.5267 -0.3373
 7639SOL     OW34375   2.656   3.192  16.002 -0.4285  0.1961  0.0360
 7639SOL    HW134376   2.650   3.139  15.923 -1.1694 -0.9218  0.8469
 7639SOL    HW234377   2.736   3.241  15.984 -0.6526  0.4934 -0.1581
 7640SOL     OW34378   4.666   2.455   1.880 -0.1623  0.0539 -0.0020
 7640SOL    HW134379   4.714   2.383   1.920 -2.9739 -1.5486  0.5047
 7640SOL    HW234380   4.680   2.522   1.947  1.4004 -0.3074  0.0211
 7641SOL     OW34381   1.095   4.028   2.576  0.2891  0.3014  0.1822
 7641SOL    HW134382   1.171   4.022   2.634  0.9465 -0.7613 -0.8031
 7641SOL    HW234383   1.129   3.980   2.500 -0.4065  0.8169 -0.4578
 7642SOL     OW34384   4.520   1.872   3.340  0.0750 -0.2499 -0.1168
 7642SOL    HW134385   4.517   1.945   3.277  2.6361  0.2669  0.3643
 7642SOL    HW234386   4.563   1.915   3.413  1.4636 -2.8205  0.5516
 7643SOL     OW34387   1.192   0.252  13.226 -0.5077 -0.0571  0.3006
 7643SOL    HW134388   1.225   0.339  13.202 -1.1308  0.2755  0.6291
 7643SOL    HW234389   1.144   0.274  13.306 -1.1690  0.1218 -0.1406
 7644SOL     OW34390   4.179   0.011   4.717 -0.0888 -0.4202  0.2207
 7644SOL    HW134391   4.258   0.061   4.698 -0.2200  0.6393  2.4254
 7644SOL    HW234392   4.131   0.063   4.781 -0.0569 -2.2868  1.7733
 7645SOL     OW34393   4.463   1.355   6.986 -0.2109 -0.0800 -0.8912
 7645SOL    HW134394   4.397   1.408   6.941  0.9883  2.2778  0.1656
 7645SOL    HW234395   4.414   1.297   7.044 -0.8336  1.1385 -0.1880
 7646SOL     OW34396   1.683   2.044  10.880  0.3795  0.0734  0.2915
 7646SOL    HW134397   1.722   2.131  10.891 -0.9323  0.2752  3.4249
 7646SOL    HW234398   1.667   2.019  10.971 -1.8805  0.0982 -0.0976
 7647SOL     OW34399   3.611   2.593  13.646  0.1157  0.5417  0.8002
 7647SOL    HW134400   3.702   2.614  13.667 -0.2411  0.6981  2.1935
 7647SOL    HW234401   3.587   2.657  13.578 -0.6707 -0.9912 -0.3771
 7648SOL     OW34402   1.392   0.676   5.918 -0.1002 -0.3933  0.0257
 7648SOL    HW134403   1.379   0.735   5.992  1.1068 -0.5111  0.3428
 7648SOL    HW234404   1.354   0.593   5.947  1.8330 -1.4186 -0.3498
 7649SOL     OW34405   1.139   4.403   7.311 -0.1716 -0.0535  0.2539
 7649SOL    HW134406   1.089   4.367   7.385  0.0421 -1.3121 -0.2269
 7649SOL    HW234407   1.153   4.491   7.348  0.0951 -0.1550  0.3974
 7650SOL     OW34408   1.750   3.475   8.485 -0.0111  0.3145  0.9049
 7650SOL    HW134409   1.827   3.439   8.440  0.3378  0.5214  1.3349
 7650SOL    HW234410   1.767   3.569   8.485 -1.3322  0.5491  1.3450
 7651SOL     OW34411   1.205   2.426  17.313  0.5865 -0.1043  0.1444
 7651SOL    HW134412   1.161   2.454  17.393  0.3241 -1.0597  0.3261
 7651SOL    HW234413   1.130   2.396  17.261  1.8249 -0.3036 -1.5564
 7652SOL     OW34414   0.039   2.257   2.031  0.4499 -0.0697  0.1244
 7652SOL    HW134415   0.133   2.239   2.041  0.2800 -2.8490 -3.2692
 7652SOL    HW234416   0.003   2.199   2.099 -2.2075  1.6443  0.1647
 7653SOL     OW34417   3.680   2.483   1.097 -0.2693  0.3530  0.1958
 7653SOL    HW134418   3.737   2.544   1.050 -0.5800  0.0362 -0.5885
 7653SOL    HW234419   3.694   2.397   1.059 -1.5897 -0.0786  0.6865
 7654SOL     OW34420   2.129   4.102   1.759 -0.0064 -0.8257  0.3685
 7654SOL    HW134421   2.224   4.100   1.769  0.1934 -0.3523 -1.4175
 7654SOL    HW234422   2.095   4.044   1.827  1.1693  0.6682  2.2269
 7655SOL     OW34423   0.562   3.208   6.211  0.2035 -0.3378 -0.3020
 7655SOL    HW134424   0.507   3.280   6.179  0.5476  0.6496  1.3206
 7655SOL    HW234425   0.589   3.176   6.125  1.5074  1.4786 -0.5675
 7656SOL     OW34426   2.198   2.116   1.700  0.1919  0.4711  0.3219
 7656SOL    HW134427   2.146   2.067   1.637  1.1300 -1.1166  0.7640
 7656SOL    HW234428   2.175   2.062   1.776  1.6187 -1.1537 -0.4043
 7657SOL     OW34429   1.105   0.237   3.619  0.1747  0.0529  0.1192
 7657SOL    HW134430   1.139   0.325   3.632 -2.3545  1.1037 -0.3443
 7657SOL    HW234431   1.104   0.220   3.525 -0.5211  1.7996 -0.1859
 7658SOL     OW34432   3.494   4.019  17.662 -0.4108 -0.1783  0.0978
 7658SOL    HW134433   3.459   3.982   0.047 -0.2491 -1.1542 -0.2754
 7658SOL    HW234434   3.515   3.941  17.611 -0.0728 -1.3330  2.0031
 7659SOL     OW34435   0.159   0.566   5.762  0.1960 -0.1680 -0.7407
 7659SOL    HW134436   0.222   0.520   5.817  1.2379  0.6552 -1.2596
 7659SOL    HW234437   0.209   0.647   5.757  1.8636 -1.2551 -1.5741
 7660SOL     OW34438   0.178   2.920   6.871 -0.4411 -0.2198  0.0636
 7660SOL    HW134439   0.086   2.897   6.881 -0.4586  0.4538  1.4183
 7660SOL    HW234440   0.217   2.882   6.950  0.7343 -0.4014 -0.5944
 7661SOL     OW34441   2.017   2.732  13.835  0.1773 -0.6773 -0.4277
 7661SOL    HW134442   1.975   2.781  13.765  1.2677 -0.5719 -1.0088
 7661SOL    HW234443   1.979   2.644  13.839  0.6474 -0.8573  0.1226
 7662SOL     OW34444   2.701   3.343   4.918 -0.2624 -0.2983  0.2550
 7662SOL    HW134445   2.610   3.352   4.944  0.2544  1.4819  1.5207
 7662SOL    HW234446   2.744   3.322   5.001 -0.4674 -0.0205  0.4319
 7663SOL     OW34447   2.033   4.702   5.949 -0.2901  0.2762 -0.0918
 7663SOL    HW134448   1.941   4.691   5.923  0.4776  0.4066 -2.8267
 7663SOL    HW234449   2.031   0.074   5.955 -0.3053  0.2222  0.8131
 7664SOL     OW34450   4.387   2.156   9.585  0.7908  0.0938  0.2561
 7664SOL    HW134451   4.299   2.156   9.624  0.9878  1.8209  0.6774
 7664SOL    HW234452   4.399   2.250   9.576 -0.8427  0.1275 -1.4934
 7665SOL     OW34453   2.807   0.147  15.156 -0.2257 -0.4769 -0.0678
 7665SOL    HW134454   2.714   0.167  15.151 -0.2379 -0.3535  0.5617
 7665SOL    HW234455   2.801   0.061  15.116  0.4209 -0.1976 -0.7720
 7666SOL     OW34456   1.758   1.125   4.741 -0.4736 -0.0780  0.1346
 7666SOL    HW134457   1.773   1.063   4.812  0.1831  2.7459  2.4659
 7666SOL    HW234458   1.793   1.206   4.779 -0.6551  1.4499 -2.8828
 7667SOL     OW34459   4.361   0.894  10.900 -0.3059 -0.4883  0.0412
 7667SOL    HW134460   4.440   0.888  10.954  0.6883 -1.7110 -1.5572
 7667SOL    HW234461   4.344   0.988  10.905  0.8484 -0.3419  1.2187
 7668SOL     OW34462   0.998   2.613   2.271 -0.0574 -0.0482  0.0378
 7668SOL    HW134463   0.992   2.630   2.177  2.5764  1.3387  0.1233
 7668SOL    HW234464   1.029   2.699   2.299  0.7393 -0.9584  1.9115
 7669SOL     OW34465   2.180   1.029  15.472  0.5638  0.6317 -0.0805
 7669SOL    HW134466   2.222   1.112  15.495 -0.1761  0.9613  0.0856
 7669SOL    HW234467   2.089   1.055  15.487 -0.1023 -0.3143 -2.5680
 7670SOL     OW34468   3.608   1.012   9.495 -0.4105 -0.0280  0.3180
 7670SOL    HW134469   3.517   1.041   9.492 -0.9626 -1.7900  0.3330
 7670SOL    HW234470   3.645   1.075   9.557  0.7940  1.1776 -1.6358
 7671SOL     OW34471   1.199   4.360   6.571  0.3232 -0.2313 -0.3320
 7671SOL    HW134472   1.198   4.348   6.666 -0.4981  2.0474 -0.0493
 7671SOL    HW234473   1.293   4.370   6.556  0.5364  0.4503  1.5313
 7672SOL     OW34474   2.713   1.652   0.368 -0.1087  0.1864 -0.0213
 7672SOL    HW134475   2.807   1.639   0.373 -0.1646 -0.4555 -0.7112
 7672SOL    HW234476   2.694   1.716   0.437  1.6775  0.4781  0.1838
 7673SOL     OW34477   3.251   2.368   7.253 -0.3684  0.4122  0.2333
 7673SOL    HW134478   3.265   2.309   7.179 -1.2583  0.4932  0.0002
 7673SOL    HW234479   3.201   2.434   7.204  2.3148  0.8677 -1.9657
 7674SOL     OW34480   1.976   0.187  15.196  0.4912  0.2646  0.1667
 7674SOL    HW134481   2.028   0.125  15.144  0.0867  1.3209 -1.4945
 7674SOL    HW234482   1.918   0.124  15.238  1.4379 -0.3555  0.5561
 7675SOL     OW34483   0.944   0.116  14.640 -1.0967  0.2930  0.0074
 7675SOL    HW134484   0.941   0.022  14.622 -0.7323  0.7873 -2.6963
 7675SOL    HW234485   0.901   0.162  14.568 -0.9158  1.3499  0.5799
 7676SOL     OW34486   4.103   4.421   4.429  0.2418  0.4999  0.3589
 7676SOL    HW134487   4.190   4.454   4.449  0.1142  0.0900  1.5819
 7676SOL    HW234488   4.125   4.369   4.351 -1.3738  0.2934  0.0358
 7677SOL     OW34489   1.075   3.051   7.315  0.1273 -0.2643 -0.2609
 7677SOL    HW134490   1.045   2.987   7.380 -0.8825 -0.5471 -1.0049
 7677SOL    HW234491   1.165   3.023   7.304  0.5125  0.4100  1.1933
 7678SOL     OW34492   3.317   3.366  17.472  0.7229 -0.3472  0.0236
 7678SOL    HW134493   3.267   3.408  17.541  2.5034  0.0765  1.0527
 7678SOL    HW234494   3.267   3.385  17.393  1.1461 -0.6007 -0.3105
 7679SOL     OW34495   2.986   1.358   2.457  0.7789 -0.2426  0.4145
 7679SOL    HW134496   3.011   1.366   2.365 -0.2118 -0.2743  0.1436
 7679SOL    HW234497   2.976   1.263   2.460  1.3537 -0.3375 -0.6225
 7680SOL     OW34498   1.072   2.514   6.123  0.3598  0.2238  0.5238
 7680SOL    HW134499   1.004   2.576   6.096 -0.9510 -2.8949 -3.2858
 7680SOL    HW234500   1.124   2.573   6.177  1.1621  1.0154 -1.0954
 7681SOL     OW34501   0.856   3.196  17.303  0.6460  0.7363  0.7976
 7681SOL    HW134502   0.946   3.170  17.283 -0.5259 -1.9005 -0.9566
 7681SOL    HW234503   0.864   3.184  17.398 -1.6778 -0.8238  0.8143
 7682SOL     OW34504   0.084   2.629  17.595 -0.1188  0.5776 -0.2679
 7682SOL    HW134505   0.095   2.581  17.513  1.8014 -0.7490  0.7759
 7682SOL    HW234506   0.168   2.674  17.590 -0.1678  0.6302 -0.6297
 7683SOL     OW34507   4.318   0.898   3.732  0.1311 -0.4609  0.7868
 7683SOL    HW134508   4.379   0.851   3.675  0.2334  1.0957 -0.3745
 7683SOL    HW234509   4.270   0.954   3.671  2.1766 -0.4589 -0.7966
 7684SOL     OW34510   2.319   0.553   2.471  0.0897 -0.5846  0.3246
 7684SOL    HW134511   2.256   0.481   2.467  1.8002 -2.0548 -0.5706
 7684SOL    HW234512   2.265   0.609   2.527 -0.8297 -0.4968 -0.6490
 7685SOL     OW34513   3.314   4.343   5.354 -0.7395 -0.5403  0.2059
 7685SOL    HW134514   3.284   4.427   5.320 -1.9569  0.2248  3.1557
 7685SOL    HW234515   3.366   4.379   5.426  1.6708  0.2194 -1.9205
 7686SOL     OW34516   3.097   0.459  11.698 -0.3968 -0.1507 -0.1950
 7686SOL    HW134517   3.170   0.460  11.761  0.7108  0.6633 -1.5106
 7686SOL    HW234518   3.041   0.522  11.743 -0.0806 -0.5782  0.8000
 7687SOL     OW34519   2.810   3.081  11.582  0.2299 -0.2800  0.9135
 7687SOL    HW134520   2.886   3.046  11.537 -0.6982  0.1916 -1.0212
 7687SOL    HW234521   2.751   3.010  11.610  0.0374 -0.0867  0.9990
 7688SOL     OW34522   2.765   4.137   1.572  0.2840 -0.3130  0.1975
 7688SOL    HW134523   2.827   4.160   1.502  0.1955  2.0554  0.9148
 7688SOL    HW234524   2.689   4.173   1.527  1.0120  0.5758 -0.3385
 7689SOL     OW34525   1.343   1.574   6.641 -0.3350  0.2864 -0.0911
 7689SOL    HW134526   1.381   1.488   6.620  1.7552  0.9124  1.0977
 7689SOL    HW234527   1.340   1.609   6.552 -0.2117 -1.0737 -0.6308
 7690SOL     OW34528   0.719   0.646   9.072 -0.0225  0.1068  0.3588
 7690SOL    HW134529   0.632   0.680   9.092 -0.9387 -1.2146 -1.3460
 7690SOL    HW234530   0.753   0.647   9.161  1.1477  1.8533 -0.1061
 7691SOL     OW34531   0.271   1.157   0.805  0.4492  0.8368  0.2611
 7691SOL    HW134532   0.247   1.066   0.786 -0.5379  1.2774 -0.5456
 7691SOL    HW234533   0.354   1.147   0.852 -0.5186 -0.4063  1.7014
 7692SOL     OW34534   4.028   0.018   8.315 -0.1516 -0.1060 -0.4360
 7692SOL    HW134535   4.097   0.081   8.338 -0.1429 -0.4830  0.5671
 7692SOL    HW234536   3.968   0.064   8.256 -0.0206  0.7217  0.0595
 7693SOL     OW34537   3.056   3.595  10.194  0.0155 -0.2384  0.2074
 7693SOL    HW134538   2.991   3.614  10.262 -1.2115 -1.3610 -0.6501
 7693SOL    HW234539   3.124   3.535  10.225  1.0496  0.9218  0.1743
 7694SOL     OW34540   4.624   4.528   7.841 -0.1826 -0.0545  0.5578
 7694SOL    HW134541   4.694   4.576   7.886  0.8237  1.0044 -2.1784
 7694SOL    HW234542   4.653   4.438   7.858 -1.0406 -0.0140  2.2540
 7695SOL     OW34543   2.312   0.226   0.507 -0.1533  0.3127  0.0583
 7695SOL    HW134544   2.363   0.190   0.579 -2.0064 -0.2733  1.0590
 7695SOL    HW234545   2.229   0.245   0.549 -0.1221  1.3360 -0.3166
 7696SOL     OW34546   1.935   2.667   8.711  0.4726 -1.2767 -0.2315
 7696SOL    HW134547   1.869   2.670   8.642  0.1274  1.3877  0.2206
 7696SOL    HW234548   1.893   2.606   8.771 -0.4155 -2.4691 -2.0337
 7697SOL     OW34549   0.456   0.635   3.285  0.0941  0.8871 -0.1348
 7697SOL    HW134550   0.525   0.569   3.295  0.7245  1.4608 -0.6421
 7697SOL    HW234551   0.485   0.703   3.346  0.3063 -0.3775  1.1579
 7698SOL     OW34552   1.623   0.667   4.333 -0.2911  0.7594  0.3121
 7698SOL    HW134553   1.528   0.671   4.318 -0.3297  1.1689  0.6699
 7698SOL    HW234554   1.643   0.757   4.307  2.0424 -0.3298 -1.5963
 7699SOL     OW34555   1.216   1.473   9.235  0.0769 -0.1616  0.3776
 7699SOL    HW134556   1.190   1.398   9.288 -1.4541 -0.3658 -0.6696
 7699SOL    HW234557   1.268   1.525   9.296 -1.3234  0.4577  1.0401
 7700SOL     OW34558   1.144   2.257   8.217  0.3206 -0.0939 -0.2970
 7700SOL    HW134559   1.059   2.300   8.212  0.6798  0.7534  1.0788
 7700SOL    HW234560   1.153   2.226   8.127 -2.9824 -1.0399 -0.2800
 7701SOL     OW34561   2.355   3.663   9.591 -0.4873  0.2249 -0.8989
 7701SOL    HW134562   2.346   3.568   9.583  1.8213 -0.0855  0.1518
 7701SOL    HW234563   2.445   3.684   9.565 -0.7340  0.0269 -1.9099
 7702SOL     OW34564   4.160   0.603   4.939 -0.4977 -0.2204 -0.3274
 7702SOL    HW134565   4.197   0.691   4.934 -0.7839 -0.1645 -1.5370
 7702SOL    HW234566   4.093   0.614   4.872 -0.2726 -0.1433 -0.5404
 7703SOL     OW34567   1.705   4.373   8.616 -0.4185  0.4636 -0.1051
 7703SOL    HW134568   1.737   4.356   8.705  1.7059  1.5273 -0.6687
 7703SOL    HW234569   1.618   4.400   8.645  0.1449  0.8186  1.2613
 7704SOL     OW34570   3.282   2.491   4.695 -0.1884  0.1446 -0.0915
 7704SOL    HW134571   3.364   2.523   4.734 -0.0997 -1.0632  0.7087
 7704SOL    HW234572   3.258   2.417   4.751  1.1867  0.5859  1.0930
 7705SOL     OW34573   4.247   4.016   7.062  0.0498 -0.2675 -0.2082
 7705SOL    HW134574   4.163   4.061   7.069 -0.0080 -0.4074  0.0120
 7705SOL    HW234575   4.293   4.088   7.019 -0.2314 -0.0862 -0.2064
 7706SOL     OW34576   2.439   1.022   0.467 -0.5024 -0.7817 -0.2316
 7706SOL    HW134577   2.511   0.960   0.481 -0.5997 -1.2654 -1.8806
 7706SOL    HW234578   2.441   1.048   0.375 -0.5086 -4.9537 -1.3743
 7707SOL     OW34579   0.583   3.606   7.768  0.8377 -0.1715  0.4139
 7707SOL    HW134580   0.569   3.623   7.861 -1.2317  1.7038 -0.2405
 7707SOL    HW234581   0.644   3.672   7.732 -0.6706  0.1035 -1.6424
 7708SOL     OW34582   3.117   0.255   6.475  0.1205 -0.4866 -0.1358
 7708SOL    HW134583   3.041   0.305   6.448  0.1887  0.5885  1.7101
 7708SOL    HW234584   3.145   0.316   6.543 -0.7036  0.3139 -0.5138
 7709SOL     OW34585   3.428   2.753  11.413  0.4813  0.1035  0.1502
 7709SOL    HW134586   3.523   2.744  11.416  0.2506 -1.8889  0.9308
 7709SOL    HW234587   3.400   2.666  11.384  0.3573  0.2172 -0.0746
 7710SOL     OW34588   3.437   4.426   7.053  0.4174 -0.3569  0.4722
 7710SOL    HW134589   3.361   4.462   7.098  0.5124  0.4496 -0.0134
 7710SOL    HW234590   3.388   4.390   6.979  0.9638  1.8644 -0.9661
 7711SOL     OW34591   4.232   1.236  11.818  0.2361 -0.3948 -0.4404
 7711SOL    HW134592   4.283   1.310  11.853 -0.3352 -0.3302  0.2345
 7711SOL    HW234593   4.186   1.288  11.752 -0.4055  0.2296  0.5025
 7712SOL     OW34594   3.951   4.662   5.606  0.0713 -0.4075 -0.2992
 7712SOL    HW134595   4.003   4.589   5.639 -2.0761 -1.9514 -0.3649
 7712SOL    HW234596   4.023   4.711   5.568  0.6700  0.2344  1.6583
 7713SOL     OW34597   4.004   1.339   5.061  0.2448  0.1836 -0.1110
 7713SOL    HW134598   4.049   1.280   5.000  0.3063  1.4648 -1.2988
 7713SOL    HW234599   3.947   1.280   5.110 -0.1866 -0.0463 -0.8864
 7714SOL     OW34600   3.650   0.407  15.814 -0.2623  0.0874  0.2346
 7714SOL    HW134601   3.646   0.385  15.721 -1.6894 -1.8251  0.7389
 7714SOL    HW234602   3.744   0.419  15.824  0.1291 -1.6836 -1.3794
 7715SOL     OW34603   3.391   1.937   3.394 -0.5258  0.4134 -0.2151
 7715SOL    HW134604   3.330   2.011   3.401  0.5993  1.2587  0.6897
 7715SOL    HW234605   3.333   1.873   3.434 -0.4242 -0.0141 -0.7501
 7716SOL     OW34606   1.590   4.108   4.100  0.0057 -0.3254  0.1428
 7716SOL    HW134607   1.630   4.175   4.156 -2.4088  1.3227 -0.0890
 7716SOL    HW234608   1.512   4.092   4.155 -0.2771  3.5250  0.8297
 7717SOL     OW34609   4.264   3.199   5.510 -0.1894  0.2021 -0.6574
 7717SOL    HW134610   4.210   3.152   5.447  2.9906 -1.6287 -1.9547
 7717SOL    HW234611   4.239   3.289   5.489 -1.2708  0.3396  1.1275
 7718SOL     OW34612   3.732   0.064   8.430 -0.1023 -0.6823 -0.7349
 7718SOL    HW134613   3.753   0.156   8.445 -1.5084  0.1301 -3.7123
 7718SOL    HW234614   3.739   0.073   8.335  0.2462 -2.9606 -0.9171
 7719SOL     OW34615   2.651   1.256  16.107 -0.4345 -0.2360 -0.2321
 7719SOL    HW134616   2.650   1.285  16.015  0.3128 -0.1689 -0.2210
 7719SOL    HW234617   2.699   1.331  16.142 -0.4822 -1.3469  2.1704
 7720SOL     OW34618   1.536   3.329   4.755 -0.2187  0.0318 -0.0699
 7720SOL    HW134619   1.444   3.352   4.747 -1.0275 -2.7022  1.4258
 7720SOL    HW234620   1.533   3.251   4.700 -0.0878  1.2426 -1.7848
 7721SOL     OW34621   1.833   2.377   5.566 -0.2172  0.3513  0.0646
 7721SOL    HW134622   1.838   2.461   5.522  1.3957 -0.5998 -1.5686
 7721SOL    HW234623   1.751   2.380   5.615  0.1094  1.9617  0.5100
 7722SOL     OW34624   4.161   2.893  13.035  0.3965 -0.2522 -0.4234
 7722SOL    HW134625   4.177   2.821  13.096 -1.1994 -0.4910 -0.2814
 7722SOL    HW234626   4.167   2.967  13.094 -0.0008 -0.9604  0.5128
 7723SOL     OW34627   2.138   4.033  17.266  0.3581 -0.6875 -0.3045
 7723SOL    HW134628   2.082   4.104  17.296  0.7591 -0.2695 -0.5627
 7723SOL    HW234629   2.075   3.984  17.213  1.0140  0.1155 -1.7963
 7724SOL     OW34630   1.387   2.101   5.754 -0.2192  0.4344 -0.0963
 7724SOL    HW134631   1.467   2.123   5.802  0.6479 -0.4989 -1.1215
 7724SOL    HW234632   1.322   2.165   5.784 -1.2258 -0.2718 -0.7655
 7725SOL     OW34633   2.198   0.238   6.165 -0.2434 -0.0186 -0.0834
 7725SOL    HW134634   2.258   0.165   6.148 -1.7695 -1.8531  2.4211
 7725SOL    HW234635   2.124   0.230   6.104  0.6003 -2.1354 -0.8486
 7726SOL     OW34636   1.134   0.426  12.502  0.1384  0.0748 -0.7135
 7726SOL    HW134637   1.115   0.461  12.589 -1.1988  1.2371 -1.4649
 7726SOL    HW234638   1.041   0.418  12.481  0.2175  0.2257 -1.1332
 7727SOL     OW34639   4.571   3.951   6.917  0.1043  0.2640  0.4106
 7727SOL    HW134640   4.637   3.952   6.849 -1.6721 -0.2218 -1.3273
 7727SOL    HW234641   4.613   3.950   7.003  1.2353 -0.5868 -0.1685
 7728SOL     OW34642   4.028   3.158   1.999  0.1783 -0.2852  0.1358
 7728SOL    HW134643   4.105   3.211   2.017 -1.1653  1.5859  0.4211
 7728SOL    HW234644   3.982   3.180   2.081 -1.8507  2.0214 -1.6160
 7729SOL     OW34645   2.661   0.262   5.163  0.4473 -0.1902 -0.4796
 7729SOL    HW134646   2.662   0.182   5.110 -0.6841 -1.1797  1.0284
 7729SOL    HW234647   2.634   0.330   5.102  1.7950  0.2132 -0.6391
 7730SOL     OW34648   1.478   1.017   7.230 -0.6423  0.3673  0.2790
 7730SOL    HW134649   1.527   0.982   7.304  0.2590 -0.4378 -0.6908
 7730SOL    HW234650   1.555   1.047   7.183 -0.5653 -0.3043 -0.0200
 7731SOL     OW34651   4.083   0.272   8.589 -0.5428 -0.1294  0.4722
 7731SOL    HW134652   4.136   0.319   8.654 -2.7082  3.7244 -0.5516
 7731SOL    HW234653   4.110   0.327   8.515 -4.4205 -1.2955 -1.8192
 7732SOL     OW34654   3.118   1.886  14.921 -0.1081 -0.6937  0.2119
 7732SOL    HW134655   3.140   1.921  15.007 -0.2460 -0.2252  0.0545
 7732SOL    HW234656   3.061   1.814  14.949 -1.5637  0.3200 -0.1675
 7733SOL     OW34657   0.217   4.545   8.288  0.5135  0.6397  0.3472
 7733SOL    HW134658   0.210   4.460   8.332  1.7875  1.1277  1.4762
 7733SOL    HW234659   0.150   4.525   8.223  0.1039 -0.0264  0.9799
 7734SOL     OW34660   2.143   0.112  13.541 -0.2727  0.3146 -0.7546
 7734SOL    HW134661   2.204   0.174  13.581 -0.6459 -0.1007  0.4589
 7734SOL    HW234662   2.153   0.124  13.446 -0.0277  0.2132 -0.7436
 7735SOL     OW34663   1.579   3.898  16.800 -0.0770  0.1809  0.3466
 7735SOL    HW134664   1.530   3.825  16.760 -0.4113  1.3908 -1.4754
 7735SOL    HW234665   1.662   3.865  16.833  0.0768  1.2134  0.9863
 7736SOL     OW34666   0.482   2.864   8.659  0.3064 -0.0896 -0.4177
 7736SOL    HW134667   0.414   2.829   8.717 -2.1250  2.5320 -1.7170
 7736SOL    HW234668   0.438   2.901   8.583 -0.1443  1.0387  0.3790
 7737SOL     OW34669   2.545   0.867  13.411 -0.0840  0.2636  0.2149
 7737SOL    HW134670   2.556   0.810  13.488  0.7165  1.3156  0.8777
 7737SOL    HW234671   2.561   0.953  13.449 -1.8270  0.6815 -0.0329
 7738SOL     OW34672   3.187   4.425   4.484  0.4781 -0.9150  0.6675
 7738SOL    HW134673   3.238   4.421   4.565  1.2235  3.0473  0.3623
 7738SOL    HW234674   3.138   4.507   4.484  3.3600  0.7971 -0.0834
 7739SOL     OW34675   3.420   1.320  16.240  0.1620 -0.2666 -0.3491
 7739SOL    HW134676   3.349   1.358  16.189  0.1439 -0.5196 -0.5104
 7739SOL    HW234677   3.438   1.240  16.191 -0.2557  0.6759 -2.0559
 7740SOL     OW34678   0.215   1.774   0.853  0.5961 -0.0292 -0.3052
 7740SOL    HW134679   0.175   1.858   0.834  0.8230 -0.4072 -2.4660
 7740SOL    HW234680   0.239   1.787   0.945 -0.7112 -2.0668  0.3103
 7741SOL     OW34681   1.194   3.222   2.134  0.0010  0.6437 -0.2184
 7741SOL    HW134682   1.245   3.188   2.207 -0.4282  0.5249  0.0297
 7741SOL    HW234683   1.251   3.213   2.057  2.6217  0.0635  1.8051
 7742SOL     OW34684   3.661   2.709   5.572  0.0397 -0.8026  0.5983
 7742SOL    HW134685   3.715   2.767   5.626  3.3706  0.4048 -4.0442
 7742SOL    HW234686   3.702   2.720   5.486  0.3263 -2.4592  0.5192
 7743SOL     OW34687   2.221   3.706   3.143  0.3492 -0.4980 -0.0313
 7743SOL    HW134688   2.182   3.738   3.225 -1.1736 -1.5563 -0.3266
 7743SOL    HW234689   2.290   3.771   3.134  0.0243 -0.2494 -0.7487
 7744SOL     OW34690   1.486   1.886   1.612  0.3486  0.0391 -0.2984
 7744SOL    HW134691   1.511   1.800   1.577 -0.0430 -0.3760  0.4365
 7744SOL    HW234692   1.494   1.942   1.535 -3.1226 -0.0626 -0.7531
 7745SOL     OW34693   0.659   3.546   4.712  0.0849 -0.8151  0.3688
 7745SOL    HW134694   0.671   3.523   4.620  1.8056  0.2447  0.3260
 7745SOL    HW234695   0.592   3.614   4.702  1.7350  0.7158 -0.2657
 7746SOL     OW34696   4.546   0.909  11.098 -0.1189  0.3594  0.0089
 7746SOL    HW134697   4.623   0.934  11.150 -1.7263  1.7711  1.7246
 7746SOL    HW234698   4.479   0.899  11.166  0.9016 -0.3608  0.9068
 7747SOL     OW34699   4.432   4.433   4.187 -0.8474  0.3428 -0.0226
 7747SOL    HW134700   4.388   4.351   4.167 -0.5969  0.2486 -0.1861
 7747SOL    HW234701   4.460   4.427   4.279 -1.2604 -1.6403 -0.0435
 7748SOL     OW34702   2.172   2.621   2.289 -0.4647 -0.1131 -0.0719
 7748SOL    HW134703   2.172   2.560   2.363  0.1276 -1.2372 -1.0108
 7748SOL    HW234704   2.182   2.705   2.334  1.1990 -0.7769  0.8160
 7749SOL     OW34705   4.154   0.363   7.470  0.5716  0.1236 -0.1837
 7749SOL    HW134706   4.217   0.353   7.541  1.5543 -2.2284 -1.3732
 7749SOL    HW234707   4.096   0.288   7.487 -0.0192  0.2808 -1.4857
 7750SOL     OW34708   2.482   4.436   3.848  0.1538  0.2430  0.6544
 7750SOL    HW134709   2.531   4.467   3.771  0.4614  0.8617  1.0986
 7750SOL    HW234710   2.458   4.525   3.872 -0.2852 -0.1240  1.5707
 7751SOL     OW34711   2.037   1.214   4.387 -0.3021 -0.3282  0.3489
 7751SOL    HW134712   2.076   1.130   4.362  1.9429  0.9184 -0.3185
 7751SOL    HW234713   1.950   1.180   4.410 -0.4995  0.0504  0.1646
 7752SOL     OW34714   0.765   3.520   5.641 -0.1790 -0.4005 -0.0341
 7752SOL    HW134715   0.691   3.524   5.580 -1.2021  2.1081  1.3969
 7752SOL    HW234716   0.746   3.598   5.693  1.0758 -0.0433 -0.1123
 7753SOL     OW34717   3.066   2.997   6.466  0.4247  0.3118 -0.8187
 7753SOL    HW134718   3.091   3.087   6.447 -1.0173  0.6941 -0.8500
 7753SOL    HW234719   3.077   2.956   6.380  0.6907 -0.3026 -0.4942
 7754SOL     OW34720   0.380   3.003  11.701  0.1568 -0.0681 -0.2655
 7754SOL    HW134721   0.353   2.977  11.789  0.1556 -0.6410 -0.4342
 7754SOL    HW234722   0.463   2.955  11.691  0.3722 -0.1351  1.7997
 7755SOL     OW34723   1.541   1.671   7.515  0.4229 -0.6949  0.2680
 7755SOL    HW134724   1.582   1.614   7.581  1.1709  1.3487  1.5824
 7755SOL    HW234725   1.620   1.722   7.497  0.6885 -1.5013 -0.7870
 7756SOL     OW34726   3.577   0.934   0.223  0.3596 -0.4985 -0.0937
 7756SOL    HW134727   3.601   1.013   0.272  0.7740 -1.9434  2.0599
 7756SOL    HW234728   3.570   0.964   0.133 -1.6753 -0.7306 -0.0157
 7757SOL     OW34729   0.032   1.056  15.484 -0.5311  0.2119  0.3299
 7757SOL    HW134730   4.693   0.990  15.516 -1.3034  1.3465  1.1401
 7757SOL    HW234731   0.113   1.012  15.509 -0.0181 -0.4057 -2.4907
 7758SOL     OW34732   2.331   1.528   9.066  0.2186  0.9048  0.2497
 7758SOL    HW134733   2.360   1.455   9.122 -2.6978 -0.1315  0.3692
 7758SOL    HW234734   2.237   1.529   9.079 -0.0093  3.0222 -1.6705
 7759SOL     OW34735   4.631   3.289   0.321 -0.1917  0.0423  0.0213
 7759SOL    HW134736   4.639   3.209   0.270 -0.8386  1.2743 -2.0013
 7759SOL    HW234737   4.550   3.262   0.363  1.2949 -2.9866  0.9495
 7760SOL     OW34738   1.314   2.825  12.810 -0.6325 -0.1400 -0.6026
 7760SOL    HW134739   1.219   2.835  12.811 -0.9180 -2.9732 -0.4817
 7760SOL    HW234740   1.319   2.737  12.847  0.2905  0.6535  1.1547
 7761SOL     OW34741   3.660   4.028  13.044 -0.1242 -0.3178 -0.3984
 7761SOL    HW134742   3.680   3.958  13.106  1.6058  1.3371  0.9577
 7761SOL    HW234743   3.736   4.016  12.987  0.5187 -0.3130  0.4615
 7762SOL     OW34744   2.183   2.468   4.316 -0.3921 -0.0319  0.6315
 7762SOL    HW134745   2.209   2.400   4.254 -1.2448 -0.1204  0.3626
 7762SOL    HW234746   2.229   2.449   4.397  1.8960  1.6459 -0.2905
 7763SOL     OW34747   1.167   3.855   8.912 -0.2404 -0.0063 -0.2613
 7763SOL    HW134748   1.091   3.910   8.933  0.7998  0.3833  2.5156
 7763SOL    HW234749   1.129   3.772   8.937 -0.3062 -0.0431 -0.4844
 7764SOL     OW34750   2.114   0.180  13.261  0.2328 -0.5451  0.0079
 7764SOL    HW134751   2.048   0.165  13.193 -1.9359 -0.3540  2.0839
 7764SOL    HW234752   2.149   0.260  13.222 -2.1762 -0.2230 -1.5430
 7765SOL     OW34753   2.075   3.521   8.524  0.3717 -0.2902 -0.4637
 7765SOL    HW134754   2.139   3.471   8.576 -0.4375  0.7714  1.5527
 7765SOL    HW234755   2.048   3.451   8.464 -1.0976 -0.6032  0.5867
 7766SOL     OW34756   2.922   0.050   4.086  0.0212  0.0949 -0.0922
 7766SOL    HW134757   2.905   0.119   4.150  2.6901  0.0514  0.6693
 7766SOL    HW234758   2.859   0.060   4.015 -1.5325  0.0641  1.2950
 7767SOL     OW34759   2.307   2.004   0.516 -0.0157 -0.2132 -0.1249
 7767SOL    HW134760   2.236   2.040   0.464 -2.1480 -0.2794  2.7117
 7767SOL    HW234761   2.268   2.011   0.603  0.3192 -2.4348  0.1969
 7768SOL     OW34762   1.998   0.041   3.344  0.0464  0.2529  0.0807
 7768SOL    HW134763   1.995   0.135   3.326 -1.6151 -0.0459 -1.2266
 7768SOL    HW234764   2.093   0.038   3.343  0.1646  3.4386  2.0738
 7769SOL     OW34765   3.789   1.809   3.173  0.7723  0.3918  0.4429
 7769SOL    HW134766   3.735   1.762   3.109  1.4333  0.7244 -0.3576
 7769SOL    HW234767   3.750   1.896   3.172 -2.5690 -1.0815  0.2438
 7770SOL     OW34768   0.702   2.790  11.459 -0.2047  0.1743 -0.2330
 7770SOL    HW134769   0.711   2.695  11.446  1.7586  0.4147 -0.6473
 7770SOL    HW234770   0.651   2.814  11.382  2.0098 -0.0072 -1.7468
 7771SOL     OW34771   3.621   0.916   7.771 -0.2781  0.0970 -0.3520
 7771SOL    HW134772   3.689   0.849   7.783 -0.0195  0.2361 -1.0711
 7771SOL    HW234773   3.600   0.941   7.861  0.4876 -1.2857  0.2220
 7772SOL     OW34774   1.739   3.080   4.260  0.9241 -0.1833  0.2320
 7772SOL    HW134775   1.649   3.056   4.236 -0.1886  2.0099  2.1553
 7772SOL    HW234776   1.795   3.028   4.202  0.6071  1.0937 -1.2275
 7773SOL     OW34777   0.415   0.223  14.905  0.1258  0.8969 -0.0349
 7773SOL    HW134778   0.451   0.288  14.965 -1.9762  0.8924  1.2086
 7773SOL    HW234779   0.368   0.172  14.971  0.8067  1.4224  0.8512
 7774SOL     OW34780   0.550   2.637   7.783  0.0724 -0.0126 -0.7628
 7774SOL    HW134781   0.643   2.654   7.794 -0.1927  0.8435  0.1618
 7774SOL    HW234782   0.512   2.711   7.830 -0.0590 -0.5872  0.0288
 7775SOL     OW34783   4.069   1.849   7.076  0.1715  0.5467  0.3257
 7775SOL    HW134784   4.058   1.900   6.996 -1.0204 -0.3189 -0.0672
 7775SOL    HW234785   4.048   1.766   7.034  3.1013 -0.6057  1.1299
 7776SOL     OW34786   2.922   4.501  11.219 -0.3999 -0.0659 -0.7575
 7776SOL    HW134787   2.884   4.448  11.290  1.5352 -2.6681 -1.7067
 7776SOL    HW234788   2.972   4.565  11.270 -1.8632 -0.0537  0.6821
 7777SOL     OW34789   3.575   2.733  16.887 -0.8842 -0.1958  0.2993
 7777SOL    HW134790   3.621   2.817  16.882 -1.5459  0.1963  0.7814
 7777SOL    HW234791   3.486   2.754  16.857 -0.3598 -1.0030 -1.7884
 7778SOL     OW34792   3.919   2.087   6.011  0.7783 -0.0935  0.1203
 7778SOL    HW134793   3.893   2.178   5.999  0.9710  0.2281  2.1527
 7778SOL    HW234794   3.977   2.096   6.086 -2.5562  0.0517  2.7095
 7779SOL     OW34795   0.974   2.300   5.979  0.4350  0.0235 -0.1430
 7779SOL    HW134796   1.028   2.331   5.907  3.7031 -1.1272  1.8196
 7779SOL    HW234797   0.979   2.384   6.025  1.4305  0.1437 -0.4768
 7780SOL     OW34798   0.587   0.682   8.590  0.4381 -0.5745  0.5555
 7780SOL    HW134799   0.565   0.728   8.671  1.1864 -0.6331  0.7954
 7780SOL    HW234800   0.501   0.660   8.555  0.0716  0.7592  0.6060
 7781SOL     OW34801   0.516   0.396   0.794  0.7401  0.5384 -0.0052
 7781SOL    HW134802   0.486   0.357   0.712 -0.1355  0.8651  0.1598
 7781SOL    HW234803   0.479   0.483   0.780 -0.8832  0.1432  1.7687
 7782SOL     OW34804   1.288   3.470   3.858 -0.1641  0.0305 -0.4307
 7782SOL    HW134805   1.330   3.515   3.784 -0.8520  1.0717 -0.1918
 7782SOL    HW234806   1.198   3.499   3.844  0.0171  0.2606 -1.1281
 7783SOL     OW34807   4.242   3.799   6.046  0.5514  0.1375  0.2349
 7783SOL    HW134808   4.171   3.767   5.990  0.3118  1.1125 -0.0230
 7783SOL    HW234809   4.206   3.766   6.129  1.0081  1.8845  1.1199
 7784SOL     OW34810   2.607   0.437   8.336  0.0130 -0.0632  0.3712
 7784SOL    HW134811   2.543   0.371   8.310  0.2256  0.3415 -1.1513
 7784SOL    HW234812   2.680   0.385   8.301 -1.8248 -1.9428 -0.6295
 7785SOL     OW34813   3.479   0.062   4.803 -0.3908 -0.3689 -0.1451
 7785SOL    HW134814   3.487   0.065   4.898 -1.7494 -1.3415  0.0014
 7785SOL    HW234815   3.429   4.705   4.806 -0.7361 -0.1864 -0.8949
 7786SOL     OW34816   3.259   2.864   8.401  0.0615  0.4715 -0.5393
 7786SOL    HW134817   3.176   2.881   8.445 -0.6667 -0.7170 -1.4586
 7786SOL    HW234818   3.228   2.812   8.327 -5.7322  1.9085  0.8600
 7787SOL     OW34819   3.869   3.312   1.027 -0.2756  0.0478  0.0655
 7787SOL    HW134820   3.820   3.378   0.978  1.5928 -0.5558 -2.6120
 7787SOL    HW234821   3.861   3.332   1.121 -1.7776 -0.6397  0.0896
 7788SOL     OW34822   4.388   3.169   2.767  0.2395 -0.6386  0.2742
 7788SOL    HW134823   4.441   3.146   2.691  0.3374 -2.1455  0.8011
 7788SOL    HW234824   4.312   3.211   2.727  1.6594  0.3923 -1.3355
 7789SOL     OW34825   2.134   4.075  15.661  0.0523  0.6962  0.3570
 7789SOL    HW134826   2.216   4.069  15.612 -0.4664 -1.4937 -0.2590
 7789SOL    HW234827   2.169   4.054  15.747  0.5491 -0.4778 -0.1227
 7790SOL     OW34828   3.811   1.240   9.201 -0.4080  0.4320 -0.0425
 7790SOL    HW134829   3.823   1.306   9.270  0.6132  1.1264 -0.8782
 7790SOL    HW234830   3.752   1.286   9.141  2.3903  1.2962 -2.1395
 7791SOL     OW34831   0.354   3.003  12.285  0.1426  0.3499  0.2613
 7791SOL    HW134832   0.388   2.960  12.364  0.1574 -2.5031 -1.2960
 7791SOL    HW234833   0.339   2.922  12.237 -1.8384  2.2173 -2.2893
 7792SOL     OW34834   3.668   1.139   6.036  0.3599  0.2098 -0.1581
 7792SOL    HW134835   3.742   1.135   5.975  0.8164 -1.0189  0.4570
 7792SOL    HW234836   3.596   1.119   5.976 -0.1338 -1.3394  0.9325
 7793SOL     OW34837   0.821   3.034   5.047  0.2173 -0.3198 -0.1465
 7793SOL    HW134838   0.763   2.973   5.093  1.0269 -1.9252 -1.2471
 7793SOL    HW234839   0.902   2.983   5.042 -0.0575 -0.7333 -0.3510
 7794SOL     OW34840   0.807   1.507   2.296  0.2396  0.1996  0.3724
 7794SOL    HW134841   0.735   1.514   2.233  2.2901  1.2251 -1.8562
 7794SOL    HW234842   0.770   1.470   2.376  0.2873  1.9347  1.2119
 7795SOL     OW34843   1.144   2.416   4.915  0.2826 -0.7404  0.0966
 7795SOL    HW134844   1.104   2.501   4.899  1.2711 -0.0837  1.0946
 7795SOL    HW234845   1.154   2.393   4.823  0.2761  0.4172 -0.1940
 7796SOL     OW34846   1.470   3.112   1.601 -0.3902  0.1751 -0.2201
 7796SOL    HW134847   1.503   3.182   1.545 -0.3985  0.1343 -0.2754
 7796SOL    HW234848   1.560   3.090   1.628 -2.3124 -2.5117  3.9546
 7797SOL     OW34849   1.268   2.196  15.627  0.1468 -0.2891 -0.1274
 7797SOL    HW134850   1.247   2.250  15.703 -0.9055  1.6481 -1.8195
 7797SOL    HW234851   1.278   2.268  15.565  0.0983 -0.2082 -0.0414
 7798SOL     OW34852   1.373   0.799  10.883 -0.0415 -0.5198 -0.5223
 7798SOL    HW134853   1.400   0.750  10.806  2.7097  1.6298 -0.9310
 7798SOL    HW234854   1.398   0.888  10.858  0.4375 -0.3956  0.3819
 7799SOL     OW34855   1.236   1.464   3.794  0.6626 -0.2209 -0.3792
 7799SOL    HW134856   1.234   1.502   3.706 -1.5278  0.1206 -0.1887
 7799SOL    HW234857   1.281   1.380   3.788  1.5252  0.2282 -0.1444
 7800SOL     OW34858   3.357   2.098   8.566  0.2287  0.1076  0.0208
 7800SOL    HW134859   3.290   2.080   8.631  1.1965 -0.3265  0.8993
 7800SOL    HW234860   3.300   2.142   8.503  1.0385  1.2563  0.0773
 7801SOL     OW34861   4.352   1.586   7.470 -0.1071 -0.0151  0.0588
 7801SOL    HW134862   4.433   1.598   7.421  0.3427  0.0251  0.8030
 7801SOL    HW234863   4.378   1.500   7.501  0.2350 -0.1783 -0.6863
 7802SOL     OW34864   1.096   4.242   2.764 -0.2715 -0.1692  0.1765
 7802SOL    HW134865   1.110   4.304   2.692  0.4275 -0.4608  0.0631
 7802SOL    HW234866   1.088   4.161   2.714 -2.1237  0.7964 -1.1229
 7803SOL     OW34867   0.133   2.041   9.567 -0.2851 -0.1095  0.0475
 7803SOL    HW134868   0.077   1.977   9.524  1.1755 -0.6252 -1.0965
 7803SOL    HW234869   0.219   2.026   9.529 -1.2494  0.1036 -2.2233
 7804SOL     OW34870   3.522   0.134   4.230  0.1337 -0.4499  0.0122
 7804SOL    HW134871   3.427   0.120   4.231 -0.1104  1.1334 -0.6823
 7804SOL    HW234872   3.535   0.205   4.293  1.7772 -1.8230  1.1933
 7805SOL     OW34873   4.646   1.141   2.714 -0.3973 -0.2775  0.5402
 7805SOL    HW134874   4.696   1.135   2.632 -0.1366  2.1765  0.5152
 7805SOL    HW234875   4.561   1.117   2.678 -1.3441  1.4587  1.6146
 7806SOL     OW34876   0.431   2.150   3.575  0.1250 -0.1467  0.1422
 7806SOL    HW134877   0.475   2.210   3.515 -0.6480  0.6662  0.3913
 7806SOL    HW234878   0.445   2.068   3.528 -1.1137  0.0863 -0.6309
 7807SOL     OW34879   2.106   2.665   8.403 -0.6305 -0.1757 -0.1769
 7807SOL    HW134880   2.124   2.741   8.347 -2.1185 -0.4868 -1.0796
 7807SOL    HW234881   2.015   2.682   8.425 -0.4401  0.5011  0.0931
 7808SOL     OW34882   1.522   1.363   1.367 -0.4433 -0.2328 -0.6074
 7808SOL    HW134883   1.496   1.390   1.278  1.5348  0.4431 -0.9880
 7808SOL    HW234884   1.608   1.327   1.347 -0.0133  1.2282 -1.4697
 7809SOL     OW34885   1.560   3.401   5.837  0.3966  0.1147  0.7792
 7809SOL    HW134886   1.596   3.323   5.795 -0.8666 -0.7009  1.1967
 7809SOL    HW234887   1.470   3.410   5.807  0.9063 -0.1323 -0.7990
 7810SOL     OW34888   4.485   2.169   6.252  0.7459  0.3226 -0.3470
 7810SOL    HW134889   4.434   2.248   6.272  1.0010  0.6947 -1.1883
 7810SOL    HW234890   4.502   2.184   6.159  2.3985 -2.6598 -0.5163
 7811SOL     OW34891   3.851   2.198   2.611  0.8449  0.1933  0.2328
 7811SOL    HW134892   3.787   2.236   2.671  2.5427  0.2066  2.0400
 7811SOL    HW234893   3.810   2.200   2.525  3.0904  0.1967 -0.8324
 7812SOL     OW34894   1.438   4.344   4.829 -0.3083 -0.0290 -0.0430
 7812SOL    HW134895   1.505   4.299   4.777 -1.8982 -1.8504 -0.5121
 7812SOL    HW234896   1.446   4.302   4.915  0.7063 -0.6057 -0.4161
 7813SOL     OW34897   4.223   0.803  13.046  0.4419 -0.2369 -0.2583
 7813SOL    HW134898   4.246   0.882  13.094 -1.5106  0.5649 -0.6645
 7813SOL    HW234899   4.309   0.760  13.044  1.6846  2.2968 -0.6026
 7814SOL     OW34900   3.677   1.889   3.469 -0.0844 -0.0930  0.2221
 7814SOL    HW134901   3.639   1.849   3.391 -1.0338 -1.3666  1.3413
 7814SOL    HW234902   3.617   1.872   3.542 -0.1235  0.8918  0.4245
 7815SOL     OW34903   2.201   0.832   6.540  0.3877  0.3020  0.0362
 7815SOL    HW134904   2.240   0.888   6.473 -1.9562  1.4265 -0.3753
 7815SOL    HW234905   2.276   0.774   6.556 -0.9439 -1.0460  1.3110
 7816SOL     OW34906   1.152   3.313   5.483 -0.5780  0.5815 -0.0720
 7816SOL    HW134907   1.166   3.237   5.426  3.1080  0.6661  0.7360
 7816SOL    HW234908   1.069   3.351   5.453 -0.5252  1.2519  0.6345
 7817SOL     OW34909   1.382   1.848   7.353 -0.5204  1.3974 -0.1738
 7817SOL    HW134910   1.421   1.782   7.411  0.9699  1.2069 -1.3806
 7817SOL    HW234911   1.338   1.907   7.415  1.7440  3.1030 -0.1940
 7818SOL     OW34912   1.286   2.333   6.126 -0.0093 -0.5300  0.6332
 7818SOL    HW134913   1.357   2.386   6.164 -0.3356  0.8491 -0.7026
 7818SOL    HW234914   1.208   2.383   6.150 -0.2790 -0.2287 -0.9154
 7819SOL     OW34915   4.647   1.847  16.453 -0.2594 -0.0221  0.0864
 7819SOL    HW134916   4.556   1.866  16.474  0.3671  2.7815  0.2904
 7819SOL    HW234917   4.660   1.928  16.403 -1.3713  0.5920  0.7859
 7820SOL     OW34918   1.481   3.587   5.490 -0.1590  0.2389  0.3292
 7820SOL    HW134919   1.520   3.602   5.404  0.9800 -0.0930  0.7803
 7820SOL    HW234920   1.565   3.578   5.535  0.8380 -0.6776 -1.7328
 7821SOL     OW34921   3.948   2.655  10.366 -0.1332 -0.0313 -0.5672
 7821SOL    HW134922   3.989   2.709  10.298  0.2619 -0.3694 -0.5966
 7821SOL    HW234923   4.029   2.616  10.396  1.2949  2.4738 -1.1291
 7822SOL     OW34924   3.447   0.586  14.697 -0.3099  0.2252  0.3113
 7822SOL    HW134925   3.455   0.620  14.787 -1.3632  1.1529  0.0604
 7822SOL    HW234926   3.512   0.517  14.695 -1.2116 -0.6338  0.6443
 7823SOL     OW34927   0.208   2.794   9.097 -0.0220  0.1873 -0.4789
 7823SOL    HW134928   0.240   2.803   9.187  0.1865 -1.9110 -0.3279
 7823SOL    HW234929   0.121   2.755   9.107 -0.6559  0.9793 -2.8565
 7824SOL     OW34930   1.563   0.158   1.218 -0.0518 -0.1950 -0.1930
 7824SOL    HW134931   1.469   0.176   1.212 -0.0640 -0.1953 -0.0010
 7824SOL    HW234932   1.566   0.111   1.301  0.5942 -2.2302 -1.3406
 7825SOL     OW34933   2.924   1.841   3.415  0.3724  0.0651  0.4379
 7825SOL    HW134934   2.892   1.926   3.385 -1.0582 -0.6763 -0.1449
 7825SOL    HW234935   2.943   1.801   3.329 -0.0800 -1.5367  1.0828
 7826SOL     OW34936   3.744   4.547   4.834  0.0082  0.1766 -0.2257
 7826SOL    HW134937   3.690   4.617   4.797 -2.0054 -1.0442  0.3971
 7826SOL    HW234938   3.767   4.602   4.909 -1.1310 -1.0643  1.0252
 7827SOL     OW34939   3.019   0.437   5.503 -0.2877  0.4432  0.2127
 7827SOL    HW134940   2.962   0.476   5.436 -0.2198  0.3328  0.0916
 7827SOL    HW234941   3.059   0.377   5.440 -3.1141 -1.0548 -0.1998
 7828SOL     OW34942   0.170   1.740   7.035  0.3961 -0.8077 -0.2758
 7828SOL    HW134943   0.105   1.800   7.072  0.1459  0.1723 -2.2948
 7828SOL    HW234944   0.243   1.796   7.006  1.1800 -1.7122 -0.0554
 7829SOL     OW34945   1.355   4.142   8.668  0.3514 -0.4568 -0.9002
 7829SOL    HW134946   1.374   4.175   8.580 -0.6328  1.9549 -0.1835
 7829SOL    HW234947   1.270   4.100   8.653 -0.8899  2.2828 -1.5261
 7830SOL     OW34948   3.391   1.578  15.483  0.5350 -0.1032 -0.3172
 7830SOL    HW134949   3.439   1.519  15.542 -0.9081  0.2140  1.1891
 7830SOL    HW234950   3.336   1.623  15.547 -0.9209 -1.9012 -0.3154
 7831SOL     OW34951   3.773   4.151   4.409  0.4623 -0.6337  0.2540
 7831SOL    HW134952   3.768   4.065   4.450  1.7953 -1.2780 -0.9509
 7831SOL    HW234953   3.869   4.158   4.409  0.5363 -1.6521  1.3235
 7832SOL     OW34954   0.564   1.188   1.058  0.6220 -0.1689 -0.0861
 7832SOL    HW134955   0.611   1.112   1.092 -1.3061 -0.8230  1.0579
 7832SOL    HW234956   0.595   1.172   0.968  3.7030  2.1115  0.5365
 7833SOL     OW34957   0.359   1.256   4.184 -0.0195 -0.8623 -0.2640
 7833SOL    HW134958   0.311   1.251   4.267 -0.0371  0.1084 -0.2234
 7833SOL    HW234959   0.290   1.227   4.124 -1.1195  3.3146 -0.9796
 7834SOL     OW34960   0.870   2.211   4.083  0.3118 -0.5177  0.2241
 7834SOL    HW134961   0.815   2.288   4.093  0.7867 -0.1054 -0.2842
 7834SOL    HW234962   0.948   2.262   4.060 -2.2586  4.0765  1.6708
 7835SOL     OW34963   0.844   0.201  13.346 -0.0664 -0.2111 -0.5011
 7835SOL    HW134964   0.907   0.222  13.414 -1.1575 -1.5015  0.9060
 7835SOL    HW234965   0.782   0.274  13.354  1.4319  0.8942  1.0460
 7836SOL     OW34966   4.524   1.700   2.080  0.2509  0.5105 -0.6813
 7836SOL    HW134967   4.475   1.720   2.159  2.2348  0.4706  0.5640
 7836SOL    HW234968   4.479   1.748   2.010 -1.3874  0.5020  0.3850
 7837SOL     OW34969   2.204   3.731   6.424  0.1563 -0.1915 -0.3797
 7837SOL    HW134970   2.242   3.782   6.353  0.8226  1.0885  0.9062
 7837SOL    HW234971   2.223   3.788   6.498  0.1978 -1.5151  0.6228
 7838SOL     OW34972   1.337   2.965   1.427  0.5153 -0.0295  0.3674
 7838SOL    HW134973   1.371   3.025   1.494  1.1967  1.7046 -1.5467
 7838SOL    HW234974   1.382   2.883   1.442  1.6992  0.3741 -0.9639
 7839SOL     OW34975   4.346   1.766   9.648  0.7313 -0.2713  0.0798
 7839SOL    HW134976   4.428   1.813   9.663 -0.9421  2.5647  0.4949
 7839SOL    HW234977   4.280   1.807   9.705  2.1128  0.5236  1.0870
 7840SOL     OW34978   3.540   3.285   6.414  0.1017  0.0065 -0.0567
 7840SOL    HW134979   3.600   3.244   6.475 -1.0976  0.2118  1.2592
 7840SOL    HW234980   3.499   3.350   6.472 -1.4737  0.0155 -1.1805
 7841SOL     OW34981   1.511   1.174  15.121 -0.3310 -0.4478 -0.6021
 7841SOL    HW134982   1.419   1.192  15.102  0.2802  1.6258 -1.5720
 7841SOL    HW234983   1.511   1.084  15.087 -1.3652 -0.5152 -0.3986
 7842SOL     OW34984   0.088   1.279   3.290  0.3314  0.8189  0.4255
 7842SOL    HW134985   0.080   1.184   3.290 -1.1566  0.9486  0.2237
 7842SOL    HW234986   0.180   1.294   3.313  1.2478  0.5712 -3.0399
 7843SOL     OW34987   4.418   1.587  12.543  0.4312  0.2783 -0.3577
 7843SOL    HW134988   4.509   1.574  12.516  0.6632  1.8271 -0.3234
 7843SOL    HW234989   4.412   1.682  12.545  2.3135  0.3721  1.1005
 7844SOL     OW34990   1.008   1.989   6.394 -0.0147  0.0657 -0.7407
 7844SOL    HW134991   1.086   1.966   6.444 -1.6555 -0.4235  1.5749
 7844SOL    HW234992   0.996   1.902   6.356 -0.1196 -0.6584  0.9992
 7845SOL     OW34993   4.463   2.173   3.437 -0.0513 -0.4476  0.1583
 7845SOL    HW134994   4.369   2.187   3.448  0.2261  1.8592 -0.4374
 7845SOL    HW234995   4.495   2.192   3.526 -0.1977  0.3684  0.0350
 7846SOL     OW34996   0.105   4.472  11.794 -0.4261 -0.1260 -0.1310
 7846SOL    HW134997   0.027   4.521  11.766  0.7637  1.0579 -1.3668
 7846SOL    HW234998   0.069   4.383  11.793  0.7681 -0.6272  1.2202
 7847SOL     OW34999   4.200   4.143   0.064 -1.1276 -0.4911 -0.5641
 7847SOL    HW135000   4.107   4.143   0.089 -0.5659 -1.4735  1.5729
 7847SOL    HW235001   4.234   4.185   0.143 -0.1999  0.6193 -1.5744
 7848SOL     OW35002   0.613   1.415   5.101 -0.1042  0.3962 -0.6631
 7848SOL    HW135003   0.653   1.494   5.139  0.4786 -1.6425  3.0352
 7848SOL    HW235004   0.655   1.394   5.018  0.8845  2.6403 -0.7276
 7849SOL     OW35005   0.007   0.795   8.848  0.0767  0.1603  0.2696
 7849SOL    HW135006   0.072   0.724   8.851  0.3334  0.4208  0.9126
 7849SOL    HW235007   4.664   0.753   8.902  0.3897  1.7212  1.8641
 7850SOL     OW35008   4.372   0.381   7.249  0.3145  0.7955 -0.5401
 7850SOL    HW135009   4.305   0.388   7.317  0.0032 -1.4695 -0.5913
 7850SOL    HW235010   4.322   0.396   7.169 -0.5055 -2.4076 -0.6601
 7851SOL     OW35011   1.566   4.514   9.428  0.1648  0.5516 -0.1441
 7851SOL    HW135012   1.560   4.483   9.518  1.7432  3.5574  0.9763
 7851SOL    HW235013   1.648   4.474   9.398  0.2012 -0.7914  1.7667
 7852SOL     OW35014   0.838   3.676   3.493 -0.0010  0.7100  0.3844
 7852SOL    HW135015   0.924   3.718   3.488  0.4294 -0.0840  1.0837
 7852SOL    HW235016   0.810   3.678   3.402 -1.0757 -0.5782  0.6925
 7853SOL     OW35017   4.158   1.536   2.366 -0.1074  0.1024  0.3051
 7853SOL    HW135018   4.111   1.452   2.359 -0.3776  0.3406 -0.8161
 7853SOL    HW235019   4.169   1.544   2.460  1.1471  1.7932  0.0080
 7854SOL     OW35020   3.711   1.695   7.983 -0.0008 -0.4460  0.5076
 7854SOL    HW135021   3.745   1.782   8.006 -0.5980 -0.2479  0.6739
 7854SOL    HW235022   3.650   1.684   8.056 -1.0181  1.7579 -0.0019
 7855SOL     OW35023   2.819   0.970  10.068  0.4609  0.1831 -0.3505
 7855SOL    HW135024   2.803   0.881  10.098 -3.5893  1.6443  1.8655
 7855SOL    HW235025   2.752   0.976   9.999  2.0822 -0.6064 -1.9864
 7856SOL     OW35026   2.883   0.208   7.852 -0.2050 -0.6136  0.0064
 7856SOL    HW135027   2.939   0.282   7.831  1.0289 -0.6522  3.1893
 7856SOL    HW235028   2.809   0.247   7.899  1.0801  2.2781 -0.3657
 7857SOL     OW35029   2.242   1.440   6.218  0.1994  0.4882 -0.1020
 7857SOL    HW135030   2.328   1.444   6.260  0.4069  2.2132 -0.7200
 7857SOL    HW235031   2.198   1.510   6.266 -0.7156  1.6868 -2.6920
 7858SOL     OW35032   1.514   3.282   3.717 -0.5147 -0.1583  0.2525
 7858SOL    HW135033   1.422   3.264   3.698 -0.2948  0.6744 -1.5817
 7858SOL    HW235034   1.542   3.325   3.637  1.2316  0.2234  1.0552
 7859SOL     OW35035   1.648   2.151   2.916  0.2893  0.3006 -0.1980
 7859SOL    HW135036   1.605   2.198   2.845 -0.4383  0.4323  0.3286
 7859SOL    HW235037   1.671   2.065   2.882 -1.7741  0.0497 -0.9491
 7860SOL     OW35038   1.289   3.352   4.352 -0.3561 -0.1625 -0.2880
 7860SOL    HW135039   1.304   3.445   4.366  0.2780 -0.2881 -0.1404
 7860SOL    HW235040   1.214   3.346   4.411 -0.0218  1.4991  0.2929
 7861SOL     OW35041   4.176   0.956   4.125 -0.4400  0.2052  0.3144
 7861SOL    HW135042   4.172   1.051   4.130  3.4612  0.4060 -0.2702
 7861SOL    HW235043   4.210   0.947   4.214 -0.5238 -1.4669  0.1892
 7862SOL     OW35044   1.182   0.990   8.244 -0.0397 -0.0025  0.2600
 7862SOL    HW135045   1.213   0.935   8.172  0.9041  2.8742 -1.5303
 7862SOL    HW235046   1.249   0.973   8.311  2.5799  0.0372 -2.3109
 7863SOL     OW35047   1.416   3.976  14.735  0.2957  0.3216  0.6334
 7863SOL    HW135048   1.367   3.938  14.807 -0.5548 -0.0467 -0.1376
 7863SOL    HW235049   1.492   3.920  14.752  1.0795  1.6577  1.4814
 7864SOL     OW35050   2.416   3.701  13.190 -0.2696  0.1152  0.1245
 7864SOL    HW135051   2.371   3.626  13.150 -1.3389  0.8892 -0.1215
 7864SOL    HW235052   2.498   3.666  13.227  0.5930 -1.1395 -3.0233
 7865SOL     OW35053   2.948   3.430   5.928 -0.1115  0.0391 -0.0885
 7865SOL    HW135054   2.879   3.413   5.864  2.7394  2.2464 -3.8146
 7865SOL    HW235055   2.957   3.525   5.917 -0.9842  0.0529 -0.6937
 7866SOL     OW35056   1.766   3.741   3.085 -0.5421  0.1757  0.4495
 7866SOL    HW135057   1.820   3.724   3.007  1.3580 -1.1000  2.0428
 7866SOL    HW235058   1.783   3.834   3.098  0.6916 -0.3420  2.5021
 7867SOL     OW35059   4.171   3.651   5.637 -0.5304 -0.2402  0.4467
 7867SOL    HW135060   4.078   3.673   5.636  0.4123  3.6990  1.1778
 7867SOL    HW235061   4.167   3.585   5.568  2.1705 -4.0319  3.8833
 7868SOL     OW35062   1.990   3.056   3.475 -0.1098 -0.2667 -0.1521
 7868SOL    HW135063   1.943   3.070   3.393 -3.3557 -0.8609  1.5832
 7868SOL    HW235064   2.054   3.127   3.470  0.0686 -0.4527 -0.5332
 7869SOL     OW35065   3.325   2.618   8.242  0.0483 -0.0767 -0.5489
 7869SOL    HW135066   3.405   2.624   8.190  0.4819 -1.5256 -0.0438
 7869SOL    HW235067   3.311   2.525   8.228  1.1865 -0.6653  2.0832
 7870SOL     OW35068   3.589   2.679   5.916  0.4640 -0.0913 -0.2686
 7870SOL    HW135069   3.656   2.718   5.861  0.9304  0.1272  0.4636
 7870SOL    HW235070   3.566   2.757   5.965 -1.3907  1.1500 -3.0751
 7871SOL     OW35071   2.093   3.835   9.116 -0.2349 -0.3029  0.8376
 7871SOL    HW135072   2.097   3.922   9.075  3.4781 -0.4421  0.8921
 7871SOL    HW235073   2.100   3.786   9.034 -0.1337  1.1710 -0.0518
 7872SOL     OW35074   1.521   3.368   1.518 -0.4386 -0.1958  0.3475
 7872SOL    HW135075   1.607   3.403   1.495 -0.0256 -1.5390 -0.1342
 7872SOL    HW235076   1.495   3.428   1.588 -0.4989 -1.7352  1.6429
 7873SOL     OW35077   3.190   0.277   5.352  0.1751  0.0900 -0.0201
 7873SOL    HW135078   3.260   0.297   5.414 -0.8996  1.0644  0.9114
 7873SOL    HW235079   3.210   0.184   5.340 -1.8433 -0.4239  0.5320
 7874SOL     OW35080   0.301   2.940   0.240  0.4270  0.2081  0.2075
 7874SOL    HW135081   0.248   2.861   0.233 -0.8666  1.0556  0.2838
 7874SOL    HW235082   0.345   2.943   0.156 -2.0468 -2.0112 -1.1590
 7875SOL     OW35083   2.035   4.415  15.985 -0.1894 -0.0469  0.7572
 7875SOL    HW135084   2.088   4.352  16.033 -0.5502 -0.0196  1.1895
 7875SOL    HW235085   2.101   4.483  15.972 -0.2773 -0.0394  0.3380
 7876SOL     OW35086   1.335   0.728   8.203  0.7863  0.1705  0.3182
 7876SOL    HW135087   1.342   0.637   8.173  1.8045  0.2624  0.2843
 7876SOL    HW235088   1.381   0.718   8.286  3.8229 -0.2754 -1.4113
 7877SOL     OW35089   0.854   4.575   1.230  0.1930 -0.6468  0.7106
 7877SOL    HW135090   0.875   4.547   1.319  1.5351  0.3249  0.6940
 7877SOL    HW235091   0.861   4.489   1.188 -2.8645 -0.0302 -1.0977
 7878SOL     OW35092   4.477   2.635  12.201  0.2232  0.0803  0.3161
 7878SOL    HW135093   4.418   2.633  12.277 -0.1872 -1.6230 -0.0567
 7878SOL    HW235094   4.494   2.729  12.202  0.9249 -0.0388 -0.6186
 7879SOL     OW35095   1.243   1.190  15.953  0.2392 -0.1514  0.0192
 7879SOL    HW135096   1.253   1.236  15.869  1.5021 -1.2473 -0.4253
 7879SOL    HW235097   1.299   1.237  16.015  3.4495 -0.0983 -2.9216
 7880SOL     OW35098   3.454   4.463   2.719  0.0512  0.5508  0.1689
 7880SOL    HW135099   3.475   4.528   2.652 -2.3661  0.9401 -0.2248
 7880SOL    HW235100   3.542   4.465   2.755  1.0596 -0.3330 -2.2420
 7881SOL     OW35101   3.188   4.344   6.396  0.5423  0.1532 -0.2633
 7881SOL    HW135102   3.260   4.342   6.333  0.8962  1.2780  0.1090
 7881SOL    HW235103   3.194   4.431   6.435 -0.7753 -0.1140  0.5301
 7882SOL     OW35104   4.235   0.655   2.817  0.0070  0.0091  0.6415
 7882SOL    HW135105   4.295   0.689   2.751 -1.4784 -0.7419 -1.1001
 7882SOL    HW235106   4.279   0.676   2.900  0.7068  0.0456  0.2621
 7883SOL     OW35107   3.748   3.500   8.679  0.0527 -0.1819 -0.6224
 7883SOL    HW135108   3.743   3.511   8.584  1.6966 -1.4152 -0.8565
 7883SOL    HW235109   3.688   3.428   8.700  0.0177  0.8326  2.7478
 7884SOL     OW35110   1.156   0.064  17.448  0.2518 -0.0828  0.1917
 7884SOL    HW135111   1.170   0.145  17.399 -1.3927  1.6704  2.6890
 7884SOL    HW235112   1.085   0.022  17.399  1.1283 -0.1108 -1.0790
 7885SOL     OW35113   2.016   1.090   0.368  0.1422  0.0616 -0.1463
 7885SOL    HW135114   2.009   1.109   0.462 -1.4317 -0.9210 -0.0782
 7885SOL    HW235115   1.997   1.179   0.337  0.7220  0.1298 -0.3009
 7886SOL     OW35116   1.213   3.346  11.512  0.1936  0.2209  0.4436
 7886SOL    HW135117   1.184   3.289  11.441  0.4757  0.2722  0.2870
 7886SOL    HW235118   1.210   3.275  11.576  1.6520  0.1079  0.4024
 7887SOL     OW35119   0.181   3.834   5.556  0.1708 -0.3199 -0.6027
 7887SOL    HW135120   0.086   3.825   5.566  0.2540 -0.4262  0.1435
 7887SOL    HW235121   0.186   3.809   5.464 -0.7122 -0.6897 -0.5541
 7888SOL     OW35122   3.304   3.311   6.892 -0.3656  0.3716 -0.8272
 7888SOL    HW135123   3.316   3.325   6.986 -1.3385  1.8082 -0.9132
 7888SOL    HW235124   3.213   3.334   6.874 -0.0870  1.1753 -1.2296
 7889SOL     OW35125   2.590   3.990   6.711  0.0316  0.7874 -0.1402
 7889SOL    HW135126   2.628   3.941   6.784 -3.1088 -3.1836 -1.2049
 7889SOL    HW235127   2.588   4.080   6.743 -0.1424  1.4704 -2.0326
 7890SOL     OW35128   0.333   4.658   3.011 -0.1145 -0.8584 -0.2365
 7890SOL    HW135129   0.387   4.601   2.956 -0.9560 -1.9569  0.0511
 7890SOL    HW235130   0.377   0.019   3.010 -0.2823 -0.7610  1.3259
 7891SOL     OW35131   4.657   2.607   9.067  0.1768 -0.3731  0.0293
 7891SOL    HW135132   4.618   2.659   9.138  0.8612  0.7425 -0.4053
 7891SOL    HW235133   4.586   2.544   9.054 -1.3128  0.8597  2.0826
 7892SOL     OW35134   4.079   0.492   4.127 -0.6023 -0.2700  0.3525
 7892SOL    HW135135   4.089   0.528   4.216 -0.7560 -2.8524  1.4220
 7892SOL    HW235136   4.106   0.402   4.145  0.8128  0.4112  1.6718
 7893SOL     OW35137   3.691   2.290   7.702  0.3571 -0.1667 -0.0625
 7893SOL    HW135138   3.625   2.229   7.736 -1.0571  0.6254 -1.3671
 7893SOL    HW235139   3.681   2.364   7.762 -1.4511  0.4465 -1.1150
 7894SOL     OW35140   3.856   2.848   3.405 -0.0830  0.0864 -0.5405
 7894SOL    HW135141   3.875   2.761   3.371 -1.0328 -0.0232 -0.7830
 7894SOL    HW235142   3.854   2.887   3.318 -0.5618  0.9015 -0.1662
 7895SOL     OW35143   3.981   2.672   4.090  0.1098 -0.3208  0.0910
 7895SOL    HW135144   3.972   2.743   4.027  0.7565  1.5110  2.0399
 7895SOL    HW235145   4.003   2.596   4.036 -1.4866  0.0884 -1.1479
 7896SOL     OW35146   4.316   1.742   6.120 -0.9399  0.4489  0.6727
 7896SOL    HW135147   4.350   1.677   6.059  1.7957  0.7538  1.8509
 7896SOL    HW235148   4.275   1.807   6.063  0.0131  2.2966  2.0506
 7897SOL     OW35149   3.805   4.448   6.429 -0.6989 -0.0063 -0.0424
 7897SOL    HW135150   3.848   4.534   6.427 -0.4199 -0.1747 -1.1879
 7897SOL    HW235151   3.870   4.379   6.418 -1.3784 -0.7697  0.7354
 7898SOL     OW35152   4.509   2.371  11.156  0.0869 -0.4693 -0.5601
 7898SOL    HW135153   4.553   2.414  11.230 -1.2462  1.7489 -1.0509
 7898SOL    HW235154   4.454   2.307  11.202  0.6700  0.0919  0.9395
 7899SOL     OW35155   0.872   1.689  17.379  0.0256 -0.0875 -0.2052
 7899SOL    HW135156   0.871   1.653  17.468  2.5940 -0.8181 -0.4615
 7899SOL    HW235157   0.882   1.616  17.319  1.7664 -0.0857  0.0885
 7900SOL     OW35158   2.796   0.096   5.635  0.1669  0.5217 -0.1714
 7900SOL    HW135159   2.826   0.180   5.669  0.3057  0.3834  0.0423
 7900SOL    HW235160   2.868   0.034   5.648  1.6895  2.1452 -0.8861
 7901SOL     OW35161   2.675   0.623   6.584  0.1207 -0.3826  0.3290
 7901SOL    HW135162   2.688   0.672   6.665  1.8161  0.3474 -0.3882
 7901SOL    HW235163   2.621   0.691   6.542 -0.0812 -1.2366 -0.7967
 7902SOL     OW35164   4.556   2.435   2.417 -0.3250  0.2920  0.0247
 7902SOL    HW135165   4.606   2.517   2.415  0.5085 -0.1900  0.9385
 7902SOL    HW235166   4.520   2.442   2.329  0.4126 -2.0379 -0.4672
 7903SOL     OW35167   2.352   2.357  16.791 -0.6091  0.4741  0.3133
 7903SOL    HW135168   2.311   2.277  16.821  0.0415  0.0578  0.0894
 7903SOL    HW235169   2.317   2.363  16.702  1.9424 -1.5993 -0.8180
 7904SOL     OW35170   0.481   3.166   5.149  0.5805  0.1437  0.0504
 7904SOL    HW135171   0.492   3.072   5.130  1.3080 -0.0815  1.5858
 7904SOL    HW235172   0.507   3.207   5.066  1.3478 -2.3253 -0.9429
 7905SOL     OW35173   3.181   3.695   9.294  0.4450 -0.6484 -0.4703
 7905SOL    HW135174   3.254   3.636   9.313 -0.1409 -1.3761 -0.4738
 7905SOL    HW235175   3.112   3.629   9.300  2.2029 -2.4711 -0.2858
 7906SOL     OW35176   2.047   4.110   6.366  0.0253 -0.0767  0.1372
 7906SOL    HW135177   2.115   4.160   6.412 -0.3362 -0.1628  0.7565
 7906SOL    HW235178   2.017   4.182   6.311 -2.4185 -0.2342  1.2548
 7907SOL     OW35179   1.662   1.668   1.179 -0.6008 -0.6062 -0.1885
 7907SOL    HW135180   1.733   1.710   1.130  1.3099 -3.0679  0.5116
 7907SOL    HW235181   1.632   1.602   1.117  1.0407 -1.1908 -0.3511
 7908SOL     OW35182   0.480   4.106  11.997  0.0050  0.2107  0.6386
 7908SOL    HW135183   0.384   4.107  11.990  0.0064  0.4468  0.6496
 7908SOL    HW235184   0.485   4.092  12.091 -2.2764 -1.1482  0.5611
 7909SOL     OW35185   1.758   3.068   3.835 -0.3827 -0.2447  0.2636
 7909SOL    HW135186   1.820   2.996   3.842  1.0679  1.0870  1.1901
 7909SOL    HW235187   1.727   3.061   3.745  1.0221 -3.2510  0.0309
 7910SOL     OW35188   1.236   4.349  16.263  0.0286 -0.2697 -0.0786
 7910SOL    HW135189   1.278   4.409  16.202  1.4906 -2.3118 -1.0952
 7910SOL    HW235190   1.243   4.262  16.223  1.6803  0.3394 -1.1119
 7911SOL     OW35191   1.357   0.131   7.595  0.4221  0.2290  0.1349
 7911SOL    HW135192   1.339   0.152   7.687  0.5427 -0.8507  0.3971
 7911SOL    HW235193   1.372   0.223   7.572 -1.3896  0.9312  1.8154
 7912SOL     OW35194   3.176   2.736   7.526  0.6447 -0.5119 -0.3354
 7912SOL    HW135195   3.128   2.785   7.459 -1.0599 -0.3417  1.0221
 7912SOL    HW235196   3.176   2.794   7.603  0.0796  0.2489 -0.9103
 7913SOL     OW35197   0.163   4.201   2.979  0.4145 -0.1773 -0.8622
 7913SOL    HW135198   0.168   4.136   2.908  2.7245 -2.5786  1.5332
 7913SOL    HW235199   0.189   4.274   2.923 -2.4135  0.5005 -1.3029
 7914SOL     OW35200   2.724   2.414   6.331  0.0440  0.2928 -0.0156
 7914SOL    HW135201   2.768   2.404   6.416 -0.6596  1.0961  0.4329
 7914SOL    HW235202   2.778   2.482   6.290  2.7023 -2.1755 -0.6193
 7915SOL     OW35203   1.727   4.417   4.565  0.5239 -0.2906 -0.1731
 7915SOL    HW135204   1.637   4.411   4.535  0.3621  0.8665  0.0558
 7915SOL    HW235205   1.751   4.509   4.550 -0.7769 -0.0895 -0.9747
 7916SOL     OW35206   0.581   3.418  15.291  0.3033 -0.7332 -0.0872
 7916SOL    HW135207   0.658   3.470  15.269 -0.0586  0.5132  1.5819
 7916SOL    HW235208   0.609   3.334  15.254 -0.7630 -0.8239 -0.6925
 7917SOL     OW35209   2.417   4.180  10.263  0.4093  0.1512 -0.8029
 7917SOL    HW135210   2.389   4.199  10.173  1.5942 -0.9247 -1.4003
 7917SOL    HW235211   2.355   4.232  10.313  0.8723  0.1644 -0.2415
 7918SOL     OW35212   3.166   1.392  14.751 -0.1811 -0.4381  0.1266
 7918SOL    HW135213   3.253   1.390  14.792 -0.5372 -0.0542  0.9164
 7918SOL    HW235214   3.171   1.472  14.699  2.3767 -0.1207  0.8268
 7919SOL     OW35215   1.634   2.102   4.922 -0.2556  0.4407  0.7012
 7919SOL    HW135216   1.726   2.124   4.904 -0.5297  2.1451  1.3539
 7919SOL    HW235217   1.656   2.010   4.935  1.7593  0.4319 -2.7563
 7920SOL     OW35218   3.988   0.457   9.398  0.2632 -0.5178 -0.1355
 7920SOL    HW135219   3.924   0.504   9.345 -1.8839 -2.4733  0.6993
 7920SOL    HW235220   3.948   0.454   9.485  1.6197 -1.3896  0.4594
 7921SOL     OW35221   3.312   0.222  17.379  0.3197 -0.3679  0.1572
 7921SOL    HW135222   3.269   0.166  17.315 -2.5415 -0.6669  2.3073
 7921SOL    HW235223   3.365   0.158  17.427 -0.6422  0.0362  1.7636
 7922SOL     OW35224   2.505   3.422   3.277  0.2814  0.0879  0.0868
 7922SOL    HW135225   2.497   3.416   3.181 -1.7843  0.5518  0.2187
 7922SOL    HW235226   2.592   3.384   3.271 -0.5442 -2.1315  2.2865
 7923SOL     OW35227   0.912   3.293   6.084 -0.1035  0.0162 -0.0174
 7923SOL    HW135228   0.828   3.303   6.040  0.4278  1.4803 -0.7094
 7923SOL    HW235229   0.934   3.385   6.101  0.0603  0.1761 -1.0576
 7924SOL     OW35230   0.380   0.228   3.000  0.3324  0.7055 -0.0858
 7924SOL    HW135231   0.427   0.254   2.921 -0.9410 -1.1189 -1.4287
 7924SOL    HW235232   0.414   0.300   3.053  0.0471 -0.6645  1.9706
 7925SOL     OW35233   0.576   2.673   0.227  0.2148  0.4308 -0.4229
 7925SOL    HW135234   0.540   2.589   0.197 -1.6143  0.2939  2.0931
 7925SOL    HW235235   0.647   2.642   0.282  0.2273  1.4156  0.1041
 7926SOL     OW35236   1.339   0.470  12.345  0.4594  0.5728 -0.0355
 7926SOL    HW135237   1.254   0.448  12.384  0.4112  1.4194  0.3189
 7926SOL    HW235238   1.303   0.527  12.277  1.2253  1.4427  0.2896
 7927SOL     OW35239   4.093   2.664   5.386 -0.1833  0.4614  0.5287
 7927SOL    HW135240   4.081   2.570   5.389 -0.2360  0.4634  0.3157
 7927SOL    HW235241   4.033   2.693   5.318  0.5019 -0.2546 -0.3815
 7928SOL     OW35242   1.092   3.520   5.795 -0.4049  0.4973  0.0873
 7928SOL    HW135243   1.006   3.482   5.775 -0.0556 -0.7729  1.0036
 7928SOL    HW235244   1.102   3.581   5.722  1.6831  0.1651  0.0996
 7929SOL     OW35245   2.282   2.317   7.573  0.3379 -0.3291  0.6451
 7929SOL    HW135246   2.309   2.226   7.584 -1.6025 -0.9169  0.5606
 7929SOL    HW235247   2.189   2.311   7.594 -0.0619 -2.1315 -1.6018
 7930SOL     OW35248   2.951   1.254   5.605 -0.0141  0.3389  0.2990
 7930SOL    HW135249   2.944   1.160   5.623 -2.1434 -0.5083 -5.0544
 7930SOL    HW235250   3.005   1.259   5.527 -0.1139 -0.5637  0.1715
 7931SOL     OW35251   0.036   3.987  12.305  0.4139  0.6374  0.5576
 7931SOL    HW135252   0.071   3.970  12.392  1.9595  0.1444 -0.1562
 7931SOL    HW235253   4.670   4.001  12.335  0.4778  3.4862 -0.5543
 7932SOL     OW35254   0.697   4.715   4.122 -0.0472  0.0107 -0.4119
 7932SOL    HW135255   0.788   0.009   4.146 -0.4476  1.7648 -0.1749
 7932SOL    HW235256   0.715   4.647   4.058  1.7636 -1.4367  1.6413
 7933SOL     OW35257   4.717   4.471   6.173  0.0300  0.2817  0.5793
 7933SOL    HW135258   4.634   4.424   6.161  2.0530 -3.1386 -0.0598
 7933SOL    HW235259   4.682   4.558   6.154 -0.1775  0.0121 -0.3011
 7934SOL     OW35260   3.851   0.794   8.489  0.5599 -0.9905  0.6716
 7934SOL    HW135261   3.895   0.747   8.560  4.2411  0.8671 -0.3811
 7934SOL    HW235262   3.928   0.829   8.443 -1.3694  0.0549 -1.7858
 7935SOL     OW35263   0.572   1.782   6.854  0.1581  0.0640 -0.3477
 7935SOL    HW135264   0.621   1.748   6.928  0.5001  1.8522  0.2610
 7935SOL    HW235265   0.575   1.699   6.807 -0.2415  0.3663 -0.9060
 7936SOL     OW35266   2.618   0.592  14.465  0.2582 -0.0140 -0.1772
 7936SOL    HW135267   2.684   0.658  14.446 -0.6191  1.0971  0.5985
 7936SOL    HW235268   2.562   0.606  14.389 -1.7167 -0.1177  1.2358
 7937SOL     OW35269   3.190   2.289   6.850  0.4131 -0.2866 -0.6580
 7937SOL    HW135270   3.259   2.255   6.793  0.9666  1.1906 -0.8694
 7937SOL    HW235271   3.227   2.267   6.935 -0.7617 -0.3123 -0.1543
 7938SOL     OW35272   1.757   3.767   8.012 -0.2130 -0.4477 -0.2036
 7938SOL    HW135273   1.741   3.793   8.102  4.5445  1.3788  0.1112
 7938SOL    HW235274   1.729   3.675   8.015 -0.4399 -0.3699 -0.0077
 7939SOL     OW35275   0.300   4.642   4.183  0.2505  0.2254 -0.6899
 7939SOL    HW135276   0.341   0.004   4.174  1.3513 -0.1887  0.3829
 7939SOL    HW235277   0.349   4.599   4.253 -1.4517 -1.2152 -0.3568
 7940SOL     OW35278   2.840   3.941   5.464  0.7109  0.0222 -0.1438
 7940SOL    HW135279   2.780   3.867   5.471  0.3985  0.4620  1.9572
 7940SOL    HW235280   2.800   4.013   5.513 -0.7110  0.7218 -2.3475
 7941SOL     OW35281   3.047   1.168   7.562 -0.2686  0.4147 -0.2288
 7941SOL    HW135282   3.087   1.165   7.649  2.4860 -1.6496 -1.5600
 7941SOL    HW235283   2.957   1.194   7.580 -0.4993 -0.5490  0.0292
 7942SOL     OW35284   3.902   1.198   4.320  0.4397  0.8808 -0.1897
 7942SOL    HW135285   3.827   1.141   4.301  0.6465  1.3538 -2.4275
 7942SOL    HW235286   3.887   1.277   4.269 -0.7129  0.6012 -0.2939
 7943SOL     OW35287   2.951   2.583   3.820 -0.3021 -0.5736  0.7148
 7943SOL    HW135288   2.865   2.566   3.857 -1.1791  2.5945  0.1488
 7943SOL    HW235289   2.957   2.678   3.828  1.3289 -0.7595  1.6230
 7944SOL     OW35290   3.197   1.236   5.338 -0.4829 -0.0757  0.3721
 7944SOL    HW135291   3.249   1.249   5.417  0.2738  0.5997 -0.2405
 7944SOL    HW235292   3.177   1.142   5.337  0.7329 -0.3179 -1.4689
 7945SOL     OW35293   0.549   0.486   5.768 -0.3124  0.4602  0.0199
 7945SOL    HW135294   0.606   0.534   5.828  0.0540  1.6606 -1.2749
 7945SOL    HW235295   0.526   0.551   5.701  1.2357 -0.5590 -1.4841
 7946SOL     OW35296   3.288   2.839  14.151  0.0147 -0.1456 -0.2988
 7946SOL    HW135297   3.382   2.848  14.134  0.2477 -2.2111 -0.0777
 7946SOL    HW235298   3.260   2.927  14.128 -2.3978 -1.1127 -1.0886
 7947SOL     OW35299   3.396   1.388   4.655  0.6204 -0.3977 -0.3839
 7947SOL    HW135300   3.311   1.409   4.616 -0.7747 -1.4128  2.1265
 7947SOL    HW235301   3.426   1.323   4.592  0.3690 -1.2124  0.3384
 7948SOL     OW35302   0.057   4.706   6.598  0.1356  0.4722 -0.0031
 7948SOL    HW135303   4.708   0.022   6.550  0.0821  1.1677  0.6572
 7948SOL    HW235304   0.087   0.053   6.654 -2.0617  1.3554  0.0747
 7949SOL     OW35305   3.858   1.584   6.379  0.3320  0.0858 -0.1210
 7949SOL    HW135306   3.810   1.602   6.297  0.1443 -2.1254 -0.4929
 7949SOL    HW235307   3.812   1.505   6.406  2.0660 -1.3087 -1.2467
 7950SOL     OW35308   3.158   0.921  14.600  0.1953  0.3353 -0.6754
 7950SOL    HW135309   3.160   0.901  14.506  1.8394  1.6889 -0.9267
 7950SOL    HW235310   3.197   0.839  14.629 -1.0127 -0.3865 -1.0832
 7951SOL     OW35311   0.503   3.479   1.390  0.4130  0.0256  0.1470
 7951SOL    HW135312   0.536   3.415   1.327 -2.9230 -1.8786  0.3099
 7951SOL    HW235313   0.544   3.558   1.355 -0.0109 -1.6138 -4.0779
 7952SOL     OW35314   1.336   1.614   1.763  0.3159 -0.3537 -0.0475
 7952SOL    HW135315   1.410   1.645   1.815 -0.2195 -1.5280  1.4250
 7952SOL    HW235316   1.293   1.698   1.779  0.5910 -0.1780 -0.2242
 7953SOL     OW35317   3.461   4.095   6.951 -0.2748  0.4067 -0.1201
 7953SOL    HW135318   3.517   4.171   6.936  0.8130 -0.0846  1.4176
 7953SOL    HW235319   3.506   4.028   6.900  0.6107 -0.2119  1.4717
 7954SOL     OW35320   3.348   0.225  11.159  0.5886  0.0835  0.6261
 7954SOL    HW135321   3.372   0.318  11.149  2.3914 -0.3279  1.2099
 7954SOL    HW235322   3.322   0.230  11.251  1.2730  0.3115  0.8067
 7955SOL     OW35323   1.280   4.570   3.741  0.2884 -0.2745  0.3556
 7955SOL    HW135324   1.218   4.539   3.675 -1.3821  2.1506  0.8202
 7955SOL    HW235325   1.296   4.661   3.716 -0.2871 -0.5709 -1.0798
 7956SOL     OW35326   3.766   0.094   1.483 -0.5155 -0.2853  0.1291
 7956SOL    HW135327   3.719   0.033   1.540  1.3092 -0.7124  1.1607
 7956SOL    HW235328   3.748   0.169   1.538 -1.7882 -0.6810  0.2541
 7957SOL     OW35329   2.465   3.934   5.371  0.3277 -0.0603  0.5493
 7957SOL    HW135330   2.548   3.905   5.409  1.1998  1.4244 -0.2000
 7957SOL    HW235331   2.496   4.011   5.323 -2.4752  1.0422  0.5044
 7958SOL     OW35332   0.063   4.114   3.241 -0.2071 -0.1223 -0.4182
 7958SOL    HW135333   0.029   4.043   3.186  0.8185  1.0052 -2.5022
 7958SOL    HW235334   0.082   4.160   3.159 -0.5970  1.6242  0.4773
 7959SOL     OW35335   0.384   2.223   2.570 -0.2894  0.5202  0.5413
 7959SOL    HW135336   0.372   2.129   2.553  1.8048  0.1971  0.8118
 7959SOL    HW235337   0.418   2.250   2.484 -0.2120 -1.0894  0.0486
 7960SOL     OW35338   0.219   0.272  13.376 -0.1865  0.2046 -0.1123
 7960SOL    HW135339   0.277   0.298  13.304  2.3495 -1.1253  1.4275
 7960SOL    HW235340   0.199   0.359  13.409  0.9264  0.1910  0.5984
 7961SOL     OW35341   4.161   2.288   5.374 -0.2606 -0.1235  0.3865
 7961SOL    HW135342   4.078   2.307   5.418 -2.1312 -0.2673 -3.0645
 7961SOL    HW235343   4.218   2.280   5.451 -0.4364  1.0606  0.6394
 7962SOL     OW35344   0.968   0.294   4.760 -0.0333  0.1971  0.2455
 7962SOL    HW135345   0.996   0.352   4.831 -0.3258  1.1053 -0.3919
 7962SOL    HW235346   1.000   0.346   4.687  1.4888  0.2366  0.9384
 7963SOL     OW35347   2.788   0.100   2.827 -0.2404  0.2196  0.2018
 7963SOL    HW135348   2.793   0.078   2.734 -0.3932  0.8769  0.0405
 7963SOL    HW235349   2.728   0.033   2.860 -1.6462  1.3986  0.0663
 7964SOL     OW35350   0.168   1.247   4.363  0.4524  0.2472  0.3433
 7964SOL    HW135351   0.106   1.286   4.425  1.8339  0.3596  1.6578
 7964SOL    HW235352   0.119   1.166   4.351  0.3310  0.2132  1.0499
 7965SOL     OW35353   3.400   3.362   3.273 -0.0533 -0.2401  0.2913
 7965SOL    HW135354   3.445   3.442   3.244  0.9301 -0.3188  1.6116
 7965SOL    HW235355   3.464   3.333   3.339 -0.1835 -0.5640  0.2713
 7966SOL     OW35356   2.641   1.942   1.642 -0.1744 -0.1399  0.3089
 7966SOL    HW135357   2.675   1.893   1.568 -0.8196  0.6659 -0.5200
 7966SOL    HW235358   2.652   1.885   1.718  1.6664 -0.3730 -0.1332
 7967SOL     OW35359   1.147   1.250   3.489  0.0497  0.2347  0.0817
 7967SOL    HW135360   1.154   1.222   3.398 -0.4266  0.1715  0.0644
 7967SOL    HW235361   1.229   1.210   3.519 -0.7242 -0.6509  1.0391
 7968SOL     OW35362   4.616   0.701   0.712 -0.4099  0.2099 -0.1852
 7968SOL    HW135363   4.617   0.750   0.629  1.6953 -2.1063 -1.5553
 7968SOL    HW235364   4.594   0.613   0.682 -0.0965 -0.2792  1.0119
 7969SOL     OW35365   3.742   3.365   9.509  0.2579 -0.0821  0.0460
 7969SOL    HW135366   3.723   3.271   9.517  1.8353 -0.4543 -0.6254
 7969SOL    HW235367   3.764   3.375   9.417 -0.5969 -0.8762 -0.2466
 7970SOL     OW35368   4.223   1.258   1.461 -0.3979  0.2128  0.8004
 7970SOL    HW135369   4.244   1.175   1.420  1.1514  1.4166 -0.8097
 7970SOL    HW235370   4.250   1.236   1.550 -0.7057  0.2116  0.8948
 7971SOL     OW35371   1.131   0.173   4.391 -0.4866 -0.3310 -0.3444
 7971SOL    HW135372   1.209   0.141   4.347 -0.0531  0.3551 -0.0648
 7971SOL    HW235373   1.070   0.105   4.359 -0.7503 -0.0080 -0.5287
 7972SOL     OW35374   3.302   1.529   9.125  0.1578  0.1395  0.9956
 7972SOL    HW135375   3.291   1.437   9.100  0.5548 -0.0785  1.6294
 7972SOL    HW235376   3.386   1.519   9.170  0.2439  0.6608  0.9484
 7973SOL     OW35377   1.479   3.528   8.938 -0.5356  0.3799 -0.6687
 7973SOL    HW135378   1.505   3.567   8.855  1.6543  1.0106  0.3194
 7973SOL    HW235379   1.559   3.492   8.976  1.1239  3.8075 -0.9000
 7974SOL     OW35380   2.209   4.370   4.611 -0.3538  0.0735 -0.5095
 7974SOL    HW135381   2.269   4.369   4.537 -0.0881 -0.1787 -0.2941
 7974SOL    HW235382   2.127   4.333   4.577 -1.6202  0.5420  2.0498
 7975SOL     OW35383   1.236   3.507  10.538 -0.4931  0.1703 -0.3493
 7975SOL    HW135384   1.221   3.600  10.553  0.8142  0.6035 -1.8020
 7975SOL    HW235385   1.158   3.475  10.584  0.6734 -1.4161  0.5365
 7976SOL     OW35386   2.433   4.553  15.179  0.2018 -0.3816  0.5430
 7976SOL    HW135387   2.424   4.501  15.099  0.5805 -0.1606  0.3562
 7976SOL    HW235388   2.451   4.477  15.233 -0.6614  0.1911  1.6538
 7977SOL     OW35389   2.808   1.053   1.667 -0.0017 -0.2133  0.0839
 7977SOL    HW135390   2.722   1.074   1.630  0.5224  3.1439  0.7489
 7977SOL    HW235391   2.789   0.972   1.714 -2.3359 -0.2721 -0.9765
 7978SOL     OW35392   3.756   2.645   7.642  0.3469 -0.1003 -0.3640
 7978SOL    HW135393   3.794   2.668   7.727 -1.6890  0.8548  0.2947
 7978SOL    HW235394   3.683   2.585   7.662  0.2683 -0.4860 -1.7953
 7979SOL     OW35395   4.532   4.414  11.929  0.5750  0.4755  0.5728
 7979SOL    HW135396   4.438   4.404  11.915  0.7546 -0.1551 -0.2128
 7979SOL    HW235397   4.552   4.437  11.838  0.4511  1.9148  0.9018
 7980SOL     OW35398   3.179   1.171  10.483 -0.3614  0.5866 -0.1471
 7980SOL    HW135399   3.158   1.260  10.509  2.3745  0.8472  1.1989
 7980SOL    HW235400   3.265   1.147  10.518 -0.8858  0.6467  1.1505
 7981SOL     OW35401   2.209   0.739   3.760 -0.3049  0.1478 -0.0690
 7981SOL    HW135402   2.165   0.657   3.741  0.9102 -0.5978  0.3240
 7981SOL    HW235403   2.291   0.712   3.718 -0.4666  0.8304 -0.8309
 7982SOL     OW35404   4.621   3.728  11.541  0.2057  0.0856 -0.5225
 7982SOL    HW135405   4.664   3.647  11.569 -1.8943 -0.4051  1.2256
 7982SOL    HW235406   4.653   3.736  11.451 -2.1398 -0.3759 -1.3874
 7983SOL     OW35407   1.547   3.893   3.593 -0.2981  0.2948 -0.3921
 7983SOL    HW135408   1.637   3.885   3.563 -0.5362 -1.6074 -0.5915
 7983SOL    HW235409   1.546   3.927   3.683  1.5742  3.1060 -1.4668
 7984SOL     OW35410   0.659   3.888   8.642 -0.1118  0.7109 -0.1872
 7984SOL    HW135411   0.736   3.864   8.694 -1.6450  0.5022  2.0251
 7984SOL    HW235412   0.697   3.955   8.586 -0.0724  1.2018  0.4334
 7985SOL     OW35413   0.500   2.326   0.795  0.0217  0.0308 -0.2377
 7985SOL    HW135414   0.554   2.330   0.875 -0.0406  1.7615 -0.2675
 7985SOL    HW235415   0.563   2.354   0.729  1.5996 -1.3584  0.6697
 7986SOL     OW35416   2.385   3.925  10.213 -0.5594 -0.4100  0.2002
 7986SOL    HW135417   2.390   4.018  10.237 -0.6874 -0.7668  1.6058
 7986SOL    HW235418   2.377   3.883  10.299 -0.3023  0.6752  0.7616
 7987SOL     OW35419   3.428   3.060   8.367 -0.1017  0.1114  0.4838
 7987SOL    HW135420   3.368   3.132   8.385  0.2362  0.7359 -0.9006
 7987SOL    HW235421   3.374   2.983   8.385  0.8046 -0.3079  1.4173
 7988SOL     OW35422   3.868   2.818   9.297 -0.8726  0.4103 -0.4026
 7988SOL    HW135423   3.835   2.731   9.278 -0.6183  0.1415  0.3577
 7988SOL    HW235424   3.864   2.857   9.210 -0.1552 -1.9561 -1.4741
 7989SOL     OW35425   3.545   4.347   5.496  0.1192 -0.5777  0.1107
 7989SOL    HW135426   3.596   4.298   5.560  0.3512  1.8227  1.7538
 7989SOL    HW235427   3.611   4.380   5.435  1.9771 -0.5967  2.1068
 7990SOL     OW35428   2.110   2.445   9.026  0.6646  0.7280  0.1552
 7990SOL    HW135429   2.111   2.466   9.120  0.7870  0.5437  0.1956
 7990SOL    HW235430   2.020   2.479   9.027 -0.3520 -1.9780  0.7123
 7991SOL     OW35431   1.141   1.458  15.538  0.1507 -0.1236  0.0918
 7991SOL    HW135432   1.106   1.542  15.510 -1.0375 -0.7083 -0.1901
 7991SOL    HW235433   1.077   1.422  15.600  2.2359 -1.2263  1.6406
 7992SOL     OW35434   1.213   0.973   1.392  0.7532 -0.0554 -0.0682
 7992SOL    HW135435   1.213   0.960   1.298 -0.0107  3.9207 -0.6235
 7992SOL    HW235436   1.240   1.065   1.393 -0.0095  0.1713 -0.6415
 7993SOL     OW35437   4.098   0.680  13.473  0.0512 -0.6085 -0.3082
 7993SOL    HW135438   4.178   0.629  13.460  0.1397 -0.6041  0.2366
 7993SOL    HW235439   4.037   0.616  13.435 -2.0145 -0.3522  2.5942
 7994SOL     OW35440   2.757   3.408   5.750  0.0406 -0.4999  0.1606
 7994SOL    HW135441   2.795   3.369   5.671 -0.6795 -0.2086 -0.3347
 7994SOL    HW235442   2.685   3.465   5.721  1.4045  0.7389 -0.8151
 7995SOL     OW35443   4.145   2.866   9.223  0.1064  0.4540  0.6492
 7995SOL    HW135444   4.084   2.802   9.260  0.3658 -0.0141  0.2582
 7995SOL    HW235445   4.212   2.881   9.290  0.1172  3.1011  0.0153
 7996SOL     OW35446   2.264   3.626   8.187  0.0461  0.2984 -0.0838
 7996SOL    HW135447   2.208   3.668   8.253 -1.0420 -0.2706 -0.6406
 7996SOL    HW235448   2.348   3.642   8.231  0.0214  1.3633 -0.4228
 7997SOL     OW35449   3.233   2.422  14.666  0.2228  0.4171  0.4095
 7997SOL    HW135450   3.288   2.498  14.646  0.6113  0.2335  0.7724
 7997SOL    HW235451   3.170   2.417  14.594  0.3393 -1.4163  0.4369
 7998SOL     OW35452   2.902   2.925  15.532 -0.2251  0.1406  0.1778
 7998SOL    HW135453   2.889   2.894  15.622 -0.3457  1.3886  0.5928
 7998SOL    HW235454   2.859   3.010  15.539  2.2030  1.3395  0.7311
 7999SOL     OW35455   1.660   4.516   9.737 -0.7868 -0.0329  0.6206
 7999SOL    HW135456   1.587   4.470   9.777  0.8577 -1.7017  1.7345
 7999SOL    HW235457   1.614   4.593   9.705 -1.3680 -0.1299  1.2245
 8000SOL     OW35458   0.947   0.321   6.324  0.3090 -0.0329 -0.0322
 8000SOL    HW135459   0.913   0.410   6.324  1.1799  0.2903 -1.8426
 8000SOL    HW235460   0.995   0.316   6.407  1.0655 -0.1381 -0.4737
 8001SOL     OW35461   3.807   3.249   1.823  0.1892 -0.1767  0.1911
 8001SOL    HW135462   3.879   3.226   1.881 -0.9797  0.7261  2.0214
 8001SOL    HW235463   3.801   3.168   1.772 -1.1012 -0.0992  0.2118
 8002SOL     OW35464   3.017   2.163   1.066  0.1300  1.2322 -0.2015
 8002SOL    HW135465   3.028   2.161   1.162 -0.4264 -0.9759 -0.1753
 8002SOL    HW235466   3.030   2.068   1.054  0.0373  0.9849  1.5764
 8003SOL     OW35467   4.502   2.733   9.254  0.7041 -0.6698 -0.9926
 8003SOL    HW135468   4.500   2.701   9.344 -0.0028  2.1386 -0.0098
 8003SOL    HW235469   4.429   2.794   9.263  1.5397  0.3889 -1.3659
 8004SOL     OW35470   2.708   4.271   4.932  0.1702  0.5674  0.3934
 8004SOL    HW135471   2.733   4.197   4.876  0.9570 -0.3644  1.9812
 8004SOL    HW235472   2.797   4.297   4.953  0.5348  1.4631 -2.3147
 8005SOL     OW35473   1.457   1.963   2.314 -0.3211  0.2401  0.2713
 8005SOL    HW135474   1.412   1.880   2.296  0.2102  0.0382 -0.1138
 8005SOL    HW235475   1.390   2.022   2.279  1.6741  1.4371 -1.5304
 8006SOL     OW35476   0.756   1.941   3.624 -0.3015 -0.0490  0.0229
 8006SOL    HW135477   0.710   1.874   3.574  0.0731 -0.4516  0.2171
 8006SOL    HW235478   0.827   1.898   3.671  0.5660  0.6242 -0.6661
 8007SOL     OW35479   3.127   3.274   6.102 -0.2366  0.6419  0.3513
 8007SOL    HW135480   3.093   3.346   6.048  2.5773  0.9779 -0.9357
 8007SOL    HW235481   3.105   3.190   6.060 -0.7361  1.8908 -1.8796
 8008SOL     OW35482   3.102   3.280  13.377  0.2878 -0.4129 -0.6468
 8008SOL    HW135483   3.099   3.212  13.444 -1.7287 -0.9770 -1.2963
 8008SOL    HW235484   3.191   3.265  13.346  1.0488  0.9546  0.8517
 8009SOL     OW35485   1.339   3.362   9.976  0.4380  0.8674  0.2135
 8009SOL    HW135486   1.418   3.348  10.029  1.4311 -0.3293 -1.5579
 8009SOL    HW235487   1.270   3.356  10.042  0.7193  0.8203  0.5014
 8010SOL     OW35488   3.913   0.254   2.655  0.2226 -0.5963 -0.2364
 8010SOL    HW135489   3.953   0.291   2.576 -0.2870 -1.6725 -0.9992
 8010SOL    HW235490   3.821   0.252   2.629 -0.3052  0.1324  1.5532
 8011SOL     OW35491   3.622   4.606   3.876  0.0170  0.5979 -0.3128
 8011SOL    HW135492   3.604   4.674   3.810  0.2475  0.9062 -0.0555
 8011SOL    HW235493   3.673   4.660   3.936 -0.7573  0.6850  0.2624
 8012SOL     OW35494   0.866   1.325   8.702  0.3687  0.2211 -0.0120
 8012SOL    HW135495   0.905   1.268   8.636  0.0821 -1.7920  1.5438
 8012SOL    HW235496   0.856   1.266   8.777  1.4600  1.8004  1.3964
 8013SOL     OW35497   2.530   2.229   4.624  0.4093  0.5194  0.3882
 8013SOL    HW135498   2.535   2.134   4.636  3.9210  0.6607 -0.1068
 8013SOL    HW235499   2.588   2.276   4.684  1.7736  1.0872 -1.3674
 8014SOL     OW35500   3.775   1.585  17.472 -0.1472  0.2206  0.2076
 8014SOL    HW135501   3.724   1.619  17.398  1.4836  0.8779 -0.6126
 8014SOL    HW235502   3.818   1.514  17.425 -1.4661  1.1070 -2.3453
 8015SOL     OW35503   0.482   0.825   4.919  0.6213  0.5328  0.1393
 8015SOL    HW135504   0.567   0.779   4.914 -0.6396 -2.0048  1.9566
 8015SOL    HW235505   0.425   0.750   4.940 -0.5438  0.5515 -3.0268
 8016SOL     OW35506   0.491   2.302   7.996  0.3103  0.4612  0.2278
 8016SOL    HW135507   0.560   2.238   8.014  0.5494  0.3212 -1.2003
 8016SOL    HW235508   0.433   2.270   8.065  1.6579 -2.0101  0.2123
 8017SOL     OW35509   2.485   0.686   5.385  0.5651 -0.0775 -0.0202
 8017SOL    HW135510   2.398   0.647   5.393  0.5659 -0.7084 -3.0230
 8017SOL    HW235511   2.492   0.677   5.290  2.0930 -1.5963  0.2292
 8018SOL     OW35512   1.081   3.658   8.188 -0.3848 -0.0172 -0.4282
 8018SOL    HW135513   1.153   3.630   8.245 -0.3959 -1.6392 -1.2071
 8018SOL    HW235514   1.063   3.740   8.234  0.6212 -0.6221  1.0492
 8019SOL     OW35515   2.338   2.256   9.030  0.2423  0.2642 -0.2595
 8019SOL    HW135516   2.248   2.290   9.030  0.5226  1.0096 -2.5939
 8019SOL    HW235517   2.338   2.255   9.125  0.2715  1.2161 -0.2524
 8020SOL     OW35518   0.388   3.690   8.289  0.2276  0.0393  0.1295
 8020SOL    HW135519   0.412   3.715   8.379  0.9660 -2.0155  0.5064
 8020SOL    HW235520   0.314   3.748   8.271 -0.5834 -1.3517 -1.0128
 8021SOL     OW35521   4.402   1.500  10.407 -0.0910 -0.5935  0.6262
 8021SOL    HW135522   4.423   1.454  10.487 -0.3150  0.0051  1.0294
 8021SOL    HW235523   4.407   1.589  10.442  1.1525 -0.8979  1.1979
 8022SOL     OW35524   1.627   2.359   5.023  0.5721 -0.0133 -0.1100
 8022SOL    HW135525   1.711   2.376   4.980  0.6762  2.4873  1.0783
 8022SOL    HW235526   1.600   2.275   4.988  1.5113 -0.2411 -0.3049
 8023SOL     OW35527   0.367   2.904  11.977  0.5546 -0.1462  0.3339
 8023SOL    HW135528   0.346   2.873  12.065 -0.4084  0.1609  0.2176
 8023SOL    HW235529   0.457   2.929  11.995  0.7195 -0.5765  0.0869
 8024SOL     OW35530   0.130   1.181  11.400  0.3548 -0.6055  0.2776
 8024SOL    HW135531   0.040   1.209  11.387  1.2500  1.3781 -1.6502
 8024SOL    HW235532   0.164   1.251  11.456 -1.1974  0.9688 -0.7651
 8025SOL     OW35533   4.404   2.233   2.170 -0.6467  0.4563 -0.1454
 8025SOL    HW135534   4.477   2.172   2.178 -0.5396  0.5113 -0.6884
 8025SOL    HW235535   4.354   2.190   2.101  0.5757 -3.5837  1.4694
 8026SOL     OW35536   0.901   2.759   6.783  0.3570  0.0878  0.1672
 8026SOL    HW135537   0.897   2.851   6.808 -2.7775  0.1372 -0.4776
 8026SOL    HW235538   0.976   2.759   6.723  0.6188  0.9244  0.5022
 8027SOL     OW35539   3.839   1.460   9.360 -0.1802  0.2304  0.2166
 8027SOL    HW135540   3.890   1.500   9.290 -2.4993 -1.0583 -2.2286
 8027SOL    HW235541   3.893   1.472   9.438  0.0351  1.2474 -0.0893
 8028SOL     OW35542   0.347   1.432  13.675  0.5483  0.4199 -0.4454
 8028SOL    HW135543   0.303   1.421  13.759  1.3125 -1.5846 -0.3103
 8028SOL    HW235544   0.274   1.472  13.627 -1.2005 -0.4479  1.5168
 8029SOL     OW35545   3.312   0.361  16.228  0.3195  0.4724 -0.4995
 8029SOL    HW135546   3.291   0.430  16.165 -0.9563 -0.2476 -0.8670
 8029SOL    HW235547   3.378   0.310  16.182 -0.5341 -1.4831  0.4380
 8030SOL     OW35548   0.245   1.777  12.525  0.4554  0.0760 -0.3260
 8030SOL    HW135549   0.331   1.746  12.497  1.2767  0.6131  1.6044
 8030SOL    HW235550   0.263   1.866  12.554 -1.0421  0.2511  0.0782
 8031SOL     OW35551   1.390   4.210   3.884 -0.2627  0.4156  0.2362
 8031SOL    HW135552   1.306   4.225   3.842 -1.0882  0.1378  1.7757
 8031SOL    HW235553   1.428   4.297   3.869 -0.3333  0.1437 -1.5058
 8032SOL     OW35554   3.772   2.837   8.730 -0.0716 -0.8879 -0.3205
 8032SOL    HW135555   3.812   2.769   8.675  2.4695  1.0350 -0.8001
 8032SOL    HW235556   3.821   2.907   8.687  0.0599 -0.5869  0.3319
 8033SOL     OW35557   0.472   4.538   1.982 -0.4024  0.0573  0.1129
 8033SOL    HW135558   0.490   4.446   1.960 -0.3086  0.1027  0.0010
 8033SOL    HW235559   0.482   4.528   2.077  0.0462  0.7044  0.1355
 8034SOL     OW35560   2.189   3.099   6.222  0.4525  0.7048 -0.2432
 8034SOL    HW135561   2.123   3.065   6.283  0.1141  0.8343 -0.5363
 8034SOL    HW235562   2.149   3.079   6.137  1.8555 -0.7594 -0.5575
 8035SOL     OW35563   4.197   1.520  11.048  0.1484 -0.3595  0.1295
 8035SOL    HW135564   4.186   1.498  10.955  1.4156 -0.0570 -0.0816
 8035SOL    HW235565   4.278   1.568  11.035  1.6416 -2.3018  2.1110
 8036SOL     OW35566   3.165   2.894   6.824 -0.4010 -0.5094 -0.5838
 8036SOL    HW135567   3.168   2.856   6.736 -0.9490 -1.4741 -0.1829
 8036SOL    HW235568   3.256   2.904   6.851 -0.1986 -1.3480 -0.9825
 8037SOL     OW35569   4.646   0.757   5.226 -0.2574  0.3574 -0.3099
 8037SOL    HW135570   0.010   0.794   5.220  0.3707 -1.1260 -0.3348
 8037SOL    HW235571   4.665   0.670   5.190 -0.7084  1.0998 -2.3666
 8038SOL     OW35572   1.316   3.818   5.362  0.3028 -0.6064  0.1847
 8038SOL    HW135573   1.346   3.734   5.397 -0.8963 -1.2939 -0.4304
 8038SOL    HW235574   1.384   3.880   5.387 -0.0807 -0.2675  0.3804
 8039SOL     OW35575   3.112   0.491   6.601  0.2505 -0.1146 -0.1180
 8039SOL    HW135576   3.056   0.567   6.582  0.5154  0.0246 -0.3487
 8039SOL    HW235577   3.154   0.522   6.681 -0.1551  0.8174 -0.2564
 8040SOL     OW35578   1.384   3.525  14.249  0.3253 -0.0487  0.1970
 8040SOL    HW135579   1.362   3.447  14.198  0.3041 -1.0752  1.7570
 8040SOL    HW235580   1.476   3.540  14.227  0.6182 -2.4142 -0.2491
 8041SOL     OW35581   3.051   4.035   5.681  0.0768 -0.3323 -0.1497
 8041SOL    HW135582   3.126   3.984   5.652  1.4373  0.2186  2.4141
 8041SOL    HW235583   3.094   4.112   5.718 -1.6701 -0.3962  2.0161
 8042SOL     OW35584   2.702   2.225   1.691 -0.5154  0.4390  0.8158
 8042SOL    HW135585   2.671   2.153   1.637 -0.2297  0.8605  0.0955
 8042SOL    HW235586   2.628   2.242   1.749 -1.2827 -1.6177  0.4116
 8043SOL     OW35587   4.609   3.042  12.872  0.2719 -0.6672  0.2930
 8043SOL    HW135588   4.617   3.084  12.958 -2.7878  2.2178 -0.8215
 8043SOL    HW235589   4.606   2.949  12.895 -0.6673 -0.9933 -1.1058
 8044SOL     OW35590   0.471   4.555   3.953 -0.0729 -0.2526 -0.4249
 8044SOL    HW135591   0.408   4.577   4.022 -0.4488  1.5035 -1.3360
 8044SOL    HW235592   0.470   4.461   3.968 -0.5889 -0.1935 -0.1128
 8045SOL     OW35593   4.656   0.736   1.227 -0.0502 -0.0534  0.1407
 8045SOL    HW135594   4.681   0.676   1.157  0.7086  1.4821 -0.9165
 8045SOL    HW235595   4.718   0.803   1.199  3.0699 -1.9003  2.5852
 8046SOL     OW35596   4.376   3.478   9.826 -0.3327  0.1334 -0.5263
 8046SOL    HW135597   4.308   3.503   9.889 -2.1716  0.3417 -2.5752
 8046SOL    HW235598   4.457   3.468   9.876  0.2960  0.1424 -1.5486
 8047SOL     OW35599   2.311   2.002   4.248  0.6267  0.2376 -0.0457
 8047SOL    HW135600   2.222   1.968   4.260  0.2076  1.3236 -0.1096
 8047SOL    HW235601   2.358   1.921   4.269  0.2467 -0.7725 -3.0758
 8048SOL     OW35602   1.789   4.476   0.118  0.1811 -0.1015 -0.5520
 8048SOL    HW135603   1.839   4.546   0.159  0.7069  0.1097 -1.5592
 8048SOL    HW235604   1.713   4.468   0.176  0.9648 -1.4690  0.2805
 8049SOL     OW35605   1.874   0.061   4.488  0.4361  0.1225 -0.0163
 8049SOL    HW135606   1.848   0.028   4.402  0.0779  0.1086  0.0990
 8049SOL    HW235607   1.794   0.070   4.539  1.3471  1.7238  1.1638
 8050SOL     OW35608   4.300   2.310   9.045 -0.0941 -0.1361 -0.2663
 8050SOL    HW135609   4.367   2.305   9.114  1.4846 -0.4209 -1.8057
 8050SOL    HW235610   4.222   2.296   9.099  0.3084 -2.0622 -0.2070
 8051SOL     OW35611   2.147   2.281   3.027 -0.1790 -0.1682 -0.1324
 8051SOL    HW135612   2.102   2.325   2.954 -0.1222  0.6778  0.3449
 8051SOL    HW235613   2.077   2.252   3.085 -1.3677 -2.0291 -2.4998
 8052SOL     OW35614   2.585   1.985  16.441  0.0183 -0.5142 -0.7307
 8052SOL    HW135615   2.550   2.020  16.359  1.1840  0.8267 -0.6603
 8052SOL    HW235616   2.668   1.945  16.416 -0.3432 -0.4954 -1.9574
 8053SOL     OW35617   0.691   0.666   4.868  0.6990  0.3315 -0.1386
 8053SOL    HW135618   0.725   0.589   4.914  3.2375  1.9694  0.7172
 8053SOL    HW235619   0.773   0.715   4.866  1.2368 -0.7490 -3.4120
 8054SOL     OW35620   1.883   0.699   8.385 -0.2373 -0.6073 -0.1479
 8054SOL    HW135621   1.846   0.623   8.430  0.1505 -0.9033 -0.3191
 8054SOL    HW235622   1.904   0.757   8.458 -0.5299  1.0551 -1.3829
 8055SOL     OW35623   3.571   2.036   6.604  0.3162 -0.2637  0.5143
 8055SOL    HW135624   3.495   1.977   6.604  0.5718 -0.5985 -0.8824
 8055SOL    HW235625   3.635   1.992   6.548 -0.7397  1.0724 -1.7166
 8056SOL     OW35626   0.091   1.928   4.482  0.1348  0.6151  0.0147
 8056SOL    HW135627   0.119   1.999   4.539 -0.6841 -0.9870  2.4216
 8056SOL    HW235628   0.172   1.878   4.474  0.4889  0.9195  1.6606
 8057SOL     OW35629   3.672   0.927   3.122 -0.0310  0.3217 -0.1043
 8057SOL    HW135630   3.675   0.879   3.040  0.3221  0.2592 -0.0519
 8057SOL    HW235631   3.578   0.906   3.126 -0.1776  0.9311 -0.3520
 8058SOL     OW35632   1.216   4.351   4.688  0.1225  0.6043 -0.5442
 8058SOL    HW135633   1.285   4.381   4.746 -0.4082 -2.2320  1.5690
 8058SOL    HW235634   1.158   4.320   4.758  0.9251 -0.2491 -0.2608
 8059SOL     OW35635   2.420   1.805   6.056  0.0194  0.1060  0.6168
 8059SOL    HW135636   2.415   1.776   6.147 -2.2929 -1.0639  0.1167
 8059SOL    HW235637   2.505   1.848   6.052 -0.6123  1.1405 -1.2478
 8060SOL     OW35638   4.605   1.343   4.080  0.3499  0.0474  0.0002
 8060SOL    HW135639   4.552   1.264   4.094  1.5961 -0.5156  1.4709
 8060SOL    HW235640   4.565   1.386   4.004 -0.1402 -1.4967 -0.6309
 8061SOL     OW35641   0.778   4.645   2.154 -0.5487 -0.3924  0.2749
 8061SOL    HW135642   0.851   4.584   2.167 -0.6528 -0.9526 -1.8090
 8061SOL    HW235643   0.711   4.607   2.211 -1.8214 -0.7241 -1.4287
 8062SOL     OW35644   4.566   1.653  14.954 -0.5530 -0.4560 -0.4525
 8062SOL    HW135645   4.613   1.641  15.037 -1.4291 -0.9448 -0.0248
 8062SOL    HW235646   4.553   1.748  14.950  1.4476 -0.1837 -0.6286
 8063SOL     OW35647   0.645   3.461  15.820 -0.3540 -0.5232 -0.3623
 8063SOL    HW135648   0.585   3.437  15.749 -1.0046 -1.3201  0.4519
 8063SOL    HW235649   0.677   3.545  15.788  2.3236 -1.6037 -0.4782
 8064SOL     OW35650   0.903   2.346   8.227  0.3373 -0.6395  0.1440
 8064SOL    HW135651   0.823   2.302   8.257 -1.0181  0.8588 -1.2836
 8064SOL    HW235652   0.858   2.410   8.172 -0.7053  0.3212  2.1439
 8065SOL     OW35653   4.135   0.156   9.121  0.1055  0.5311 -0.0566
 8065SOL    HW135654   4.204   0.092   9.102  0.5114  1.4459 -1.6920
 8065SOL    HW235655   4.138   0.172   9.215 -1.8242  1.5955 -0.1627
 8066SOL     OW35656   0.227   3.715   8.043 -0.7560 -0.4698 -0.1081
 8066SOL    HW135657   0.323   3.708   8.043 -0.8290 -1.3987  0.3646
 8066SOL    HW235658   0.203   3.798   8.001 -0.6658  0.5812  1.9453
 8067SOL     OW35659   0.295   3.585   7.105  0.8006  0.1877  0.0918
 8067SOL    HW135660   0.312   3.528   7.031 -0.9677 -0.2328  0.0109
 8067SOL    HW235661   0.366   3.649   7.095 -1.0500  2.3206  0.5767
 8068SOL     OW35662   1.251   3.790   2.433 -0.1050  0.0422 -0.2331
 8068SOL    HW135663   1.184   3.783   2.500 -0.3983  0.3048 -0.5004
 8068SOL    HW235664   1.278   3.699   2.422  1.3139  0.3717  0.4339
 8069SOL     OW35665   4.071   0.253   0.356  0.4104  0.1107 -0.4314
 8069SOL    HW135666   3.983   0.249   0.393  1.3464 -1.1725  1.6322
 8069SOL    HW235667   4.096   0.339   0.389 -4.4965  1.2623  0.3096
 8070SOL     OW35668   1.286   1.466   2.146 -0.1809  0.1541 -0.1195
 8070SOL    HW135669   1.225   1.447   2.075  0.1642 -1.2545 -0.0327
 8070SOL    HW235670   1.361   1.411   2.125  1.2733  1.2084  2.3366
 8071SOL     OW35671   0.829   0.309  12.008 -0.6034 -0.0144 -0.2357
 8071SOL    HW135672   0.752   0.251  12.012 -2.7097  2.7584 -0.8032
 8071SOL    HW235673   0.867   0.300  12.095 -2.0625  0.7537  0.4689
 8072SOL     OW35674   4.149   3.166  16.813  0.7524 -0.5455  0.1776
 8072SOL    HW135675   4.244   3.163  16.801  0.9610 -0.6923  1.7946
 8072SOL    HW235676   4.127   3.162  16.721  1.7270 -0.6683 -0.0542
 8073SOL     OW35677   1.785   1.884  14.725  0.3444  0.3577 -0.2426
 8073SOL    HW135678   1.875   1.874  14.694 -1.2481 -0.4689 -4.6140
 8073SOL    HW235679   1.793   1.849  14.814  2.4838  0.5135 -0.3606
 8074SOL     OW35680   3.954   0.497   7.858 -0.1801 -0.1444  0.2009
 8074SOL    HW135681   3.905   0.415   7.862  0.7110 -0.7993 -2.2776
 8074SOL    HW235682   4.029   0.471   7.806 -1.5034 -3.2080 -0.1697
 8075SOL     OW35683   3.988   3.036   5.694 -0.2457  0.0041  0.3761
 8075SOL    HW135684   3.953   3.055   5.607  1.1660 -0.4319 -0.2914
 8075SOL    HW235685   4.015   3.122   5.725 -0.1962 -0.0226  0.4071
 8076SOL     OW35686   2.336   0.683  14.017 -0.0475  0.2810  0.2431
 8076SOL    HW135687   2.262   0.670  13.957 -1.0898  2.8111  0.9733
 8076SOL    HW235688   2.392   0.744  13.968  1.6188 -1.8995 -0.5322
 8077SOL     OW35689   4.688   1.114  10.152  0.0199 -0.6924 -0.0597
 8077SOL    HW135690   4.615   1.109  10.215  1.0964 -0.5515  1.1977
 8077SOL    HW235691   4.677   1.203  10.118  2.3747 -0.2242  0.4525
 8078SOL     OW35692   3.614   2.728   6.915 -0.1775  0.4789 -0.2388
 8078SOL    HW135693   3.597   2.820   6.896 -1.6487  0.3555  0.5492
 8078SOL    HW235694   3.622   2.708   6.821 -0.9203 -0.7401 -0.0486
 8079SOL     OW35695   3.811   1.730  12.833  0.4950  0.0105  0.3734
 8079SOL    HW135696   3.891   1.770  12.867  1.0560  1.1939 -2.3172
 8079SOL    HW235697   3.783   1.670  12.902  0.5644  0.8097  1.0791
 8080SOL     OW35698   1.473   0.189   3.964  0.0907  0.0344  0.0674
 8080SOL    HW135699   1.563   0.175   3.992  0.9234  0.6628 -2.4068
 8080SOL    HW235700   1.481   0.279   3.935 -0.8739 -0.0281 -0.4009
 8081SOL     OW35701   1.224   3.526  10.204  0.0945  0.2094 -0.6776
 8081SOL    HW135702   1.230   3.612  10.246  1.8159  0.1597 -0.8333
 8081SOL    HW235703   1.283   3.469  10.253 -2.0087 -1.1927  0.2357
 8082SOL     OW35704   1.641   3.631   7.052  0.2550 -0.6670  0.3190
 8082SOL    HW135705   1.702   3.602   6.984 -0.6956  1.1395 -1.2988
 8082SOL    HW235706   1.610   3.552   7.095  1.9039 -1.5053 -0.0255
 8083SOL     OW35707   0.085   2.077   1.161  0.0608  0.0060  0.2865
 8083SOL    HW135708   0.054   2.007   1.103  0.9923 -1.3280  1.4093
 8083SOL    HW235709   0.160   2.112   1.113 -0.4977 -0.0138 -0.6128
 8084SOL     OW35710   0.325   2.071  11.292 -0.0554 -0.3577 -0.4800
 8084SOL    HW135711   0.259   2.109  11.350  0.5964  0.2369 -0.1365
 8084SOL    HW235712   0.302   2.109  11.207  0.4752 -2.7002 -1.6765
 8085SOL     OW35713   1.088   2.893   1.359  0.2920  0.6543  0.0300
 8085SOL    HW135714   1.178   2.922   1.351 -0.2670  2.3615 -0.0762
 8085SOL    HW235715   1.040   2.924   1.282 -0.2755 -0.9848 -0.2926
 8086SOL     OW35716   2.090   2.047   6.130 -0.1185 -0.2220  0.4120
 8086SOL    HW135717   2.153   2.116   6.154 -2.3472  1.0270  2.6414
 8086SOL    HW235718   2.146   1.995   6.072  1.4433  1.6241  0.2460
 8087SOL     OW35719   0.236   2.711   2.852  0.0428 -0.3238  0.3687
 8087SOL    HW135720   0.220   2.782   2.914 -0.0369  0.9332 -1.0845
 8087SOL    HW235721   0.288   2.766   2.792  1.0506 -0.2761  1.3071
 8088SOL     OW35722   2.264   2.377   3.300 -0.3268  0.3139  0.1677
 8088SOL    HW135723   2.260   2.349   3.209 -0.5866  1.3398 -0.1337
 8088SOL    HW235724   2.306   2.462   3.287 -2.3772  1.3111  0.1170
 8089SOL     OW35725   1.367   0.517   4.967 -0.0940  0.1652  0.0240
 8089SOL    HW135726   1.274   0.498   4.985  0.2049  0.1923  1.6433
 8089SOL    HW235727   1.389   0.536   5.059  2.2196 -1.3525 -0.2317
 8090SOL     OW35728   1.177   2.700   1.634 -0.2203 -0.1676  0.3998
 8090SOL    HW135729   1.179   2.779   1.579  0.6510  0.8137  1.8239
 8090SOL    HW235730   1.265   2.678   1.666 -0.1796  0.8477  0.9956
 8091SOL     OW35731   1.902   3.418   1.531  0.2391 -0.5602 -0.3721
 8091SOL    HW135732   1.914   3.490   1.468 -3.9164  0.5938  0.1826
 8091SOL    HW235733   1.977   3.433   1.589 -0.3703  1.5679 -0.1397
 8092SOL     OW35734   4.478   3.084   5.289 -0.1620  0.4430 -0.0631
 8092SOL    HW135735   4.504   3.137   5.365  0.9056  0.1790 -0.2465
 8092SOL    HW235736   4.526   3.004   5.309 -3.3950 -1.0705  1.6017
 8093SOL     OW35737   3.349   4.524   3.475 -0.1214 -0.0318 -0.4424
 8093SOL    HW135738   3.311   4.546   3.560 -0.5627  0.3993 -0.7516
 8093SOL    HW235739   3.439   4.505   3.503 -0.0336  1.0227  0.0162
 8094SOL     OW35740   4.231   2.891   7.647 -0.0925 -0.5267  0.3805
 8094SOL    HW135741   4.312   2.885   7.697  1.1530 -1.6928 -1.7799
 8094SOL    HW235742   4.186   2.967   7.683 -2.4970 -1.1635 -1.2961
 8095SOL     OW35743   3.045   4.205   3.979 -0.1288  0.5899  0.2519
 8095SOL    HW135744   3.075   4.256   4.054 -0.5269  0.1868  0.6815
 8095SOL    HW235745   2.978   4.262   3.941 -0.0268  0.5530  0.0121
 8096SOL     OW35746   2.349   4.398   4.358  0.1168  0.2189  0.2877
 8096SOL    HW135747   2.375   4.489   4.346  0.2565 -0.0442 -1.5567
 8096SOL    HW235748   2.437   4.360   4.351 -0.7000 -1.4078 -1.3806
 8097SOL     OW35749   2.713   2.524   0.766 -0.5130  0.0334  0.1031
 8097SOL    HW135750   2.744   2.456   0.706  0.7721  0.6473  0.0653
 8097SOL    HW235751   2.763   2.601   0.741 -0.3389  0.3767  1.4866
 8098SOL     OW35752   4.073   3.128  16.560 -0.4691 -1.4103 -0.4604
 8098SOL    HW135753   4.031   3.042  16.567 -1.3776 -0.9599 -0.3135
 8098SOL    HW235754   4.118   3.133  16.476 -0.7864  3.0345 -0.3946
 8099SOL     OW35755   2.290   3.250  15.776 -0.4047  0.2040  1.0749
 8099SOL    HW135756   2.343   3.282  15.849 -0.3772  0.1476  1.0798
 8099SOL    HW235757   2.354   3.274  15.709 -2.7575  2.3378 -0.4022
 8100SOL     OW35758   2.101   1.927  10.552 -0.0500  0.1872 -0.3696
 8100SOL    HW135759   2.079   1.961  10.639  1.1881  2.4879 -0.9601
 8100SOL    HW235760   2.182   1.884  10.578  1.7734  3.4740 -0.7185
 8101SOL     OW35761   2.064   3.775   8.314 -0.1317 -0.8164  0.0442
 8101SOL    HW135762   2.096   3.826   8.389 -0.9419 -1.2215  0.6622
 8101SOL    HW235763   2.008   3.710   8.355 -1.0083 -0.9156 -1.3078
 8102SOL     OW35764   4.372   2.664  15.042  0.3332  0.1949  0.0818
 8102SOL    HW135765   4.408   2.691  14.957 -1.1083  0.0772 -0.5703
 8102SOL    HW235766   4.342   2.573  15.045  0.3059  0.2072  0.1866
 8103SOL     OW35767   3.856   4.708  14.688  0.3683  0.0691 -0.0876
 8103SOL    HW135768   3.778   4.657  14.668 -0.8397  1.3936  1.2746
 8103SOL    HW235769   3.874   4.686  14.780  0.5200  0.5510 -0.0029
 8104SOL     OW35770   0.222   4.160   3.738 -0.2475  0.4617  0.1011
 8104SOL    HW135771   0.247   4.105   3.664  0.4303  1.8240 -0.6801
 8104SOL    HW235772   0.206   4.098   3.809 -0.9591  0.2715 -0.2228
 8105SOL     OW35773   3.158   0.322   4.711 -0.5087 -0.2380  0.3895
 8105SOL    HW135774   3.251   0.302   4.716 -0.3815 -0.4673 -2.6488
 8105SOL    HW235775   3.160   0.402   4.659 -0.6335 -0.1349  0.5426
 8106SOL     OW35776   2.737   2.064   3.422  0.3827  0.2840 -0.1497
 8106SOL    HW135777   2.647   2.055   3.453  0.9237 -1.1692  0.9935
 8106SOL    HW235778   2.759   2.156   3.411  1.9544  0.2509  2.7260
 8107SOL     OW35779   3.249   0.583   4.272 -0.6133  0.2340 -0.0630
 8107SOL    HW135780   3.254   0.655   4.209 -0.5683 -0.2207 -0.5703
 8107SOL    HW235781   3.340   0.554   4.266 -1.0676 -1.2933  0.4490
 8108SOL     OW35782   1.943   3.783   6.002  0.1037 -0.1182  0.0606
 8108SOL    HW135783   2.013   3.717   6.003  1.0694  0.9002  0.7274
 8108SOL    HW235784   1.919   3.785   6.095  0.3282 -0.3802  0.1270
 8109SOL     OW35785   4.429   0.121   7.922  0.4109 -0.2975 -0.2310
 8109SOL    HW135786   4.524   0.131   7.930  0.0895 -0.1339  3.7554
 8109SOL    HW235787   4.404   0.182   7.853  2.4675 -0.2244 -0.9118
 8110SOL     OW35788   1.831   0.621  16.492 -0.2480 -0.0438  0.9393
 8110SOL    HW135789   1.764   0.581  16.436  0.1259 -0.2246  0.6218
 8110SOL    HW235790   1.826   0.713  16.468 -3.0332 -0.6391 -0.8460
 8111SOL     OW35791   1.358   2.980   5.071 -0.1037  0.2402  0.9774
 8111SOL    HW135792   1.437   3.011   5.114  0.8130 -0.0854 -0.4679
 8111SOL    HW235793   1.346   3.054   5.012  3.2169  0.8249  1.0359
 8112SOL     OW35794   1.577   3.152   3.175  0.0157 -0.0047  0.1616
 8112SOL    HW135795   1.512   3.193   3.232 -0.5510  0.0520 -0.5209
 8112SOL    HW235796   1.539   3.065   3.163 -0.4698  0.1911  0.2897
 8113SOL     OW35797   3.021   1.971  12.006 -0.3371  0.1502 -0.3565
 8113SOL    HW135798   2.963   1.955  11.931  0.0380  1.9238 -1.0378
 8113SOL    HW235799   3.018   2.066  12.018 -1.9375  0.0107  0.2612
 8114SOL     OW35800   2.760   3.285   1.607  0.6003  0.3996  0.3250
 8114SOL    HW135801   2.696   3.339   1.562 -1.1034 -0.7209  1.3951
 8114SOL    HW235802   2.733   3.194   1.600 -0.3200  0.8329 -1.6804
 8115SOL     OW35803   1.763   0.575  10.832 -0.3536 -0.3988 -0.8771
 8115SOL    HW135804   1.681   0.535  10.803 -1.8125  2.0258 -0.1010
 8115SOL    HW235805   1.767   0.554  10.925  0.6128  1.4794 -0.5016
 8116SOL     OW35806   1.252   1.763   5.459 -0.3159 -0.1606  0.3009
 8116SOL    HW135807   1.341   1.735   5.439 -0.4801 -2.0188  2.2849
 8116SOL    HW235808   1.247   1.744   5.552  2.1845  2.0664  0.8956
 8117SOL     OW35809   4.203   4.167   6.131  0.0942 -0.0769  0.5177
 8117SOL    HW135810   4.266   4.100   6.104 -0.5693 -0.6823  0.4528
 8117SOL    HW235811   4.255   4.189   6.208  2.1433 -2.4668 -0.1427
 8118SOL     OW35812   2.830   1.139   2.750 -0.0777  0.0512 -0.1356
 8118SOL    HW135813   2.898   1.099   2.695  1.2928  0.8764  0.9568
 8118SOL    HW235814   2.859   1.230   2.758 -0.3790  0.2704 -1.4150
 8119SOL     OW35815   3.008   4.229   9.156  0.1610 -0.0554 -0.2091
 8119SOL    HW135816   3.048   4.286   9.223 -0.0654 -0.7828  0.5430
 8119SOL    HW235817   3.095   4.205   9.125  1.1185 -2.4213  4.2683
 8120SOL     OW35818   3.190   4.355   8.974  0.2896  0.5356  0.1710
 8120SOL    HW135819   3.268   4.320   8.932  1.6343  1.0849  2.2165
 8120SOL    HW235820   3.228   4.372   9.060 -1.4451  4.6461  0.1680
 8121SOL     OW35821   2.583   1.085   1.300  0.1319 -0.1331 -0.3263
 8121SOL    HW135822   2.657   1.132   1.337 -1.2326  1.6799  0.0895
 8121SOL    HW235823   2.549   1.035   1.375 -0.6635 -0.8903 -1.1821
 8122SOL     OW35824   0.612   2.021  15.207 -0.0490  0.5055 -0.5149
 8122SOL    HW135825   0.684   2.042  15.266 -0.5335 -0.0354  0.2584
 8122SOL    HW235826   0.655   1.975  15.135  1.5791  1.6707 -0.2749
 8123SOL     OW35827   4.149   0.870  10.727  0.1349  0.2753 -0.4976
 8123SOL    HW135828   4.085   0.876  10.798  0.6703  1.8571 -0.1550
 8123SOL    HW235829   4.231   0.891  10.773 -0.5228  2.1234 -0.1589
 8124SOL     OW35830   0.318   3.039   8.514  0.8451  0.1867 -0.2732
 8124SOL    HW135831   0.318   3.134   8.520 -1.8238  0.1250  0.6664
 8124SOL    HW235832   0.246   3.022   8.575  2.0470  1.4102  1.4881
 8125SOL     OW35833   0.044   1.095   1.735  0.1503 -0.1647 -0.0532
 8125SOL    HW135834   0.034   1.027   1.668 -0.7689 -0.7583  0.6925
 8125SOL    HW235835   4.701   1.157   1.706  0.8554 -0.4425 -2.2606
 8126SOL     OW35836   3.537   0.567   4.282 -0.4803  0.5627  0.2391
 8126SOL    HW135837   3.613   0.569   4.225 -2.1150 -1.7225 -2.0351
 8126SOL    HW235838   3.533   0.480   4.322  0.1079  0.5543  0.2788
 8127SOL     OW35839   3.449   3.073   1.032 -0.3092 -0.2479 -0.2313
 8127SOL    HW135840   3.418   2.987   1.059 -0.6906 -0.2756 -0.7497
 8127SOL    HW235841   3.543   3.074   1.051 -0.5961  1.7238  1.1189
 8128SOL     OW35842   3.690   1.999  15.168 -0.6860  0.5310  0.0255
 8128SOL    HW135843   3.753   1.931  15.191 -0.7432 -0.1175 -1.6866
 8128SOL    HW235844   3.734   2.071  15.213 -2.6947  1.3762  0.6705
 8129SOL     OW35845   1.259   2.161   1.722 -0.2754  0.2407  0.4463
 8129SOL    HW135846   1.326   2.140   1.787  0.8889 -2.9371 -1.7640
 8129SOL    HW235847   1.260   2.082   1.667 -2.3402  1.4268 -1.3004
 8130SOL     OW35848   1.902   1.496  12.247  0.0221 -0.2233 -0.5956
 8130SOL    HW135849   1.913   1.525  12.156  1.2698  1.9945  0.2392
 8130SOL    HW235850   1.944   1.411  12.239  0.6227 -0.0789  1.1670
 8131SOL     OW35851   4.097   3.089   2.896  0.0699 -0.0630  0.4521
 8131SOL    HW135852   4.142   3.151   2.953  1.8436  0.0301 -1.0564
 8131SOL    HW235853   4.017   3.141   2.887  0.2150 -0.1409 -1.3344
 8132SOL     OW35854   4.391   2.531   5.265 -0.1739 -0.5214 -0.2052
 8132SOL    HW135855   4.334   2.458   5.241  0.7789 -1.3870  0.1846
 8132SOL    HW235856   4.471   2.493   5.231  0.0415  0.2260 -0.5202
 8133SOL     OW35857   3.140   3.759   1.180 -0.7257  0.2247 -0.4664
 8133SOL    HW135858   3.164   3.712   1.100 -1.3747  0.1320 -0.6014
 8133SOL    HW235859   3.215   3.818   1.189  1.1776 -2.4418  1.6254
 8134SOL     OW35860   1.250   3.958   7.886  0.3905 -0.2155 -0.1031
 8134SOL    HW135861   1.338   3.974   7.854  0.1882 -0.1596 -0.6331
 8134SOL    HW235862   1.274   3.895   7.954  2.0618  2.1221  1.4703
 8135SOL     OW35863   1.716   2.216   4.418  0.0863 -0.3423  0.1035
 8135SOL    HW135864   1.707   2.146   4.354 -0.7380 -0.0546 -0.0911
 8135SOL    HW235865   1.664   2.181   4.490  2.6834 -0.1775  2.0888
 8136SOL     OW35866   0.062   2.745   5.975 -0.6436 -0.4117 -0.1131
 8136SOL    HW135867   0.117   2.749   5.896 -1.4341  1.2208 -0.5986
 8136SOL    HW235868   0.120   2.794   6.033 -0.3422 -0.9507  0.0394
 8137SOL     OW35869   3.392   1.401   7.457  0.1767 -0.3196  0.3122
 8137SOL    HW135870   3.389   1.496   7.469 -0.5227 -0.3487  0.3746
 8137SOL    HW235871   3.450   1.379   7.530  0.0568 -2.2721 -0.1955
 8138SOL     OW35872   1.581   3.543   0.839  0.7383 -0.4197  0.3446
 8138SOL    HW135873   1.640   3.492   0.782  0.6849  0.4112 -0.4648
 8138SOL    HW235874   1.541   3.606   0.779 -1.1482 -3.3736 -1.4761
 8139SOL     OW35875   1.576   2.059   1.411 -0.2034 -0.0588 -0.7694
 8139SOL    HW135876   1.646   2.117   1.381 -0.7590  1.6506  1.2661
 8139SOL    HW235877   1.507   2.123   1.395 -0.6244 -0.0663  0.9661
 8140SOL     OW35878   2.391   3.637   6.748 -0.2587 -0.3269 -0.0374
 8140SOL    HW135879   2.453   3.692   6.699  1.5542 -1.4349  1.0018
 8140SOL    HW235880   2.381   3.558   6.695  0.6793 -0.1911 -0.4365
 8141SOL     OW35881   2.968   1.379   4.684 -0.1198  0.2606 -0.0390
 8141SOL    HW135882   3.029   1.414   4.619  0.4118 -0.8633 -0.1465
 8141SOL    HW235883   2.884   1.368   4.639  0.6501  1.0091 -1.6511
 8142SOL     OW35884   3.041   3.335   9.821 -0.3557  0.0703  0.6395
 8142SOL    HW135885   2.994   3.411   9.854 -0.0588  2.0996 -3.5578
 8142SOL    HW235886   3.116   3.318   9.877 -0.5921  2.7335  1.7532
 8143SOL     OW35887   3.224   3.337   2.268 -0.4506  0.1034  0.2016
 8143SOL    HW135888   3.149   3.396   2.265 -0.3517  0.1927 -0.4589
 8143SOL    HW235889   3.240   3.315   2.360 -0.3661  2.4529  0.7498
 8144SOL     OW35890   2.069   1.024   6.926 -0.6561 -0.2293 -0.1917
 8144SOL    HW135891   2.092   0.944   6.880 -3.4073  0.2618 -2.3666
 8144SOL    HW235892   2.144   1.083   6.916 -0.4150 -0.4493  0.3070
 8145SOL     OW35893   3.384   1.942   3.954 -0.1205  0.0140 -0.2275
 8145SOL    HW135894   3.295   1.976   3.958 -0.8592 -2.0277  0.5397
 8145SOL    HW235895   3.381   1.888   4.032 -0.1716  0.5568  0.1478
 8146SOL     OW35896   4.056   1.647  14.774 -0.0289  0.8673  0.9575
 8146SOL    HW135897   4.119   1.625  14.843 -0.8238  0.7254  1.6465
 8146SOL    HW235898   3.979   1.628  14.828  0.1425  0.3928  1.0372
 8147SOL     OW35899   1.464   4.351  14.730  0.7299  0.1969 -0.2404
 8147SOL    HW135900   1.543   4.404  14.742 -1.0577  2.9455 -0.6345
 8147SOL    HW235901   1.390   4.411  14.720 -0.7491 -1.4872  0.5281
 8148SOL     OW35902   3.180   2.304   6.299 -0.3369  0.0320 -0.1111
 8148SOL    HW135903   3.196   2.336   6.210 -0.9735  1.0048  0.1323
 8148SOL    HW235904   3.264   2.260   6.312  0.3251  0.9416 -1.2789
 8149SOL     OW35905   1.612   3.939   4.570 -0.4120  0.3912  0.5193
 8149SOL    HW135906   1.547   3.999   4.533 -1.4898  0.0758  1.8598
 8149SOL    HW235907   1.603   3.864   4.511  1.6142 -1.1154  2.1155
 8150SOL     OW35908   0.625   3.352  17.412 -0.2098  0.3000 -0.0870
 8150SOL    HW135909   0.714   3.320  17.400 -0.6790 -0.2897 -2.0140
 8150SOL    HW235910   0.626   3.433  17.361  0.6838  0.8591  0.8140
 8151SOL     OW35911   4.288   1.714  14.017 -0.5328 -0.2330  0.3853
 8151SOL    HW135912   4.328   1.664  14.088 -0.6410 -1.9393 -0.7745
 8151SOL    HW235913   4.245   1.782  14.069  0.9437  0.9246  0.0974
 8152SOL     OW35914   2.040   1.625   8.388 -0.0479 -0.2711  0.3015
 8152SOL    HW135915   2.128   1.591   8.376  0.4835  0.0371  3.4687
 8152SOL    HW235916   2.002   1.563   8.450  1.3874 -1.3194  0.1195
 8153SOL     OW35917   1.642   0.064   5.741  0.3620 -0.5595 -0.4660
 8153SOL    HW135918   1.593   0.145   5.729 -1.1258 -1.3154  0.4838
 8153SOL    HW235919   1.587   0.006   5.689 -0.1427 -1.4739  1.0688
 8154SOL     OW35920   1.735   1.473   7.954  0.5004  0.1290  0.2879
 8154SOL    HW135921   1.776   1.512   7.877 -0.0346  0.9467  0.4079
 8154SOL    HW235922   1.696   1.398   7.910  0.3788 -0.1620  0.8950
 8155SOL     OW35923   2.027   4.199  11.711 -0.6048  0.0106 -0.0388
 8155SOL    HW135924   2.102   4.227  11.657 -1.8693 -0.1822 -1.8895
 8155SOL    HW235925   2.033   4.279  11.762 -1.8276 -0.4092  0.7565
 8156SOL     OW35926   2.398   0.925   6.300 -0.4300  0.2752  0.0730
 8156SOL    HW135927   2.402   0.854   6.237 -0.5379  1.4260 -1.2413
 8156SOL    HW235928   2.477   0.902   6.349 -0.7077 -3.2792 -1.1886
 8157SOL     OW35929   0.553   2.699  17.161 -0.3692  0.3637 -0.2045
 8157SOL    HW135930   0.458   2.710  17.171 -0.9041 -2.1486 -2.8495
 8157SOL    HW235931   0.587   2.776  17.206  0.0967  1.7903 -3.0092
 8158SOL     OW35932   0.792   0.212   2.646  0.0699  0.2974 -0.4190
 8158SOL    HW135933   0.789   0.159   2.566  0.9707  0.0954 -0.3179
 8158SOL    HW235934   0.767   0.302   2.626 -1.4717 -0.3277 -1.3055
 8159SOL     OW35935   4.271   0.725  11.086  0.1580 -0.3014 -0.0248
 8159SOL    HW135936   4.284   0.778  11.007  0.1277  0.0354  0.1965
 8159SOL    HW235937   4.264   0.797  11.148 -0.0623 -0.3304 -0.0127
 8160SOL     OW35938   2.763   1.659   8.577  0.0037  0.2336 -0.1204
 8160SOL    HW135939   2.801   1.633   8.660 -1.0674  0.0103  0.2947
 8160SOL    HW235940   2.694   1.721   8.601 -0.5846  0.5308 -2.4949
 8161SOL     OW35941   0.671   2.756   4.478 -0.2326 -0.2889  0.3092
 8161SOL    HW135942   0.584   2.776   4.443  0.5187  2.1049 -0.2069
 8161SOL    HW235943   0.669   2.661   4.487 -1.5056 -0.1019  1.8498
 8162SOL     OW35944   0.972   2.027   4.243 -0.9412  1.1453  0.3342
 8162SOL    HW135945   1.039   1.989   4.186 -1.9682  1.5831 -1.1651
 8162SOL    HW235946   0.935   2.098   4.191  1.0571  0.2059 -2.3596
 8163SOL     OW35947   0.559   0.481   3.045 -0.6426 -0.8034 -0.2506
 8163SOL    HW135948   0.560   0.575   3.028 -0.2236 -0.7350  0.1468
 8163SOL    HW235949   0.608   0.472   3.127 -2.8978  0.7290  1.2594
 8164SOL     OW35950   2.693   0.764   7.483  0.3727 -0.3123 -0.0827
 8164SOL    HW135951   2.781   0.729   7.491  0.5161  1.0480  3.9658
 8164SOL    HW235952   2.711   0.805   7.398 -1.5074 -1.9207 -1.2772
 8165SOL     OW35953   1.632   2.417   3.596  0.0178 -0.0201 -0.1058
 8165SOL    HW135954   1.595   2.468   3.668 -0.6447 -0.2154 -0.3032
 8165SOL    HW235955   1.677   2.352   3.649 -0.0763  0.8357  1.0026
 8166SOL     OW35956   1.955   1.447   8.569  0.4292 -0.0796  0.2324
 8166SOL    HW135957   1.964   1.485   8.657  0.4034  0.6628 -0.0868
 8166SOL    HW235958   1.876   1.395   8.586  0.3597 -0.4810 -1.4162
 8167SOL     OW35959   2.917   2.150   0.274 -0.6365 -0.1601 -0.2730
 8167SOL    HW135960   3.006   2.150   0.240 -0.8324 -0.9462 -0.7788
 8167SOL    HW235961   2.928   2.080   0.339  1.1837 -0.0957 -0.4954
 8168SOL     OW35962   3.683   3.010   3.547  0.3375  0.4889 -0.6155
 8168SOL    HW135963   3.746   2.948   3.509  0.9617 -0.8156  2.5150
 8168SOL    HW235964   3.694   3.001   3.642  2.4081 -1.8312 -1.0703
 8169SOL     OW35965   4.421   1.925   9.380  0.7668 -0.0237 -0.1195
 8169SOL    HW135966   4.381   1.841   9.403  0.0376 -0.3062 -2.3620
 8169SOL    HW235967   4.359   1.983   9.423  1.2059 -0.9303  1.7455
 8170SOL     OW35968   1.138   4.015   8.255  0.2973  0.5296 -0.6268
 8170SOL    HW135969   1.198   3.956   8.208 -0.3698 -1.4348  0.9725
 8170SOL    HW235970   1.125   3.966   8.336  0.9172  2.9293  0.9028
 8171SOL     OW35971   0.444   3.057   6.007 -0.0657  0.2301  0.0079
 8171SOL    HW135972   0.368   3.112   5.988 -1.4365 -1.9627 -0.7995
 8171SOL    HW235973   0.446   2.996   5.933 -0.9224  1.4552 -1.0403
 8172SOL     OW35974   0.966   1.087   5.388  0.3662 -0.1300  0.0813
 8172SOL    HW135975   0.959   1.086   5.483 -1.2997  0.7357 -0.0356
 8172SOL    HW235976   0.887   1.132   5.360  1.7555  2.8542  0.9011
 8173SOL     OW35977   2.009   2.911   4.392 -0.1408  0.3382  0.4245
 8173SOL    HW135978   2.083   2.891   4.449 -2.3457 -1.7603  2.5426
 8173SOL    HW235979   1.999   2.838   4.332 -2.3525 -1.1509  2.5758
 8174SOL     OW35980   1.742   2.908   1.775 -0.0036 -0.1693 -0.9240
 8174SOL    HW135981   1.821   2.857   1.794 -1.3653 -0.8809  2.9761
 8174SOL    HW235982   1.681   2.839   1.749  0.2400 -0.1708 -1.4701
 8175SOL     OW35983   4.117   0.794  13.742  0.4948 -0.5871  0.4030
 8175SOL    HW135984   4.123   0.713  13.691 -0.9836  0.0703 -0.8242
 8175SOL    HW235985   4.133   0.856  13.671 -0.4329 -0.3445  0.3971
 8176SOL     OW35986   0.524   4.582   3.310 -0.1954 -0.1751 -0.6837
 8176SOL    HW135987   0.439   4.626   3.315 -0.7000 -1.0382 -1.8034
 8176SOL    HW235988   0.540   4.569   3.403  0.3543  0.2912 -0.7107
 8177SOL     OW35989   4.648   0.538   9.959  0.4022  0.6930 -0.1928
 8177SOL    HW135990   4.722   0.519   9.901 -0.9523  1.6061 -2.1927
 8177SOL    HW235991   4.662   0.491  10.041  1.7923  1.4189 -0.0181
 8178SOL     OW35992   3.654   1.105   7.602  0.4356  0.1839  0.0310
 8178SOL    HW135993   3.613   1.174   7.655  2.7010  2.1774 -0.7850
 8178SOL    HW235994   3.647   1.028   7.658 -1.0765  0.3461  0.0669
 8179SOL     OW35995   3.493   0.691   8.847 -0.5317  0.0200 -0.7446
 8179SOL    HW135996   3.404   0.709   8.877  0.0757 -0.6378  1.4568
 8179SOL    HW235997   3.513   0.612   8.898  2.2282 -0.9328 -3.3286
 8180SOL     OW35998   2.734   1.399   5.722  0.6677 -0.2838 -0.4591
 8180SOL    HW135999   2.817   1.362   5.691  1.6322 -0.1236  1.9708
 8180SOL    HW236000   2.751   1.393   5.816 -0.3127 -1.2839 -0.3377
 8181SOL     OW36001   0.341   4.469  17.295  0.1107 -0.3390  0.0101
 8181SOL    HW136002   0.386   4.388  17.322  1.3528  0.9184  1.7050
 8181SOL    HW236003   0.249   4.441  17.292 -0.6004  1.8402  1.0682
 8182SOL     OW36004   2.055   2.883   5.632  0.2084  0.1298  0.4742
 8182SOL    HW136005   2.012   2.966   5.611 -3.0172 -1.5523  0.3624
 8182SOL    HW236006   2.032   2.830   5.556  0.7259  0.1757  0.2898
 8183SOL     OW36007   2.361   3.149   7.912  0.4502  0.1826 -0.0016
 8183SOL    HW136008   2.454   3.138   7.896  0.8364  0.4230  2.0777
 8183SOL    HW236009   2.357   3.134   8.007  1.3112  2.3237  0.3656
 8184SOL     OW36010   4.099   4.091   3.052 -0.5996  0.0215 -0.2525
 8184SOL    HW136011   4.088   4.070   3.145 -0.8905 -0.2092 -0.3376
 8184SOL    HW236012   4.147   4.013   3.025 -0.2190 -0.2403  1.1618
 8185SOL     OW36013   3.426   2.986   6.438 -0.3226 -0.0558  0.2256
 8185SOL    HW136014   3.408   3.008   6.346 -0.5709  0.6377  0.4419
 8185SOL    HW236015   3.430   3.071   6.482 -1.2471  0.2100 -0.2093
 8186SOL     OW36016   1.066   2.984   2.220 -0.5702  0.1202  0.4845
 8186SOL    HW136017   1.081   2.916   2.155  0.6561  0.6511  0.2093
 8186SOL    HW236018   1.140   2.961   2.276  0.6283  1.1040 -0.6635
 8187SOL     OW36019   0.788   2.237  16.727 -0.3322  0.0325  0.8167
 8187SOL    HW136020   0.782   2.223  16.822  0.9603 -0.4625  0.8317
 8187SOL    HW236021   0.884   2.241  16.725 -0.3732  0.7520  0.5747
 8188SOL     OW36022   0.498   1.067   2.595  0.2273  0.1057 -0.5582
 8188SOL    HW136023   0.414   1.022   2.586  0.0952 -0.1579  1.9286
 8188SOL    HW236024   0.484   1.128   2.668 -0.2939 -0.3940 -0.2297
 8189SOL     OW36025   4.361   2.563  15.439  0.0432 -0.1889  0.2525
 8189SOL    HW136026   4.367   2.643  15.491  1.1392 -0.8489  1.1136
 8189SOL    HW236027   4.281   2.592  15.393  1.4718  1.9122 -0.9082
 8190SOL     OW36028   2.532   4.045   1.123  0.3047 -0.2357  0.1557
 8190SOL    HW136029   2.600   3.983   1.149  1.7782  0.9622 -0.8305
 8190SOL    HW236030   2.484   3.996   1.057 -0.7535 -0.0102  0.7601
 8191SOL     OW36031   0.146   0.164   6.766  0.2537 -0.0793 -0.1653
 8191SOL    HW136032   0.240   0.171   6.784  0.3664 -2.1137 -0.0335
 8191SOL    HW236033   0.112   0.118   6.842 -1.0415 -0.4363 -0.9667
 8192SOL     OW36034   3.073   0.660  16.549 -0.4726  0.1801  0.4367
 8192SOL    HW136035   3.121   0.713  16.614  0.3667  1.3305 -1.1130
 8192SOL    HW236036   2.999   0.630  16.601  0.3741 -1.3973  0.7381
 8193SOL     OW36037   1.348   1.187  12.062  0.0217  0.5039 -0.5250
 8193SOL    HW136038   1.299   1.155  12.137 -0.2935 -1.2380 -1.4734
 8193SOL    HW236039   1.361   1.101  12.021  2.8176  0.2746  0.7996
 8194SOL     OW36040   2.541   4.053   7.723 -0.2606 -0.6087 -0.1881
 8194SOL    HW136041   2.583   4.068   7.807 -1.8587  3.6443 -0.0957
 8194SOL    HW236042   2.459   4.015   7.754 -1.1537 -0.1304 -1.9445
 8195SOL     OW36043   1.217   0.824   9.427  0.4131 -0.3694  0.1906
 8195SOL    HW136044   1.263   0.907   9.415 -2.3845  1.4160  1.7995
 8195SOL    HW236045   1.158   0.858   9.494  1.4500 -0.3660  1.1048
 8196SOL     OW36046   2.970   4.311  10.219  0.3694 -0.3951 -0.0068
 8196SOL    HW136047   2.877   4.297  10.201  0.8561 -1.1396 -1.9875
 8196SOL    HW236048   2.968   4.327  10.313  1.7637 -0.6521  0.0779
 8197SOL     OW36049   4.541   2.415   2.768  0.0707  0.2905  0.4569
 8197SOL    HW136050   4.589   2.496   2.750  1.8570 -0.9514 -0.3205
 8197SOL    HW236051   4.503   2.394   2.682  1.0390 -0.8921  0.3262
 8198SOL     OW36052   3.698   0.152   9.383  0.2805  0.0973 -0.0156
 8198SOL    HW136053   3.724   0.202   9.460  1.3337 -0.2082 -0.1809
 8198SOL    HW236054   3.651   0.076   9.418 -3.1217  1.8035 -0.8735
 8199SOL     OW36055   1.145   2.864   1.925 -0.1205 -0.0235  0.2223
 8199SOL    HW136056   1.226   2.840   1.970  0.9496  1.5636 -0.8240
 8199SOL    HW236057   1.174   2.949   1.890  2.0360 -0.7561  0.1985
 8200SOL     OW36058   3.903   1.044  13.213 -0.6235  0.4530  0.5119
 8200SOL    HW136059   3.860   0.975  13.162 -0.7161  0.2050  0.9285
 8200SOL    HW236060   3.832   1.084  13.264 -0.7676  0.5020  0.2747
 8201SOL     OW36061   0.489   3.384  15.579 -0.2643  0.2214 -0.0134
 8201SOL    HW136062   0.500   3.442  15.504  0.1727  1.0104  0.6469
 8201SOL    HW236063   0.503   3.296  15.546 -2.6615  0.5866 -1.9955
 8202SOL     OW36064   0.155   4.607   0.251  0.0816 -0.4186 -0.4640
 8202SOL    HW136065   0.234   4.641   0.208  0.5160  0.2085  0.8351
 8202SOL    HW236066   0.187   4.577   0.336 -0.2371  2.1917  0.5869
 8203SOL     OW36067   2.125   3.899   2.599 -0.2382  0.1274  0.3619
 8203SOL    HW136068   2.034   3.925   2.584  0.5329  0.9974 -2.8765
 8203SOL    HW236069   2.123   3.838   2.673  1.8034  1.4163  1.4639
 8204SOL     OW36070   4.184   0.677   0.395  0.3831 -0.3538  0.1882
 8204SOL    HW136071   4.161   0.608   0.458 -0.5303 -1.3600 -1.2374
 8204SOL    HW236072   4.196   0.624   0.316  1.2842 -0.4683  0.4045
 8205SOL     OW36073   0.785   3.539   3.089 -0.0084 -0.0800  0.1207
 8205SOL    HW136074   0.727   3.497   3.027 -0.2812  1.1539 -0.4620
 8205SOL    HW236075   0.787   3.470   3.156  1.2808 -0.5057 -0.3585
 8206SOL     OW36076   4.175   1.432  13.028  0.0075  0.2177 -0.0232
 8206SOL    HW136077   4.152   1.345  12.993  1.2710 -0.5633  1.1068
 8206SOL    HW236078   4.217   1.411  13.111  0.3347  1.3516  0.0884
 8207SOL     OW36079   2.437   1.829  12.454 -0.1370  0.2410  0.4584
 8207SOL    HW136080   2.451   1.924  12.460  0.6776  0.1147  0.4739
 8207SOL    HW236081   2.361   1.831  12.396 -1.2887 -2.5670  1.8710
 8208SOL     OW36082   0.705   2.343   0.991 -0.4659  0.7272  0.6362
 8208SOL    HW136083   0.752   2.426   0.988 -0.6610  0.8474  0.9273
 8208SOL    HW236084   0.703   2.332   1.086 -0.4386 -0.4285  0.5107
 8209SOL     OW36085   0.717   3.809   6.944  0.2280 -0.4431 -0.0124
 8209SOL    HW136086   0.790   3.833   6.888  0.6178 -0.8641  0.3090
 8209SOL    HW236087   0.748   3.721   6.966 -0.5723 -0.7248 -0.0063
 8210SOL     OW36088   0.794   4.088   5.680  0.1759 -0.1192 -0.4501
 8210SOL    HW136089   0.782   4.052   5.593 -1.8183  0.1875 -0.3150
 8210SOL    HW236090   0.706   4.073   5.714  0.4676 -2.4819 -0.7541
 8211SOL     OW36091   4.663   0.096   3.683 -0.3172  0.2824 -0.3619
 8211SOL    HW136092   4.707   0.180   3.698 -1.6285  0.6232  1.6528
 8211SOL    HW236093   4.696   0.088   3.594 -0.5190  1.9067 -0.5858
 8212SOL     OW36094   2.482   0.086   1.221  0.0201 -0.1984 -0.2737
 8212SOL    HW136095   2.389   0.071   1.202  0.0910 -1.3385  0.2938
 8212SOL    HW236096   2.502   0.002   1.262  2.3974  0.4638 -0.0661
 8213SOL     OW36097   2.166   3.181  15.545  0.0312 -0.4938  0.4635
 8213SOL    HW136098   2.124   3.267  15.557  1.8088  0.3403  0.7068
 8213SOL    HW236099   2.215   3.185  15.627 -1.8380 -0.6347  1.5856
 8214SOL     OW36100   2.989   4.601   8.994 -0.1261  0.0378  0.2725
 8214SOL    HW136101   3.059   4.540   8.971 -0.1135  0.4148 -0.6917
 8214SOL    HW236102   2.916   4.542   8.972 -0.5349  0.7116 -0.1820
 8215SOL     OW36103   1.844   3.800   9.349 -0.5147  0.1917 -0.1625
 8215SOL    HW136104   1.765   3.835   9.308 -0.0827 -0.4792 -1.5757
 8215SOL    HW236105   1.814   3.785   9.438 -0.0748 -0.1261 -0.0693
 8216SOL     OW36106   2.934   3.440   8.321 -0.2823  0.2798 -0.1886
 8216SOL    HW136107   2.934   3.521   8.372 -1.6770 -0.5550  1.1219
 8216SOL    HW236108   3.017   3.400   8.347 -1.0696 -1.0917  0.2567
 8217SOL     OW36109   4.305   4.288  11.868 -0.0079  0.0059 -0.1367
 8217SOL    HW136110   4.351   4.224  11.813 -0.6381 -1.7132  1.3187
 8217SOL    HW236111   4.217   4.249  11.864 -0.3561  0.7439  0.4740
 8218SOL     OW36112   3.782   4.054   5.204  0.2579 -0.0538  0.2791
 8218SOL    HW136113   3.756   3.993   5.135  2.0611  1.4198 -1.7090
 8218SOL    HW236114   3.699   4.056   5.252  1.0118  0.9324  1.5631
 8219SOL     OW36115   2.149   1.577   1.218  0.2036  0.2516 -0.0015
 8219SOL    HW136116   2.147   1.657   1.165  1.9762 -1.1071 -2.1396
 8219SOL    HW236117   2.186   1.602   1.303  0.4679 -0.8533  0.2012
 8220SOL     OW36118   4.233   2.516   2.760 -0.6119  0.3839  0.1755
 8220SOL    HW136119   4.218   2.567   2.680 -0.0333  0.5901  0.1930
 8220SOL    HW236120   4.267   2.441   2.711 -1.4760  0.8999 -1.2250
 8221SOL     OW36121   4.430   0.209   9.314  0.0451  0.0337  0.3909
 8221SOL    HW136122   4.417   0.131   9.260  0.7231 -1.6098  2.5772
 8221SOL    HW236123   4.342   0.244   9.329  0.0166 -0.3280  1.0857
 8222SOL     OW36124   1.490   4.070   0.649 -0.0256 -0.3843  0.2736
 8222SOL    HW136125   1.578   4.096   0.677 -0.5822  0.8920  0.8322
 8222SOL    HW236126   1.509   3.977   0.643 -0.0109 -0.3887  0.3885
 8223SOL     OW36127   2.458   3.245  16.575  0.6923 -0.5696  0.2641
 8223SOL    HW136128   2.373   3.248  16.619  0.9314 -0.9088  0.7508
 8223SOL    HW236129   2.510   3.188  16.631  1.5986 -0.6799 -0.6900
 8224SOL     OW36130   1.688   0.945   1.613  0.2271  0.1163 -0.0350
 8224SOL    HW136131   1.710   0.874   1.674  0.4536 -1.5121 -2.0271
 8224SOL    HW236132   1.619   0.995   1.655 -1.8332 -2.2168 -0.6531
 8225SOL     OW36133   0.547   0.941   8.304  0.1814  0.7212  0.7212
 8225SOL    HW136134   0.593   0.858   8.295 -1.3140  0.0043 -0.3464
 8225SOL    HW236135   0.521   0.941   8.396  0.5109  0.9598  0.8122
 8226SOL     OW36136   0.072   1.507   4.823 -0.2094 -0.2207 -0.0428
 8226SOL    HW136137   4.711   1.548   4.842  0.3776  0.6827  0.6351
 8226SOL    HW236138   0.117   1.585   4.790  0.3052 -0.7438 -0.5665
 8227SOL     OW36139   0.038   3.819   0.461 -0.4819  0.4602  0.1641
 8227SOL    HW136140   0.029   3.737   0.411 -4.3925  0.7489  0.4097
 8227SOL    HW236141   0.113   3.793   0.514  0.4870  0.8912 -0.9951
 8228SOL     OW36142   2.276   1.765  10.975 -0.1623 -0.4299  0.2375
 8228SOL    HW136143   2.271   1.770  11.070 -1.4017 -2.6343  0.2769
 8228SOL    HW236144   2.365   1.731  10.969 -0.4635 -1.2458  0.5021
 8229SOL     OW36145   1.194   0.536  16.893 -0.3523 -0.0507  0.0019
 8229SOL    HW136146   1.223   0.565  16.979 -0.2961  1.9439 -0.7040
 8229SOL    HW236147   1.194   0.440  16.890  0.6582 -0.0045 -1.1531
 8230SOL     OW36148   2.658   3.809   9.292 -0.3858 -0.2602  0.4614
 8230SOL    HW136149   2.741   3.778   9.255  0.2468  1.5431  0.4017
 8230SOL    HW236150   2.676   3.901   9.312  1.3655 -0.4588 -0.1784
 8231SOL     OW36151   3.456   0.331   9.517  0.2056  0.1008 -0.0918
 8231SOL    HW136152   3.411   0.403   9.562 -1.1222  0.3504 -1.8350
 8231SOL    HW236153   3.505   0.303   9.595 -1.3488 -0.5659  0.6264
 8232SOL     OW36154   1.663   2.930  14.993  0.0751 -0.0429 -0.2968
 8232SOL    HW136155   1.621   2.884  15.065  1.0189 -1.9594 -0.9604
 8232SOL    HW236156   1.741   2.874  14.994  0.6400  0.7672  0.6502
 8233SOL     OW36157   3.399   4.094   8.234  0.2034 -0.9259 -0.2555
 8233SOL    HW136158   3.367   4.184   8.235 -0.1703 -1.0636  1.2215
 8233SOL    HW236159   3.490   4.117   8.250 -0.5704  2.3334 -0.5282
 8234SOL     OW36160   4.350   1.547   7.890 -0.0747  0.1220  0.9081
 8234SOL    HW136161   4.300   1.590   7.959 -0.0283 -1.0874  1.6836
 8234SOL    HW236162   4.329   1.606   7.817 -1.5459 -0.6752  0.7018
 8235SOL     OW36163   3.888   2.017   3.351  0.4826  0.3297 -0.2203
 8235SOL    HW136164   3.880   2.092   3.410  2.6917 -0.1333  0.6583
 8235SOL    HW236165   3.817   1.958   3.376  0.8930 -0.7165 -1.5573
 8236SOL     OW36166   2.917   4.697  10.819  0.1381  0.0837  0.0110
 8236SOL    HW136167   2.968   0.054  10.812  3.2364 -1.6936  1.7758
 8236SOL    HW236168   2.987   4.632  10.810 -1.4594 -1.9097  2.0400
 8237SOL     OW36169   1.700   2.994   6.173  0.5753 -0.0983  0.2147
 8237SOL    HW136170   1.633   3.010   6.239 -1.4616 -0.9691 -1.6212
 8237SOL    HW236171   1.735   3.082   6.166 -1.3780  0.5967 -0.8131
 8238SOL     OW36172   3.493   1.177   4.506 -0.0970 -0.0416  0.2836
 8238SOL    HW136173   3.535   1.096   4.536  1.0071  0.1941 -0.6174
 8238SOL    HW236174   3.524   1.189   4.417 -0.3468 -0.2005  0.1741
 8239SOL     OW36175   4.493   2.344   1.147 -0.2273 -0.2862  0.1769
 8239SOL    HW136176   4.401   2.347   1.174 -0.9188 -1.3705 -2.0737
 8239SOL    HW236177   4.508   2.438   1.140 -2.4907 -0.0220 -1.0963
 8240SOL     OW36178   4.280   1.741   5.618  0.2168  0.2009  0.3700
 8240SOL    HW136179   4.226   1.807   5.661  0.2715 -0.5958  1.6730
 8240SOL    HW236180   4.224   1.722   5.543  1.4360 -0.1928 -0.4429
 8241SOL     OW36181   0.597   0.114   9.453 -0.3086 -0.7874 -0.4514
 8241SOL    HW136182   0.513   0.156   9.434 -1.1000 -2.1830 -0.0470
 8241SOL    HW236183   0.640   0.111   9.367 -2.9407  0.0780 -1.8163
 8242SOL     OW36184   2.068   1.923   2.884 -0.5789  0.6871  0.3332
 8242SOL    HW136185   2.135   1.855   2.874  0.5469  1.9152 -0.4303
 8242SOL    HW236186   2.009   1.878   2.944 -0.7340  0.7178  0.2027
 8243SOL     OW36187   0.859   1.918   2.886  0.0372  0.1057 -0.5508
 8243SOL    HW136188   0.890   1.861   2.815 -0.1878 -0.5693 -0.1106
 8243SOL    HW236189   0.937   1.934   2.938 -1.1837  0.1987  1.2413
 8244SOL     OW36190   0.112   2.770   2.453 -0.1585  0.7699 -0.0521
 8244SOL    HW136191   0.137   2.842   2.396 -0.1777  0.2735 -0.6956
 8244SOL    HW236192   0.024   2.751   2.421 -0.6325  1.0874  1.0817
 8245SOL     OW36193   1.384   4.597   9.135  0.0610  0.0256 -0.1649
 8245SOL    HW136194   1.406   4.664   9.200 -0.6309 -0.4644  0.5858
 8245SOL    HW236195   1.403   4.514   9.179  2.1390  0.5162 -0.1404
 8246SOL     OW36196   1.380   2.561  12.625 -0.3215  0.0747  0.6003
 8246SOL    HW136197   1.311   2.513  12.579  0.0033  1.5555 -1.4026
 8246SOL    HW236198   1.342   2.563  12.713  0.3383 -1.2427  0.9184
 8247SOL     OW36199   4.429   3.435   9.560 -0.0847  0.0523 -0.4182
 8247SOL    HW136200   4.509   3.390   9.588 -0.5404  1.0190  2.4862
 8247SOL    HW236201   4.391   3.460   9.644  0.7383 -2.2742  0.6417
 8248SOL     OW36202   3.800   1.093   5.558 -0.0300  0.0242  0.2436
 8248SOL    HW136203   3.718   1.044   5.552 -0.0069  0.2191 -1.6667
 8248SOL    HW236204   3.768   1.183   5.567  0.0275 -0.0453  1.1486
 8249SOL     OW36205   3.506   0.634  15.516 -0.4399 -0.1873  0.2367
 8249SOL    HW136206   3.412   0.617  15.518 -0.5426  0.2623 -0.8242
 8249SOL    HW236207   3.526   0.655  15.425 -0.7811  2.1077  0.6750
 8250SOL     OW36208   1.865   1.542  16.985  0.2953 -0.0729  0.4705
 8250SOL    HW136209   1.878   1.499  16.900 -1.0494  0.2423  0.1068
 8250SOL    HW236210   1.774   1.571  16.984  0.8761  1.7821  0.9201
 8251SOL     OW36211   2.874   1.056   3.036  0.1312  0.4765 -0.1597
 8251SOL    HW136212   2.856   1.149   3.027 -0.2021  0.5776  1.4540
 8251SOL    HW236213   2.922   1.031   2.957  0.8979  2.1166 -0.2079
 8252SOL     OW36214   0.676   1.471   5.516  0.2142  0.3238  0.3675
 8252SOL    HW136215   0.678   1.516   5.600  0.2884 -0.5852  0.8501
 8252SOL    HW236216   0.682   1.380   5.544  0.5440  0.8519  2.0232
 8253SOL     OW36217   1.973   4.278  15.539 -0.4228  0.6771  0.0567
 8253SOL    HW136218   2.035   4.222  15.586 -1.0971 -0.3864 -0.3428
 8253SOL    HW236219   2.010   4.259  15.453  3.1778  2.7625  1.1088
 8254SOL     OW36220   0.873   1.464  12.208 -0.0521  0.1913  0.0923
 8254SOL    HW136221   0.840   1.504  12.127 -0.2078  0.5440  0.3309
 8254SOL    HW236222   0.904   1.376  12.187 -1.2209 -0.5188  1.3603
 8255SOL     OW36223   2.725   2.000   6.801  0.0082  0.3688 -0.2921
 8255SOL    HW136224   2.724   2.045   6.885  0.7816 -1.6540  0.7974
 8255SOL    HW236225   2.764   2.063   6.739 -0.9356  0.7035 -0.5486
 8256SOL     OW36226   1.757   3.311   5.449  0.2656  0.5522  0.0785
 8256SOL    HW136227   1.667   3.291   5.477  1.4798 -0.7359  3.0688
 8256SOL    HW236228   1.766   3.390   5.502  0.0299 -0.4582  1.6322
 8257SOL     OW36229   3.851   3.514   6.494 -0.1732  0.0274 -0.1699
 8257SOL    HW136230   3.923   3.477   6.545  0.3392  1.6004  0.2477
 8257SOL    HW236231   3.878   3.505   6.402 -1.3035 -0.1353 -0.4810
 8258SOL     OW36232   4.621   2.428   3.852  0.1230 -0.1141 -0.3876
 8258SOL    HW136233   4.564   2.420   3.929 -1.4713 -0.6717 -1.6344
 8258SOL    HW236234   4.701   2.426   3.905  0.2768  1.2158 -0.5847
 8259SOL     OW36235   1.958   0.866  16.196 -0.1552  0.0169 -0.2857
 8259SOL    HW136236   2.004   0.849  16.114  0.7396  1.0913  0.0010
 8259SOL    HW236237   2.006   0.805  16.252 -1.4080 -0.0491  0.7236
 8260SOL     OW36238   0.949   3.014  15.387 -1.0095 -0.1870 -0.5540
 8260SOL    HW136239   0.972   3.099  15.349  0.3990 -1.8031 -3.3281
 8260SOL    HW236240   0.998   3.024  15.468 -0.3688  1.8082 -1.1939
 8261SOL     OW36241   0.471   4.649   7.044 -0.1136 -0.3497  0.0502
 8261SOL    HW136242   0.459   4.591   6.969 -0.3545 -2.5632  1.8023
 8261SOL    HW236243   0.522   4.593   7.102 -3.5981 -2.1330  1.3927
 8262SOL     OW36244   2.091   1.764   5.651  0.0035  0.0174 -0.3594
 8262SOL    HW136245   2.140   1.835   5.692  2.5742 -1.2544 -1.2963
 8262SOL    HW236246   2.109   1.771   5.558 -0.7936  0.8515 -0.4534
 8263SOL     OW36247   4.474   1.620   5.204 -0.3479 -0.2317  0.1455
 8263SOL    HW136248   4.437   1.537   5.235  0.9078 -0.3703  1.2770
 8263SOL    HW236249   4.560   1.619   5.245  0.6407  0.2240 -1.9234
 8264SOL     OW36250   2.274   0.452  13.235  0.2640 -0.7296 -0.0180
 8264SOL    HW136251   2.320   0.497  13.306  0.5060  1.0510 -1.2980
 8264SOL    HW236252   2.344   0.418  13.179  0.7350 -2.4837  1.6572
 8265SOL     OW36253   1.934   2.102  10.720  0.2011  0.0133 -0.0388
 8265SOL    HW136254   1.946   2.160  10.644  0.6431  0.6026  0.4793
 8265SOL    HW236255   1.884   2.165  10.772 -0.3239 -0.4176 -0.0210
 8266SOL     OW36256   1.857   0.646   6.475 -0.4663 -0.0857 -0.3945
 8266SOL    HW136257   1.894   0.734   6.470  1.1601 -0.7620  0.0357
 8266SOL    HW236258   1.937   0.597   6.460 -0.3606 -0.6763  2.0961
 8267SOL     OW36259   0.151   3.292   8.490 -0.3066 -0.4069  0.3406
 8267SOL    HW136260   0.063   3.272   8.455 -0.0527  1.8084 -1.5915
 8267SOL    HW236261   0.136   3.386   8.500  0.4973 -0.2763  0.2654
 8268SOL     OW36262   3.257   0.708   0.953  0.0144  0.6204 -0.5617
 8268SOL    HW136263   3.215   0.672   1.031 -1.2621 -0.9531 -1.9638
 8268SOL    HW236264   3.336   0.741   0.996 -0.4128 -1.7091  2.0299
 8269SOL     OW36265   1.724   4.672   6.786  0.4852  0.3456 -0.3235
 8269SOL    HW136266   1.770   0.006   6.847 -0.9732  1.7125 -0.5048
 8269SOL    HW236267   1.708   4.597   6.843  0.6914 -0.6300 -1.5235
 8270SOL     OW36268   4.681   0.616   0.949 -0.5078  0.6483 -0.4165
 8270SOL    HW136269   4.658   0.644   0.861 -1.0022  2.3241  0.2535
 8270SOL    HW236270   0.013   0.539   0.937 -1.1380  0.5654 -2.6618
 8271SOL     OW36271   1.260   0.560  13.141  0.2790 -0.2020  0.1714
 8271SOL    HW136272   1.169   0.531  13.138  0.1892  0.0740  0.2136
 8271SOL    HW236273   1.244   0.653  13.159  1.1976  0.2515 -1.3165
 8272SOL     OW36274   0.870   3.269   9.093 -0.4515 -0.3632  0.5058
 8272SOL    HW136275   0.933   3.202   9.067  0.2885  1.0071 -1.2600
 8272SOL    HW236276   0.846   3.240   9.181 -0.6235  0.5481  0.7611
 8273SOL     OW36277   4.330   2.998   6.024  0.3096 -0.3101 -0.1695
 8273SOL    HW136278   4.332   2.971   5.932  2.0922 -0.4741 -0.0875
 8273SOL    HW236279   4.416   3.040   6.029  0.5374 -0.6045 -1.4786
 8274SOL     OW36280   1.731   3.897   4.830 -0.2526 -0.7748  0.1971
 8274SOL    HW136281   1.813   3.890   4.782 -0.7693  0.6928 -0.9050
 8274SOL    HW236282   1.679   3.925   4.754 -0.1468 -0.6304  0.1783
 8275SOL     OW36283   4.175   1.892   5.962  0.2721 -0.1170 -0.5279
 8275SOL    HW136284   4.195   1.954   5.892  2.7385 -0.3140 -0.0033
 8275SOL    HW236285   4.098   1.930   6.004  0.5396 -0.1615  0.0019
 8276SOL     OW36286   3.268   4.625   2.849  0.2718  0.5265 -0.3881
 8276SOL    HW136287   3.342   4.579   2.809  1.9225  1.9445  1.0477
 8276SOL    HW236288   3.206   4.629   2.776  0.9576 -1.5410 -1.0790
 8277SOL     OW36289   3.517   4.476  11.767 -0.3041 -0.4084 -0.2534
 8277SOL    HW136290   3.577   4.542  11.800 -0.0459 -0.7832  0.0323
 8277SOL    HW236291   3.579   4.411  11.734 -2.7799 -2.0889 -1.5913
 8278SOL     OW36292   0.556   0.417   9.852  0.0019 -0.4462  0.1558
 8278SOL    HW136293   0.519   0.489   9.800  2.0672 -0.4813 -1.3490
 8278SOL    HW236294   0.602   0.455   9.926 -1.9951  1.4680  0.4016
 8279SOL     OW36295   2.451   3.636  11.330  0.0452  0.7512 -0.3021
 8279SOL    HW136296   2.408   3.721  11.339 -2.0980 -0.6397  2.5387
 8279SOL    HW236297   2.518   3.634  11.399  1.7505 -4.2666 -2.1686
 8280SOL     OW36298   4.695   3.742   3.329  0.2910  0.0317 -0.3222
 8280SOL    HW136299   0.004   3.653   3.317  0.7420 -0.1798  2.5364
 8280SOL    HW236300   4.611   3.729   3.372  1.9778 -1.8015  2.3911
 8281SOL     OW36301   4.226   2.378   8.671 -0.0919 -0.2902  0.0149
 8281SOL    HW136302   4.209   2.398   8.579 -2.9546 -0.0667  0.5999
 8281SOL    HW236303   4.147   2.403   8.718 -0.5635  0.5465 -1.2043
 8282SOL     OW36304   1.073   1.211   1.994  0.0010  0.3915 -0.4651
 8282SOL    HW136305   1.086   1.117   1.983  1.0233  0.6501 -1.4865
 8282SOL    HW236306   1.120   1.239   1.915  0.1087 -0.7627 -0.8057
 8283SOL     OW36307   4.617   2.160   8.293 -0.4295  0.5736  0.3348
 8283SOL    HW136308   4.663   2.104   8.231  0.8560  0.8460  1.0336
 8283SOL    HW236309   4.667   2.143   8.374  0.1308  0.3336 -0.0634
 8284SOL     OW36310   3.650   3.568   9.679 -0.0751 -0.2169  0.3346
 8284SOL    HW136311   3.649   3.522   9.763  0.3460 -1.3587 -0.2763
 8284SOL    HW236312   3.672   3.494   9.622  1.5125 -0.5737  1.3867
 8285SOL     OW36313   1.467   3.415   7.190  0.6891  0.1264  0.2772
 8285SOL    HW136314   1.510   3.381   7.268  1.0168  0.2543  0.1535
 8285SOL    HW236315   1.411   3.345   7.157 -1.6213  2.8011 -1.4992
 8286SOL     OW36316   4.131   3.199   1.230  0.2779  0.0608 -0.0914
 8286SOL    HW136317   4.119   3.134   1.300  1.0481 -0.8337 -0.7800
 8286SOL    HW236318   4.061   3.260   1.252  0.1517 -0.5630  1.2818
 8287SOL     OW36319   3.647   1.317  17.254 -0.9760 -0.2499  0.0576
 8287SOL    HW136320   3.735   1.325  17.293 -1.1961 -0.7208  0.6555
 8287SOL    HW236321   3.636   1.408  17.228 -1.3622  0.6125  3.1675
 8288SOL     OW36322   2.601   2.242  17.539  1.4783 -0.3179 -0.0049
 8288SOL    HW136323   2.634   2.332  17.545  1.5219 -0.2932 -0.5781
 8288SOL    HW236324   2.535   2.234  17.608 -0.3167  0.3358 -1.6270
 8289SOL     OW36325   2.435   4.388  16.376 -0.3526  0.5470  0.1446
 8289SOL    HW136326   2.443   4.345  16.291  2.0573  1.0135  0.1187
 8289SOL    HW236327   2.516   4.440  16.381  0.1610 -0.2853  0.4966
 8290SOL     OW36328   2.610   1.513   3.379  0.0942  0.6433 -0.7416
 8290SOL    HW136329   2.558   1.484   3.453 -3.2757  1.9766 -2.5760
 8290SOL    HW236330   2.538   1.506   3.316 -0.6740  2.2853 -0.0261
 8291SOL     OW36331   1.401   1.643  13.223 -0.4301  0.1085 -0.0194
 8291SOL    HW136332   1.383   1.735  13.204 -0.0694  0.1628 -0.1093
 8291SOL    HW236333   1.422   1.614  13.135 -0.0844  2.0298 -0.5760
 8292SOL     OW36334   3.472   0.739  13.995 -0.8180 -0.0340  0.1039
 8292SOL    HW136335   3.518   0.816  14.029  0.6750 -0.8683 -0.0094
 8292SOL    HW236336   3.437   0.719  14.082 -1.8876  5.5702  1.0120
 8293SOL     OW36337   3.272   1.400   2.616  0.5438  0.1109  0.8821
 8293SOL    HW136338   3.307   1.349   2.543 -2.2761 -0.7691  0.1509
 8293SOL    HW236339   3.301   1.486   2.586  1.7003 -0.8464 -0.7416
 8294SOL     OW36340   3.473   0.426   6.955 -0.2158 -0.6559 -0.0010
 8294SOL    HW136341   3.473   0.336   6.922 -1.4945 -1.3625  1.9189
 8294SOL    HW236342   3.504   0.465   6.873  3.0036  1.2213  2.1271
 8295SOL     OW36343   0.411   3.355   3.949 -0.3040  0.2687 -0.1008
 8295SOL    HW136344   0.366   3.314   4.023 -3.0826  0.0563 -1.8846
 8295SOL    HW236345   0.503   3.349   3.975  0.0511  2.7147 -0.8209
 8296SOL     OW36346   1.058   4.433   7.831 -0.1443 -0.4321  0.0721
 8296SOL    HW136347   0.986   4.476   7.785 -0.2534 -1.4888 -0.7270
 8296SOL    HW236348   1.051   4.344   7.798  0.7478  0.4659 -2.5984
 8297SOL     OW36349   0.902   4.340   1.087  0.1621  0.2446  0.6240
 8297SOL    HW136350   0.942   4.357   1.002 -0.1920  0.4167  0.4882
 8297SOL    HW236351   0.964   4.280   1.127 -2.8256 -2.3853  1.3208
 8298SOL     OW36352   4.548   0.205   0.926 -0.1658  0.4203 -0.2563
 8298SOL    HW136353   4.638   0.230   0.947 -0.3047  0.8516 -0.1877
 8298SOL    HW236354   4.554   0.109   0.934  2.4134  0.5417 -0.4615
 8299SOL     OW36355   2.952   0.675   7.519  0.5743 -0.0732 -0.1392
 8299SOL    HW136356   3.025   0.619   7.492  2.3201  1.7088  0.8790
 8299SOL    HW236357   2.995   0.735   7.580  1.6683  0.3334 -1.3196
 8300SOL     OW36358   3.173   3.687   2.993 -0.2134  0.2068  0.0352
 8300SOL    HW136359   3.268   3.673   2.997 -0.4470 -0.9913  1.7116
 8300SOL    HW236360   3.153   3.652   3.080 -0.0216 -0.1548 -0.0656
 8301SOL     OW36361   2.118   3.318  13.540  0.0553 -0.0670  0.1598
 8301SOL    HW136362   2.048   3.369  13.499  1.1751  0.8957 -0.5503
 8301SOL    HW236363   2.066   3.258  13.594 -0.6998  1.6734  1.3632
 8302SOL     OW36364   3.463   1.770  11.647  0.2092  0.2418  0.3776
 8302SOL    HW136365   3.522   1.841  11.673  1.2191  0.1109 -1.4992
 8302SOL    HW236366   3.501   1.755  11.560 -2.3189  1.3134 -0.9195
 8303SOL     OW36367   3.037   1.652   5.587 -0.0478  0.0016  0.1544
 8303SOL    HW136368   3.023   1.668   5.681 -2.1017  4.0949 -0.8753
 8303SOL    HW236369   3.118   1.600   5.581 -0.7588 -1.2997  1.6431
 8304SOL     OW36370   3.843   0.407  15.367 -0.4606 -0.0257  0.4417
 8304SOL    HW136371   3.818   0.437  15.280  0.4066  0.6682  0.4307
 8304SOL    HW236372   3.910   0.474  15.380 -0.0226  0.0978 -2.3421
 8305SOL     OW36373   3.840   0.971   8.945  0.6433  0.5091  0.2413
 8305SOL    HW136374   3.776   0.950   8.877  0.1632  1.4774  0.3812
 8305SOL    HW236375   3.912   1.011   8.896  1.3189  0.0397  0.8615
 8306SOL     OW36376   2.078   1.006   9.221 -0.6169  0.2728  0.5074
 8306SOL    HW136377   2.119   1.059   9.289  0.6282  1.9980 -1.5828
 8306SOL    HW236378   2.142   1.012   9.149 -0.1071  0.5840  0.9917
 8307SOL     OW36379   0.605   3.755   2.896 -0.8037 -0.0289 -0.1200
 8307SOL    HW136380   0.545   3.719   2.831 -1.3436 -0.6115  0.7092
 8307SOL    HW236381   0.552   3.788   2.969 -1.1035 -0.2261 -0.2508
 8308SOL     OW36382   1.132   2.298   4.022 -0.1081  0.1528  0.2751
 8308SOL    HW136383   1.170   2.237   4.085 -0.5654  1.7880  2.0998
 8308SOL    HW236384   1.118   2.241   3.946  3.3570 -0.7539  0.2947
 8309SOL     OW36385   2.246   3.778   4.641  0.0430 -0.4304 -0.2926
 8309SOL    HW136386   2.214   3.761   4.552 -2.6457  1.4086  0.3201
 8309SOL    HW236387   2.171   3.741   4.689  0.1953 -2.2232 -1.4373
 8310SOL     OW36388   0.487   2.442   8.356  0.2829  0.1295  0.5584
 8310SOL    HW136389   0.493   2.504   8.429  1.3930  1.1036 -0.3582
 8310SOL    HW236390   0.540   2.493   8.295  0.7868  1.6205  2.2323
 8311SOL     OW36391   4.621   1.726   0.914  0.3060 -0.1018  0.1980
 8311SOL    HW136392   4.689   1.666   0.883 -0.5989 -1.0909  0.1352
 8311SOL    HW236393   4.614   1.773   0.831 -0.3789  0.8897  0.8262
 8312SOL     OW36394   0.744   3.437  13.087 -0.0143 -0.1404  0.2369
 8312SOL    HW136395   0.652   3.412  13.082  0.3285 -1.3978  0.1797
 8312SOL    HW236396   0.742   3.520  13.038 -1.4157 -0.1741  0.2267
 8313SOL     OW36397   2.664   0.841   7.157 -0.2504  0.0952 -0.0256
 8313SOL    HW136398   2.695   0.753   7.138  1.2803  0.6209  0.0038
 8313SOL    HW236399   2.617   0.868   7.078  0.9185 -0.0353 -0.7619
 8314SOL     OW36400   0.271   4.675   3.389  0.0024 -0.4596 -0.0876
 8314SOL    HW136401   0.306   4.680   3.478  1.4084 -1.1868 -0.6044
 8314SOL    HW236402   0.234   4.588   3.379 -0.9531 -0.3429  2.5126
 8315SOL     OW36403   1.700   3.137   0.384  0.3536 -0.0376 -0.0792
 8315SOL    HW136404   1.688   3.064   0.323 -2.2971  0.2452  0.0887
 8315SOL    HW236405   1.687   3.206   0.320  1.4486  0.8026  0.6223
 8316SOL     OW36406   4.609   3.123  13.129  0.2069  0.5671  0.2100
 8316SOL    HW136407   4.659   3.047  13.158  0.6130  0.4322 -0.8414
 8316SOL    HW236408   4.640   3.196  13.183 -0.0631  1.1039 -0.3553
 8317SOL     OW36409   0.834   2.389  16.048  0.5198  0.2443  0.1400
 8317SOL    HW136410   0.752   2.384  16.000  1.2271  0.9545 -1.1133
 8317SOL    HW236411   0.862   2.297  16.053  1.3638  0.4922 -0.0068
 8318SOL     OW36412   4.136   2.147   8.385 -0.5601  0.3966 -0.2560
 8318SOL    HW136413   4.216   2.096   8.399 -0.3683 -0.0121 -2.7952
 8318SOL    HW236414   4.124   2.210   8.456 -1.8189 -1.0709  0.8142
 8319SOL     OW36415   3.948   2.970   9.507  0.2392  0.3842 -0.2008
 8319SOL    HW136416   3.922   2.903   9.444  1.3336 -0.8529  0.6536
 8319SOL    HW236417   4.027   2.925   9.536 -0.2283  0.4740  1.1926
 8320SOL     OW36418   1.305   3.073   6.887 -0.2984 -0.0472  0.0655
 8320SOL    HW136419   1.271   3.158   6.859  1.5423 -0.1686 -2.4187
 8320SOL    HW236420   1.272   3.014   6.819  1.0880  1.1961 -1.6669
 8321SOL     OW36421   4.549   0.718  17.574 -0.4949  0.1533 -0.8166
 8321SOL    HW136422   4.478   0.757  17.524  0.1014  1.3281 -0.7370
 8321SOL    HW236423   4.547   0.774  17.651  0.0613  0.0138 -0.6955
 8322SOL     OW36424   1.849   2.618   7.704  0.1404 -0.0725 -0.9897
 8322SOL    HW136425   1.848   2.712   7.723  0.1335 -0.3783  0.5544
 8322SOL    HW236426   1.927   2.620   7.649  0.5429 -0.3950 -0.4333
 8323SOL     OW36427   0.280   0.477   1.951 -0.3624  0.5289  0.1093
 8323SOL    HW136428   0.302   0.398   2.000  0.5020  0.1494 -0.8893
 8323SOL    HW236429   0.210   0.440   1.896 -0.9015  1.5712  0.0878
 8324SOL     OW36430   2.972   0.636   2.586 -0.4149  0.1322 -0.1492
 8324SOL    HW136431   3.042   0.599   2.639 -0.4083 -1.5992 -1.3516
 8324SOL    HW236432   2.912   0.562   2.581 -0.0659 -0.2185  0.9186
 8325SOL     OW36433   0.107   2.438   8.562 -0.1729 -0.1791  0.3469
 8325SOL    HW136434   0.184   2.456   8.616  1.2778  1.8440 -2.4015
 8325SOL    HW236435   0.039   2.492   8.603 -1.7390 -1.2514 -0.8457
 8326SOL     OW36436   0.155   3.173  14.105  0.0607  0.5476  0.1282
 8326SOL    HW136437   0.143   3.095  14.049 -1.3937 -0.5904  2.0238
 8326SOL    HW236438   0.065   3.205  14.117 -0.9714 -3.4669  3.1373
 8327SOL     OW36439   2.481   0.977  13.789 -0.7554 -0.7499  0.0216
 8327SOL    HW136440   2.436   1.008  13.867 -0.5968 -1.1827  0.2849
 8327SOL    HW236441   2.573   0.978  13.818 -0.5637 -0.1687 -0.6085
 8328SOL     OW36442   3.639   1.614  17.226 -0.2972  0.0154 -0.2505
 8328SOL    HW136443   3.555   1.606  17.180  0.3959  0.9035 -1.6816
 8328SOL    HW236444   3.689   1.673  17.169  0.4987 -0.6410 -0.2283
 8329SOL     OW36445   3.952   0.052  14.247  0.4894 -0.3618 -0.7714
 8329SOL    HW136446   3.958   0.146  14.263  0.3030 -0.4742 -0.0237
 8329SOL    HW236447   3.968   0.030  14.339  0.8313 -1.1217 -1.0149
 8330SOL     OW36448   4.125   3.931  10.276 -0.0061  0.1245 -0.0676
 8330SOL    HW136449   4.204   3.927  10.222  0.0231  0.1341 -0.0250
 8330SOL    HW236450   4.173   3.969  10.349  0.1357 -0.5175  0.1760
 8331SOL     OW36451   3.925   2.626   3.202  0.3831  0.2358 -0.8289
 8331SOL    HW136452   3.847   2.657   3.155  0.9098 -0.4373 -2.1388
 8331SOL    HW236453   3.986   2.624   3.128  0.0566 -0.5845 -1.0758
 8332SOL     OW36454   4.304   4.627  15.898  0.2258  0.5589  0.1964
 8332SOL    HW136455   4.319   4.627  15.993  1.0015 -1.0668  0.0657
 8332SOL    HW236456   4.336   4.710  15.863 -0.3179 -0.2742 -2.2088
 8333SOL     OW36457   3.535   1.267   3.992 -0.0644  0.3610  0.2413
 8333SOL    HW136458   3.573   1.290   3.906  0.2079  3.0536  1.0677
 8333SOL    HW236459   3.449   1.237   3.965  0.1672 -0.7398  0.7533
 8334SOL     OW36460   4.065   0.028   7.460  0.0178 -0.2907 -0.0635
 8334SOL    HW136461   4.008   4.690   7.506 -1.4380  0.2437 -1.1639
 8334SOL    HW236462   4.006   0.068   7.396  1.9669 -0.5398 -2.0277
 8335SOL     OW36463   0.001   0.680   7.589 -0.3276 -0.5425 -0.6899
 8335SOL    HW136464   4.675   0.732   7.652 -0.2058  0.2748 -1.2699
 8335SOL    HW236465   0.087   0.712   7.614 -0.7414  0.1298 -0.1394
 8336SOL     OW36466   4.424   4.422   5.128  0.0630 -0.1156  0.0718
 8336SOL    HW136467   4.456   4.332   5.121  1.3384  0.3595 -0.3113
 8336SOL    HW236468   4.331   4.400   5.133 -0.4567  2.4518  1.7464
 8337SOL     OW36469   1.911   2.644   4.924  0.7471 -0.7559  0.5541
 8337SOL    HW136470   1.938   2.639   4.832 -3.1846 -0.2130 -0.6528
 8337SOL    HW236471   1.815   2.650   4.926  0.9596  2.6246 -0.8833
 8338SOL     OW36472   4.150   2.800   5.618 -0.5969 -0.0056 -0.1807
 8338SOL    HW136473   4.105   2.885   5.618 -2.7003 -1.1294  0.6248
 8338SOL    HW236474   4.135   2.763   5.531  1.7059 -0.9816 -0.1597
 8339SOL     OW36475   0.732   4.416   8.716  0.5514 -0.4421  0.1107
 8339SOL    HW136476   0.701   4.488   8.662 -1.8995 -1.1445  0.5691
 8339SOL    HW236477   0.823   4.443   8.727  1.2445 -2.3718 -1.0682
 8340SOL     OW36478   1.475   2.870   8.761  0.0906 -0.2507 -0.6954
 8340SOL    HW136479   1.476   2.774   8.761 -0.6033 -0.2589 -1.2545
 8340SOL    HW236480   1.384   2.884   8.735 -1.2991 -1.5401  3.5512
 8341SOL     OW36481   2.762   3.912   1.242 -0.1602  0.2605 -0.1421
 8341SOL    HW136482   2.836   3.963   1.210  0.9988 -1.2490  0.1540
 8341SOL    HW236483   2.805   3.835   1.279 -0.2671 -0.6815 -1.9392
 8342SOL     OW36484   0.057   2.210  11.340 -0.7906  0.0449 -0.6993
 8342SOL    HW136485   0.035   2.140  11.278  1.6493 -1.3975  0.0619
 8342SOL    HW236486   4.695   2.236  11.375 -0.2266  0.7243  0.1756
 8343SOL     OW36487   2.988   2.973   0.540 -0.0194 -0.1551 -0.3219
 8343SOL    HW136488   3.079   2.999   0.530  0.1505 -0.3556  0.6538
 8343SOL    HW236489   2.950   3.060   0.536 -1.2303 -0.5962  1.5757
 8344SOL     OW36490   3.097   3.601   4.446 -0.4102  0.0300 -0.0834
 8344SOL    HW136491   3.123   3.677   4.498 -2.5304  2.0768 -2.0091
 8344SOL    HW236492   3.031   3.559   4.500 -1.3556 -0.0208 -1.2675
 8345SOL     OW36493   3.842   4.284   6.025 -0.7151  0.6750  0.4402
 8345SOL    HW136494   3.757   4.329   6.024 -1.0226  0.1192  1.1244
 8345SOL    HW236495   3.832   4.215   5.959  0.2941 -0.0494  1.0496
 8346SOL     OW36496   4.097   1.752  15.602  0.1325  0.3770  1.2855
 8346SOL    HW136497   4.003   1.770  15.611  0.0550  1.4198 -1.4392
 8346SOL    HW236498   4.102   1.672  15.654 -0.3044  0.8957  2.1362
 8347SOL     OW36499   4.682   3.911   7.863  0.0396  0.5199 -0.2840
 8347SOL    HW136500   4.607   3.859   7.834  0.5570 -0.5657  0.3095
 8347SOL    HW236501   4.714   3.870   7.943  0.7912  0.9617 -0.3485
 8348SOL     OW36502   4.331   3.661   2.192 -0.0371 -0.0902  0.2713
 8348SOL    HW136503   4.355   3.573   2.223  0.4275  0.7024  2.1830
 8348SOL    HW236504   4.239   3.644   2.171  0.5829 -0.4937 -2.0904
 8349SOL     OW36505   0.325   1.918   8.022 -0.0730 -0.4532 -0.7632
 8349SOL    HW136506   0.374   1.901   7.942 -1.6590 -1.6019 -1.4752
 8349SOL    HW236507   0.324   1.828   8.053  2.8782  0.6939  2.6925
 8350SOL     OW36508   1.072   2.950   3.479  0.0423 -0.1332  0.6122
 8350SOL    HW136509   0.981   2.919   3.480 -0.4205  1.2415  0.6907
 8350SOL    HW236510   1.117   2.867   3.497  0.8756 -0.6088 -3.6017
 8351SOL     OW36511   1.495   2.753   1.469  0.1148  0.3773  0.5796
 8351SOL    HW136512   1.507   2.697   1.546 -0.6629 -2.2521 -1.2042
 8351SOL    HW236513   1.569   2.723   1.416  0.7448  2.1036  0.5031
 8352SOL     OW36514   1.460   0.235   7.860  0.1922  0.3158 -0.4632
 8352SOL    HW136515   1.526   0.179   7.820  0.8660 -0.4682  1.7324
 8352SOL    HW236516   1.433   0.175   7.930  1.1146  0.0024 -0.3787
 8353SOL     OW36517   2.659   4.539   8.443 -0.0040  0.2664 -0.4534
 8353SOL    HW136518   2.605   4.610   8.479  1.1095  0.6275  0.5121
 8353SOL    HW236519   2.612   4.514   8.364  0.7917 -0.3371 -0.7249
 8354SOL     OW36520   0.436   1.579   2.461  0.0838 -0.4021  0.5752
 8354SOL    HW136521   0.476   1.507   2.413  2.3772  0.0243  1.8466
 8354SOL    HW236522   0.355   1.536   2.489 -2.3663  2.1938 -2.5391
 8355SOL     OW36523   3.492   3.979   5.717  0.4352 -0.1639  0.5171
 8355SOL    HW136524   3.578   3.995   5.679 -0.5231 -0.2598 -1.6739
 8355SOL    HW236525   3.471   4.062   5.760  1.2713  0.4448 -0.2485
 8356SOL     OW36526   3.387   0.767  13.739  0.4765  0.0332  0.1436
 8356SOL    HW136527   3.410   0.688  13.691 -0.2342 -1.1305  1.7460
 8356SOL    HW236528   3.423   0.759  13.828  0.8376 -1.1640 -0.1071
 8357SOL     OW36529   0.672   4.183   3.125  0.0505 -0.0369  0.4150
 8357SOL    HW136530   0.760   4.196   3.089 -0.3442 -0.3222 -0.6543
 8357SOL    HW236531   0.619   4.261   3.110 -2.0061 -1.6104 -0.4801
 8358SOL     OW36532   2.246   4.358   0.508 -0.2635 -0.3366 -0.4265
 8358SOL    HW136533   2.163   4.325   0.474 -0.9933  0.2054  0.8231
 8358SOL    HW236534   2.242   4.340   0.602  0.0521  1.8461  0.0018
 8359SOL     OW36535   1.859   0.352   7.090  0.7128 -0.5089  0.1577
 8359SOL    HW136536   1.895   0.325   7.006  0.7475 -2.1974  0.7028
 8359SOL    HW236537   1.786   0.411   7.073 -0.4243 -1.1937  2.5877
 8360SOL     OW36538   0.261   2.890   6.146  0.0495  1.0473 -0.4392
 8360SOL    HW136539   0.280   2.824   6.212  1.8480  1.6061 -0.4117
 8360SOL    HW236540   0.346   2.928   6.125  1.3085 -0.7215  1.4884
 8361SOL     OW36541   4.068   1.811   6.354 -0.5463 -0.6567  0.0611
 8361SOL    HW136542   4.139   1.746   6.350  0.7488  0.7855 -0.5949
 8361SOL    HW236543   4.022   1.778   6.277 -2.4872  2.8784 -0.2685
 8362SOL     OW36544   0.494   3.437   3.387 -0.1517 -0.0107 -0.5876
 8362SOL    HW136545   0.437   3.487   3.328  1.5916 -0.7377 -2.8963
 8362SOL    HW236546   0.457   3.441   3.475  1.4744 -0.2812  0.1012
 8363SOL     OW36547   0.404   3.815   3.737  0.1675 -0.0770 -0.2546
 8363SOL    HW136548   0.496   3.789   3.729 -0.2506 -0.8489 -2.6638
 8363SOL    HW236549   0.385   3.860   3.654 -2.2883  1.0574  0.9570
 8364SOL     OW36550   2.246   0.484   9.300  0.5466  0.2647  0.2712
 8364SOL    HW136551   2.270   0.412   9.358  0.6310  1.0685  1.2346
 8364SOL    HW236552   2.328   0.509   9.257  0.6837 -0.1859  0.2699
 8365SOL     OW36553   1.435   0.347  13.581 -0.1985  0.2594 -0.1944
 8365SOL    HW136554   1.429   0.394  13.498 -0.0125 -0.7330 -0.7715
 8365SOL    HW236555   1.476   0.269  13.544  0.7093  0.8215 -0.3617
 8366SOL     OW36556   0.437   2.207   1.657 -0.5926  0.1642  0.2556
 8366SOL    HW136557   0.432   2.167   1.744  1.1893  0.9167  0.7020
 8366SOL    HW236558   0.503   2.274   1.671 -0.6475  0.1150  0.7299
 8367SOL     OW36559   0.771   4.684   5.691 -0.5157  0.0108 -0.2075
 8367SOL    HW136560   0.704   4.690   5.759 -0.9801 -0.5842 -0.6103
 8367SOL    HW236561   0.720   4.704   5.613 -1.3830 -0.6836  0.1807
 8368SOL     OW36562   1.966   2.660   9.790  0.5174 -0.0696 -0.4497
 8368SOL    HW136563   1.964   2.675   9.695 -2.1575 -1.5307 -0.6240
 8368SOL    HW236564   1.941   2.741   9.836 -4.7934 -1.9911  0.0556
 8369SOL     OW36565   2.974   0.988   8.854 -0.2575 -0.2903  0.1561
 8369SOL    HW136566   2.953   1.072   8.895  0.9710  1.0196 -1.8994
 8369SOL    HW236567   2.945   0.932   8.926  1.7522 -0.5105  0.8027
 8370SOL     OW36568   0.990   3.024  12.172  0.1573 -0.1608 -0.0240
 8370SOL    HW136569   1.035   3.052  12.092 -2.5348  2.6256 -0.5686
 8370SOL    HW236570   0.951   2.941  12.145 -1.5091  1.8214 -3.6724
 8371SOL     OW36571   2.699   3.254  10.019 -0.5372  0.0896 -0.3804
 8371SOL    HW136572   2.767   3.272  10.083  0.4497 -0.5552 -1.2490
 8371SOL    HW236573   2.752   3.214   9.950 -0.3041 -1.2717  0.5774
 8372SOL     OW36574   4.038   1.617   0.734 -0.0518 -0.0820  0.2164
 8372SOL    HW136575   4.079   1.531   0.731 -1.6050 -0.7511 -2.4978
 8372SOL    HW236576   3.990   1.607   0.816  0.6118  1.5714  0.7963
 8373SOL     OW36577   3.430   1.254   2.442 -0.1605  0.7100  0.6384
 8373SOL    HW136578   3.405   1.162   2.437  2.0297  0.1232  0.4394
 8373SOL    HW236579   3.389   1.303   2.370 -2.8260 -1.2882  0.7682
 8374SOL     OW36580   1.784   2.295   3.781 -0.2790  0.0499  0.0897
 8374SOL    HW136581   1.819   2.308   3.869 -0.8615 -1.5031  0.5603
 8374SOL    HW236582   1.856   2.322   3.723 -0.8951 -1.2154 -1.2564
 8375SOL     OW36583   0.162   3.807   7.551 -0.0720 -0.0648  0.5281
 8375SOL    HW136584   0.139   3.778   7.640  1.0292  0.5471  1.0138
 8375SOL    HW236585   0.255   3.825   7.567  0.4429 -4.0867  2.0552
 8376SOL     OW36586   1.484   3.954   8.326  0.0582  1.0911 -0.2328
 8376SOL    HW136587   1.535   4.018   8.374 -0.9069  0.9142  1.0176
 8376SOL    HW236588   1.423   3.923   8.393 -0.1145  1.7693 -0.0775
 8377SOL     OW36589   1.746   1.554   8.904  0.1855 -0.0022 -0.2425
 8377SOL    HW136590   1.754   1.597   8.819 -0.3990  0.6791  0.0498
 8377SOL    HW236591   1.808   1.616   8.942  1.4596 -1.0001 -0.6939
 8378SOL     OW36592   1.244   0.959   2.817  0.3838  0.0454 -0.2140
 8378SOL    HW136593   1.190   1.021   2.866  0.2901  0.7217 -1.1533
 8378SOL    HW236594   1.320   1.008   2.784  0.8095  0.2455  1.0788
 8379SOL     OW36595   4.692   1.891   9.427 -0.1882  0.3556 -0.2974
 8379SOL    HW136596   0.010   1.883   9.341 -0.5845  1.1975 -0.5618
 8379SOL    HW236597   4.600   1.893   9.400 -0.0955 -1.6045 -0.8196
 8380SOL     OW36598   4.503   2.876   0.359  0.8276 -0.7235 -0.7349
 8380SOL    HW136599   4.576   2.871   0.420  0.0756 -0.8027  0.1564
 8380SOL    HW236600   4.423   2.885   0.411  2.7577  2.8890  1.5188
 8381SOL     OW36601   3.378   0.932  12.686 -0.1101 -0.3714 -0.1150
 8381SOL    HW136602   3.373   0.894  12.773 -0.0176  1.5993  0.7540
 8381SOL    HW236603   3.288   0.965  12.685  0.3704  0.9432 -0.7954
 8382SOL     OW36604   0.349   2.134   6.734 -0.0852 -0.5220  0.2907
 8382SOL    HW136605   0.258   2.160   6.748 -0.0441 -0.0578 -0.3261
 8382SOL    HW236606   0.383   2.146   6.823  1.4305 -0.4319 -0.3050
 8383SOL     OW36607   0.121   2.046   0.866 -0.1399 -0.1851 -0.1182
 8383SOL    HW136608   0.204   2.063   0.911 -0.8454  3.7910 -0.3570
 8383SOL    HW236609   0.105   2.140   0.862  1.2073  0.1134  1.5211
 8384SOL     OW36610   4.132   1.560   3.448  1.1251 -0.4260  0.6147
 8384SOL    HW136611   4.211   1.601   3.414  2.4858 -3.0580  0.6253
 8384SOL    HW236612   4.061   1.624   3.438  1.3380  0.0136  1.9202
 8385SOL     OW36613   0.723   3.874   6.477  0.9444  0.0085 -0.6420
 8385SOL    HW136614   0.628   3.866   6.468  0.8980  1.0611 -1.0688
 8385SOL    HW236615   0.728   3.967   6.499  1.7298 -0.0819 -0.4337
 8386SOL     OW36616   1.531   3.371   2.698  0.2496 -0.8839 -0.4426
 8386SOL    HW136617   1.438   3.356   2.714 -0.3578  3.0793 -0.1942
 8386SOL    HW236618   1.573   3.317   2.765  2.6713  1.2351 -0.2338
 8387SOL     OW36619   1.376   1.153   9.094 -0.5117  0.0396  0.5146
 8387SOL    HW136620   1.319   1.195   9.029 -0.6374 -2.8670 -1.2551
 8387SOL    HW236621   1.458   1.199   9.074  0.0946 -1.2841 -0.0262
 8388SOL     OW36622   2.393   0.212   4.039 -0.2065  0.1803 -0.5126
 8388SOL    HW136623   2.300   0.201   4.020 -0.1487 -1.1212 -0.0569
 8388SOL    HW236624   2.415   0.123   4.067 -3.1514 -0.2965  0.2470
 8389SOL     OW36625   3.338   1.988  14.467  0.0257 -0.3778 -0.1541
 8389SOL    HW136626   3.431   2.012  14.460 -0.2182  0.1786 -1.2780
 8389SOL    HW236627   3.312   1.943  14.387  1.7060 -1.5294 -0.0759
 8390SOL     OW36628   3.445   4.364   3.130  0.1212  0.0556  0.2820
 8390SOL    HW136629   3.440   4.274   3.164  0.7034 -0.2075 -0.3388
 8390SOL    HW236630   3.539   4.364   3.109  0.3134 -0.6471  1.1353
 8391SOL     OW36631   2.698   1.892  16.735  0.3174 -0.0168 -0.2794
 8391SOL    HW136632   2.703   1.910  16.641 -0.7856  1.4001 -0.0536
 8391SOL    HW236633   2.736   1.804  16.736  0.5910  0.1158  0.9802
 8392SOL     OW36634   0.117   2.577   4.619 -0.3963  0.0428 -0.1399
 8392SOL    HW136635   0.123   2.579   4.524  2.6604 -1.5981  0.0233
 8392SOL    HW236636   0.071   2.658   4.641  0.1287  0.6501 -1.2762
 8393SOL     OW36637   0.053   0.226   4.954  0.1111 -0.0321  0.6724
 8393SOL    HW136638   4.718   0.272   5.014 -0.7228 -2.6586  1.8628
 8393SOL    HW236639   4.717   0.167   4.908  1.3043 -0.8630  0.2102
 8394SOL     OW36640   3.355   3.891   7.107 -0.6423 -1.2388  0.2728
 8394SOL    HW136641   3.260   3.882   7.113 -0.7898  0.6806  0.7638
 8394SOL    HW236642   3.368   3.972   7.058  2.0736 -1.8057  0.0323
 8395SOL     OW36643   0.959   4.397   6.192 -0.2322  0.3118  0.0087
 8395SOL    HW136644   1.041   4.384   6.241  0.3898 -4.7496 -2.3943
 8395SOL    HW236645   0.895   4.332   6.220  0.3370 -0.5115 -0.6222
 8396SOL     OW36646   0.198   0.522   3.831  0.3656  0.1542  0.8085
 8396SOL    HW136647   0.163   0.443   3.874 -2.4368 -0.9261 -3.4089
 8396SOL    HW236648   0.284   0.494   3.800  0.3670  0.5995  0.4175
 8397SOL     OW36649   3.801   0.635   1.328  0.0216 -0.4454 -0.3629
 8397SOL    HW136650   3.755   0.628   1.412 -0.2869  4.0652 -0.1305
 8397SOL    HW236651   3.789   0.550   1.287 -0.8051  0.2076 -1.4715
 8398SOL     OW36652   2.540   3.561   0.917  0.1263 -0.2616 -0.5708
 8398SOL    HW136653   2.547   3.582   0.824 -1.6990  2.6667 -0.0808
 8398SOL    HW236654   2.528   3.468   0.901  0.1880 -0.4779  0.6616
 8399SOL     OW36655   4.276   3.134  12.625 -0.0991  0.0818  0.1226
 8399SOL    HW136656   4.267   3.067  12.693  2.3359  0.0102  0.3614
 8399SOL    HW236657   4.311   3.089  12.548 -2.1943 -1.0795 -0.1626
 8400SOL     OW36658   1.775   3.073  16.795  0.4201  0.0152  0.6451
 8400SOL    HW136659   1.803   2.983  16.809  1.2888  0.1522 -0.2494
 8400SOL    HW236660   1.772   3.111  16.883  2.0790  0.6508  0.4234
 8401SOL     OW36661   2.583   1.470   6.765  0.2656 -0.0746 -0.4690
 8401SOL    HW136662   2.514   1.513   6.714 -1.7823 -0.1833  2.2336
 8401SOL    HW236663   2.635   1.547   6.789 -0.9997  0.7511 -0.3793
 8402SOL     OW36664   0.002   4.240   8.560  0.4364  0.7848 -0.3065
 8402SOL    HW136665   0.026   4.251   8.652 -2.6337  1.6213  0.3776
 8402SOL    HW236666   4.678   4.158   8.571  0.8283  0.4482 -1.0723
 8403SOL     OW36667   0.610   3.958   4.994  0.4785  0.3849 -0.2547
 8403SOL    HW136668   0.562   3.994   5.070 -0.6787 -0.2744 -0.6808
 8403SOL    HW236669   0.688   3.921   5.036  0.0674  0.7647  0.8425
 8404SOL     OW36670   4.450   1.834   8.845  0.3165 -0.5765  0.2135
 8404SOL    HW136671   4.446   1.842   8.940 -2.6867  4.6523 -0.3600
 8404SOL    HW236672   4.507   1.908   8.821  0.4174 -0.2062  1.6151
 8405SOL     OW36673   1.352   2.174   4.374  0.9630 -0.0537  0.1623
 8405SOL    HW136674   1.327   2.241   4.437  0.2108 -1.4741  1.3491
 8405SOL    HW236675   1.292   2.103   4.395 -1.1740  1.5517 -0.4778
 8406SOL     OW36676   4.504   2.458   7.637 -0.2225  0.3426  0.0347
 8406SOL    HW136677   4.418   2.429   7.606 -0.2286  0.2588  0.1283
 8406SOL    HW236678   4.503   2.552   7.617 -2.4980 -0.0996 -1.9023
 8407SOL     OW36679   4.069   3.228   5.888  0.7139  0.2555  0.1515
 8407SOL    HW136680   4.158   3.249   5.917  0.2439  1.1082  0.9911
 8407SOL    HW236681   4.020   3.308   5.909 -0.7197 -0.7552  0.6300
 8408SOL     OW36682   1.135   1.211   0.390  0.5919 -0.7581 -0.6632
 8408SOL    HW136683   1.225   1.230   0.416  0.0481  1.3448 -0.2863
 8408SOL    HW236684   1.087   1.290   0.416  1.4833 -0.3227 -0.3436
 8409SOL     OW36685   3.421   0.498  11.035  0.0185 -0.0823  0.9855
 8409SOL    HW136686   3.474   0.574  11.010  0.1572 -0.6475 -0.3847
 8409SOL    HW236687   3.371   0.540  11.106 -0.5851  0.9925 -0.0854
 8410SOL     OW36688   4.221   1.238   9.436 -0.5429 -0.1726 -0.8383
 8410SOL    HW136689   4.152   1.181   9.469 -0.6185  0.6640  0.4564
 8410SOL    HW236690   4.191   1.316   9.481  3.1579  0.9794 -0.3548
 8411SOL     OW36691   0.622   2.500   3.845 -0.6857 -0.0610 -0.4201
 8411SOL    HW136692   0.705   2.472   3.805 -0.4383 -0.6007  0.4682
 8411SOL    HW236693   0.617   2.590   3.815 -2.8104 -0.5474 -1.4916
 8412SOL     OW36694   2.381   1.425   3.513  0.6248 -0.1238 -0.2348
 8412SOL    HW136695   2.382   1.419   3.608  0.9367  0.4452 -0.2002
 8412SOL    HW236696   2.375   1.332   3.491 -0.8725  0.4023 -2.0855
 8413SOL     OW36697   4.379   3.221   9.167 -0.4959  0.7103  0.5802
 8413SOL    HW136698   4.349   3.252   9.252  0.1684 -0.8168  1.3606
 8413SOL    HW236699   4.419   3.135   9.179  1.2970  1.4040 -0.3683
 8414SOL     OW36700   3.643   1.519   1.138  0.1540  0.2417 -0.3795
 8414SOL    HW136701   3.679   1.563   1.061 -0.2912  0.2823 -0.5617
 8414SOL    HW236702   3.708   1.450   1.155 -0.1923 -0.0199 -0.1292
 8415SOL     OW36703   4.626   3.799   7.224  0.8880 -0.5546  0.0070
 8415SOL    HW136704   4.535   3.796   7.196 -0.0398 -1.2567  3.1981
 8415SOL    HW236705   4.621   3.841   7.310 -2.6749 -1.3698  0.1955
 8416SOL     OW36706   4.166   1.423   4.475 -0.2905  0.0410  0.4711
 8416SOL    HW136707   4.155   1.411   4.381 -1.2960  0.4383  0.5353
 8416SOL    HW236708   4.110   1.500   4.480  0.0503  0.2256  1.4913
 8417SOL     OW36709   3.818   4.081   7.529 -0.0039 -0.4476  0.3134
 8417SOL    HW136710   3.796   4.154   7.587 -1.1736 -0.7863  0.2782
 8417SOL    HW236711   3.914   4.074   7.520 -0.2808  3.7622 -6.2776
 8418SOL     OW36712   2.046   4.606   5.201  0.0985  0.2071  0.0022
 8418SOL    HW136713   2.037   4.527   5.255 -1.5414 -0.2424 -0.9584
 8418SOL    HW236714   2.133   4.585   5.167 -0.8820 -2.3522 -0.8573
 8419SOL     OW36715   4.435   2.920   2.257 -0.0769 -1.1307 -0.3416
 8419SOL    HW136716   4.436   3.014   2.240 -1.1717 -1.1827 -0.6728
 8419SOL    HW236717   4.413   2.871   2.178  1.4731 -2.2797 -0.0516
 8420SOL     OW36718   4.407   0.460   4.624 -0.1262 -0.2677 -0.4172
 8420SOL    HW136719   4.364   0.543   4.647 -1.3718 -0.8399 -0.6472
 8420SOL    HW236720   4.456   0.490   4.547  0.7982 -1.4508 -0.2789
 8421SOL     OW36721   2.657   4.529   0.704  0.4892 -0.5464  0.6775
 8421SOL    HW136722   2.633   4.450   0.752  2.8650 -1.8449 -0.3093
 8421SOL    HW236723   2.745   4.548   0.737  0.7909  2.8825 -2.1077
 8422SOL     OW36724   1.998   2.496  14.060 -0.0223  0.0677  0.4737
 8422SOL    HW136725   1.964   2.414  14.096 -1.2389 -0.2295 -1.3592
 8422SOL    HW236726   2.079   2.471  14.016 -0.1371  0.3393  0.1051
 8423SOL     OW36727   2.732   1.787   1.448 -0.1549 -0.4748 -0.5726
 8423SOL    HW136728   2.796   1.735   1.400  0.0514 -0.0236 -0.7854
 8423SOL    HW236729   2.659   1.725   1.443 -0.8898  0.1666  1.8011
 8424SOL     OW36730   2.187   2.858   4.608  0.0364  0.4235  0.5888
 8424SOL    HW136731   2.186   2.763   4.604  1.3851  0.3197  3.6224
 8424SOL    HW236732   2.163   2.871   4.699 -2.8397  2.3614 -0.4152
 8425SOL     OW36733   0.530   1.167   8.145 -1.1780 -0.5404  0.4510
 8425SOL    HW136734   0.620   1.194   8.164 -1.6421  0.1540  1.6943
 8425SOL    HW236735   0.531   1.087   8.198 -1.9214 -1.0759 -0.3522
 8426SOL     OW36736   4.555   2.080   0.782 -0.2243 -0.0983 -0.0594
 8426SOL    HW136737   4.544   2.087   0.877  0.4370  0.1657 -0.0056
 8426SOL    HW236738   4.651   2.075   0.779 -0.0651  1.2585  2.5757
 8427SOL     OW36739   4.708   4.272  12.076  0.4801 -0.6240 -0.7845
 8427SOL    HW136740   4.631   4.216  12.079 -0.6216  0.8744 -0.6868
 8427SOL    HW236741   4.679   4.333  12.008  1.0333 -1.0258 -1.3807
 8428SOL     OW36742   0.540   1.762   9.756 -0.4407 -0.1724 -0.4466
 8428SOL    HW136743   0.538   1.751   9.661  0.3359  3.3370 -0.8572
 8428SOL    HW236744   0.627   1.801   9.767 -0.9242  1.1876 -1.3779
 8429SOL     OW36745   4.488   2.010   7.827 -0.3606  0.4599 -0.5739
 8429SOL    HW136746   4.402   2.031   7.864 -0.6226 -1.3939 -0.1357
 8429SOL    HW236747   4.542   2.000   7.906 -2.0104  1.1096  0.6552
 8430SOL     OW36748   3.332   4.080   7.643 -0.2412 -0.1364  0.0836
 8430SOL    HW136749   3.351   4.115   7.730  1.2913 -1.4543  0.2972
 8430SOL    HW236750   3.243   4.108   7.626  0.5467  1.8059 -0.8785
 8431SOL     OW36751   0.710   4.103   9.774  0.1826 -0.1959  0.2866
 8431SOL    HW136752   0.804   4.087   9.774 -0.0178 -1.3894 -1.8423
 8431SOL    HW236753   0.713   4.181   9.829 -2.2304  0.3244 -0.2928
 8432SOL     OW36754   4.388   3.053   1.252  0.4180  0.1877 -0.0659
 8432SOL    HW136755   4.378   3.019   1.341 -2.0145  0.1475 -0.3456
 8432SOL    HW236756   4.306   3.101   1.256 -0.5911 -1.4408 -0.8990
 8433SOL     OW36757   3.961   3.104   7.736  0.1060 -0.3752 -0.3946
 8433SOL    HW136758   3.915   3.157   7.802  1.2179 -0.4982  0.4925
 8433SOL    HW236759   4.050   3.139   7.749  0.0438 -0.5272  0.4749
 8434SOL     OW36760   2.513   3.192  13.570  0.2701  0.2833  0.2994
 8434SOL    HW136761   2.503   3.206  13.665 -0.6363 -0.9928  0.3856
 8434SOL    HW236762   2.494   3.285  13.553  0.5230  0.2786  0.0024
 8435SOL     OW36763   1.619   2.210   5.887  0.1226  0.1467  0.0314
 8435SOL    HW136764   1.624   2.298   5.926  2.6182 -0.7143  1.6377
 8435SOL    HW236765   1.664   2.236   5.806 -2.1869  0.9728 -0.9956
 8436SOL     OW36766   2.542   3.231   5.347  0.2599 -0.8138  0.5330
 8436SOL    HW136767   2.516   3.152   5.300  0.6445 -0.1224 -0.8420
 8436SOL    HW236768   2.633   3.234   5.319  0.0137  2.3894  0.0682
 8437SOL     OW36769   4.162   3.146   4.001 -0.6829  0.0303  0.3383
 8437SOL    HW136770   4.133   3.236   3.991 -0.1127  0.2373  0.5152
 8437SOL    HW236771   4.250   3.164   4.036 -0.9141  1.5677  0.1267
 8438SOL     OW36772   3.444   4.712  15.344 -0.1570  0.0239  0.4350
 8438SOL    HW136773   3.350   4.701  15.330  0.0313  1.0912 -1.6366
 8438SOL    HW236774   3.444   0.077  15.381  2.8309  0.0206  0.4176
 8439SOL     OW36775   3.496   2.655   0.253 -0.2482  0.1475 -0.0614
 8439SOL    HW136776   3.482   2.561   0.242 -0.7177  0.2558 -0.3622
 8439SOL    HW236777   3.561   2.652   0.324  2.3230 -0.3522 -2.4551
 8440SOL     OW36778   0.075   2.402   0.213  0.5616  0.5524  0.3204
 8440SOL    HW136779   0.049   2.374   0.126 -0.7797 -0.3238  0.9980
 8440SOL    HW236780   0.020   2.475   0.239 -0.0874  0.8313 -1.8590
 8441SOL     OW36781   1.064   3.010   4.569  0.6632  0.6360 -0.5569
 8441SOL    HW136782   1.059   2.914   4.564 -0.8820  0.5548  2.4261
 8441SOL    HW236783   1.035   3.016   4.661  0.6901  0.1846 -0.5185
 8442SOL     OW36784   3.106   3.167   5.075  0.6010  0.1854 -0.3523
 8442SOL    HW136785   3.175   3.217   5.030 -0.4227  1.7034 -0.2287
 8442SOL    HW236786   3.148   3.091   5.114  1.5124  0.4976 -0.6968
 8443SOL     OW36787   4.567   2.129   6.641  0.2831 -0.1883  0.1967
 8443SOL    HW136788   4.479   2.115   6.677  0.0449  1.8982  0.4571
 8443SOL    HW236789   4.545   2.186   6.567  1.2295  1.7359  1.4059
 8444SOL     OW36790   1.770   0.016   5.986  0.4529 -0.3897 -0.3888
 8444SOL    HW136791   1.747   0.095   6.035  0.0330 -0.3920 -0.5857
 8444SOL    HW236792   1.718   0.033   5.908 -2.3618 -0.8312  1.4114
 8445SOL     OW36793   0.628   2.857   7.048  0.1709  0.2913  0.4326
 8445SOL    HW136794   0.557   2.807   7.006 -0.2113  1.5695 -0.4398
 8445SOL    HW236795   0.608   2.940   7.006 -0.3842  0.8037  1.7254
 8446SOL     OW36796   2.892   1.016   6.626 -0.6048 -0.1069 -0.4929
 8446SOL    HW136797   2.823   1.083   6.628  0.0311  0.4876  0.9926
 8446SOL    HW236798   2.963   1.077   6.609  0.1145 -0.6290  0.6319
 8447SOL     OW36799   3.748   3.859   3.656  0.4271 -0.0219  0.1636
 8447SOL    HW136800   3.743   3.783   3.715 -0.4103  1.0290  1.4527
 8447SOL    HW236801   3.805   3.918   3.706 -0.2565  0.4105  0.4323
 8448SOL     OW36802   2.811   3.112   0.985  0.3942  1.1694  0.1825
 8448SOL    HW136803   2.895   3.082   0.949 -0.9505 -0.7936 -1.3163
 8448SOL    HW236804   2.758   3.076   0.915  1.5697 -0.1028 -0.0735
 8449SOL     OW36805   4.184   2.249   7.650  0.0459  0.2820  0.1535
 8449SOL    HW136806   4.180   2.333   7.697 -3.8229 -0.0876  0.4807
 8449SOL    HW236807   4.089   2.238   7.648  0.1754 -0.6204 -0.6304
 8450SOL     OW36808   4.706   2.919   7.418  0.0159 -0.4024 -0.2045
 8450SOL    HW136809   0.031   2.946   7.496  0.6791 -1.1434 -0.3614
 8450SOL    HW236810   0.001   2.998   7.367  1.4683  0.1935  1.2487
 8451SOL     OW36811   2.328   3.394   5.243 -0.2444 -0.1853 -0.1213
 8451SOL    HW136812   2.401   3.359   5.294 -0.5897 -1.7807 -0.7353
 8451SOL    HW236813   2.325   3.483   5.278  2.5113 -0.6484  1.2828
 8452SOL     OW36814   1.969   1.645   7.328 -0.5425 -0.3233 -0.1852
 8452SOL    HW136815   1.956   1.596   7.247 -0.7134  0.2832 -0.5241
 8452SOL    HW236816   2.043   1.694   7.292 -0.8940 -0.3658 -0.9593
 8453SOL     OW36817   1.915   2.399   8.264  0.0218 -0.0123  0.2542
 8453SOL    HW136818   1.929   2.454   8.187 -1.5349  0.1010  0.0470
 8453SOL    HW236819   1.925   2.465   8.332  0.2139  0.3352 -0.1170
 8454SOL     OW36820   0.277   0.984  10.059 -0.0864 -0.0889  0.3591
 8454SOL    HW136821   0.219   1.045  10.016 -1.3237 -1.0079  0.7266
 8454SOL    HW236822   0.356   1.022  10.021 -0.4980  0.0348 -0.3710
 8455SOL     OW36823   2.271   1.901  12.670 -0.2440  0.2104 -0.3101
 8455SOL    HW136824   2.325   1.849  12.609 -0.2121 -1.8395  1.4565
 8455SOL    HW236825   2.309   1.876  12.754  1.3891 -0.1278 -1.1432
 8456SOL     OW36826   0.625   3.121   5.716  0.6204 -0.3002 -0.7384
 8456SOL    HW136827   0.582   3.206   5.710  3.0840  1.1143  1.4828
 8456SOL    HW236828   0.710   3.146   5.680 -0.0979  0.6147 -1.7783
 8457SOL     OW36829   0.287   4.395   2.460 -0.2156  0.5104 -0.5633
 8457SOL    HW136830   0.322   4.308   2.441 -0.3742  0.4416 -0.5376
 8457SOL    HW236831   0.196   4.386   2.489  1.3611 -2.4512  3.4732
 8458SOL     OW36832   1.250   2.305   5.851  0.0367 -0.1362 -0.0397
 8458SOL    HW136833   1.228   2.396   5.831 -1.9187 -0.6284 -0.1573
 8458SOL    HW236834   1.247   2.309   5.947  2.2416 -0.1987  0.0438
 8459SOL     OW36835   4.618   1.404   6.211 -0.5675  0.0670 -0.2143
 8459SOL    HW136836   4.686   1.346   6.177 -1.2660 -1.1519  0.4510
 8459SOL    HW236837   4.649   1.487   6.174 -0.5491  0.1201 -0.0837
 8460SOL     OW36838   0.174   2.035   0.062 -0.0533  0.1937 -0.6296
 8460SOL    HW136839   0.168   2.060  17.666  0.7602  0.3451 -0.6494
 8460SOL    HW236840   0.082   2.029   0.084  0.0344 -0.8961 -0.5385
 8461SOL     OW36841   4.672   1.459   8.599 -0.3333 -0.6787  0.0005
 8461SOL    HW136842   4.690   1.368   8.626  1.1257 -0.2027  0.6416
 8461SOL    HW236843   4.618   1.489   8.672 -1.3555  0.8551 -1.3998
 8462SOL     OW36844   0.557   3.538   5.461 -0.1493 -0.1590  0.0737
 8462SOL    HW136845   0.471   3.553   5.500  0.0064 -1.3982  0.8891
 8462SOL    HW236846   0.534   3.471   5.396  1.8824 -1.9721  1.2244
 8463SOL     OW36847   2.026   0.645   3.259  0.0259  0.6442 -0.4268
 8463SOL    HW136848   2.011   0.737   3.281  0.9624  1.4650 -3.2751
 8463SOL    HW236849   1.989   0.644   3.170  1.4556  2.0331 -1.0378
 8464SOL     OW36850   3.672   2.992   6.755 -0.4363  0.7774  0.1906
 8464SOL    HW136851   3.676   3.019   6.847  0.6557  0.1568  0.3290
 8464SOL    HW236852   3.577   2.997   6.744 -0.2938  2.4980 -0.3509
 8465SOL     OW36853   2.949   1.536  11.604 -0.2401  0.2828 -0.2459
 8465SOL    HW136854   2.997   1.563  11.526  1.0908  0.2169  0.5385
 8465SOL    HW236855   2.949   1.622  11.648 -0.8764 -0.9230  2.1224
 8466SOL     OW36856   1.827   2.287  10.500  1.0598  0.2956  0.5887
 8466SOL    HW136857   1.889   2.343  10.453  1.9940 -0.2027  1.2333
 8466SOL    HW236858   1.797   2.232  10.428  2.0119 -1.6198  1.6713
 8467SOL     OW36859   2.330   0.206  14.670  0.6229  0.8700 -0.5059
 8467SOL    HW136860   2.360   0.145  14.602 -1.1862 -2.1562  1.3720
 8467SOL    HW236861   2.333   0.159  14.753  2.7082  1.3804 -0.2932
 8468SOL     OW36862   1.690   4.489   6.106  0.7263 -0.3488 -0.4597
 8468SOL    HW136863   1.651   4.523   6.187 -0.1349  0.2358 -1.1179
 8468SOL    HW236864   1.728   4.564   6.061 -0.4475 -0.7005 -2.0555
 8469SOL     OW36865   1.898   3.946   3.249 -0.5960 -0.1804 -0.2463
 8469SOL    HW136866   1.990   3.964   3.230 -0.3080 -1.1434  0.2729
 8469SOL    HW236867   1.859   4.026   3.213 -3.3095 -0.3628  2.3185
 8470SOL     OW36868   2.539   3.612   3.840 -0.8799 -0.0293 -0.0766
 8470SOL    HW136869   2.507   3.648   3.922 -0.9014  0.0805 -0.1334
 8470SOL    HW236870   2.558   3.696   3.798  0.3177  0.7601  2.0956
 8471SOL     OW36871   4.541   1.584  13.606 -0.5071 -0.2441 -0.2084
 8471SOL    HW136872   4.467   1.618  13.654 -1.5178 -1.6414 -0.7751
 8471SOL    HW236873   4.591   1.543  13.677  0.6546 -0.1790 -0.9725
 8472SOL     OW36874   1.782   3.353   1.268  0.3126  0.0153  0.3908
 8472SOL    HW136875   1.775   3.258   1.274 -1.0574 -0.0061 -1.7029
 8472SOL    HW236876   1.791   3.372   1.361  0.9827  0.3042  0.2650
 8473SOL     OW36877   1.614   3.289   7.389 -0.0780  0.0114 -0.2022
 8473SOL    HW136878   1.593   3.277   7.482 -0.8732 -0.1889 -0.4069
 8473SOL    HW236879   1.658   3.206   7.374 -0.3718 -0.0312 -0.8185
 8474SOL     OW36880   2.519   2.838   9.278  0.1170 -0.2313 -0.1740
 8474SOL    HW136881   2.511   2.780   9.354  1.5251 -1.9777 -1.3589
 8474SOL    HW236882   2.558   2.914   9.320 -2.5061  0.9762  0.0275
 8475SOL     OW36883   1.601   2.372   1.121  0.5281  0.0609  0.1334
 8475SOL    HW136884   1.668   2.304   1.112  0.8727  0.2504  1.3381
 8475SOL    HW236885   1.613   2.424   1.042 -0.1999  0.0852  0.0365
 8476SOL     OW36886   4.281   0.677   8.932  0.1130  0.0141 -0.2991
 8476SOL    HW136887   4.234   0.653   9.011 -1.4735 -2.4015 -1.9843
 8476SOL    HW236888   4.316   0.758   8.970 -1.3695  0.4413  0.1322
 8477SOL     OW36889   0.528   4.515   2.255 -0.3362 -0.1299  0.3279
 8477SOL    HW136890   0.471   4.464   2.313 -1.2938  1.5473  0.8601
 8477SOL    HW236891   0.601   4.455   2.243  1.1481  2.0410 -1.5634
 8478SOL     OW36892   0.263   2.132   5.137 -0.2241 -0.4622  0.4144
 8478SOL    HW136893   0.325   2.142   5.065 -0.1330  0.6861  0.6480
 8478SOL    HW236894   0.216   2.054   5.110 -2.0516  0.8834 -0.3159
 8479SOL     OW36895   2.419   2.272   1.820 -0.1002  0.2112 -0.0809
 8479SOL    HW136896   2.368   2.253   1.899 -1.3867  0.3444 -0.8917
 8479SOL    HW236897   2.391   2.203   1.761  1.7600 -0.5051 -0.1354
 8480SOL     OW36898   2.778   1.228   7.448 -0.3832  0.1013 -0.5908
 8480SOL    HW136899   2.758   1.302   7.505 -0.8140 -1.0757  0.7804
 8480SOL    HW236900   2.719   1.161   7.483 -0.4592  0.8749  0.7531
 8481SOL     OW36901   2.402   3.912   3.097 -0.5574  0.6415  0.4982
 8481SOL    HW136902   2.471   3.896   3.160 -0.4124  0.9023  0.4084
 8481SOL    HW236903   2.440   3.891   3.012  1.7478 -0.0579  1.7309
 8482SOL     OW36904   2.856   3.751   3.194 -0.0078 -0.3995 -0.4112
 8482SOL    HW136905   2.821   3.672   3.153 -0.1405 -1.1192  1.0786
 8482SOL    HW236906   2.931   3.713   3.239  0.0918 -1.0734 -1.1521
 8483SOL     OW36907   3.319   2.588   3.952  0.6628  0.5162 -0.0548
 8483SOL    HW136908   3.364   2.513   3.992 -1.3568 -0.0897  1.0651
 8483SOL    HW236909   3.353   2.663   4.001  3.3819 -0.1100 -0.9948
 8484SOL     OW36910   4.536   0.229   8.265  0.1382 -0.2103 -0.4076
 8484SOL    HW136911   4.523   0.243   8.172 -0.1281 -6.6745 -1.3726
 8484SOL    HW236912   4.535   0.316   8.304 -2.1086 -0.5187  0.2294
 8485SOL     OW36913   3.141   4.173  13.600 -0.1956 -0.0334 -0.8882
 8485SOL    HW136914   3.143   4.085  13.564 -1.1991 -0.2607 -0.3991
 8485SOL    HW236915   3.121   4.225  13.522  2.5703  0.7772 -1.0501
 8486SOL     OW36916   4.185   3.111  16.303  0.0218  0.3192 -0.2522
 8486SOL    HW136917   4.213   3.049  16.235  0.5804  0.0342  0.2301
 8486SOL    HW236918   4.264   3.161  16.324  0.6697 -1.0899  0.7196
 8487SOL     OW36919   1.647   3.708   3.854  0.8927  0.0747 -0.5219
 8487SOL    HW136920   1.706   3.639   3.822 -0.4592 -0.3225 -2.1302
 8487SOL    HW236921   1.677   3.789   3.813 -0.9629  0.5798 -0.8721
 8488SOL     OW36922   3.602   3.938   6.516  0.2308  0.6860 -0.5641
 8488SOL    HW136923   3.657   3.999   6.565  3.4276 -1.7917 -1.0581
 8488SOL    HW236924   3.552   4.004   6.467  1.1834  0.5542 -1.7301
 8489SOL     OW36925   3.375   1.097   9.647  0.0290 -0.1406 -0.0541
 8489SOL    HW136926   3.363   1.173   9.704 -0.1077 -0.2718  0.0922
 8489SOL    HW236927   3.349   1.033   9.713 -0.6307  1.8992  1.6655
 8490SOL     OW36928   1.534   2.930   4.762  0.6685  0.4367  0.0351
 8490SOL    HW136929   1.540   2.997   4.694 -2.2838  1.4623  0.8132
 8490SOL    HW236930   1.474   2.873   4.715  1.4316  0.9056 -1.5023
 8491SOL     OW36931   1.298   0.231   8.437  0.3106 -0.4223  0.0548
 8491SOL    HW136932   1.392   0.224   8.454 -0.0578 -1.9985  1.4475
 8491SOL    HW236933   1.283   0.148   8.393  1.8093 -1.0872  0.7877
 8492SOL     OW36934   1.595   2.105  16.299  0.1391  0.0649  0.1727
 8492SOL    HW136935   1.641   2.135  16.220  0.2901 -0.5017  0.0473
 8492SOL    HW236936   1.654   2.030  16.308  0.1783 -0.4087 -4.1561
 8493SOL     OW36937   4.073   1.531  15.747 -0.4844  0.3575 -0.0051
 8493SOL    HW136938   4.022   1.556  15.824  0.5005  0.5913  0.5745
 8493SOL    HW236939   4.138   1.486  15.801 -0.3776  1.7857  1.0653
 8494SOL     OW36940   3.430   0.680   2.399 -0.0426 -0.3783  0.0390
 8494SOL    HW136941   3.450   0.728   2.479 -2.1005  0.5953 -0.0420
 8494SOL    HW236942   3.464   0.591   2.414 -0.6112 -1.0000 -2.3474
 8495SOL     OW36943   4.406   1.849   3.968 -0.4380 -0.2362 -0.4207
 8495SOL    HW136944   4.477   1.851   3.904 -0.5929  0.8940 -0.5670
 8495SOL    HW236945   4.440   1.860   4.057  1.0691 -3.4575 -0.6077
 8496SOL     OW36946   0.207   4.091  12.029  0.2809 -0.0188 -0.0255
 8496SOL    HW136947   0.130   4.148  12.029  0.0607 -0.3103 -2.5163
 8496SOL    HW236948   0.220   4.103  12.123  1.9442 -1.4021 -0.0797
 8497SOL     OW36949   2.333   0.955  14.266  0.3416 -0.2136 -0.1913
 8497SOL    HW136950   2.266   0.889  14.281  0.5544 -0.5738 -0.8189
 8497SOL    HW236951   2.339   0.987  14.356 -3.4063  1.9584 -0.7235
 8498SOL     OW36952   3.459   2.645   8.528 -0.3090  0.2678 -0.8914
 8498SOL    HW136953   3.385   2.603   8.572  0.3073  0.3526  0.2221
 8498SOL    HW236954   3.419   2.690   8.454 -0.9927 -0.1991 -0.8025
 8499SOL     OW36955   4.591   0.952   8.109 -0.3136  0.5645 -0.2266
 8499SOL    HW136956   4.571   1.034   8.154  2.2244  0.4540  1.0584
 8499SOL    HW236957   4.557   0.890   8.174 -2.2383  0.4133 -1.3826
 8500SOL     OW36958   0.302   2.783   8.834 -0.5304  0.8710 -0.2606
 8500SOL    HW136959   0.276   2.780   8.926  1.7985 -0.2625  0.3672
 8500SOL    HW236960   0.310   2.689   8.814  1.7165  0.7201  1.3323
 8501SOL     OW36961   3.496   3.000   7.440  0.4790 -0.6461 -0.1632
 8501SOL    HW136962   3.587   3.023   7.462 -0.1281  1.3305  0.2273
 8501SOL    HW236963   3.453   2.989   7.525 -0.1221  0.0345 -0.3776
 8502SOL     OW36964   1.245   0.361   7.872 -0.1778  0.4668 -0.1946
 8502SOL    HW136965   1.331   0.326   7.846  0.3271  1.5633 -0.0043
 8502SOL    HW236966   1.251   0.455   7.856 -1.2162  0.2695 -1.7160
 8503SOL     OW36967   3.820   0.337   8.612 -0.5969  0.4858 -0.2344
 8503SOL    HW136968   3.913   0.319   8.599 -0.8396 -1.8358  1.3446
 8503SOL    HW236969   3.816   0.382   8.696  0.0293 -1.6319  0.9260
 8504SOL     OW36970   2.195   3.889   0.822 -0.1717  0.7690  0.3328
 8504SOL    HW136971   2.286   3.899   0.849  0.7263  0.4780 -2.5880
 8504SOL    HW236972   2.165   3.808   0.863  2.4742 -1.1366 -1.4871
 8505SOL     OW36973   2.996   3.268   8.026 -0.2672  0.1439  0.1762
 8505SOL    HW136974   2.965   3.359   8.020 -0.3220  0.0740 -0.6751
 8505SOL    HW236975   2.972   3.241   7.937 -0.5043 -1.6142  0.7727
 8506SOL     OW36976   4.142   1.364   7.619  0.6645  0.1917  0.5273
 8506SOL    HW136977   4.097   1.295   7.570 -1.5727  2.1236 -0.1480
 8506SOL    HW236978   4.231   1.351   7.587 -0.3175 -0.4812 -1.9788
 8507SOL     OW36979   1.745   1.582   0.772  0.1317 -0.1508  0.5073
 8507SOL    HW136980   1.749   1.612   0.681  2.0474  0.0249  0.6440
 8507SOL    HW236981   1.672   1.637   0.802  0.8183  1.5575 -0.9694
 8508SOL     OW36982   0.943   2.186   4.809 -0.1718 -0.0934 -0.0780
 8508SOL    HW136983   1.037   2.171   4.795  0.1841 -0.4615  2.6997
 8508SOL    HW236984   0.903   2.117   4.756 -0.0680 -0.6647  0.5903
 8509SOL     OW36985   1.381   2.038  17.104 -0.4887 -0.1175 -0.1312
 8509SOL    HW136986   1.457   2.095  17.092 -1.2978  0.7264 -1.2999
 8509SOL    HW236987   1.383   2.025  17.199  0.6035  0.2369 -0.1016
 8510SOL     OW36988   4.124   2.830  11.477 -0.0939 -0.2513  0.5148
 8510SOL    HW136989   4.051   2.774  11.449 -1.9828  0.9634  3.1040
 8510SOL    HW236990   4.143   2.882  11.398  0.4158 -0.6869  0.3455
 8511SOL     OW36991   4.593   2.443   1.545  0.8061 -0.0243 -0.1495
 8511SOL    HW136992   4.625   2.376   1.485  0.2129 -1.0942  0.7237
 8511SOL    HW236993   4.671   2.498   1.548  1.3885 -0.8699  0.1371
 8512SOL     OW36994   0.015   4.498   7.556 -0.2122  0.5050 -0.3270
 8512SOL    HW136995   4.675   4.561   7.591 -1.6673 -0.1222 -1.8317
 8512SOL    HW236996   4.694   4.429   7.507 -0.8129  2.0703 -1.9919
 8513SOL     OW36997   0.228   4.394  16.748  0.1288  0.3624 -0.5171
 8513SOL    HW136998   0.291   4.384  16.677 -2.2939 -0.4155 -2.5576
 8513SOL    HW236999   0.146   4.395  16.698 -0.2859 -0.0876  0.1503
 8514SOL     OW37000   1.562   1.131  11.746 -0.3820 -0.1008 -0.0309
 8514SOL    HW137001   1.657   1.117  11.754 -0.2473 -0.7861 -2.9163
 8514SOL    HW237002   1.533   1.084  11.824  0.1445  2.1279  1.5141
 8515SOL     OW37003   4.476   1.561   9.336  0.3440  0.1808  0.0605
 8515SOL    HW137004   4.537   1.568   9.409 -2.1175  1.5638  1.9659
 8515SOL    HW237005   4.520   1.489   9.291  1.1813  0.1011  1.0121
 8516SOL     OW37006   1.116   2.452  13.594 -0.1087  0.6261 -0.2117
 8516SOL    HW137007   1.048   2.509  13.630 -0.2076  0.7986 -0.6838
 8516SOL    HW237008   1.100   2.448  13.500 -0.4937  0.9679 -0.1623
 8517SOL     OW37009   1.372   2.566  12.335 -0.4064  0.6150 -0.3914
 8517SOL    HW137010   1.351   2.517  12.414  1.0912 -1.2980 -1.1734
 8517SOL    HW237011   1.409   2.499  12.278 -1.2137 -0.4894  0.4018
 8518SOL     OW37012   2.736   1.905  14.557  0.9285  0.0021 -0.4520
 8518SOL    HW137013   2.796   1.933  14.488 -0.0170  1.0955 -0.8472
 8518SOL    HW237014   2.731   1.990  14.602  0.7999  1.2628 -2.8593
 8519SOL     OW37015   0.663   3.469   0.164 -0.3972 -0.7078 -0.0863
 8519SOL    HW137016   0.629   3.518   0.089 -0.0993  0.0289  0.2576
 8519SOL    HW237017   0.701   3.394   0.118 -0.8924 -1.7189  1.1496
 8520SOL     OW37018   3.236   0.436   2.967  0.8151 -0.3000  0.5336
 8520SOL    HW137019   3.266   0.527   2.965 -1.2374  0.3613  0.0301
 8520SOL    HW237020   3.159   0.439   3.024  1.6087 -1.5217  1.6740
 8521SOL     OW37021   3.352   0.940   2.148 -0.1831 -0.0543  0.3398
 8521SOL    HW137022   3.441   0.942   2.113  0.7773 -1.6625  2.6384
 8521SOL    HW237023   3.372   0.940   2.242  0.5605 -0.3428  0.1752
 8522SOL     OW37024   2.346   2.157   6.205  0.5396 -0.1691 -0.4149
 8522SOL    HW137025   2.439   2.173   6.225 -0.4946  1.7877  2.9237
 8522SOL    HW237026   2.315   2.230   6.258  0.9162  1.1331 -2.0067
 8523SOL     OW37027   0.967   2.059  17.670  0.3812 -0.5830  0.1505
 8523SOL    HW137028   0.970   2.064   0.069  0.9884 -1.2167  0.1645
 8523SOL    HW237029   0.877   2.031  17.650 -0.0422  1.3656 -0.6599
 8524SOL     OW37030   0.210   3.598   6.281 -0.4334  0.1069 -0.3189
 8524SOL    HW137031   0.153   3.544   6.226  1.0995 -0.3077 -1.4794
 8524SOL    HW237032   0.156   3.633   6.352  0.8707  2.1567 -0.3208
 8525SOL     OW37033   3.948   1.936   4.036 -0.2163 -0.0523 -0.0273
 8525SOL    HW137034   4.024   1.900   3.990 -0.9162 -1.2426 -0.2453
 8525SOL    HW237035   3.874   1.896   3.992  0.6590  0.2708 -1.7724
 8526SOL     OW37036   4.443   1.261   8.557  0.1809 -0.2661 -0.5900
 8526SOL    HW137037   4.466   1.337   8.503  0.8714 -0.1705 -0.1571
 8526SOL    HW237038   4.523   1.231   8.600 -1.2306 -1.0338  1.5014
 8527SOL     OW37039   4.665   3.549   7.037  0.1228 -0.0986  0.4755
 8527SOL    HW137040   4.599   3.519   6.973  0.7669  0.0232 -0.2438
 8527SOL    HW237041   4.630   3.503   7.113 -0.4464  1.8755  1.4177
 8528SOL     OW37042   0.186   3.002  12.931  0.4862 -0.0486 -0.0073
 8528SOL    HW137043   0.123   3.033  12.866  0.0702 -1.8832 -0.4944
 8528SOL    HW237044   0.129   2.966  12.999  1.9130 -2.3093  0.0184
 8529SOL     OW37045   3.105   1.695   0.861  0.2997 -0.7103 -0.0682
 8529SOL    HW137046   3.045   1.645   0.805  0.0373  0.9427 -1.2757
 8529SOL    HW237047   3.193   1.668   0.836  0.2613 -0.5155 -0.4173
 8530SOL     OW37048   0.869   0.470  17.543  0.3215  0.5923 -0.5091
 8530SOL    HW137049   0.847   0.510  17.459 -2.0784 -0.3828 -0.3437
 8530SOL    HW237050   0.939   0.410  17.521  0.0619  0.1438 -0.1048
 8531SOL     OW37051   3.992   3.223   6.554 -0.2191  0.0379 -0.2989
 8531SOL    HW137052   4.075   3.257   6.521  0.6831  0.2426  2.1882
 8531SOL    HW237053   4.024   3.136   6.581  0.9539  0.8352  0.8633
 8532SOL     OW37054   0.446   1.822   2.109  0.1395 -0.1192 -0.1245
 8532SOL    HW137055   0.373   1.855   2.056 -0.5600  0.3418  1.1224
 8532SOL    HW237056   0.434   1.731   2.081  0.9580  0.7632 -3.3138
 8533SOL     OW37057   3.202   1.278   9.022 -0.0384 -0.4257 -0.3136
 8533SOL    HW137058   3.154   1.247   9.099  2.5227 -0.7282  1.1619
 8533SOL    HW237059   3.266   1.207   9.014 -1.0858 -1.5697  1.2236
 8534SOL     OW37060   2.600   1.491   8.039  0.3354  0.0688 -0.1555
 8534SOL    HW137061   2.520   1.488   7.985  0.2347 -1.1883  0.0546
 8534SOL    HW237062   2.630   1.579   8.015  0.3648  0.0811 -0.0716
 8535SOL     OW37063   2.207   0.027   9.877 -0.2423  0.6819 -0.5327
 8535SOL    HW137064   2.294   0.056   9.847  1.3929 -3.3514  0.2587
 8535SOL    HW237065   2.210   0.054   9.968 -2.3878 -1.7361  0.2509
 8536SOL     OW37066   0.597   2.492   7.316 -0.5930  0.2372  0.2908
 8536SOL    HW137067   0.573   2.512   7.225  1.4653  3.1816  0.4007
 8536SOL    HW237068   0.631   2.403   7.311  0.1625  0.5477 -0.1870
 8537SOL     OW37069   4.166   0.810   0.666  0.3164 -0.4349  0.2890
 8537SOL    HW137070   4.077   0.838   0.643  0.3578 -0.0905  0.5543
 8537SOL    HW237071   4.191   0.874   0.732 -0.6618 -0.1963  0.4285
 8538SOL     OW37072   0.580   3.705   1.267 -0.1693 -0.1950  0.0960
 8538SOL    HW137073   0.511   3.747   1.215 -0.1603  1.1941  1.2254
 8538SOL    HW237074   0.609   3.643   1.201  0.1754 -1.4346  1.4102
 8539SOL     OW37075   4.334   1.885   2.482 -0.2684  0.3753  0.5993
 8539SOL    HW137076   4.321   1.980   2.471 -2.1430 -0.0291 -0.6620
 8539SOL    HW237077   4.257   1.859   2.533 -0.2674 -0.0260  0.3885
 8540SOL     OW37078   1.647   0.332   3.422  0.0417  0.3032  0.2023
 8540SOL    HW137079   1.675   0.406   3.369  1.2460 -0.2906  0.0194
 8540SOL    HW237080   1.703   0.360   3.494  0.5667 -0.7715  0.2199
 8541SOL     OW37081   1.282   2.782   4.107  0.3488 -0.4546 -0.0754
 8541SOL    HW137082   1.199   2.829   4.120  1.6863  1.3268  2.0747
 8541SOL    HW237083   1.238   2.716   4.053  1.8721 -1.3354 -0.2284
 8542SOL     OW37084   3.247   3.106   0.531 -0.7076  0.1798 -0.3215
 8542SOL    HW137085   3.234   3.178   0.469  1.3405  1.0198  0.2272
 8542SOL    HW237086   3.343   3.106   0.539 -0.7477  0.8272  0.1524
 8543SOL     OW37087   4.305   1.862   7.271  0.2159 -0.0980  0.1297
 8543SOL    HW137088   4.260   1.885   7.189 -0.6386 -0.2466  0.5512
 8543SOL    HW237089   4.247   1.791   7.301  0.5827 -0.3473  0.2429
 8544SOL     OW37090   1.592   3.608  14.565 -0.2394  0.1434  0.5234
 8544SOL    HW137091   1.589   3.689  14.514  0.6908  0.4264  0.9125
 8544SOL    HW237092   1.586   3.536  14.503 -0.9588  1.2519 -0.6875
 8545SOL     OW37093   3.267   0.023   4.281 -0.1504 -0.3678  0.4978
 8545SOL    HW137094   3.242   0.031   4.373  0.4894 -2.4641  0.8521
 8545SOL    HW237095   3.288   4.655   4.261  1.4277  0.2151 -0.5328
 8546SOL     OW37096   3.571   2.343   5.835  0.3887 -0.1933 -0.1836
 8546SOL    HW137097   3.557   2.418   5.777  2.7932  0.7916  0.4906
 8546SOL    HW237098   3.527   2.365   5.917  0.9239  1.2785 -0.2890
 8547SOL     OW37099   0.980   1.828   2.371  0.4418  0.2007 -0.1622
 8547SOL    HW137100   0.990   1.738   2.339 -2.5477 -0.9323  2.0069
 8547SOL    HW237101   0.940   1.869   2.294  0.3897  1.0257  0.3007
 8548SOL     OW37102   2.127   3.169   6.897  0.6449 -0.4392  0.3311
 8548SOL    HW137103   2.093   3.082   6.878  1.9339 -0.8428 -0.1484
 8548SOL    HW237104   2.163   3.162   6.986 -0.5417 -3.2738  0.6042
 8549SOL     OW37105   3.232   1.887   5.828  0.4883 -0.3609  0.1837
 8549SOL    HW137106   3.295   1.879   5.756  0.2906  1.5767 -0.2025
 8549SOL    HW237107   3.264   1.959   5.882 -1.1934  0.8781 -0.4521
 8550SOL     OW37108   0.534   4.629   8.597 -0.2129  0.1213  0.9151
 8550SOL    HW137109   0.571   4.718   8.596  1.2511 -0.4947  0.1532
 8550SOL    HW237110   0.477   4.637   8.673  0.2068  2.0134  1.0410
 8551SOL     OW37111   1.728   4.366   8.118 -0.3819 -0.1831 -0.0483
 8551SOL    HW137112   1.721   4.271   8.111  0.5023 -0.1987 -0.7791
 8551SOL    HW237113   1.652   4.383   8.063 -0.4073  2.4043  0.7589
 8552SOL     OW37114   4.167   0.165  16.525 -0.2479  0.7535  0.3165
 8552SOL    HW137115   4.159   0.178  16.430 -0.0245 -1.6426 -0.0372
 8552SOL    HW237116   4.108   0.233  16.555 -0.3718  1.0876 -0.6795
 8553SOL     OW37117   4.531   1.350   8.939 -0.1808  0.2129 -0.0791
 8553SOL    HW137118   4.463   1.290   8.907 -0.5813  0.2091  0.7786
 8553SOL    HW237119   4.515   1.425   8.881 -2.0510 -0.6567 -0.6906
 8554SOL     OW37120   0.961   2.563  11.075  0.2561 -0.0058 -0.6119
 8554SOL    HW137121   1.048   2.535  11.044 -0.4257 -2.3520 -0.4282
 8554SOL    HW237122   0.920   2.601  10.998 -0.0108  0.3039 -0.3144
 8555SOL     OW37123   1.458   3.612  12.992  0.1737  0.1500 -0.5534
 8555SOL    HW137124   1.482   3.623  13.084 -1.3701  1.6241 -0.3274
 8555SOL    HW237125   1.390   3.545  12.996 -0.0086  0.4598  1.2304
 8556SOL     OW37126   3.633   0.702   5.162  0.2343 -0.3027  0.3203
 8556SOL    HW137127   3.596   0.785   5.192 -0.3055 -0.2408 -0.5094
 8556SOL    HW237128   3.714   0.704   5.213 -0.3798 -0.4966  1.3050
 8557SOL     OW37129   3.299   3.642   2.498 -0.4500  0.2126  0.4035
 8557SOL    HW137130   3.266   3.698   2.428 -0.3589  1.3843  1.2800
 8557SOL    HW237131   3.284   3.699   2.574  1.8048 -0.6463  1.4726
 8558SOL     OW37132   3.280   4.338   9.764  0.2549  0.0506  0.0112
 8558SOL    HW137133   3.273   4.243   9.756  2.2050 -0.0348 -0.5711
 8558SOL    HW237134   3.371   4.335   9.793 -0.1608 -0.3030  1.2808
 8559SOL     OW37135   0.093   3.562  10.744 -0.2744 -0.1113 -0.1447
 8559SOL    HW137136   0.186   3.573  10.725 -0.6959  3.1365 -0.3671
 8559SOL    HW237137   0.053   3.537  10.661 -1.4145 -1.0408  0.6788
 8560SOL     OW37138   3.165   2.920   9.041  0.4513 -0.5506  0.0474
 8560SOL    HW137139   3.235   2.871   8.997 -0.2381  1.3767 -3.2198
 8560SOL    HW237140   3.122   2.853   9.094 -0.8023  0.2401  0.0328
 8561SOL     OW37141   1.738   4.104  11.014 -0.5933  0.5269 -0.5631
 8561SOL    HW137142   1.742   4.010  10.994 -1.6398  0.8229 -2.1551
 8561SOL    HW237143   1.643   4.116  11.014 -0.5018  1.2850  1.6594
 8562SOL     OW37144   1.372   2.775   2.061 -0.1675 -0.3141 -0.4640
 8562SOL    HW137145   1.396   2.693   2.018 -1.3291 -0.3568 -1.0225
 8562SOL    HW237146   1.363   2.749   2.153 -0.5673 -1.2076 -0.7533
 8563SOL     OW37147   0.539   1.596   0.797  0.1452  0.4572  0.2257
 8563SOL    HW137148   0.547   1.691   0.803 -0.4624  0.4977  0.3539
 8563SOL    HW237149   0.580   1.571   0.714 -1.8819 -1.1186 -0.3035
 8564SOL     OW37150   3.522   0.563  12.384 -0.4926  0.0228  0.5818
 8564SOL    HW137151   3.559   0.577  12.297  0.5641 -1.4523  0.7931
 8564SOL    HW237152   3.499   0.649  12.418 -4.0856 -1.1873  1.1861
 8565SOL     OW37153   2.232   2.660   9.540 -0.6104 -0.2874  0.0602
 8565SOL    HW137154   2.259   2.571   9.561 -0.4965 -0.3452 -0.3289
 8565SOL    HW237155   2.309   2.710   9.567 -0.2034  0.2161 -2.0097
 8566SOL     OW37156   2.848   4.649  10.401  0.3010 -0.1518 -0.3098
 8566SOL    HW137157   2.899   4.663  10.481  0.3600 -2.2686  0.0359
 8566SOL    HW237158   2.907   4.685  10.335  1.2504 -1.2177 -0.0592
 8567SOL     OW37159   3.370   2.209   7.057  0.4281 -0.5323 -0.1387
 8567SOL    HW137160   3.466   2.209   7.052  0.4905 -0.8610  0.8882
 8567SOL    HW237161   3.344   2.127   7.099 -1.3971  0.3175  0.3703
 8568SOL     OW37162   2.588   3.502  16.170  0.5876 -0.2907 -0.3066
 8568SOL    HW137163   2.518   3.482  16.109 -0.7661  3.3138  0.0429
 8568SOL    HW237164   2.645   3.430  16.143 -0.6384 -1.5238  0.3887
 8569SOL     OW37165   2.437   3.330   8.627 -0.0876  0.5454 -0.1595
 8569SOL    HW137166   2.436   3.298   8.536  0.4781 -0.5734  0.2207
 8569SOL    HW237167   2.502   3.265   8.654 -1.7529  0.1390  2.8443
 8570SOL     OW37168   0.086   0.592   4.203 -0.2165  0.1030 -0.2164
 8570SOL    HW137169   0.171   0.548   4.195  0.1898  0.5824  1.4141
 8570SOL    HW237170   0.066   0.567   4.293 -1.2980 -1.1490 -0.7933
 8571SOL     OW37171   3.719   3.929   4.586 -0.0592 -0.4878 -0.3560
 8571SOL    HW137172   3.687   3.838   4.589 -0.8634 -0.2318 -1.4571
 8571SOL    HW237173   3.805   3.921   4.628 -0.4256  0.8965  0.6529
 8572SOL     OW37174   3.922   3.814  17.077  0.1344 -0.2545  0.3141
 8572SOL    HW137175   3.912   3.733  17.127 -2.1007  0.1078  0.4458
 8572SOL    HW237176   4.012   3.811  17.043  0.2922  0.3463  0.6845
 8573SOL     OW37177   0.493   2.382  14.476  0.0457 -0.0208 -0.1013
 8573SOL    HW137178   0.454   2.299  14.449 -1.9890  0.8494  0.1819
 8573SOL    HW237179   0.414   2.418  14.516  0.2108 -1.2794  1.3449
 8574SOL     OW37180   3.831   1.614   8.698  0.6785  0.0412 -0.1193
 8574SOL    HW137181   3.817   1.523   8.669  1.5534  0.7498 -2.7939
 8574SOL    HW237182   3.753   1.655   8.660  0.7962  0.7608  0.4307
 8575SOL     OW37183   2.685   1.876   7.186 -0.2696 -0.1030 -0.2885
 8575SOL    HW137184   2.690   1.843   7.276  1.5303  1.2930  0.1418
 8575SOL    HW237185   2.777   1.855   7.167 -0.5661 -0.6539 -1.0641
 8576SOL     OW37186   1.668   0.401   4.285  0.2844 -0.6934 -0.0254
 8576SOL    HW137187   1.609   0.417   4.211  0.3481  0.8526  0.2621
 8576SOL    HW237188   1.688   0.493   4.305 -0.2428 -0.6325  0.2371
 8577SOL     OW37189   4.689   2.136  10.161  0.1088  0.3162  0.3293
 8577SOL    HW137190   4.675   2.211  10.103  0.0813  1.1468  1.4231
 8577SOL    HW237191   4.617   2.160  10.219 -0.5613 -0.1858 -0.2943
 8578SOL     OW37192   2.943   2.379  17.684 -0.0660  0.0110 -0.0265
 8578SOL    HW137193   2.885   2.430   0.044  1.3127  1.6698 -0.1075
 8578SOL    HW237194   3.000   2.448  17.648 -1.1784  0.2730 -1.3226
 8579SOL     OW37195   4.692   0.730   7.281  0.4232 -0.6360  0.0870
 8579SOL    HW137196   4.682   0.695   7.369 -0.3150  2.5755  1.2854
 8579SOL    HW237197   0.036   0.669   7.249  2.8964  1.8052  0.6799
 8580SOL     OW37198   0.252   1.515   2.775  0.2870 -0.3773  0.6092
 8580SOL    HW137199   0.287   1.603   2.762  1.6841 -0.8651  1.0251
 8580SOL    HW237200   0.186   1.519   2.845  1.0563 -0.5928  1.3411
 8581SOL     OW37201   4.312   1.860   2.935  0.8367  0.4753 -0.0812
 8581SOL    HW137202   4.261   1.894   3.008  0.2563  0.0123 -0.2720
 8581SOL    HW237203   4.326   1.946   2.896 -1.4817  1.5451  1.4456
 8582SOL     OW37204   0.485   3.033  15.788 -0.0777  0.1300  0.4899
 8582SOL    HW137205   0.436   2.993  15.860 -2.8840 -0.9291 -2.0193
 8582SOL    HW237206   0.428   3.011  15.714  0.9039 -1.0787  0.1051
 8583SOL     OW37207   2.495   1.151  11.547 -0.3556 -0.7616  0.1758
 8583SOL    HW137208   2.474   1.058  11.554  3.2908 -1.6291  0.0752
 8583SOL    HW237209   2.579   1.138  11.503 -0.7271 -2.8242  0.0736
 8584SOL     OW37210   1.297   3.805  14.917 -0.1715 -0.1935 -0.4329
 8584SOL    HW137211   1.257   3.759  14.991  0.3613  2.0991  1.2575
 8584SOL    HW237212   1.334   3.732  14.868  0.0331 -0.0189 -0.5397
 8585SOL     OW37213   1.014   3.650   4.260 -0.3706  0.2948  0.5435
 8585SOL    HW137214   0.932   3.619   4.221  1.5861 -2.1492 -1.6519
 8585SOL    HW237215   1.033   3.584   4.326  0.8680 -1.8260 -1.9122
 8586SOL     OW37216   3.829   3.401   7.239  0.4564 -0.6523  0.4223
 8586SOL    HW137217   3.838   3.321   7.187 -1.0487  0.9584 -2.2852
 8586SOL    HW237218   3.880   3.379   7.317  0.5083 -0.9905  0.2938
 8587SOL     OW37219   2.292   3.526   3.399 -0.3185  0.7339 -0.0819
 8587SOL    HW137220   2.258   3.601   3.350  2.2433  1.3435 -0.9373
 8587SOL    HW237221   2.366   3.498   3.345 -1.3871 -1.6283 -0.2862
 8588SOL     OW37222   2.313   3.168   4.713  0.2390  0.5470 -0.2487
 8588SOL    HW137223   2.333   3.121   4.794 -0.4575 -2.2146 -1.7016
 8588SOL    HW237224   2.220   3.180   4.731 -0.4513  0.6005 -3.7973
 8589SOL     OW37225   3.307   0.907   7.786 -0.3327  0.1373 -0.0474
 8589SOL    HW137226   3.320   0.812   7.781 -0.8063  0.1500 -1.3680
 8589SOL    HW237227   3.384   0.947   7.748  0.4759 -0.1357  1.2868
 8590SOL     OW37228   2.689   1.983   5.539  0.4481 -0.3086 -0.6104
 8590SOL    HW137229   2.653   2.063   5.577 -0.0029  0.1575 -2.0241
 8590SOL    HW237230   2.778   1.975   5.574  0.4350 -0.9061 -0.7094
 8591SOL     OW37231   3.856   0.023   9.940  0.3029  0.3415 -0.4344
 8591SOL    HW137232   3.851   4.691   9.863 -2.6456  0.4869 -0.3474
 8591SOL    HW237233   3.778   0.078   9.934 -0.7109 -0.9897  0.4143
 8592SOL     OW37234   0.354   1.839   2.824 -0.6245 -0.1195  0.0418
 8592SOL    HW137235   0.433   1.863   2.774 -0.4196  1.4757  1.1448
 8592SOL    HW237236   0.372   1.844   2.918 -0.0914  0.6579 -0.0931
 8593SOL     OW37237   0.885   0.682  13.559 -0.0257  0.3618 -0.4338
 8593SOL    HW137238   0.972   0.658  13.591 -0.9365 -1.0304  1.0382
 8593SOL    HW237239   0.862   0.747  13.626  0.0708  0.0346 -0.0803
 8594SOL     OW37240   1.854   2.877   5.823  0.5595  0.0262  0.2625
 8594SOL    HW137241   1.799   2.834   5.757  1.1619  1.7196 -1.3420
 8594SOL    HW237242   1.918   2.916   5.764  0.1844  0.8853  0.4158
 8595SOL     OW37243   2.865   1.322   1.821 -0.4649 -0.7694 -0.0255
 8595SOL    HW137244   2.878   1.380   1.747 -1.8703  0.1585  0.4608
 8595SOL    HW237245   2.900   1.243   1.779 -0.7998 -1.1635  0.4324
 8596SOL     OW37246   4.337   0.889   3.442 -0.6089  0.3807  0.0790
 8596SOL    HW137247   4.269   0.956   3.437 -2.0168 -1.1339 -1.3242
 8596SOL    HW237248   4.410   0.925   3.392 -1.1382  2.4068  0.7703
 8597SOL     OW37249   3.792   1.369  10.373 -0.9093 -0.1664  0.2664
 8597SOL    HW137250   3.738   1.324  10.437 -0.5052  2.2752  2.3268
 8597SOL    HW237251   3.768   1.456  10.406 -2.4908 -0.5855  0.1757
 8598SOL     OW37252   3.114   4.679  17.008 -0.0615  0.4769  0.4610
 8598SOL    HW137253   3.158   4.617  17.065  1.6589  1.0067 -0.2872
 8598SOL    HW237254   3.046   4.714  17.066  0.6498  2.0616  0.3371
 8599SOL     OW37255   0.728   0.160   3.884 -0.5737 -0.0992 -0.5234
 8599SOL    HW137256   0.807   0.112   3.907  0.1752  0.9744 -0.8547
 8599SOL    HW237257   0.658   0.121   3.937 -0.1684 -1.0535 -0.6856
 8600SOL     OW37258   2.881   3.769   9.104 -0.1181  0.2250  0.0454
 8600SOL    HW137259   2.954   3.756   9.043  0.0114 -0.0352  0.2573
 8600SOL    HW237260   2.841   3.851   9.075 -0.2305 -0.1745 -0.9067
 8601SOL     OW37261   4.313   1.778   0.435 -0.3259 -0.1386 -0.7649
 8601SOL    HW137262   4.374   1.711   0.405 -1.4319 -1.1682 -0.7408
 8601SOL    HW237263   4.249   1.718   0.473  0.1171 -2.1419 -3.1646
 8602SOL     OW37264   0.191   0.216  14.191 -0.3797 -0.2604 -0.2407
 8602SOL    HW137265   0.249   0.143  14.167  1.0854  0.1906  1.9133
 8602SOL    HW237266   0.252   0.259  14.251 -2.3494  1.0207  0.8219
 8603SOL     OW37267   0.401   3.515   5.077 -0.0899 -0.4557 -0.1850
 8603SOL    HW137268   0.493   3.522   5.098 -0.7098 -1.1744  2.7178
 8603SOL    HW237269   0.363   3.603   5.077 -2.7620 -1.5952  0.4290
 8604SOL     OW37270   2.056   1.183   7.176 -0.0555  0.5666  0.2928
 8604SOL    HW137271   2.040   1.115   7.111 -0.2989 -0.3843  1.3377
 8604SOL    HW237272   1.963   1.184   7.200 -0.3916  0.0466 -0.9884
 8605SOL     OW37273   4.025   0.559   8.866  0.1103  0.1942 -0.1363
 8605SOL    HW137274   4.064   0.528   8.948  1.7091  0.1229 -0.9157
 8605SOL    HW237275   3.942   0.518   8.888 -0.6037  2.1405  0.7639
 8606SOL     OW37276   2.945   2.964   2.951  0.0983  0.7842 -0.3856
 8606SOL    HW137277   2.923   2.962   3.044  1.9400 -0.3448  0.0262
 8606SOL    HW237278   3.041   2.972   2.953  0.1150 -0.0375  1.6643
 8607SOL     OW37279   1.105   1.675   7.692  0.1349 -0.5364  0.1126
 8607SOL    HW137280   1.109   1.660   7.597  1.8965  0.4648  0.0308
 8607SOL    HW237281   1.186   1.724   7.707  0.7079 -1.2238 -0.7206
 8608SOL     OW37282   3.311   2.100  15.014  0.2926  0.7537  0.7542
 8608SOL    HW137283   3.325   2.029  15.078 -2.2532  1.3039  1.9228
 8608SOL    HW237284   3.272   2.155  15.082  1.3345  2.3187  0.0863
 8609SOL     OW37285   1.179   2.886   9.449  0.2531  0.6935  0.2258
 8609SOL    HW137286   1.207   2.796   9.433  1.1920  0.9929  0.2284
 8609SOL    HW237287   1.213   2.904   9.537  0.1083 -1.0882  0.6462
 8610SOL     OW37288   3.201   1.636  11.465 -0.1262 -0.1369 -0.1745
 8610SOL    HW137289   3.280   1.584  11.453 -0.3663 -0.8136  1.1182
 8610SOL    HW237290   3.139   1.585  11.413 -1.3447  2.1179 -0.9483
 8611SOL     OW37291   4.623   1.427   7.355 -0.3476 -0.2001 -0.4642
 8611SOL    HW137292   4.607   1.336   7.328  0.6013 -0.8376  1.1462
 8611SOL    HW237293   4.701   1.460   7.310  0.7945 -1.8426  0.3483
 8612SOL     OW37294   2.747   0.090   1.409 -0.6730  0.0044 -0.1669
 8612SOL    HW137295   2.818   0.054   1.461 -0.4644 -0.4314 -0.7447
 8612SOL    HW237296   2.783   0.068   1.322  0.4819  0.0370  0.3047
 8613SOL     OW37297   4.448   3.150   7.948 -0.0862 -0.0784 -0.4839
 8613SOL    HW137298   4.461   3.153   8.043 -2.2788  0.4765 -0.1995
 8613SOL    HW237299   4.493   3.226   7.913 -1.7393  1.1353 -0.0084
 8614SOL     OW37300   4.660   2.776   1.774 -0.2567 -0.2000 -0.0950
 8614SOL    HW137301   4.674   2.846   1.837 -0.8104  1.5633 -1.9472
 8614SOL    HW237302   0.025   2.741   1.776  0.2174  0.9025 -1.7238
 8615SOL     OW37303   3.882   3.994   9.142  0.9492 -0.2336  0.6636
 8615SOL    HW137304   3.801   3.981   9.092  1.7882  0.1214 -0.7810
 8615SOL    HW237305   3.860   4.071   9.196  0.1399  0.7145 -1.0162
 8616SOL     OW37306   1.559   2.078   3.617  0.1515  0.1317 -0.0576
 8616SOL    HW137307   1.484   2.127   3.583 -0.9739 -0.3743  1.7188
 8616SOL    HW237308   1.596   2.050   3.533 -1.8803  1.2459 -1.3128
 8617SOL     OW37309   1.175   0.305   5.748 -0.2629 -0.2865  0.3605
 8617SOL    HW137310   1.084   0.330   5.760 -0.0392  1.2849 -1.1977
 8617SOL    HW237311   1.209   0.394   5.755  1.5333 -0.8618 -1.0493
 8618SOL     OW37312   3.368   1.224   1.945  0.2536  0.6143 -0.5546
 8618SOL    HW137313   3.389   1.138   1.980  2.0048 -0.0306 -3.1746
 8618SOL    HW237314   3.342   1.196   1.858  1.2499 -0.6158 -0.4574
 8619SOL     OW37315   2.234   2.162   3.792  0.6282 -0.2129 -0.2852
 8619SOL    HW137316   2.286   2.190   3.717 -0.6041 -1.5487 -1.6090
 8619SOL    HW237317   2.229   2.069   3.771 -1.9077 -0.8826  3.2777
 8620SOL     OW37318   3.474   0.844   4.779  0.5453  0.4971  0.1162
 8620SOL    HW137319   3.545   0.866   4.719  0.3661 -0.3370 -0.4073
 8620SOL    HW237320   3.505   0.868   4.866 -0.5824 -1.8941  1.1633
 8621SOL     OW37321   4.031   4.020   2.087  0.8428 -0.3053 -0.3461
 8621SOL    HW137322   3.937   4.030   2.099  0.3258 -2.3952 -2.4649
 8621SOL    HW237323   4.044   4.083   2.016  0.7831 -0.3181 -0.3680
 8622SOL     OW37324   1.200   3.258   8.119  0.3383 -0.2416  0.0020
 8622SOL    HW137325   1.181   3.350   8.100  0.7998  0.3933  2.5369
 8622SOL    HW237326   1.260   3.262   8.194  2.1729 -1.1496 -1.4129
 8623SOL     OW37327   2.690   2.551   3.960  0.6235 -0.1052 -0.1406
 8623SOL    HW137328   2.640   2.589   4.032 -0.2077 -0.3427 -0.5857
 8623SOL    HW237329   2.661   2.604   3.886 -1.6207 -1.2264 -0.0516
 8624SOL     OW37330   2.401   3.545  11.797  0.2630  0.3204  0.0611
 8624SOL    HW137331   2.358   3.625  11.767  2.3816  0.3717 -2.8280
 8624SOL    HW237332   2.334   3.494  11.843  1.0076 -1.6108 -1.0038
 8625SOL     OW37333   2.344   2.073   6.810 -0.1549 -0.6910 -0.5648
 8625SOL    HW137334   2.263   2.051   6.856 -0.6335  0.1999 -0.9773
 8625SOL    HW237335   2.397   2.069   6.890  0.7138 -0.9726 -1.1558
 8626SOL     OW37336   1.398   3.323   3.336  0.5252  0.7269 -0.3985
 8626SOL    HW137337   1.329   3.265   3.367 -0.0878 -0.1182 -3.3221
 8626SOL    HW237338   1.359   3.384   3.273 -0.2183  0.4913 -0.1709
 8627SOL     OW37339   1.576   2.436   8.437 -0.3028  0.6997 -0.3170
 8627SOL    HW137340   1.538   2.382   8.507 -0.7423  0.6098 -0.6324
 8627SOL    HW237341   1.619   2.365   8.389  0.0665  0.9619 -0.3803
 8628SOL     OW37342   1.496   0.242   3.103 -0.1792 -0.1863 -0.4430
 8628SOL    HW137343   1.519   0.195   3.023 -2.6469 -0.7388 -0.8429
 8628SOL    HW237344   1.523   0.332   3.087  0.2454 -0.4009 -0.9072
 8629SOL     OW37345   2.020   3.362   2.243 -0.4591 -0.1238  0.0321
 8629SOL    HW137346   1.986   3.373   2.332 -0.5241 -1.4683  0.1734
 8629SOL    HW237347   2.096   3.420   2.251 -1.1215  0.9029 -1.2613
 8630SOL     OW37348   0.421   3.593   1.034 -0.0305 -0.0606  0.2895
 8630SOL    HW137349   0.401   3.674   1.081  0.6737 -0.0413  0.5571
 8630SOL    HW237350   0.332   3.573   1.007  0.7465 -1.1603 -1.4431
 8631SOL     OW37351   4.040   0.016  14.498 -0.0388  0.2870  0.9689
 8631SOL    HW137352   4.110   4.694  14.545 -1.8939 -0.4359  3.0289
 8631SOL    HW237353   3.972   4.717  14.561 -0.1178 -0.5596  0.5675
 8632SOL     OW37354   2.735   2.695   8.118 -0.8827  0.2035 -0.2989
 8632SOL    HW137355   2.672   2.636   8.158 -1.0088  0.1689 -0.5506
 8632SOL    HW237356   2.808   2.634   8.127  1.6933  3.5777  1.7811
 8633SOL     OW37357   2.879   1.102  15.525 -0.3782  0.2770  0.3408
 8633SOL    HW137358   2.819   1.084  15.452  1.5521  2.0735 -1.7169
 8633SOL    HW237359   2.842   1.051  15.597 -0.6315  0.1376  0.1127
 8634SOL     OW37360   0.600   0.872   6.330  0.2724  0.4169 -0.5605
 8634SOL    HW137361   0.558   0.805   6.384  4.4141  1.0658  3.3880
 8634SOL    HW237362   0.681   0.896   6.374 -1.5683  0.8637  2.6402
 8635SOL     OW37363   2.758   2.090   4.337 -1.0357  0.3460  0.2058
 8635SOL    HW137364   2.747   2.025   4.267 -0.6822  1.5232 -0.9277
 8635SOL    HW237365   2.802   2.029   4.395 -1.8966 -0.8862 -0.4245
 8636SOL     OW37366   3.380   0.265   7.470  0.1871 -0.4521 -0.0728
 8636SOL    HW137367   3.442   0.236   7.537  0.7785  0.6988 -0.1354
 8636SOL    HW237368   3.319   0.191   7.476 -1.3225  0.8347  0.3520
 8637SOL     OW37369   3.435   1.051  10.584  0.5141 -0.3157  0.5160
 8637SOL    HW137370   3.515   1.059  10.636 -1.0421  3.5713  2.2511
 8637SOL    HW237371   3.447   0.963  10.547 -2.1359 -0.2930 -0.3965
 8638SOL     OW37372   0.961   3.472  11.905  0.1527 -0.1123 -0.3322
 8638SOL    HW137373   0.951   3.532  11.831  1.2253 -0.3880 -0.6900
 8638SOL    HW237374   0.986   3.528  11.979  1.3429 -0.3828 -0.5351
 8639SOL     OW37375   1.277   4.574  14.735  0.0329  0.2835  0.0553
 8639SOL    HW137376   1.349   4.607  14.788 -0.8323 -0.3061  1.5757
 8639SOL    HW237377   1.206   4.561  14.798  1.5497  0.9254  1.8962
 8640SOL     OW37378   0.941   1.247  15.589 -0.6154 -0.0264  0.0243
 8640SOL    HW137379   0.949   1.212  15.500 -0.1999 -0.2568  0.1491
 8640SOL    HW237380   0.948   1.166  15.641  1.5381  1.0240  1.3616
 8641SOL     OW37381   3.889   1.763   2.893 -0.1158 -0.0131 -0.3854
 8641SOL    HW137382   3.895   1.821   2.969  1.0119 -2.4117  1.3605
 8641SOL    HW237383   3.845   1.822   2.831  0.9740  0.4255 -0.7484
 8642SOL     OW37384   2.267   4.244   9.171 -0.6159  0.7518  0.1800
 8642SOL    HW137385   2.319   4.299   9.112  0.4476  0.1077  0.5101
 8642SOL    HW237386   2.230   4.186   9.103 -0.8458 -0.1095  1.0413
 8643SOL     OW37387   3.015   0.785  11.208  0.1320  0.3182 -0.5457
 8643SOL    HW137388   2.925   0.797  11.179 -0.2508 -2.0781 -0.4039
 8643SOL    HW237389   3.039   0.877  11.214 -3.1494  1.3426 -3.8368
 8644SOL     OW37390   2.163   1.138   8.337 -1.4333 -0.3672  0.1056
 8644SOL    HW137391   2.166   1.061   8.395  0.4622 -2.0768 -2.2773
 8644SOL    HW237392   2.224   1.108   8.270 -0.2280  0.4043  0.8700
 8645SOL     OW37393   3.598   4.605   1.103 -0.2088 -0.1801 -0.2457
 8645SOL    HW137394   3.649   4.666   1.156  0.9012 -0.3592 -1.1336
 8645SOL    HW237395   3.655   4.600   1.027  0.4267 -0.4238  0.2436
 8646SOL     OW37396   4.105   2.095  15.607 -0.7613  0.1510  0.3447
 8646SOL    HW137397   4.152   2.149  15.543  0.6166 -2.5460 -0.8945
 8646SOL    HW237398   4.015   2.119  15.585 -0.7309  0.1308  0.1963
 8647SOL     OW37399   1.795   1.682   6.817 -0.1501 -0.1547 -0.0636
 8647SOL    HW137400   1.840   1.599   6.834 -0.4141 -0.2080  0.3901
 8647SOL    HW237401   1.753   1.703   6.901 -1.0762  1.1003 -0.8382
 8648SOL     OW37402   0.941   0.596   2.131 -0.0480 -0.0467 -0.0718
 8648SOL    HW137403   0.916   0.685   2.155  0.7783  0.4808 -1.1696
 8648SOL    HW237404   0.994   0.611   2.053  0.3329 -0.6561  0.0671
 8649SOL     OW37405   3.740   1.074  17.139 -0.2326 -0.6792  0.3274
 8649SOL    HW137406   3.727   1.051  17.047 -2.7367  0.4057  0.4062
 8649SOL    HW237407   3.692   1.155  17.155  1.1843  0.1642  0.3365
 8650SOL     OW37408   3.358   1.185   7.284  0.2097  0.4060  0.4961
 8650SOL    HW137409   3.358   1.269   7.329 -2.5284  0.2827  0.6966
 8650SOL    HW237410   3.275   1.154   7.318  0.1768  0.1399  0.1784
 8651SOL     OW37411   3.197   1.604  13.626 -0.3156 -0.6342 -0.3501
 8651SOL    HW137412   3.271   1.663  13.641 -0.4894 -0.3793 -0.4833
 8651SOL    HW237413   3.118   1.651  13.653 -0.1640  0.0432 -1.0889
 8652SOL     OW37414   1.770   1.108   7.140  0.0327  0.1681 -0.1211
 8652SOL    HW137415   1.714   1.101   7.063  1.2009 -0.1640 -0.9382
 8652SOL    HW237416   1.824   1.030   7.126  0.5372  0.4522  0.2400
 8653SOL     OW37417   1.832   1.814   9.997 -0.0509 -0.3177  0.2997
 8653SOL    HW137418   1.854   1.746   9.934  0.7406  1.6861 -1.5758
 8653SOL    HW237419   1.846   1.767  10.079  1.4737 -0.0011  0.2173
 8654SOL     OW37420   1.429   0.421   6.635 -0.1487 -0.7445 -0.1028
 8654SOL    HW137421   1.495   0.415   6.704 -0.0710 -4.1843 -0.5222
 8654SOL    HW237422   1.485   0.411   6.558 -1.7636 -1.4659 -1.1799
 8655SOL     OW37423   2.798   1.614   3.152  0.2778  0.0989  0.8217
 8655SOL    HW137424   2.712   1.607   3.195 -1.9023  2.2803 -3.1938
 8655SOL    HW237425   2.791   1.707   3.134 -3.0760 -0.3569 -0.2997
 8656SOL     OW37426   3.743   2.084  10.547 -0.2752  0.0371 -0.1565
 8656SOL    HW137427   3.795   2.006  10.565 -0.1785 -0.1108 -1.1003
 8656SOL    HW237428   3.779   2.156  10.600 -0.9671  0.5704 -0.4150
 8657SOL     OW37429   2.666   0.354  14.607 -0.6372 -0.6127  0.0427
 8657SOL    HW137430   2.650   0.443  14.577 -2.5637 -0.9289  0.1671
 8657SOL    HW237431   2.620   0.309  14.536  0.3877  1.2260 -1.7815
 8658SOL     OW37432   0.395   3.594  14.647  0.2423  0.0191  0.5495
 8658SOL    HW137433   0.359   3.648  14.577  0.5624 -0.9963 -0.3872
 8658SOL    HW237434   0.350   3.512  14.631 -2.1190  1.0721  1.8298
 8659SOL     OW37435   3.289   4.149   8.619  0.1845 -0.4052  0.8786
 8659SOL    HW137436   3.324   4.137   8.708  0.0132  0.7778  1.0945
 8659SOL    HW237437   3.195   4.157   8.636  0.4538  2.8633  0.7912
 8660SOL     OW37438   1.121   3.373  12.300  0.0953  0.7276  0.3743
 8660SOL    HW137439   1.054   3.436  12.276  1.3336  1.7225 -0.4958
 8660SOL    HW237440   1.194   3.386  12.238  0.6638 -1.7168  0.5226
 8661SOL     OW37441   0.664   0.165   8.437  0.2104 -0.0661 -0.1946
 8661SOL    HW137442   0.616   0.196   8.514  1.7213 -1.1920  1.1950
 8661SOL    HW237443   0.750   0.151   8.475  1.5456  2.6434 -2.1704
 8662SOL     OW37444   1.080   0.700   5.294 -0.3469  0.8033 -0.4172
 8662SOL    HW137445   1.094   0.730   5.384  0.0562 -0.0817 -0.1818
 8662SOL    HW237446   0.997   0.746   5.283 -0.8377 -0.4649 -1.9844
 8663SOL     OW37447   4.391   3.881   3.275  0.5172 -0.3849 -0.5316
 8663SOL    HW137448   4.303   3.881   3.237  0.5724 -0.4625 -0.6581
 8663SOL    HW237449   4.392   3.801   3.328 -0.4528 -0.4751 -0.6420
 8664SOL     OW37450   3.406   1.330   4.911 -0.8291  0.1820  0.4869
 8664SOL    HW137451   3.417   1.339   4.816  1.2026  1.9843  0.8851
 8664SOL    HW237452   3.312   1.315   4.908 -0.4416 -2.2737  0.3999
 8665SOL     OW37453   3.481   2.111   7.764  0.2172 -0.8491  0.0124
 8665SOL    HW137454   3.493   2.016   7.771 -0.3214 -0.7417  2.2822
 8665SOL    HW237455   3.394   2.117   7.726  0.6932 -3.1778 -1.4808
 8666SOL     OW37456   0.108   3.259   4.463  0.0357  0.2232  0.0314
 8666SOL    HW137457   0.195   3.291   4.487  0.2569 -1.7923  1.9384
 8666SOL    HW237458   0.085   3.317   4.391  0.4615 -0.9293 -1.0121
 8667SOL     OW37459   1.041   2.709   5.579  0.0171  0.0697  0.0936
 8667SOL    HW137460   1.001   2.786   5.539 -0.0735 -1.3239 -2.4933
 8667SOL    HW237461   1.081   2.673   5.500  0.6210  0.5533  0.1785
 8668SOL     OW37462   4.043   1.926  14.767  0.8393 -0.2542  0.0527
 8668SOL    HW137463   4.031   1.835  14.796 -4.4647  1.3382  2.7526
 8668SOL    HW237464   4.136   1.943  14.786  0.9159 -0.3824 -0.2143
 8669SOL     OW37465   1.617   1.392   3.935  0.4121 -0.0516 -0.4235
 8669SOL    HW137466   1.650   1.358   3.852  0.4910 -0.7653 -0.1046
 8669SOL    HW237467   1.692   1.445   3.961  0.9115 -1.4819  1.0175
 8670SOL     OW37468   1.638   1.937  10.432  0.6259 -0.0176  0.4582
 8670SOL    HW137469   1.680   2.014  10.394  1.7177 -1.0445 -0.4120
 8670SOL    HW237470   1.713   1.887  10.465  2.1616 -0.0209 -3.0607
 8671SOL     OW37471   0.083   3.452   8.212  0.3071  0.3240 -0.2427
 8671SOL    HW137472   0.127   3.397   8.278  1.8217  1.1881 -0.5453
 8671SOL    HW237473   0.141   3.419   8.144  0.9524 -1.0351  0.9550
 8672SOL     OW37474   1.525   3.059   9.209  0.5638 -0.5152  0.0980
 8672SOL    HW137475   1.500   2.969   9.190  0.3901 -0.6923  1.1578
 8672SOL    HW237476   1.453   3.106   9.167  1.8456  0.2276 -1.3010
 8673SOL     OW37477   1.225   1.885   8.872  1.1231  0.2192  0.2818
 8673SOL    HW137478   1.260   1.796   8.876  0.2058 -0.1869 -0.6882
 8673SOL    HW237479   1.236   1.920   8.783 -1.2582 -3.2797 -1.3947
 8674SOL     OW37480   1.793   3.788   9.604  0.2907 -0.3754 -0.3776
 8674SOL    HW137481   1.810   3.728   9.677  0.7170  0.0787 -0.1002
 8674SOL    HW237482   1.840   3.864   9.639  2.1263 -0.9099 -1.7121
 8675SOL     OW37483   3.200   3.271   7.783  0.2279 -0.8548  0.4147
 8675SOL    HW137484   3.171   3.362   7.785 -2.7922 -1.8397  0.5749
 8675SOL    HW237485   3.120   3.221   7.766  0.1948  0.0660 -2.1994
 8676SOL     OW37486   2.647   1.987   5.078 -0.0781  0.2589 -0.4945
 8676SOL    HW137487   2.612   1.951   5.160  0.1878  0.0003 -0.4940
 8676SOL    HW237488   2.740   1.977   5.096 -0.1108 -0.6174 -0.7991
 8677SOL     OW37489   0.426   0.192  16.048  0.2715 -0.1860  0.1971
 8677SOL    HW137490   0.488   0.243  16.102  0.3398  1.1284 -1.1206
 8677SOL    HW237491   0.357   0.173  16.111 -1.0832  0.2005 -1.1945
 8678SOL     OW37492   0.568   3.998   5.800  0.1045  0.0920  0.1023
 8678SOL    HW137493   0.602   4.049   5.874  1.0394  1.0021 -0.9552
 8678SOL    HW237494   0.474   3.996   5.822  0.2235 -0.3562  0.5757
 8679SOL     OW37495   0.117   3.097   8.970 -0.2566 -0.2675 -0.0153
 8679SOL    HW137496   0.157   3.011   8.958  1.5086  0.5138  0.3150
 8679SOL    HW237497   0.157   3.150   8.902 -1.9340  1.3849  0.2804
 8680SOL     OW37498   0.967   2.786   3.118 -0.1088  0.3533  0.2596
 8680SOL    HW137499   1.017   2.728   3.175 -0.9475  0.2708  0.9026
 8680SOL    HW237500   0.981   2.725   3.045  2.9813  1.0492  0.2826
 8681SOL     OW37501   1.174   1.037  15.270 -0.1434  0.3502 -0.2911
 8681SOL    HW137502   1.244   1.024  15.207 -0.6527 -0.3361 -0.7165
 8681SOL    HW237503   1.101   0.990  15.229  0.7927 -2.2883  1.0319
 8682SOL     OW37504   3.321   1.604   3.164 -0.2528  0.0411 -0.6210
 8682SOL    HW137505   3.277   1.561   3.091 -0.3551 -0.3349 -0.3360
 8682SOL    HW237506   3.399   1.550   3.174 -1.6654 -1.9211 -0.1025
 8683SOL     OW37507   1.042   1.975   7.482  0.3582  0.2055  0.0091
 8683SOL    HW137508   1.050   1.929   7.398 -3.4480  2.3647 -1.5462
 8683SOL    HW237509   1.031   2.066   7.453  0.3640  0.2983  0.2962
 8684SOL     OW37510   1.388   2.645   4.313 -0.1527 -0.2230 -0.4899
 8684SOL    HW137511   1.304   2.600   4.306 -1.0468  1.0898  2.0251
 8684SOL    HW237512   1.376   2.712   4.246 -0.9330  0.0012 -0.1273
 8685SOL     OW37513   2.839   0.822   1.815  0.4822  0.1943  0.4000
 8685SOL    HW137514   2.757   0.774   1.806  0.0353  1.0312  0.0033
 8685SOL    HW237515   2.897   0.775   1.756 -0.6804  0.0594 -0.6393
 8686SOL     OW37516   4.138   3.192  13.905 -0.3969 -0.7630  0.0711
 8686SOL    HW137517   4.190   3.271  13.890 -1.3042 -0.2403 -0.3009
 8686SOL    HW237518   4.118   3.165  13.816 -0.5092 -1.1430  0.2094
 8687SOL     OW37519   4.599   0.449   4.809 -0.7583 -0.3914  0.6759
 8687SOL    HW137520   4.547   0.396   4.869  0.9689 -1.1056  1.5536
 8687SOL    HW237521   4.532   0.433   4.743  1.0583 -1.3381 -0.9334
 8688SOL     OW37522   2.330   0.313   7.298 -0.0615  0.4184 -0.3151
 8688SOL    HW137523   2.277   0.280   7.371  1.8483 -1.1427  0.3683
 8688SOL    HW237524   2.386   0.378   7.341 -1.5147  0.3984  1.6111
 8689SOL     OW37525   0.617   3.540   4.465  0.0907 -0.2715 -0.2553
 8689SOL    HW137526   0.566   3.583   4.396 -0.9491  0.0527  0.6949
 8689SOL    HW237527   0.695   3.515   4.417  2.3665  3.2875  1.6040
 8690SOL     OW37528   2.536   1.045   6.652  0.2923 -0.6140  0.4619
 8690SOL    HW137529   2.465   1.068   6.713 -0.1142  1.1961 -0.7028
 8690SOL    HW237530   2.557   1.137   6.635 -0.9253  0.0461  2.4423
 8691SOL     OW37531   2.271   4.039  15.888 -0.0645 -0.7170 -0.1150
 8691SOL    HW137532   2.268   3.996  15.974  0.7115 -1.1901 -0.3190
 8691SOL    HW237533   2.351   4.088  15.909 -0.8502  0.6326 -0.3026
 8692SOL     OW37534   0.498   0.765   2.225 -0.0768  0.2408 -0.0842
 8692SOL    HW137535   0.515   0.756   2.319 -1.0195  0.0812  0.0715
 8692SOL    HW237536   0.457   0.850   2.211 -0.1356  0.1364 -0.5498
 8693SOL     OW37537   1.458   3.455   2.117 -0.5013  0.2985  0.6872
 8693SOL    HW137538   1.447   3.363   2.139 -1.7463  0.5682  1.2009
 8693SOL    HW237539   1.401   3.449   2.040  0.6660  0.5700 -0.2042
 8694SOL     OW37540   0.633   3.002  11.979 -0.1676 -0.0833  0.4048
 8694SOL    HW137541   0.641   3.000  11.884  0.0467 -0.4768  0.4271
 8694SOL    HW237542   0.648   3.094  11.999  2.1312 -0.1493 -1.0360
 8695SOL     OW37543   3.045   1.553   1.103  0.0961 -0.0996 -0.5156
 8695SOL    HW137544   3.115   1.584   1.160 -1.1119  0.3626  0.7220
 8695SOL    HW237545   3.064   1.571   1.011  1.4870  1.1096  0.0189
 8696SOL     OW37546   1.073   0.789   5.626  0.8882 -0.5836 -0.6728
 8696SOL    HW137547   0.997   0.839   5.597  0.5123 -0.4418  0.5784
 8696SOL    HW237548   1.110   0.844   5.695 -0.9403 -0.2864  0.0526
 8697SOL     OW37549   2.160   2.130  12.865  0.3415  0.8712 -0.0451
 8697SOL    HW137550   2.218   2.060  12.834  1.0942  0.4235  2.3409
 8697SOL    HW237551   2.081   2.120  12.813  0.9404  0.9842 -0.9702
 8698SOL     OW37552   1.314   0.629   8.679 -0.0760  0.4828  0.4195
 8698SOL    HW137553   1.288   0.624   8.771 -0.7248  2.2970  0.3383
 8698SOL    HW237554   1.237   0.592   8.636  0.6719  3.1718 -3.1915
 8699SOL     OW37555   1.783   2.008   8.578 -0.2550 -0.0104 -0.1996
 8699SOL    HW137556   1.797   1.940   8.512 -1.4921 -0.1087 -0.3612
 8699SOL    HW237557   1.853   1.997   8.642 -0.1266 -0.7930 -0.4816
 8700SOL     OW37558   0.392   4.684   9.162 -0.5858  0.4846  0.0570
 8700SOL    HW137559   0.405   0.051   9.191 -1.1766  0.7469 -0.5073
 8700SOL    HW237560   0.297   4.677   9.169 -0.5300 -0.1008  0.2163
 8701SOL     OW37561   2.922   3.976  16.485  0.3448 -0.1937  0.4830
 8701SOL    HW137562   2.887   3.898  16.528 -1.0510 -0.4639 -1.1385
 8701SOL    HW237563   2.927   4.038  16.558  1.0213 -0.2033  0.4491
 8702SOL     OW37564   2.990   0.736   3.330 -0.4544 -0.0127 -0.0929
 8702SOL    HW137565   3.048   0.712   3.257  2.1014 -0.3555  2.0323
 8702SOL    HW237566   3.011   0.830   3.331  1.7878 -0.5120  0.3825
 8703SOL     OW37567   3.591   0.155   5.737  0.5745 -0.2268  0.7148
 8703SOL    HW137568   3.529   0.111   5.796 -0.8813  1.0470  0.1401
 8703SOL    HW237569   3.654   0.085   5.722  0.7920  0.3477 -1.0110
 8704SOL     OW37570   1.468   4.025   5.819  0.2364  0.3363 -0.4694
 8704SOL    HW137571   1.474   4.035   5.914 -3.6993 -1.1824 -0.0445
 8704SOL    HW237572   1.468   3.930   5.814  4.7543  0.1540  3.5080
 8705SOL     OW37573   4.049   3.338   6.191 -0.3262  0.0020  0.0993
 8705SOL    HW137574   4.093   3.261   6.154 -0.1904  0.1836 -0.1183
 8705SOL    HW237575   3.965   3.297   6.212  0.3350 -0.2059  2.3321
 8706SOL     OW37576   1.872   0.008   7.019 -0.7255  0.9277  0.3416
 8706SOL    HW137577   1.932   4.659   7.002 -1.6246  0.3496 -0.3369
 8706SOL    HW237578   1.906   0.043   7.102 -1.0698 -0.4228  1.0485
 8707SOL     OW37579   3.057   0.353   7.248  0.2237  0.1879 -0.1101
 8707SOL    HW137580   3.001   0.279   7.270 -1.2253  1.9288  2.1441
 8707SOL    HW237581   3.073   0.345   7.154  0.0762 -0.7720 -0.0543
 8708SOL     OW37582   1.236   0.913   4.019 -0.1643 -0.0547  0.0022
 8708SOL    HW137583   1.299   0.949   4.082 -0.2168 -0.3708  0.2372
 8708SOL    HW237584   1.152   0.950   4.046  0.1760  1.4607 -1.0295
 8709SOL     OW37585   3.368   3.823   5.334  0.2241 -0.3323  0.1735
 8709SOL    HW137586   3.357   3.771   5.254 -2.4449  0.2649  0.1771
 8709SOL    HW237587   3.361   3.915   5.308 -1.1868 -0.3379  0.5670
 8710SOL     OW37588   2.007   1.584  17.212 -0.3594 -0.4470  0.2787
 8710SOL    HW137589   1.981   1.510  17.267 -1.4769 -0.5845 -0.4296
 8710SOL    HW237590   1.963   1.562  17.130  2.1957 -1.0726 -0.9563
 8711SOL     OW37591   3.638   0.195  14.281 -0.2414  0.6464 -0.0317
 8711SOL    HW137592   3.597   0.279  14.303 -1.5659  0.3907 -1.5150
 8711SOL    HW237593   3.691   0.184  14.359  0.1927 -2.1789 -0.7375
 8712SOL     OW37594   0.162   1.022   1.991 -0.6300 -0.2298  0.4265
 8712SOL    HW137595   0.253   1.023   2.018 -0.6033 -0.3326  0.3412
 8712SOL    HW237596   0.173   1.026   1.896  1.0591  2.2075  0.7226
 8713SOL     OW37597   4.373   1.611   0.655 -0.2878  0.4729 -0.4675
 8713SOL    HW137598   4.432   1.686   0.655  0.2023  0.0908 -0.6659
 8713SOL    HW237599   4.325   1.633   0.735 -1.4038 -0.0134 -1.0033
 8714SOL     OW37600   1.362   2.111   8.906  0.0907 -0.5931  0.5722
 8714SOL    HW137601   1.347   2.041   8.969 -0.6449 -0.4921  0.5094
 8714SOL    HW237602   1.420   2.074   8.839 -2.2137 -0.7224 -1.3604
 8715SOL     OW37603   0.070   1.757  10.460 -0.2101  0.1091 -0.2064
 8715SOL    HW137604   0.089   1.850  10.455  1.2637 -0.1807 -0.0934
 8715SOL    HW237605   4.710   1.765  10.506  0.2075 -1.2132  0.7665
 8716SOL     OW37606   2.098   2.700   7.452  0.0399 -0.0411 -0.6567
 8716SOL    HW137607   2.189   2.670   7.449 -1.3166 -4.2254  0.2562
 8716SOL    HW237608   2.100   2.758   7.528  0.3776 -0.3441 -0.4360
 8717SOL     OW37609   3.032   2.318   5.066  0.1705  0.0886  0.5827
 8717SOL    HW137610   2.984   2.359   5.138 -0.8599 -0.4040  0.1861
 8717SOL    HW237611   3.020   2.385   4.999  3.3814  3.3491  3.2477
 8718SOL     OW37612   2.155   0.074   3.947 -0.1277  0.8520 -0.2908
 8718SOL    HW137613   2.166   4.706   3.969 -1.5857  0.8405  0.3936
 8718SOL    HW237614   2.122   0.067   3.857 -0.0861  0.5305 -0.2808
 8719SOL     OW37615   1.620   4.369   5.479 -0.3942  0.2269 -0.0718
 8719SOL    HW137616   1.608   4.321   5.398  0.5844 -0.9829  0.5014
 8719SOL    HW237617   1.583   4.309   5.544 -0.4158  0.8511  0.5000
 8720SOL     OW37618   2.615   3.251   9.157  0.6290  0.4706 -0.2561
 8720SOL    HW137619   2.684   3.312   9.182  1.7379  0.1394 -2.5091
 8720SOL    HW237620   2.602   3.290   9.070 -2.1880 -0.0045 -0.0402
 8721SOL     OW37621   1.549   1.400   8.401 -0.0129  0.0509  0.5769
 8721SOL    HW137622   1.592   1.460   8.340 -0.3389  0.6408  0.9242
 8721SOL    HW237623   1.525   1.331   8.340  1.2084 -1.6986  2.0837
 8722SOL     OW37624   1.826   2.229   1.028 -0.2403 -0.3401  0.0632
 8722SOL    HW137625   1.904   2.284   1.042  0.3133 -1.3683  1.0341
 8722SOL    HW237626   1.824   2.224   0.932  0.3677  0.8031 -0.0111
 8723SOL     OW37627   4.179   2.897   7.154  0.3508  0.2763 -0.3894
 8723SOL    HW137628   4.121   2.831   7.116 -0.2758  0.4428  0.2762
 8723SOL    HW237629   4.251   2.844   7.188 -1.1203 -1.7558 -0.4751
 8724SOL     OW37630   1.094   4.071   7.223 -0.0956 -0.2934  0.1162
 8724SOL    HW137631   1.171   4.118   7.256  0.2724  0.2092 -1.4536
 8724SOL    HW237632   1.092   3.997   7.283  0.9600 -0.2326  0.2305
 8725SOL     OW37633   4.599   1.787   5.939  0.1604 -0.1589  0.1438
 8725SOL    HW137634   4.590   1.839   6.018  0.3240  2.5078 -1.5907
 8725SOL    HW237635   4.615   1.856   5.874 -0.0119  0.0734  0.3461
 8726SOL     OW37636   3.985   4.288   4.656 -0.5402  0.0286  0.0780
 8726SOL    HW137637   4.010   4.331   4.573 -1.5740  1.0955  0.3147
 8726SOL    HW237638   3.987   4.196   4.633  2.0811  0.5332 -1.7527
 8727SOL     OW37639   3.398   2.028  16.260  0.2109  0.2881 -0.3723
 8727SOL    HW137640   3.448   2.082  16.200 -0.2407 -0.0367 -1.0333
 8727SOL    HW237641   3.320   1.989  16.221  0.2605 -0.3176  0.1210
 8728SOL     OW37642   0.037   4.188   5.418  0.1346 -0.2854  0.0983
 8728SOL    HW137643   0.090   4.159   5.493 -0.9886  0.9220  1.3538
 8728SOL    HW237644   4.680   4.138   5.433 -0.7940  1.4759  0.9452
 8729SOL     OW37645   2.407   4.120   0.457  0.6343  0.0726  0.2199
 8729SOL    HW137646   2.335   4.183   0.449  0.0316 -0.5172  0.9587
 8729SOL    HW237647   2.437   4.111   0.367  0.6425  0.3622  0.1936
 8730SOL     OW37648   2.379   0.823   4.502  0.2874  0.4959  0.5083
 8730SOL    HW137649   2.453   0.878   4.478  0.5815 -1.3315 -2.8231
 8730SOL    HW237650   2.366   0.760   4.431 -0.1413  1.8685 -0.6382
 8731SOL     OW37651   0.176   2.036   1.425 -0.0044 -0.4639  0.7145
 8731SOL    HW137652   0.098   2.061   1.474 -0.5354  0.9765 -0.8907
 8731SOL    HW237653   0.154   2.065   1.337 -1.2077 -2.9825  0.1938
 8732SOL     OW37654   2.181   1.199  17.551  0.3165  0.1390 -0.0587
 8732SOL    HW137655   2.131   1.131  17.598 -1.0069  0.3350 -1.1707
 8732SOL    HW237656   2.114   1.264  17.530 -0.8970 -1.4907 -1.3382
 8733SOL     OW37657   4.412   0.186   4.672 -0.2730  0.2597 -0.0010
 8733SOL    HW137658   4.386   0.278   4.667 -0.5783  0.1807  0.1410
 8733SOL    HW237659   4.446   0.173   4.583 -0.5022 -0.4017  0.0048
 8734SOL     OW37660   2.821   0.937   5.893  0.3029 -0.2895 -0.4124
 8734SOL    HW137661   2.750   0.956   5.955  0.7709  1.6411 -0.4569
 8734SOL    HW237662   2.864   0.857   5.922  2.0670  0.9151  0.2906
 8735SOL     OW37663   1.844   0.865   1.256  0.1573 -0.0414  0.7109
 8735SOL    HW137664   1.800   0.913   1.186  2.7712  0.8672 -0.2648
 8735SOL    HW237665   1.937   0.874   1.236 -0.0000  2.9283  1.3841
 8736SOL     OW37666   4.066   2.774  12.414 -0.1032  0.2586 -0.4093
 8736SOL    HW137667   4.023   2.777  12.329  0.1840 -1.8891 -0.6324
 8736SOL    HW237668   4.055   2.866  12.440  1.6850  0.6898 -1.1571
 8737SOL     OW37669   2.558   0.407   2.045  0.0010  0.0478  0.3653
 8737SOL    HW137670   2.535   0.348   1.973 -0.9815  0.0791  0.6525
 8737SOL    HW237671   2.476   0.453   2.065 -2.0206 -3.7076  0.7283
 8738SOL     OW37672   3.921   4.477   3.173 -0.0009 -0.2576 -0.7100
 8738SOL    HW137673   3.998   4.504   3.122 -1.2442  1.8628 -1.4633
 8738SOL    HW237674   3.967   4.418   3.234  0.0789  0.2771 -0.2548
 8739SOL     OW37675   3.260   2.877   2.267 -0.8656  0.3031  0.3195
 8739SOL    HW137676   3.195   2.873   2.197  0.3132 -0.5447 -0.7216
 8739SOL    HW237677   3.207   2.895   2.345 -2.2807  0.4958 -0.6972
 8740SOL     OW37678   2.514   0.662   8.015 -0.2114 -0.3710  0.6045
 8740SOL    HW137679   2.595   0.686   8.060  0.4659  0.7583 -1.2396
 8740SOL    HW237680   2.550   0.678   7.928  0.9170 -3.2017  0.5437
 8741SOL     OW37681   3.604   0.530   9.738  0.3146  0.3095 -0.5014
 8741SOL    HW137682   3.585   0.439   9.716 -4.1571  1.3058 -0.6207
 8741SOL    HW237683   3.634   0.525   9.829  0.2899  1.7370 -0.4174
 8742SOL     OW37684   1.796   2.277   7.440 -0.2240  0.2603  0.1608
 8742SOL    HW137685   1.884   2.250   7.469  0.4489 -0.3315 -2.4128
 8742SOL    HW237686   1.751   2.218   7.501 -0.3146  0.5059  0.3291
 8743SOL     OW37687   2.932   4.039   2.683  0.1605 -0.5637  0.0797
 8743SOL    HW137688   2.853   4.074   2.643 -0.8901 -2.9471  0.0468
 8743SOL    HW237689   2.948   4.116   2.738  1.7629 -0.2009 -0.9175
 8744SOL     OW37690   1.145   4.712   7.405  0.0685 -0.7883 -0.1325
 8744SOL    HW137691   1.210   0.012   7.471 -1.1959  1.5380  0.2860
 8744SOL    HW237692   1.176   0.037   7.328  0.9230  1.1093  1.4284
 8745SOL     OW37693   2.264   2.092   0.993  0.1207  0.6507 -0.8679
 8745SOL    HW137694   2.265   2.113   1.086  3.2218  0.6632 -0.8961
 8745SOL    HW237695   2.228   2.165   0.943 -0.5299 -0.2868 -1.7850
 8746SOL     OW37696   1.977   1.161   5.748  0.0494 -0.6613 -0.2801
 8746SOL    HW137697   1.944   1.111   5.674 -0.7254  0.6692 -0.8316
 8746SOL    HW237698   2.067   1.175   5.719 -1.3155 -0.7142 -4.5622
 8747SOL     OW37699   0.423   2.711   6.948 -0.2932 -0.2508  0.7520
 8747SOL    HW137700   0.478   2.652   6.898 -0.6260  1.0213 -1.0881
 8747SOL    HW237701   0.336   2.681   6.920  0.7372 -0.2969 -2.3381
 8748SOL     OW37702   3.655   3.772   7.233  0.1093 -0.2724  0.0383
 8748SOL    HW137703   3.627   3.786   7.142 -0.1040 -1.3005 -0.0517
 8748SOL    HW237704   3.678   3.859   7.265 -0.1333  0.2267 -1.1487
 8749SOL     OW37705   1.122   4.185   7.654 -0.1084 -0.1955  0.7754
 8749SOL    HW137706   1.209   4.203   7.690  1.0972  1.5407 -3.0239
 8749SOL    HW237707   1.140   4.108   7.601  1.2428  0.2157  0.6342
 8750SOL     OW37708   0.863   2.760   6.123  0.3332 -0.5318 -0.3770
 8750SOL    HW137709   0.811   2.840   6.125 -0.6409 -1.1144 -3.9121
 8750SOL    HW237710   0.873   2.743   6.030  3.8378 -0.3618 -0.0488
 8751SOL     OW37711   1.251   2.127   2.246 -0.2854  0.2131  0.9468
 8751SOL    HW137712   1.168   2.093   2.212 -2.3453  3.1562  3.0157
 8751SOL    HW237713   1.244   2.217   2.215  1.0834  0.7546  2.2401
 8752SOL     OW37714   3.376   2.970  11.824 -0.0478  0.2949  0.5516
 8752SOL    HW137715   3.408   2.951  11.912 -3.4287 -0.2009  1.6451
 8752SOL    HW237716   3.407   3.060  11.813 -2.1506  0.6330 -2.5265
 8753SOL     OW37717   2.226   4.537  10.148  0.2897  0.3147 -0.0665
 8753SOL    HW137718   2.228   4.626  10.183 -0.3509  0.7639 -1.1685
 8753SOL    HW237719   2.310   4.533  10.101  0.8151  0.8957  0.8331
 8754SOL     OW37720   1.413   4.714  10.912 -0.2754  0.1336 -0.0511
 8754SOL    HW137721   1.391   0.053  10.981 -2.0550 -0.2381 -0.2632
 8754SOL    HW237722   1.344   0.015  10.851  0.5845  1.3208 -0.5426
 8755SOL     OW37723   4.343   3.537   2.815  0.3756 -0.0776  0.1755
 8755SOL    HW137724   4.380   3.619   2.848  1.1261  0.0221 -0.9272
 8755SOL    HW237725   4.253   3.560   2.791  0.7105  1.1492  0.0956
 8756SOL     OW37726   4.040   0.353   1.261 -0.7769 -0.2737  0.4141
 8756SOL    HW137727   4.020   0.346   1.168  1.6339  0.6087 -0.1443
 8756SOL    HW237728   3.964   0.402   1.293 -1.3919 -0.8667 -0.1266
 8757SOL     OW37729   0.829   0.557   7.624 -0.4188 -0.0182 -0.3224
 8757SOL    HW137730   0.914   0.600   7.618 -0.9839  1.3122  1.4008
 8757SOL    HW237731   0.800   0.595   7.706  0.1383 -0.0497 -0.1127
 8758SOL     OW37732   2.706   1.599   3.989 -0.2141 -0.6468 -0.3792
 8758SOL    HW137733   2.678   1.528   3.931 -0.7177  2.4939 -3.8883
 8758SOL    HW237734   2.633   1.660   3.998 -0.3030 -1.0461  1.6089
 8759SOL     OW37735   2.282   4.162   9.733 -0.0453  0.8520 -0.6899
 8759SOL    HW137736   2.197   4.187   9.769 -0.4525 -0.6159 -0.6151
 8759SOL    HW237737   2.288   4.074   9.771  2.8021  1.3423 -0.0092
 8760SOL     OW37738   4.048   4.228   7.864 -0.5223 -0.2470 -0.0231
 8760SOL    HW137739   4.070   4.196   7.952 -0.0238  0.6292  0.1698
 8760SOL    HW237740   3.971   4.171   7.862 -0.4991 -0.2204 -1.3895
 8761SOL     OW37741   3.089   2.813   8.738  0.1237 -0.1254 -0.7473
 8761SOL    HW137742   3.053   2.726   8.759  0.2149 -0.3760 -1.6249
 8761SOL    HW237743   3.146   2.827   8.813 -0.0208  0.5101 -0.7605
 8762SOL     OW37744   0.134   1.314   8.033 -0.1156  0.2651 -0.1437
 8762SOL    HW137745   0.192   1.341   8.105  1.3855  1.6661 -1.8839
 8762SOL    HW237746   0.201   1.276   7.977  0.3923  1.0054 -0.0444
 8763SOL     OW37747   2.841   2.146  14.430  0.1023 -0.1231  0.1163
 8763SOL    HW137748   2.932   2.172  14.443  0.3417  0.1288 -2.0396
 8763SOL    HW237749   2.808   2.218  14.376  0.4968 -0.0482 -0.0279
 8764SOL     OW37750   4.686   3.225  10.091 -0.0359 -0.2520 -0.1845
 8764SOL    HW137751   0.043   3.239  10.041  0.9481  0.0151  1.4807
 8764SOL    HW237752   4.696   3.134  10.120 -1.5732 -0.3455  0.0295
 8765SOL     OW37753   1.371   3.362  10.369 -0.1297 -0.1011 -0.7019
 8765SOL    HW137754   1.453   3.342  10.414 -0.0085  0.1092 -0.8325
 8765SOL    HW237755   1.322   3.411  10.435 -0.3760 -2.8348  1.1503
 8766SOL     OW37756   4.509   0.638   7.056 -0.0168  0.0654 -0.0962
 8766SOL    HW137757   4.440   0.687   7.012 -0.9704 -2.0409 -0.9547
 8766SOL    HW237758   4.585   0.697   7.053 -0.9209  1.2378  0.1537
 8767SOL     OW37759   2.924   0.263   6.819  0.9715  0.3646  0.8025
 8767SOL    HW137760   3.013   0.286   6.844  1.0526  1.2813 -0.3255
 8767SOL    HW237761   2.890   0.232   6.904 -1.4893 -0.2865 -0.4112
 8768SOL     OW37762   4.229   0.282   5.744 -0.4840 -0.1212  0.0526
 8768SOL    HW137763   4.179   0.336   5.805 -0.6887 -0.1515 -0.0847
 8768SOL    HW237764   4.163   0.214   5.728 -0.2370 -0.3137 -0.1499
 8769SOL     OW37765   1.833   3.643   9.917  0.2844 -0.0920  0.2275
 8769SOL    HW137766   1.899   3.705   9.887 -0.3339  0.2593 -0.4016
 8769SOL    HW237767   1.805   3.704   9.986 -1.5693 -0.4513 -0.2133
 8770SOL     OW37768   4.194   0.991   3.060  0.1131  0.1481  0.6323
 8770SOL    HW137769   4.226   0.912   3.104 -0.3408  0.0917  0.8674
 8770SOL    HW237770   4.110   0.989   3.106  0.0716  2.7150  0.6849
 8771SOL     OW37771   3.918   0.129   7.224 -0.2159 -0.5921 -0.8779
 8771SOL    HW137772   3.875   0.046   7.204 -1.2562  0.0914 -1.4608
 8771SOL    HW237773   3.989   0.125   7.160 -0.8992 -1.2966 -1.6005
 8772SOL     OW37774   2.579   2.533   3.110 -0.4853 -0.0570 -0.2113
 8772SOL    HW137775   2.521   2.546   3.185 -0.2672 -2.6480  0.3965
 8772SOL    HW237776   2.647   2.484   3.156  0.9492 -0.8955 -3.1877
 8773SOL     OW37777   0.914   3.268  15.271 -0.0572 -0.2088 -0.3223
 8773SOL    HW137778   0.853   3.271  15.197  1.4871  1.1733 -1.5539
 8773SOL    HW237779   0.862   3.310  15.339 -2.2782  0.1722 -2.2767
 8774SOL     OW37780   0.286   3.765  14.004 -0.1506 -0.5015  0.3008
 8774SOL    HW137781   0.268   3.687  13.951  0.8704  0.6403 -1.7068
 8774SOL    HW237782   0.260   3.729  14.089 -0.5564 -1.0660 -0.0540
 8775SOL     OW37783   3.762   3.501   8.395 -0.4626 -0.8415 -0.2887
 8775SOL    HW137784   3.771   3.468   8.306  1.9233  0.2973 -0.4620
 8775SOL    HW237785   3.793   3.590   8.376 -2.7284  0.2054  0.9716
 8776SOL     OW37786   4.305   2.372  12.106  0.2370  0.0299 -0.0520
 8776SOL    HW137787   4.372   2.440  12.115  1.5722 -0.8005 -3.7334
 8776SOL    HW237788   4.294   2.346  12.197  1.1726  0.2117  0.1134
 8777SOL     OW37789   2.339   2.485   3.750  0.4762 -0.3421  1.0755
 8777SOL    HW137790   2.324   2.578   3.735  1.4164 -0.3650 -0.0305
 8777SOL    HW237791   2.286   2.467   3.827 -0.8423  0.7181  0.4049
 8778SOL     OW37792   2.724   2.134  16.842 -0.2480  0.0616  0.2078
 8778SOL    HW137793   2.726   2.046  16.806 -1.6065  0.1976 -0.2169
 8778SOL    HW237794   2.813   2.165  16.826  0.5171 -1.3724  1.7549
 8779SOL     OW37795   2.306   0.360   3.554  0.0179  0.0345  0.5029
 8779SOL    HW137796   2.314   0.314   3.470  2.6394 -2.4166  2.1242
 8779SOL    HW237797   2.333   0.298   3.622 -0.6412 -0.8970 -0.0886
 8780SOL     OW37798   0.921   0.231   5.516  0.4676 -0.0081 -0.0572
 8780SOL    HW137799   0.991   0.170   5.542  1.9670  1.8333  0.2825
 8780SOL    HW237800   0.922   0.296   5.587  0.8536 -0.1237  0.0433
 8781SOL     OW37801   3.674   0.690   0.702 -0.7551 -0.1263  0.1832
 8781SOL    HW137802   3.680   0.761   0.766  1.5439  0.6864 -0.9326
 8781SOL    HW237803   3.593   0.645   0.724 -0.6760  0.3210  1.3860
 8782SOL     OW37804   4.072   0.962  11.687  0.4074 -0.0598 -0.3619
 8782SOL    HW137805   3.999   1.019  11.662 -0.5300  0.2138  3.0006
 8782SOL    HW237806   4.077   1.004  11.773  0.0401  0.1070 -0.4218
 8783SOL     OW37807   0.546   4.245   8.168  0.3840  0.0526 -0.2110
 8783SOL    HW137808   0.552   4.246   8.263  0.6172 -0.8389 -0.2128
 8783SOL    HW237809   0.470   4.187   8.163 -0.9472  1.5955  2.0181
 8784SOL     OW37810   4.609   0.609   9.671  0.4897 -0.2832 -0.6866
 8784SOL    HW137811   4.669   0.682   9.684 -2.1877  1.9667 -1.2494
 8784SOL    HW237812   4.612   0.563   9.755 -2.0272  2.0269  0.6384
 8785SOL     OW37813   3.096   2.012   6.721  0.0823 -0.0883 -0.4028
 8785SOL    HW137814   3.022   2.055   6.677  1.0729  0.9439 -1.0903
 8785SOL    HW237815   3.105   2.059   6.804  1.1554 -0.7003 -0.1680
 8786SOL     OW37816   3.434   0.796   4.406  0.0333 -0.0286  0.1515
 8786SOL    HW137817   3.350   0.787   4.452 -0.8569  1.3578 -1.1984
 8786SOL    HW237818   3.445   0.713   4.361 -1.2697 -1.1251  1.8255
 8787SOL     OW37819   0.346   1.162  11.193  0.5035 -0.2467 -0.5240
 8787SOL    HW137820   0.333   1.077  11.153 -0.5477 -1.6087  2.7348
 8787SOL    HW237821   0.306   1.218  11.126 -1.3710 -0.1971  0.6267
 8788SOL     OW37822   3.167   1.733   1.978 -0.5459 -0.2010 -0.5738
 8788SOL    HW137823   3.091   1.786   2.004  0.9342  1.0314  1.1908
 8788SOL    HW237824   3.178   1.681   2.057 -2.1103 -0.6537 -0.6460
 8789SOL     OW37825   3.414   0.596   2.752 -0.2405  0.2084  0.3841
 8789SOL    HW137826   3.505   0.623   2.739 -0.2184  0.0254  0.1714
 8789SOL    HW237827   3.435   0.506   2.775  0.7849 -0.0761 -1.6768
 8790SOL     OW37828   1.055   3.168   7.065 -0.3314  0.1411 -0.2005
 8790SOL    HW137829   1.062   3.139   7.156 -0.6002 -0.0195 -0.2309
 8790SOL    HW237830   1.003   3.098   7.025 -2.2660  2.1762 -1.2730
 8791SOL     OW37831   4.002   2.984   0.263 -0.3086 -0.0932  0.4075
 8791SOL    HW137832   3.931   2.986   0.199 -0.3554  0.1456  0.4655
 8791SOL    HW237833   4.027   3.077   0.257  0.8872 -0.3644  1.1911
 8792SOL     OW37834   1.868   2.614   9.065 -0.1275  0.3634 -0.1843
 8792SOL    HW137835   1.854   2.646   9.154 -0.5384 -0.8664  0.1862
 8792SOL    HW237836   1.849   2.694   9.015  0.8568  0.3157 -0.6481
 8793SOL     OW37837   0.276   4.393   9.235 -0.3900  0.1237 -0.1150
 8793SOL    HW137838   0.329   4.457   9.282  2.2021 -1.9413 -0.2666
 8793SOL    HW237839   0.298   4.309   9.273 -1.5892  0.6779  1.7971
 8794SOL     OW37840   2.774   0.363  17.157 -0.8995  0.2269  0.2425
 8794SOL    HW137841   2.830   0.343  17.233 -0.5636  0.3941  0.0393
 8794SOL    HW237842   2.733   0.279  17.136 -0.2186  0.1845 -0.9021
 8795SOL     OW37843   0.262   2.458  11.024 -0.0270  0.8127 -0.3609
 8795SOL    HW137844   0.182   2.456  10.972  0.3507 -2.4443 -0.7611
 8795SOL    HW237845   0.235   2.498  11.107  1.9011 -1.4417  1.3314
 8796SOL     OW37846   3.759   4.638   9.708 -0.1514 -0.1473  0.5626
 8796SOL    HW137847   3.749   4.712   9.648 -0.8313  0.2333  1.1371
 8796SOL    HW237848   3.686   4.579   9.689 -1.7996  2.7617 -2.2385
 8797SOL     OW37849   0.996   2.017  15.691 -0.4092  0.1303 -0.6666
 8797SOL    HW137850   0.985   2.110  15.674  2.1364  0.6897  0.7141
 8797SOL    HW237851   1.072   1.997  15.637  0.0606  1.0546 -0.3450
 8798SOL     OW37852   4.309   3.149  13.181 -0.6528 -0.5858 -0.1952
 8798SOL    HW137853   4.402   3.128  13.175 -0.1798  1.1197  1.3416
 8798SOL    HW237854   4.308   3.244  13.166 -3.2439 -0.4889  0.5749
 8799SOL     OW37855   2.154   2.198   0.384 -0.1207  0.4572 -0.1452
 8799SOL    HW137856   2.067   2.195   0.423 -0.5565 -0.5810 -1.2027
 8799SOL    HW237857   2.160   2.282   0.337  0.1434 -0.6709 -2.1398
 8800SOL     OW37858   0.752   0.597  12.233  0.2049  0.0160  0.0349
 8800SOL    HW137859   0.710   0.668  12.282  0.0636 -0.8135  1.1104
 8800SOL    HW237860   0.692   0.524  12.252 -0.8047  1.7017  3.3852
 8801SOL     OW37861   3.885   1.422   4.157 -0.2133 -0.0194  0.0923
 8801SOL    HW137862   3.862   1.512   4.180 -0.8735 -0.7725  2.3640
 8801SOL    HW237863   3.939   1.445   4.082 -0.9568 -2.0759 -1.0623
 8802SOL     OW37864   0.401   3.081  11.067  0.0346  0.2730 -0.3364
 8802SOL    HW137865   0.306   3.076  11.078  0.4308 -3.4378  1.4220
 8802SOL    HW237866   0.431   3.064  11.156  0.2302 -2.4063 -0.8929
 8803SOL     OW37867   2.458   2.159   9.570 -0.2255 -0.0733 -0.4455
 8803SOL    HW137868   2.414   2.082   9.533  0.7113 -0.6952 -0.2617
 8803SOL    HW237869   2.445   2.140   9.663  0.6418  0.3847 -0.2400
 8804SOL     OW37870   4.431   0.298  10.001 -0.2777  1.0188 -0.3052
 8804SOL    HW137871   4.436   0.394  10.006 -0.6272  1.0755 -1.0429
 8804SOL    HW237872   4.495   0.279   9.932 -0.9888 -2.2432 -0.0693
 8805SOL     OW37873   0.761   1.127  11.543 -0.7548 -0.0747 -0.0023
 8805SOL    HW137874   0.756   1.082  11.458 -1.0228 -0.5106  0.2446
 8805SOL    HW237875   0.669   1.120  11.568 -1.3933 -1.5236 -2.7758
 8806SOL     OW37876   2.929   1.285  11.824 -0.4487  0.2063 -0.2931
 8806SOL    HW137877   2.883   1.207  11.856  0.0566 -0.0954 -0.3149
 8806SOL    HW237878   2.971   1.309  11.906  0.2074  2.4218 -1.2611
 8807SOL     OW37879   3.850   3.547  17.155 -0.1350  0.1113  0.4103
 8807SOL    HW137880   3.755   3.558  17.163  0.0581  2.4467 -0.4929
 8807SOL    HW237881   3.873   3.524  17.245  0.8952  1.1981  0.4131
 8808SOL     OW37882   1.127   3.199  17.212  0.0712  0.8596 -0.5672
 8808SOL    HW137883   1.176   3.247  17.146  1.3837  3.2901  2.1565
 8808SOL    HW237884   1.189   3.223  17.281  0.6016 -1.2889 -0.2940
 8809SOL     OW37885   3.941   2.780   7.783  0.2068  0.1204 -0.3286
 8809SOL    HW137886   3.984   2.863   7.801 -1.4491  0.9955 -0.4522
 8809SOL    HW237887   3.865   2.786   7.840 -0.8638 -0.8237 -1.6261
 8810SOL     OW37888   3.323   0.434   5.853  0.0894 -0.1708  0.5484
 8810SOL    HW137889   3.250   0.460   5.797  1.2304  1.6968 -0.0770
 8810SOL    HW237890   3.284   0.364   5.905 -1.6217  1.0671  0.9291
 8811SOL     OW37891   1.814   1.381   3.148  0.4099  1.0898 -0.2430
 8811SOL    HW137892   1.845   1.391   3.057  2.5288  1.5713  0.5184
 8811SOL    HW237893   1.824   1.289   3.173  1.8115  1.7221  1.5123
 8812SOL     OW37894   2.744   2.828   2.794 -0.3962 -0.3121 -0.1449
 8812SOL    HW137895   2.821   2.854   2.844  0.6889 -1.2039 -1.3352
 8812SOL    HW237896   2.670   2.821   2.854  0.8831  0.1851  1.5011
 8813SOL     OW37897   1.949   1.513   3.371 -0.3169 -0.1907 -0.2460
 8813SOL    HW137898   2.044   1.518   3.365 -0.3689 -0.3104 -1.1742
 8813SOL    HW237899   1.914   1.493   3.284 -1.9639  1.2512  0.0730
 8814SOL     OW37900   2.099   0.069   0.121  0.4409  0.1523  0.4332
 8814SOL    HW137901   2.099   4.699   0.141  1.9840 -0.1378 -0.8972
 8814SOL    HW237902   2.013   0.074   0.079  1.3127  2.1818 -1.0854
 8815SOL     OW37903   4.201   2.516   7.720  0.1164 -0.1740 -0.5030
 8815SOL    HW137904   4.213   2.547   7.810  1.4198  1.6783 -1.3305
 8815SOL    HW237905   4.138   2.576   7.680  1.3286  0.4297 -1.4865
 8816SOL     OW37906   4.178   1.765   8.108 -0.0620  0.1261 -0.0853
 8816SOL    HW137907   4.106   1.823   8.129  0.9583  1.4657 -0.3159
 8816SOL    HW237908   4.246   1.831   8.121  1.4503 -0.8983 -2.7458
 8817SOL     OW37909   2.889   4.539   7.943 -0.4658 -0.4229  0.2592
 8817SOL    HW137910   2.898   4.584   7.859  2.5595  1.4339  1.5991
 8817SOL    HW237911   2.963   4.571   7.993 -0.2934  0.3396 -0.4949
 8818SOL     OW37912   4.419   1.336   2.575 -0.3484 -0.2531  0.1858
 8818SOL    HW137913   4.480   1.389   2.626 -0.2380 -0.1781 -0.0286
 8818SOL    HW237914   4.335   1.369   2.608 -0.1784 -0.1015  0.4709
 8819SOL     OW37915   0.707   4.026   2.250  0.4957  0.4575  0.0590
 8819SOL    HW137916   0.731   3.976   2.328 -1.7541  0.6099  0.8576
 8819SOL    HW237917   0.646   3.974   2.199  0.9040 -0.9301  0.9856
 8820SOL     OW37918   1.432   1.214   2.486  0.6605 -0.5317 -0.1631
 8820SOL    HW137919   1.490   1.289   2.502  1.0779 -0.9640  0.3543
 8820SOL    HW237920   1.348   1.259   2.475  0.8505 -0.0413  0.3660
 8821SOL     OW37921   2.344   1.255   6.680  0.1969 -0.8200  0.2064
 8821SOL    HW137922   2.331   1.217   6.593  2.1068 -2.8220  0.8024
 8821SOL    HW237923   2.304   1.342   6.677  1.7186 -0.1889 -1.7509
 8822SOL     OW37924   2.618   3.812   2.964  0.1416 -1.0464 -0.1560
 8822SOL    HW137925   2.705   3.799   3.003 -0.1199 -2.1767  0.0570
 8822SOL    HW237926   2.632   3.835   2.873 -1.2316 -0.7836 -0.2916
 8823SOL     OW37927   1.694   2.815   8.989  0.3302 -0.0103 -0.4379
 8823SOL    HW137928   1.739   2.876   8.931  1.8920  0.6677  1.4739
 8823SOL    HW237929   1.612   2.790   8.946  0.3726  0.0521 -0.5548
 8824SOL     OW37930   2.416   4.098   0.735  0.1041 -0.4477  0.1188
 8824SOL    HW137931   2.358   4.169   0.761  0.4064 -0.6296  1.3072
 8824SOL    HW237932   2.413   4.100   0.639 -0.8756 -0.3979  0.1584
 8825SOL     OW37933   0.670   2.656  14.850  0.4277  0.1178  0.1349
 8825SOL    HW137934   0.577   2.639  14.865  0.6478  0.6651  2.1190
 8825SOL    HW237935   0.679   2.623  14.761 -0.2181  0.7991 -0.1869
 8826SOL     OW37936   4.516   0.500   4.385  0.5382 -0.3711  0.0330
 8826SOL    HW137937   4.571   0.557   4.331  0.4762 -0.1091  0.2461
 8826SOL    HW237938   4.564   0.419   4.370  0.0792 -0.5723 -0.3960
 8827SOL     OW37939   3.043   4.267   2.792  0.1331  0.2480 -0.5838
 8827SOL    HW137940   3.137   4.265   2.810  0.0027  0.3104  0.1142
 8827SOL    HW237941   3.038   4.292   2.700 -0.6292 -0.2776 -0.6823
 8828SOL     OW37942   0.984   4.150  10.256  0.1392  0.1108  0.1711
 8828SOL    HW137943   0.969   4.171  10.348 -0.7156  0.0031  0.0599
 8828SOL    HW237944   1.036   4.072  10.271 -1.8394 -1.3532 -0.6394
 8829SOL     OW37945   0.545   3.579  17.626 -0.6820 -0.7125 -0.0917
 8829SOL    HW137946   0.466   3.580  17.573 -0.1716 -2.0993 -0.8862
 8829SOL    HW237947   0.612   3.566  17.558  0.4574 -3.4842  1.5626
 8830SOL     OW37948   2.364   4.275   9.998 -0.9323  1.0939  0.1308
 8830SOL    HW137949   2.422   4.348   9.975  2.7811 -1.8243  0.3148
 8830SOL    HW237950   2.372   4.228   9.915  2.1411 -1.8552  2.1421
 8831SOL     OW37951   1.862   0.914   0.205 -0.3715  0.7368  0.3153
 8831SOL    HW137952   1.941   0.866   0.179 -0.4618  1.1899 -0.7892
 8831SOL    HW237953   1.890   0.954   0.287 -1.1579 -0.2881  1.0760
 8832SOL     OW37954   3.093   3.630   5.098 -0.1530 -0.2312 -0.0134
 8832SOL    HW137955   3.099   3.554   5.155  3.2033 -3.2074 -4.3190
 8832SOL    HW237956   3.079   3.703   5.158  0.5068  1.3522 -1.7852
 8833SOL     OW37957   4.183   1.930   3.293 -1.2194 -0.1721 -0.1354
 8833SOL    HW137958   4.215   2.007   3.247 -0.6712  1.8631  3.6553
 8833SOL    HW237959   4.109   1.961   3.346 -0.4042  3.2566 -1.0114
 8834SOL     OW37960   3.888   4.377  14.746  0.5718 -0.2793 -0.0965
 8834SOL    HW137961   3.872   4.291  14.784  1.9422 -1.4638 -2.1816
 8834SOL    HW237962   3.887   4.429  14.826 -0.1767 -2.6162  1.4179
 8835SOL     OW37963   0.369   3.431  11.248  0.4044  0.1317 -0.1426
 8835SOL    HW137964   0.283   3.389  11.250  0.2908  0.3531 -0.3554
 8835SOL    HW237965   0.428   3.381  11.190 -0.6346 -2.8939  1.4198
 8836SOL     OW37966   0.240   0.023  15.327 -0.0212 -0.2939  0.4031
 8836SOL    HW137967   0.298   4.679  15.292  0.6515  0.9810 -0.9637
 8836SOL    HW237968   0.301   0.094  15.347 -1.6496  0.6618  1.9375
 8837SOL     OW37969   4.689   0.848   6.959 -0.0968 -0.1121  0.1345
 8837SOL    HW137970   0.016   0.896   7.024  2.3489 -0.7641 -1.2848
 8837SOL    HW237971   4.685   0.922   6.898  0.8465 -0.9968 -0.9779
 8838SOL     OW37972   3.112   4.510   6.608 -0.1473 -0.3968 -0.5779
 8838SOL    HW137973   3.037   4.542   6.660  0.4651  2.7549 -1.6263
 8838SOL    HW237974   3.158   4.593   6.594  0.0439 -0.3596  0.2391
 8839SOL     OW37975   2.676   3.234   5.971 -0.8879  0.2212  0.4166
 8839SOL    HW137976   2.715   3.291   5.905 -0.6789 -1.0285 -0.5385
 8839SOL    HW237977   2.586   3.263   5.960 -0.5838 -0.3905 -3.7136
 8840SOL     OW37978   0.093   1.919  10.077 -0.4373  0.1902  0.1182
 8840SOL    HW137979   0.090   2.005  10.119  0.2868 -0.1365  0.8410
 8840SOL    HW237980   0.094   1.949   9.986  1.0051 -1.6554 -0.4797
 8841SOL     OW37981   2.997   3.701  12.492  1.2024  1.1971 -0.4551
 8841SOL    HW137982   3.061   3.756  12.446  0.7428  2.2107  0.1045
 8841SOL    HW237983   2.916   3.753  12.490  0.5479  0.0268 -4.1695
 8842SOL     OW37984   2.217   4.502  15.727 -0.6776  0.0703  0.3382
 8842SOL    HW137985   2.229   4.519  15.634  2.2208  0.0252  0.6953
 8842SOL    HW237986   2.172   4.577  15.765  0.2764  0.5328  0.5571
 8843SOL     OW37987   4.128   1.443   9.272  0.8111 -0.6233 -0.3416
 8843SOL    HW137988   4.209   1.405   9.306 -0.5795 -1.9418  1.5083
 8843SOL    HW237989   4.101   1.386   9.200  0.2233  0.9104 -1.3466
 8844SOL     OW37990   4.254   0.578  11.396 -0.1897  0.4867  0.3492
 8844SOL    HW137991   4.344   0.586  11.427  0.9665 -0.9924 -2.7056
 8844SOL    HW237992   4.202   0.622  11.464 -0.9373  2.1191 -1.2872
 8845SOL     OW37993   2.373   0.568   2.169  0.5286 -0.2786  0.2280
 8845SOL    HW137994   2.419   0.645   2.134 -1.4764 -0.4085 -2.7019
 8845SOL    HW237995   2.373   0.584   2.263  0.2045 -3.1543  0.6857
 8846SOL     OW37996   1.638   2.938  12.245 -0.4838 -0.1489  0.0478
 8846SOL    HW137997   1.718   2.890  12.267 -0.4489  0.2917  0.8985
 8846SOL    HW237998   1.582   2.908  12.317  0.7000 -1.2568  0.5129
 8847SOL     OW37999   4.516   2.113   3.176 -0.4217  0.2622  0.0021
 8847SOL    HW138000   4.493   2.162   3.255  0.8628  1.3987 -0.3142
 8847SOL    HW238001   4.480   2.167   3.106  1.0394  0.0891 -0.8944
 8848SOL     OW38002   0.317   1.963   8.377  0.9113  0.0405  0.2686
 8848SOL    HW138003   0.240   1.982   8.324  1.1522  1.5525  0.4522
 8848SOL    HW238004   0.313   2.019   8.454 -0.0983  0.4199 -0.0573
 8849SOL     OW38005   3.014   1.159  14.698  0.3165  0.5583  0.2932
 8849SOL    HW138006   3.052   1.083  14.652 -3.7075 -1.5311  0.4043
 8849SOL    HW238007   3.073   1.232  14.684  0.4706  1.0865  3.9644
 8850SOL     OW38008   2.505   3.851   1.676 -0.0734  0.4264 -0.2661
 8850SOL    HW138009   2.568   3.783   1.651 -1.0913 -0.5028 -0.2762
 8850SOL    HW238010   2.481   3.881   1.588 -0.1647  2.5171  0.4841
 8851SOL     OW38011   1.227   2.584   5.766  0.0341  0.8288 -0.5856
 8851SOL    HW138012   1.258   2.668   5.801 -1.2699  0.6471  1.0006
 8851SOL    HW238013   1.177   2.615   5.691  0.2766  2.4210 -0.0894
 8852SOL     OW38014   3.212   0.275   0.856  0.6139 -0.3280  0.1533
 8852SOL    HW138015   3.258   0.198   0.821 -1.2329 -0.8338 -1.1460
 8852SOL    HW238016   3.294   0.322   0.872  0.0439 -0.0266  2.1385
 8853SOL     OW38017   2.596   0.739  13.929  0.0684 -0.3078  0.1087
 8853SOL    HW138018   2.682   0.712  13.960  1.0003  0.0028 -2.1736
 8853SOL    HW238019   2.602   0.832  13.954 -2.2714 -0.2187  0.2712
 8854SOL     OW38020   1.220   1.134   5.362  0.8841 -0.0720 -0.4218
 8854SOL    HW138021   1.130   1.114   5.386  1.3002 -0.3067  0.9528
 8854SOL    HW238022   1.228   1.225   5.391  1.9673 -0.5209  0.7084
 8855SOL     OW38023   1.294   0.010  11.351 -0.1405  0.3780 -0.1409
 8855SOL    HW138024   1.311   0.071  11.422 -1.1140  0.7926 -0.2608
 8855SOL    HW238025   1.198   0.002  11.354 -0.4132  3.3966 -1.0579
 8856SOL     OW38026   1.164   0.033   4.860 -0.4149  0.0187 -0.3965
 8856SOL    HW138027   1.104   0.078   4.801  0.0245 -0.8574 -1.5155
 8856SOL    HW238028   1.239   0.000   4.809 -0.2157 -0.5995  0.2931
 8857SOL     OW38029   0.675   4.232   4.242 -0.3862 -0.2651 -0.1443
 8857SOL    HW138030   0.720   4.306   4.284 -1.2736 -0.4573  1.1304
 8857SOL    HW238031   0.676   4.263   4.151 -1.6397 -1.8181 -0.6951
 8858SOL     OW38032   1.869   1.896   3.970 -0.0944  0.3592  0.3197
 8858SOL    HW138033   1.848   1.935   3.885 -0.0307 -0.9942 -0.3219
 8858SOL    HW238034   1.941   1.839   3.943  0.2379  0.5473  0.8184
 8859SOL     OW38035   1.049   0.015   6.949 -0.0039  0.0541 -0.3868
 8859SOL    HW138036   0.953   0.019   6.945 -0.1226 -0.9124  0.9899
 8859SOL    HW238037   1.075   0.001   6.858  1.8242  0.8924  0.0109
 8860SOL     OW38038   0.369   1.618   7.165 -0.2183  0.1365 -0.2066
 8860SOL    HW138039   0.300   1.670   7.123  1.2614  1.8161 -0.5539
 8860SOL    HW238040   0.321   1.537   7.179  0.7285 -0.5959 -1.1722
 8861SOL     OW38041   1.205   4.341  10.430  0.3421  0.1243 -0.0518
 8861SOL    HW138042   1.266   4.324  10.358  0.4388 -1.5683  0.4170
 8861SOL    HW238043   1.148   4.411  10.400 -0.6294 -1.1707 -1.2277
 8862SOL     OW38044   4.314   1.000   6.962 -0.2310  0.1066 -0.1330
 8862SOL    HW138045   4.252   1.050   6.909  0.7097 -0.1710 -1.5176
 8862SOL    HW238046   4.393   1.031   6.917  0.0624  0.3284  0.5435
 8863SOL     OW38047   1.010   2.287   4.394 -0.2824  0.1246 -0.5422
 8863SOL    HW138048   0.964   2.318   4.471  0.5348 -0.1660  0.0679
 8863SOL    HW238049   0.977   2.199   4.374 -2.2403  0.3191  1.8394
 8864SOL     OW38050   2.471   3.249   0.979  0.0896  0.7115  0.0626
 8864SOL    HW138051   2.384   3.269   0.946 -0.1807 -0.0786  0.3051
 8864SOL    HW238052   2.500   3.187   0.911  2.2353  3.2300 -1.3322
 8865SOL     OW38053   4.616   0.822   5.666 -0.1767 -0.0358  0.0414
 8865SOL    HW138054   4.609   0.781   5.753  0.6985 -0.6120 -0.1626
 8865SOL    HW238055   4.576   0.906   5.691 -0.7225  0.2872 -1.9527
 8866SOL     OW38056   0.498   1.152   7.086 -0.3580 -0.0786  0.0654
 8866SOL    HW138057   0.509   1.057   7.087  0.9664  0.0767  0.3090
 8866SOL    HW238058   0.527   1.163   7.177  2.5040 -0.2813 -0.8216
 8867SOL     OW38059   0.183   0.959  11.001 -0.1292 -0.3641  0.4360
 8867SOL    HW138060   0.158   0.897  11.070  1.7035 -0.1036  1.3283
 8867SOL    HW238061   0.131   1.034  11.028 -2.1624 -1.8073  0.5603
 8868SOL     OW38062   1.095   3.491  10.845 -0.0402 -0.0585  0.0259
 8868SOL    HW138063   1.081   3.422  10.780 -3.5562 -0.3772  1.1537
 8868SOL    HW238064   1.109   3.443  10.927 -0.6596  2.3424  1.5211
 8869SOL     OW38065   2.949   0.820   4.171 -0.7097 -0.3008 -0.4502
 8869SOL    HW138066   3.041   0.803   4.154 -0.2576  0.2808  1.3591
 8869SOL    HW238067   2.934   0.799   4.264  0.6704  1.6429  0.2139
 8870SOL     OW38068   2.412   1.653   5.775 -0.2135  0.4865 -0.8100
 8870SOL    HW138069   2.330   1.662   5.824  0.8012  0.8639  0.8370
 8870SOL    HW238070   2.450   1.738   5.797  0.1517  0.5165 -1.5564
 8871SOL     OW38071   3.348   2.570   3.401  0.3373 -0.2072  0.9250
 8871SOL    HW138072   3.288   2.641   3.383  0.1893 -0.4189  0.5917
 8871SOL    HW238073   3.339   2.578   3.496  1.9515 -1.2367  1.1753
 8872SOL     OW38074   1.971   3.381   5.892  0.3249 -0.9956  0.3734
 8872SOL    HW138075   2.057   3.388   5.851 -0.2763  2.2211 -0.3797
 8872SOL    HW238076   1.925   3.404   5.811  0.1351  0.1336  0.7952
 8873SOL     OW38077   4.556   3.760   9.263  0.3413  0.4086  0.4564
 8873SOL    HW138078   4.491   3.731   9.328  1.5632 -0.1553  1.4090
 8873SOL    HW238079   4.508   3.833   9.223  0.2606 -0.7178 -1.5057
 8874SOL     OW38080   4.128   0.760   1.865  0.0404  0.1275  0.3686
 8874SOL    HW138081   4.153   0.677   1.825  0.6308  0.1533  0.6875
 8874SOL    HW238082   4.208   0.809   1.883  1.6767 -2.6181  0.5843
 8875SOL     OW38083   1.987   2.535   5.900  0.2251  0.3861 -0.0431
 8875SOL    HW138084   1.928   2.596   5.945  0.0713 -2.4063  3.5009
 8875SOL    HW238085   2.050   2.603   5.876  2.9835 -1.3264  2.4317
 8876SOL     OW38086   3.509   1.315  10.517  0.4968 -0.5741 -0.3616
 8876SOL    HW138087   3.467   1.230  10.531  0.6715 -0.4984  0.6466
 8876SOL    HW238088   3.486   1.340  10.428 -0.8781  2.4204  0.8341
 8877SOL     OW38089   4.534   3.810  15.923 -0.3656 -0.5357  0.3836
 8877SOL    HW138090   4.556   3.757  15.847  2.7192 -0.7162  1.4230
 8877SOL    HW238091   4.440   3.822  15.909 -0.2701  0.9589  1.0348
 8878SOL     OW38092   2.685   3.628  14.127 -0.1992  0.7775 -0.0323
 8878SOL    HW138093   2.742   3.689  14.079  0.7105 -0.7966 -0.9865
 8878SOL    HW238094   2.601   3.674  14.129 -0.3157  0.5766 -0.2843
 8879SOL     OW38095   1.409   0.836   5.586 -0.4430 -0.7670 -0.6109
 8879SOL    HW138096   1.492   0.846   5.633 -0.6567  1.5028 -0.7121
 8879SOL    HW238097   1.436   0.788   5.508 -0.6974 -1.4993 -0.2570
 8880SOL     OW38098   2.907   2.345   5.324 -0.4162 -0.4745 -0.5111
 8880SOL    HW138099   2.921   2.258   5.288 -2.1568 -0.5908 -0.8852
 8880SOL    HW238100   2.949   2.332   5.409 -0.2745 -1.7841 -0.7742
 8881SOL     OW38101   2.152   1.477  13.296 -0.2980  0.0775  0.2551
 8881SOL    HW138102   2.193   1.394  13.272  0.3033  0.7285 -0.9909
 8881SOL    HW238103   2.070   1.455  13.340  1.6285 -1.0433  3.2344
 8882SOL     OW38104   3.486   0.737   1.079  0.0504  0.0868 -0.2347
 8882SOL    HW138105   3.572   0.749   1.038  1.3335  0.5026  2.5789
 8882SOL    HW238106   3.521   0.732   1.168 -0.2461  0.8332 -0.0750
 8883SOL     OW38107   1.018   3.812   7.822 -0.0762 -0.2145  0.3750
 8883SOL    HW138108   1.100   3.852   7.792 -1.3930  0.2308 -2.5544
 8883SOL    HW238109   1.042   3.726   7.856 -0.3487 -0.4821 -0.1071
 8884SOL     OW38110   3.851   0.212   6.476  0.1529  0.3086 -0.0824
 8884SOL    HW138111   3.824   0.276   6.542 -0.6009  1.6926 -1.7498
 8884SOL    HW238112   3.855   0.136   6.534 -1.2685 -0.6127 -1.2038
 8885SOL     OW38113   1.811   3.598  14.054 -0.0784 -0.4961 -0.2704
 8885SOL    HW138114   1.817   3.672  13.994  0.5075 -0.4478 -0.1476
 8885SOL    HW238115   1.858   3.535  13.999 -1.2538 -1.4956 -0.1298
 8886SOL     OW38116   2.460   0.379   8.071  0.3858  0.0738  0.4323
 8886SOL    HW138117   2.383   0.343   8.027  0.5842 -0.4535  0.5145
 8886SOL    HW238118   2.443   0.473   8.085 -3.4778 -0.6196  0.3536
 8887SOL     OW38119   4.272   4.676   4.324 -0.4739  0.0214 -0.1449
 8887SOL    HW138120   4.301   4.610   4.261  0.8581 -1.0740  1.6066
 8887SOL    HW238121   4.219   0.009   4.269  1.0986 -1.1086 -2.8152
 8888SOL     OW38122   1.599   1.120   6.937 -0.1713 -0.4439 -0.6878
 8888SOL    HW138123   1.614   1.197   6.882  1.6787 -0.4968 -0.2583
 8888SOL    HW238124   1.566   1.051   6.879  1.9118 -3.0678  1.2415
 8889SOL     OW38125   0.333   2.165  11.041  0.0174 -0.0816 -0.2387
 8889SOL    HW138126   0.402   2.175  10.975 -2.2491  0.7465 -2.4696
 8889SOL    HW238127   0.297   2.252  11.055 -0.3878 -0.3086  0.1314
 8890SOL     OW38128   2.996   2.975   7.134  0.1197 -0.1712  0.6276
 8890SOL    HW138129   3.035   2.900   7.090  0.4373  1.0963 -1.2512
 8890SOL    HW238130   2.910   2.976   7.091  0.9663  0.1765 -1.0402
 8891SOL     OW38131   3.037   1.942  12.825  0.6314 -0.3659 -0.2427
 8891SOL    HW138132   2.976   1.980  12.761  0.2424 -1.4817 -0.5415
 8891SOL    HW238133   3.086   2.022  12.841 -0.2523  0.2036 -0.3834
 8892SOL     OW38134   1.331   0.394   6.022 -0.5883 -0.4099 -0.1492
 8892SOL    HW138135   1.323   0.397   6.117  3.4407  0.6811  0.1539
 8892SOL    HW238136   1.239   0.375   6.004 -0.1207 -0.2807 -2.7141
 8893SOL     OW38137   3.050   2.552   8.844  0.1302 -0.0906  0.6705
 8893SOL    HW138138   3.035   2.527   8.934  1.5009  0.9775  1.2035
 8893SOL    HW238139   2.983   2.504   8.795 -0.0348  0.4967  0.3175
 8894SOL     OW38140   1.640   4.517  14.395  0.4158 -0.3675  0.1789
 8894SOL    HW138141   1.680   4.548  14.477  2.2079 -2.1314 -0.0266
 8894SOL    HW238142   1.550   4.529  14.424 -0.1799 -0.7073 -1.5585
 8895SOL     OW38143   3.864   1.730   1.384  0.1838 -0.1060 -0.1348
 8895SOL    HW138144   3.917   1.704   1.309 -2.3431 -0.6441 -1.7428
 8895SOL    HW238145   3.929   1.775   1.437  0.1479  1.6636 -1.6083
 8896SOL     OW38146   0.949   3.174   4.069 -0.1319  0.2934  0.1168
 8896SOL    HW138147   0.949   3.188   4.164  0.8637 -0.2086  0.1851
 8896SOL    HW238148   1.036   3.203   4.042 -0.2207 -0.7675 -1.3372
 8897SOL     OW38149   4.420   0.164  15.807 -0.1106  0.2419 -0.0835
 8897SOL    HW138150   4.440   0.200  15.893  2.1992 -0.4123 -0.3417
 8897SOL    HW238151   4.503   0.130  15.773 -1.9375 -1.5227 -2.7667
 8898SOL     OW38152   1.864   4.052   2.862  0.4580  0.0713  0.1561
 8898SOL    HW138153   1.856   4.015   2.775  2.7286 -0.4647  0.1756
 8898SOL    HW238154   1.919   3.991   2.911 -1.3283 -0.1254  1.9218
 8899SOL     OW38155   0.870   3.162   6.331 -0.4388 -0.1736 -0.7921
 8899SOL    HW138156   0.882   3.206   6.246 -0.9603 -1.6596 -1.6337
 8899SOL    HW238157   0.895   3.241   6.380 -2.1704 -0.7329  0.9673
 8900SOL     OW38158   3.159   2.342   8.410 -0.4114  0.4040  0.5576
 8900SOL    HW138159   3.194   2.392   8.484 -0.1134 -0.9691  1.3585
 8900SOL    HW238160   3.245   2.329   8.370 -1.1682  0.3603 -1.0443
 8901SOL     OW38161   0.777   2.342   5.539  0.1634 -0.0651 -0.9110
 8901SOL    HW138162   0.801   2.276   5.473 -1.2622 -0.6612 -0.8347
 8901SOL    HW238163   0.693   2.309   5.570  1.1672  0.6239  2.5437
 8902SOL     OW38164   3.395   1.737   4.137 -0.0742  0.3153 -0.2401
 8902SOL    HW138165   3.428   1.719   4.225 -1.3243  1.1767  0.4090
 8902SOL    HW238166   3.316   1.684   4.126 -1.4151  2.5882 -1.6898
 8903SOL     OW38167   0.704   0.457   3.277 -0.0043  0.0625  0.1159
 8903SOL    HW138168   0.752   0.518   3.333 -0.3787 -0.8210  1.3689
 8903SOL    HW238169   0.779   0.432   3.222 -0.8109 -0.0893 -0.9129
 8904SOL     OW38170   1.653   3.652   6.183  0.0809 -0.4071 -0.1569
 8904SOL    HW138171   1.643   3.658   6.088 -0.4759 -0.5240 -0.1108
 8904SOL    HW238172   1.571   3.691   6.214 -0.1314 -0.0104 -1.2127
 8905SOL     OW38173   1.050   0.403   4.508 -0.0298  0.1545 -0.1449
 8905SOL    HW138174   0.982   0.393   4.441  0.9958 -2.4339 -0.8038
 8905SOL    HW238175   1.106   0.338   4.466 -1.5822 -1.7925  0.8195
 8906SOL     OW38176   3.356   3.441   5.998  0.1303  0.0564  0.4141
 8906SOL    HW138177   3.327   3.458   6.088 -1.0834  2.2019 -0.4047
 8906SOL    HW238178   3.424   3.505   5.981 -0.2651  0.1938 -0.6582
 8907SOL     OW38179   3.061   1.003   5.335 -0.2269  0.1546  0.5640
 8907SOL    HW138180   2.973   0.998   5.371 -0.3413  3.7218  0.8182
 8907SOL    HW238181   3.082   0.913   5.310  3.6721  1.3295 -0.4554
 8908SOL     OW38182   4.160   1.334   5.511 -0.6817  0.2563 -0.3138
 8908SOL    HW138183   4.214   1.398   5.464  0.2440 -0.2795  0.0240
 8908SOL    HW238184   4.111   1.288   5.443  2.3748  1.0772 -3.0855
 8909SOL     OW38185   3.857   1.929   9.624  0.4493  0.1391  0.2417
 8909SOL    HW138186   3.859   1.957   9.533  1.7375 -1.3707 -0.1923
 8909SOL    HW238187   3.784   1.868   9.615 -0.0007  0.9979 -1.8735
 8910SOL     OW38188   3.480   4.060   4.583 -0.0421  0.0485  0.1015
 8910SOL    HW138189   3.564   4.087   4.547  0.0111 -1.1421 -0.6515
 8910SOL    HW238190   3.513   4.015   4.661  4.7975  1.0078 -1.3881
 8911SOL     OW38191   3.289   0.329   6.101  0.2365 -0.5009 -0.2645
 8911SOL    HW138192   3.331   0.401   6.147  0.8711 -0.8700 -0.2744
 8911SOL    HW238193   3.368   0.278   6.085  1.3246  0.6942  1.2229
 8912SOL     OW38194   3.661   0.658   2.678  0.1388 -0.1186 -0.2250
 8912SOL    HW138195   3.739   0.662   2.622  1.2524 -0.8480  1.2850
 8912SOL    HW238196   3.699   0.630   2.762 -2.9965  1.2874  1.6210
 8913SOL     OW38197   0.640   1.175  14.802 -0.5448 -0.2649  0.2423
 8913SOL    HW138198   0.695   1.248  14.831 -0.9053  0.6220 -1.2776
 8913SOL    HW238199   0.684   1.170  14.717  0.3386  0.1692  0.6756
 8914SOL     OW38200   4.534   1.176   4.422 -0.2962  0.3659  0.1855
 8914SOL    HW138201   4.470   1.183   4.351  0.8942 -0.1802 -0.9353
 8914SOL    HW238202   4.566   1.265   4.434  0.0562  0.5809 -2.3052
 8915SOL     OW38203   1.105   4.626  13.259 -0.2716 -0.2008  0.5780
 8915SOL    HW138204   1.132   4.572  13.332 -0.1731  0.7142  1.2133
 8915SOL    HW238205   1.015   4.644  13.286 -0.7316 -0.7115 -0.5738
 8916SOL     OW38206   3.624   3.327   3.480 -0.8138  0.3272 -0.0164
 8916SOL    HW138207   3.665   3.254   3.435 -2.2033  0.5090 -1.6032
 8916SOL    HW238208   3.698   3.385   3.498 -1.2448  0.7214  0.4937
 8917SOL     OW38209   1.974   0.258   4.871  0.5950  0.0380 -0.1238
 8917SOL    HW138210   1.908   0.299   4.814  0.7128  1.0578  0.4774
 8917SOL    HW238211   1.993   0.171   4.834  0.6175 -1.3566  3.2138
 8918SOL     OW38212   0.479   0.636  12.439 -0.4144  0.2494 -0.4884
 8918SOL    HW138213   0.571   0.619  12.458 -0.3173  0.4046 -0.8095
 8918SOL    HW238214   0.483   0.727  12.469 -0.7108  0.5537 -1.3508
 8919SOL     OW38215   0.917   3.996   3.640 -0.0900 -0.2095 -0.1848
 8919SOL    HW138216   0.931   4.049   3.561  0.3979 -1.3724 -0.8845
 8919SOL    HW238217   0.976   3.924   3.618 -0.2132 -1.1676  2.6271
 8920SOL     OW38218   3.766   1.431   6.976 -0.3484  0.1907 -0.3732
 8920SOL    HW138219   3.784   1.338   6.986 -2.1101  0.1075  2.2236
 8920SOL    HW238220   3.801   1.467   7.057  1.6991  0.9572 -1.6110
 8921SOL     OW38221   4.142   2.231   6.728  0.1789  0.2356 -0.0353
 8921SOL    HW138222   4.201   2.288   6.778 -0.2451  1.9624 -1.5138
 8921SOL    HW238223   4.186   2.214   6.645 -0.6678 -1.5025 -0.1259
 8922SOL     OW38224   2.538   1.369   8.897  0.2846 -0.2001  0.5693
 8922SOL    HW138225   2.483   1.353   8.821  1.7119  0.1993 -0.5474
 8922SOL    HW238226   2.493   1.444   8.937  1.2765  1.0612 -0.6908
 8923SOL     OW38227   2.303   1.532  17.030  0.3315 -0.2467 -0.2296
 8923SOL    HW138228   2.279   1.602  17.092  0.8284 -0.8434  0.6402
 8923SOL    HW238229   2.398   1.544  17.021  0.1252 -0.5905 -2.7677
 8924SOL     OW38230   4.190   0.750   3.177 -0.4705 -0.1719 -0.0502
 8924SOL    HW138231   4.252   0.689   3.136 -0.5123 -1.4983  1.8499
 8924SOL    HW238232   4.194   0.746   3.273 -1.4285  0.2924  0.0122
 8925SOL     OW38233   1.384   2.541  17.145  0.1611 -0.2159  0.5755
 8925SOL    HW138234   1.395   2.469  17.082  0.6532  1.6052 -1.4298
 8925SOL    HW238235   1.294   2.528  17.174  0.8644 -2.2412  1.8093
 8926SOL     OW38236   2.705   2.274   8.317 -0.1370  0.1900  0.1761
 8926SOL    HW138237   2.737   2.210   8.253 -2.5798  0.0125 -0.8750
 8926SOL    HW238238   2.782   2.324   8.342 -0.1933  2.1208 -3.4591
 8927SOL     OW38239   3.302   1.878   8.783 -0.2682  0.5904 -0.2052
 8927SOL    HW138240   3.358   1.877   8.861 -0.0825  0.0911 -0.3421
 8927SOL    HW238241   3.228   1.840   8.830  1.0328 -1.2994  0.3354
 8928SOL     OW38242   1.257   2.705   8.359 -0.1241  0.0844 -0.0938
 8928SOL    HW138243   1.187   2.643   8.379  1.6454 -1.0607  2.6189
 8928SOL    HW238244   1.215   2.779   8.316  1.5648  0.9507 -0.2793
 8929SOL     OW38245   0.029   4.275   2.604 -0.1044  0.2830 -0.0634
 8929SOL    HW138246   4.663   4.298   2.584 -0.4029 -1.1640 -0.4289
 8929SOL    HW238247   0.036   4.181   2.584  0.5954  0.5575 -1.1309
 8930SOL     OW38248   4.462   1.140   1.126 -0.1539  0.1691 -0.4693
 8930SOL    HW138249   4.537   1.125   1.069 -1.3483  1.7955 -2.4224
 8930SOL    HW238250   4.395   1.142   1.059 -0.5758 -2.4071 -0.1492
 8931SOL     OW38251   1.748   0.774  11.114  0.5006  0.3108  0.1655
 8931SOL    HW138252   1.657   0.745  11.117  0.3867  0.8290  1.9699
 8931SOL    HW238253   1.774   0.779  11.207  2.2204 -0.2044 -0.2843
 8932SOL     OW38254   2.310   0.675  13.415 -0.5366  0.0053  0.6687
 8932SOL    HW138255   2.375   0.735  13.453  0.7212 -0.9363 -0.0000
 8932SOL    HW238256   2.288   0.724  13.336 -0.3218 -0.8195  0.0936
 8933SOL     OW38257   4.510   0.784   8.308  0.0807 -0.3984  0.2102
 8933SOL    HW138258   4.559   0.712   8.347  1.2935 -0.5077 -1.5135
 8933SOL    HW238259   4.473   0.834   8.381  1.9858  0.1396  0.8241
 8934SOL     OW38260   3.347   4.580   5.551  0.3615 -0.4012  0.1621
 8934SOL    HW138261   3.380   4.567   5.640 -1.2674  3.2124  1.2957
 8934SOL    HW238262   3.417   4.542   5.497 -0.3984 -0.8169 -0.5302
 8935SOL     OW38263   1.873   1.838   8.397  0.3574  0.3159 -0.6972
 8935SOL    HW138264   1.935   1.779   8.355  0.6472 -0.1777  0.4259
 8935SOL    HW238265   1.813   1.849   8.323 -0.7298 -1.0716 -0.0249
 8936SOL     OW38266   3.509   1.662   7.060  0.2636 -0.5207  0.4827
 8936SOL    HW138267   3.471   1.575   7.048  1.7404 -0.5906 -3.6862
 8936SOL    HW238268   3.586   1.663   7.004  1.9165  1.9690  2.8186
 8937SOL     OW38269   3.190   1.778   3.507  0.1188  0.3176 -0.4830
 8937SOL    HW138270   3.110   1.806   3.463  0.4950 -0.1711 -1.4706
 8937SOL    HW238271   3.157   1.787   3.597  1.6780  1.4272 -0.0055
 8938SOL     OW38272   2.066   4.526   8.089 -0.4500 -0.1886 -0.3037
 8938SOL    HW138273   1.995   4.477   8.130  1.0562 -1.9635  0.1399
 8938SOL    HW238274   2.106   4.568   8.166  0.6927 -0.4305 -0.7719
 8939SOL     OW38275   3.757   1.415   0.738  0.6219 -0.0413 -0.4264
 8939SOL    HW138276   3.672   1.374   0.757  0.2688  1.2696  0.7986
 8939SOL    HW238277   3.796   1.356   0.673 -2.2666 -1.9985 -0.4020
 8940SOL     OW38278   2.594   1.825   2.180 -0.2374  0.0559 -0.3865
 8940SOL    HW138279   2.499   1.817   2.183 -0.2403  0.3630  0.1875
 8940SOL    HW238280   2.596   1.893   2.113 -0.7062 -0.3785 -0.8412
 8941SOL     OW38281   4.037   4.160  12.259 -0.3475  0.0613  0.0730
 8941SOL    HW138282   4.079   4.236  12.300  0.2390 -1.3353  2.0649
 8941SOL    HW238283   4.043   4.086  12.319 -0.7758 -0.3557 -0.4050
 8942SOL     OW38284   3.382   0.635   3.262 -0.3830  0.4284 -0.6973
 8942SOL    HW138285   3.471   0.617   3.234 -0.0375  1.5509 -0.2901
 8942SOL    HW238286   3.341   0.549   3.254  0.4285 -0.0723  0.5590
 8943SOL     OW38287   3.656   0.213   2.527 -0.1260  0.0832 -0.5425
 8943SOL    HW138288   3.605   0.132   2.536  0.2264 -0.1554 -0.6744
 8943SOL    HW238289   3.712   0.197   2.451 -0.6372  1.6591 -1.2451
 8944SOL     OW38290   1.988   3.416   5.603  0.7102 -0.5818 -0.3252
 8944SOL    HW138291   2.004   3.336   5.553  1.7865 -1.3810  1.3143
 8944SOL    HW238292   2.064   3.470   5.584  1.1347  0.0766  3.2908
 8945SOL     OW38293   1.403   1.508   3.060  0.0121 -0.4655  0.2799
 8945SOL    HW138294   1.416   1.459   2.979 -1.0837 -0.7147  0.2503
 8945SOL    HW238295   1.455   1.585   3.036  1.0079 -2.1174 -2.8289
 8946SOL     OW38296   4.369   0.723   7.325  0.3490 -0.6128 -0.2177
 8946SOL    HW138297   4.399   0.657   7.263  1.9071 -3.0040  3.0287
 8946SOL    HW238298   4.448   0.776   7.332 -0.3379  0.3979 -0.0384
 8947SOL     OW38299   4.324   4.240   2.947 -0.0684 -0.6494  0.1091
 8947SOL    HW138300   4.252   4.179   2.961 -1.0424 -0.1037 -2.5444
 8947SOL    HW238301   4.369   4.193   2.877 -1.1145 -0.9358 -0.3633
 8948SOL     OW38302   2.415   2.331   1.356 -0.0197 -0.0216 -0.3994
 8948SOL    HW138303   2.491   2.276   1.374 -1.1707 -1.6780 -0.6788
 8948SOL    HW238304   2.438   2.379   1.276 -1.3773 -0.0600 -0.8024
 8949SOL     OW38305   0.322   3.087  11.333 -0.1868 -0.1084 -0.0831
 8949SOL    HW138306   0.257   3.152  11.305 -0.1822 -0.5450 -1.0922
 8949SOL    HW238307   0.370   3.138  11.399 -0.1278  1.5022 -1.3631
 8950SOL     OW38308   1.882   0.591  14.461  0.2009  0.2928 -0.4869
 8950SOL    HW138309   1.857   0.681  14.439  0.2242  0.3709 -0.1828
 8950SOL    HW238310   1.836   0.552  14.386  0.4707  0.0936 -0.5458
 8951SOL     OW38311   0.455   2.818   0.500  0.4523  0.2309  0.1141
 8951SOL    HW138312   0.363   2.827   0.477  0.0419 -1.3301  1.1312
 8951SOL    HW238313   0.484   2.905   0.473  2.2916 -1.0446 -2.0107
 8952SOL     OW38314   0.775   3.486   8.943 -0.0007  0.7520  0.3828
 8952SOL    HW138315   0.777   3.406   8.996  2.1490  0.4445 -0.1731
 8952SOL    HW238316   0.732   3.455   8.863 -1.6946  0.2063  1.4983
 8953SOL     OW38317   2.416   4.314  15.704 -0.1426  0.0021 -0.0516
 8953SOL    HW138318   2.334   4.364  15.711  0.2681  0.8544 -1.3883
 8953SOL    HW238319   2.486   4.379  15.713  0.3980 -0.8457  1.8128
 8954SOL     OW38320   2.615   3.144   7.786 -0.1631 -0.3688  0.1939
 8954SOL    HW138321   2.617   3.072   7.723 -1.9456 -1.4408  1.3673
 8954SOL    HW238322   2.649   3.214   7.731 -0.2785 -0.8601 -0.5079
 8955SOL     OW38323   2.222   0.621   5.360  0.2127  0.2252  0.3742
 8955SOL    HW138324   2.183   0.537   5.384  2.4473 -0.7757  0.4872
 8955SOL    HW238325   2.167   0.630   5.283  2.7676  1.1542 -1.3351
 8956SOL     OW38326   1.929   2.691   3.230  0.1956 -0.3237  0.1455
 8956SOL    HW138327   1.872   2.702   3.306  0.1204  0.2300  0.0132
 8956SOL    HW238328   1.865   2.676   3.160  1.8466  4.0874 -2.2707
 8957SOL     OW38329   2.433   2.699  17.415 -0.2211 -0.2636 -0.0521
 8957SOL    HW138330   2.529   2.701  17.415 -0.2277 -0.2689 -1.7818
 8957SOL    HW238331   2.413   2.710  17.508 -0.7944 -0.7758 -0.1145
 8958SOL     OW38332   4.585   0.259   7.090 -0.4083  1.0156 -0.2896
 8958SOL    HW138333   4.665   0.251   7.143 -1.3145  0.9386  1.0554
 8958SOL    HW238334   4.525   0.305   7.149 -0.0774  1.6297 -0.4329
 8959SOL     OW38335   0.499   0.598  15.361  0.4492 -0.2960 -0.4702
 8959SOL    HW138336   0.593   0.580  15.353  0.5250 -0.8818  1.7001
 8959SOL    HW238337   0.501   0.678  15.308 -3.6526 -1.4454 -2.3246
 8960SOL     OW38338   4.081   3.050   6.113  0.1884 -0.1471 -0.5891
 8960SOL    HW138339   4.041   3.064   6.027 -0.4805 -1.0334 -0.4189
 8960SOL    HW238340   4.173   3.035   6.091 -0.6346 -1.8008 -2.8581
 8961SOL     OW38341   2.625   3.463   7.791 -0.0676 -0.3180  0.0432
 8961SOL    HW138342   2.677   3.417   7.725 -1.9983 -1.0553 -0.9597
 8961SOL    HW238343   2.647   3.556   7.785 -0.5956 -0.0623  2.0175
 8962SOL     OW38344   3.246   1.213   4.283  0.1901  0.3628  0.6274
 8962SOL    HW138345   3.280   1.142   4.228 -1.2247  0.6026 -0.5524
 8962SOL    HW238346   3.265   1.184   4.372  0.7895 -1.1099  0.0284
 8963SOL     OW38347   0.778   0.629  15.311 -0.0940  0.3737  0.5685
 8963SOL    HW138348   0.773   0.684  15.233  1.5498  1.4283  1.2200
 8963SOL    HW238349   0.862   0.660  15.344 -0.0547 -1.0920  1.8408
 8964SOL     OW38350   3.835   1.487   7.859 -0.6113  0.3611 -0.1177
 8964SOL    HW138351   3.919   1.502   7.818 -0.5221 -1.1550 -0.4840
 8964SOL    HW238352   3.828   1.567   7.911 -1.1985 -0.1159  0.5469
 8965SOL     OW38353   2.683   0.714   3.591  0.1025  0.3100  0.4494
 8965SOL    HW138354   2.685   0.700   3.496 -1.2591  2.6192  0.0924
 8965SOL    HW238355   2.613   0.656   3.619  0.5186 -1.9920 -3.2042
 8966SOL     OW38356   1.037   0.653  13.804 -0.9270 -0.1324 -0.2794
 8966SOL    HW138357   0.948   0.688  13.798 -0.8647  0.1982  0.6206
 8966SOL    HW238358   1.082   0.737  13.817  0.5703 -1.5044  3.4188
 8967SOL     OW38359   1.045   0.892   4.620  0.4823  0.4044 -0.4133
 8967SOL    HW138360   1.042   0.800   4.646 -3.0192  0.6267  0.0498
 8967SOL    HW238361   1.036   0.879   4.526  0.0201 -0.5325 -0.2413
 8968SOL     OW38362   0.750   2.934   3.921  0.3753 -0.1050 -0.0182
 8968SOL    HW138363   0.696   2.969   3.992 -0.5606 -1.1993 -0.1953
 8968SOL    HW238364   0.754   3.010   3.863 -1.0951 -0.0940 -0.0980
 8969SOL     OW38365   0.336   2.544   7.452  0.2107  0.7279  0.2274
 8969SOL    HW138366   0.405   2.529   7.387  0.3888  0.6469  0.4357
 8969SOL    HW238367   0.354   2.479   7.520 -0.0853  1.2095  0.7527
 8970SOL     OW38368   0.354   0.870   9.421  0.1323  0.3229 -1.1230
 8970SOL    HW138369   0.353   0.885   9.515  0.9785 -0.8940 -0.9188
 8970SOL    HW238370   0.434   0.916   9.392  1.6257 -2.5677 -1.6162
 8971SOL     OW38371   1.857   4.661  17.414  0.8080  0.3904 -1.0935
 8971SOL    HW138372   1.763   4.641  17.407  0.3128  2.2916  0.1869
 8971SOL    HW238373   1.872   0.023  17.374  0.0562  0.4107 -1.3449
 8972SOL     OW38374   1.928   1.921   4.732  0.1915  0.3261 -0.6969
 8972SOL    HW138375   1.928   1.971   4.813 -2.4059  2.3019 -1.9153
 8972SOL    HW238376   2.009   1.959   4.697  0.2644 -0.2212 -1.1324
 8973SOL     OW38377   2.285   1.791   7.868  0.4368  0.4171 -0.1873
 8973SOL    HW138378   2.211   1.732   7.881 -0.0199  0.8203 -1.0266
 8973SOL    HW238379   2.349   1.720   7.875 -0.5420 -0.6893 -2.8062
 8974SOL     OW38380   3.405   2.328   8.284  0.0868 -0.0652  0.1199
 8974SOL    HW138381   3.500   2.318   8.282 -0.0497 -1.6447  1.5289
 8974SOL    HW238382   3.379   2.314   8.193  2.7838  0.4976 -0.7462
 8975SOL     OW38383   3.147   1.550   7.642  0.0838  0.3985 -0.4533
 8975SOL    HW138384   3.235   1.587   7.650 -0.4453  1.6951 -0.6408
 8975SOL    HW238385   3.151   1.474   7.699 -0.5348  0.8187  0.1515
 8976SOL     OW38386   3.783   0.782   5.777  0.3547 -0.0669  0.2251
 8976SOL    HW138387   3.877   0.764   5.780  0.7810  2.3966  2.5700
 8976SOL    HW238388   3.748   0.715   5.836  3.2394 -2.7163 -1.0388
 8977SOL     OW38389   3.939   0.752   9.836 -0.6959 -0.1546  0.0761
 8977SOL    HW138390   3.976   0.795   9.913  1.0450  0.4308 -1.0817
 8977SOL    HW238391   3.901   0.676   9.880  2.4474 -1.6533  0.2166
 8978SOL     OW38392   1.178   0.091  13.754 -0.4435  0.0565 -0.0785
 8978SOL    HW138393   1.117   0.029  13.793  1.7417 -2.1665 -0.1786
 8978SOL    HW238394   1.213   0.038  13.683  0.4921 -1.6659  1.6710
 8979SOL     OW38395   0.743   0.263  15.270  0.2061 -0.6532 -0.3354
 8979SOL    HW138396   0.804   0.302  15.207 -1.6451  3.6985  0.5436
 8979SOL    HW238397   0.762   0.319  15.345  1.1127 -0.2450 -0.8617
 8980SOL     OW38398   2.134   0.499   4.304  0.0297  0.4019 -0.9402
 8980SOL    HW138399   2.130   0.413   4.263 -1.2782  0.7811 -1.6208
 8980SOL    HW238400   2.228   0.516   4.303 -0.0081  0.7134 -0.1502
 8981SOL     OW38401   4.594   3.031   9.068  0.4792  0.2979  0.1436
 8981SOL    HW138402   4.602   3.034   9.163 -0.5617  0.1639  0.2427
 8981SOL    HW238403   4.682   3.032   9.030 -0.5720  0.4014 -2.3146
 8982SOL     OW38404   1.394   0.955   5.981  0.0150  0.7446  0.3323
 8982SOL    HW138405   1.341   1.014   6.034 -0.9221 -1.3028  1.6806
 8982SOL    HW238406   1.470   0.944   6.039  1.1637 -2.3492 -1.7420
 8983SOL     OW38407   2.605   3.578   1.173 -0.1492  0.2329 -0.3541
 8983SOL    HW138408   2.574   3.488   1.184 -3.0037  1.0840 -1.5139
 8983SOL    HW238409   2.592   3.582   1.078 -1.8105  0.2983 -0.1227
 8984SOL     OW38410   1.845   3.823   4.426  0.1689 -0.2423  0.2729
 8984SOL    HW138411   1.818   3.790   4.340  1.6461 -1.5524  0.2930
 8984SOL    HW238412   1.815   3.913   4.423  1.9826  0.3570  0.1475
 8985SOL     OW38413   1.455   0.535  13.804 -0.1805 -0.1596  0.5511
 8985SOL    HW138414   1.431   0.496  13.719  0.7802 -1.2135  0.7726
 8985SOL    HW238415   1.422   0.479  13.874 -2.6377 -1.1624 -1.4128
 8986SOL     OW38416   4.606   2.847  15.457 -0.6010  0.1213 -0.0727
 8986SOL    HW138417   4.609   2.908  15.531 -2.2176  0.1069  0.0136
 8986SOL    HW238418   4.530   2.796  15.486  0.5739 -0.5001  1.9660
 8987SOL     OW38419   3.005   2.294   1.911 -0.2854  0.3683  0.1299
 8987SOL    HW138420   3.098   2.312   1.925 -0.0900  0.1803 -0.8943
 8987SOL    HW238421   3.004   2.205   1.875 -2.9071  0.5068 -0.1180
 8988SOL     OW38422   0.311   3.689   4.622 -0.3885 -0.3093  0.0708
 8988SOL    HW138423   0.381   3.719   4.680  0.0774  0.5678 -0.9335
 8988SOL    HW238424   0.229   3.718   4.660  0.8881  2.1740  0.8984
 8989SOL     OW38425   3.677   2.640  15.547  0.8104  0.1690  0.1710
 8989SOL    HW138426   3.666   2.669  15.456  1.4860  0.2660  0.1195
 8989SOL    HW238427   3.689   2.723  15.594 -1.8358 -0.2677  1.6443
 8990SOL     OW38428   4.363   3.728   8.148  0.4071 -0.3899 -0.4414
 8990SOL    HW138429   4.271   3.737   8.125  0.4120  1.9148  0.4332
 8990SOL    HW238430   4.402   3.659   8.094 -1.0890 -1.1626 -0.5250
 8991SOL     OW38431   0.445   3.805   4.826 -1.0366 -0.1156 -0.1208
 8991SOL    HW138432   0.502   3.844   4.894 -1.0298  2.3386 -1.5358
 8991SOL    HW238433   0.376   3.782   4.888 -2.5941  1.6099 -1.2434
 8992SOL     OW38434   2.069   1.035  10.845  0.1482  0.2773 -0.2845
 8992SOL    HW138435   1.989   0.993  10.878  0.1797  0.5109  0.0879
 8992SOL    HW238436   2.108   0.964  10.794 -1.3900 -0.6062 -0.2313
 8993SOL     OW38437   4.153   1.932   0.212 -0.9285  0.1740  0.3046
 8993SOL    HW138438   4.084   1.867   0.203 -0.6551 -0.2389  1.1941
 8993SOL    HW238439   4.213   1.888   0.273 -0.4157  1.5443  0.8008
 8994SOL     OW38440   3.942   0.506   9.658  0.5001  0.0107 -0.3624
 8994SOL    HW138441   3.956   0.449   9.733  0.6711  1.8976  1.0592
 8994SOL    HW238442   3.952   0.593   9.697  1.0513 -1.0864  1.9521
 8995SOL     OW38443   0.508   3.687   8.555  0.2677 -0.7373  0.3391
 8995SOL    HW138444   0.538   3.613   8.607 -0.5960 -1.6593 -0.4590
 8995SOL    HW238445   0.570   3.754   8.584 -0.4751  0.7208 -1.4071
 8996SOL     OW38446   1.911   3.236   0.523  0.6042  0.7810 -0.3766
 8996SOL    HW138447   1.916   3.150   0.566 -1.4031  1.4700  1.1947
 8996SOL    HW238448   1.849   3.221   0.452  1.1664 -1.3634 -0.4366
 8997SOL     OW38449   2.989   3.071   4.025  0.1839 -0.0163 -0.4028
 8997SOL    HW138450   3.057   3.137   4.013  0.5489 -0.5862 -1.4855
 8997SOL    HW238451   2.950   3.106   4.105  2.5933  3.5261 -0.7925
 8998SOL     OW38452   2.225   0.757  13.169  0.4065 -0.6419 -1.1620
 8998SOL    HW138453   2.169   0.680  13.181  2.0995 -1.7396 -0.2330
 8998SOL    HW238454   2.245   0.750  13.076 -0.4810  0.8962 -1.4709
 8999SOL     OW38455   2.292   3.050   9.142 -0.7001 -0.1747  0.1874
 8999SOL    HW138456   2.202   3.080   9.133 -0.7620 -0.6300 -0.7561
 8999SOL    HW238457   2.288   3.057   9.238  2.7739  1.5379  0.1733
 9000SOL     OW38458   3.036   2.775   3.413 -0.0628  0.1560  0.4060
 9000SOL    HW138459   2.982   2.823   3.475  1.4302  1.3944  0.7541
 9000SOL    HW238460   3.068   2.841   3.353 -2.4606  0.8168 -0.1325
 9001SOL     OW38461   2.192   0.360   8.251  0.7115 -0.4129 -0.8119
 9001SOL    HW138462   2.154   0.352   8.164  2.1498 -2.4494 -1.2363
 9001SOL    HW238463   2.131   0.430   8.275  0.4272 -1.2479  0.9263
 9002SOL     OW38464   3.699   2.975   6.231 -0.7651 -0.7537 -0.0780
 9002SOL    HW138465   3.743   2.890   6.226  0.3509 -0.4082  4.1508
 9002SOL    HW238466   3.730   2.999   6.318 -0.1253  0.0962 -0.5350
 9003SOL     OW38467   2.420   4.540   8.610  0.2878  0.2654 -0.0099
 9003SOL    HW138468   2.445   4.459   8.655  1.0871  0.6385  0.2194
 9003SOL    HW238469   2.429   4.599   8.685  3.6374 -0.6153  0.2913
 9004SOL     OW38470   0.004   0.334   5.753 -0.4677 -0.5414 -0.3705
 9004SOL    HW138471   0.033   0.420   5.726 -3.1122  0.3697 -0.3165
 9004SOL    HW238472   0.062   0.276   5.704  0.0076  1.7209 -2.4551
 9005SOL     OW38473   2.601   3.484  16.511  0.2435 -0.7171 -0.1585
 9005SOL    HW138474   2.614   3.483  16.417  0.1546 -1.1236 -0.1676
 9005SOL    HW238475   2.538   3.413  16.519 -1.4695  0.8029 -0.0628
 9006SOL     OW38476   4.606   3.224  14.120 -0.0198 -0.1164 -0.3579
 9006SOL    HW138477   4.552   3.156  14.160 -0.9407  2.3264  2.5772
 9006SOL    HW238478   4.556   3.236  14.040 -1.1563 -0.6736  0.2648
 9007SOL     OW38479   4.338   0.473   9.622 -0.2824  0.3085 -0.1165
 9007SOL    HW138480   4.427   0.509   9.614  0.6781 -2.0302 -0.0060
 9007SOL    HW238481   4.299   0.505   9.540 -0.3713 -0.6684 -0.4512
 9008SOL     OW38482   2.898   3.254  15.896 -0.1162  0.0102 -0.2883
 9008SOL    HW138483   2.955   3.327  15.920 -1.6485  0.7795  1.0233
 9008SOL    HW238484   2.967   3.189  15.887 -0.5521 -0.3793 -0.8910
 9009SOL     OW38485   3.786   1.965   0.157 -0.7929 -0.1438  0.1194
 9009SOL    HW138486   3.783   1.908   0.234 -2.4263  1.1209  0.9780
 9009SOL    HW238487   3.791   1.893   0.094  2.7711 -0.5852  0.8973
 9010SOL     OW38488   4.288   3.208   9.700 -0.0702 -0.5440  0.0560
 9010SOL    HW138489   4.348   3.226   9.773 -2.6540  3.4999  1.1702
 9010SOL    HW238490   4.215   3.267   9.720 -1.5313 -3.1206  2.3716
 9011SOL     OW38491   1.854   4.531  10.801  0.5060 -0.4288  0.1232
 9011SOL    HW138492   1.776   4.481  10.825  0.3899  1.0699  2.8286
 9011SOL    HW238493   1.815   4.617  10.815  0.4314 -0.6286  1.1905
 9012SOL     OW38494   1.290   0.137   6.368 -0.5772  0.2086  0.3557
 9012SOL    HW138495   1.284   0.144   6.464  0.9669 -0.6623  0.5079
 9012SOL    HW238496   1.198   0.117   6.353 -0.3043 -1.7010  1.2223
 9013SOL     OW38497   2.096   1.454   8.843 -0.4330 -0.0254  0.1495
 9013SOL    HW138498   2.173   1.511   8.844  0.9072 -1.8203 -0.8740
 9013SOL    HW238499   2.060   1.480   8.928  2.7491  0.9913  1.1531
 9014SOL     OW38500   1.133   2.590   3.252 -0.0213  0.2999 -0.2173
 9014SOL    HW138501   1.192   2.518   3.271 -1.8188 -0.4308  2.7479
 9014SOL    HW238502   1.074   2.575   3.327  1.6693  0.8181  1.2157
 9015SOL     OW38503   1.771   0.904  15.902 -0.3444  0.4130  0.5678
 9015SOL    HW138504   1.856   0.859  15.902 -0.8593 -0.5396  0.9948
 9015SOL    HW238505   1.728   0.840  15.844  0.7283 -1.1537  1.5075
 9016SOL     OW38506   2.179   4.155   2.878 -0.0334  0.1741  0.3359
 9016SOL    HW138507   2.133   4.075   2.903  1.9302 -1.1126 -0.1975
 9016SOL    HW238508   2.109   4.220   2.892  0.2031  0.7297 -1.0383
 9017SOL     OW38509   3.879   2.960   4.413 -0.1810  0.2192  0.5215
 9017SOL    HW138510   3.803   2.931   4.362 -0.1576  2.6355 -0.9073
 9017SOL    HW238511   3.947   2.974   4.347  0.4919  0.4384  1.2635
 9018SOL     OW38512   2.913   4.385   4.761  0.2090  0.3060 -0.2689
 9018SOL    HW138513   2.939   4.476   4.747 -0.6639  0.6997  0.6503
 9018SOL    HW238514   2.831   4.375   4.713  0.7051  1.4525 -1.3567
 9019SOL     OW38515   2.966   2.750   6.968  0.1638  0.1417  0.4868
 9019SOL    HW138516   3.007   2.828   6.929  2.5386  0.0164  2.6811
 9019SOL    HW238517   2.897   2.732   6.905 -0.1297  0.6951  0.6538
 9020SOL     OW38518   0.663   1.658   2.881  0.4187  0.1584 -0.3185
 9020SOL    HW138519   0.633   1.574   2.918 -0.4107 -0.1043 -1.5979
 9020SOL    HW238520   0.640   1.717   2.953 -0.0964  1.7184 -1.7740
 9021SOL     OW38521   4.543   0.996   5.862 -0.8829  0.1090 -0.2438
 9021SOL    HW138522   4.523   1.073   5.915  0.5713  0.5875 -0.3803
 9021SOL    HW238523   4.633   0.988   5.894 -0.9412 -2.4934 -0.6605
 9022SOL     OW38524   2.876   2.630   6.259 -0.6716 -0.4451 -0.5047
 9022SOL    HW138525   2.888   2.719   6.226 -2.1963  0.3485  1.0426
 9022SOL    HW238526   2.926   2.639   6.340 -1.2053 -3.0266  0.0951
 9023SOL     OW38527   0.603   0.368  12.273  1.0188  0.0144  0.1602
 9023SOL    HW138528   0.557   0.315  12.338  0.6455  0.8749  0.5957
 9023SOL    HW238529   0.573   0.333  12.189  2.7160  0.5778 -0.6811
 9024SOL     OW38530   4.599   1.426   4.499 -0.2333 -0.2368 -0.4415
 9024SOL    HW138531   4.654   1.501   4.477 -0.3959 -0.0542 -0.2288
 9024SOL    HW238532   4.560   1.458   4.581  1.0506  1.8211 -0.6234
 9025SOL     OW38533   4.255   1.014   7.772  0.1794 -0.0439 -0.1814
 9025SOL    HW138534   4.206   1.084   7.816  0.1635 -0.0408 -0.2039
 9025SOL    HW238535   4.339   1.052   7.747 -0.7015  0.7031 -1.9761
 9026SOL     OW38536   4.048   2.499   6.310 -0.2858  0.2634 -0.3929
 9026SOL    HW138537   4.054   2.483   6.405 -2.7689  0.0587 -0.2707
 9026SOL    HW238538   4.056   2.594   6.300 -0.7632  0.4184  0.7251
 9027SOL     OW38539   1.074   4.482   7.051 -0.2906 -0.5664  0.2990
 9027SOL    HW138540   1.095   4.458   7.141 -0.7016  0.8768  0.7780
 9027SOL    HW238541   1.092   4.576   7.051  0.4181 -0.7033  0.5583
 9028SOL     OW38542   3.717   3.773  15.115  0.1038  0.5640  0.2988
 9028SOL    HW138543   3.659   3.848  15.130  0.6652  1.1778 -0.5608
 9028SOL    HW238544   3.674   3.709  15.171 -2.4809  0.3690 -1.9652
 9029SOL     OW38545   3.015   0.556  13.082 -0.3800 -0.1303 -0.0802
 9029SOL    HW138546   3.032   0.500  13.006 -0.8014 -2.2335  1.3571
 9029SOL    HW238547   3.043   0.644  13.058 -2.5191  0.8522  1.0777
 9030SOL     OW38548   3.689   3.856   3.251  0.3690  0.3055 -0.2269
 9030SOL    HW138549   3.757   3.802   3.292 -2.0677 -2.1883  0.5509
 9030SOL    HW238550   3.655   3.906   3.326  0.0058 -1.9390  1.1141
 9031SOL     OW38551   1.680   1.703  15.870  0.5297  0.4514 -0.5856
 9031SOL    HW138552   1.700   1.785  15.915 -1.7309  0.5297  0.2644
 9031SOL    HW238553   1.746   1.692  15.801  3.0374  0.9515  1.7123
 9032SOL     OW38554   1.916   3.407  13.887  0.0484  0.4777  0.3164
 9032SOL    HW138555   1.900   3.355  13.966 -2.2911  0.6856 -0.0059
 9032SOL    HW238556   2.012   3.407  13.887  0.0667 -0.7471  3.8800
 9033SOL     OW38557   0.928   2.476   7.308 -0.4165  0.4285  0.0214
 9033SOL    HW138558   0.887   2.535   7.371 -1.5762  0.8201 -1.0935
 9033SOL    HW238559   0.930   2.545   7.241 -0.1001  0.5327  0.1360
 9034SOL     OW38560   4.006   4.723   7.983  0.0191  0.3972 -0.3355
 9034SOL    HW138561   3.967   4.715   7.896  1.0676  0.3643 -0.8008
 9034SOL    HW238562   4.032   4.633   8.002  0.5021  0.4650 -0.6646
 9035SOL     OW38563   3.731   0.454  11.128 -0.0817 -0.3841  0.6706
 9035SOL    HW138564   3.812   0.486  11.090 -0.9755  0.5188 -0.4954
 9035SOL    HW238565   3.679   0.451  11.047  1.8313  1.4835 -0.6159
 9036SOL     OW38566   3.975   1.623   4.444 -0.4511 -0.3366 -0.4518
 9036SOL    HW138567   3.972   1.718   4.460  1.0646 -0.2480 -0.6684
 9036SOL    HW238568   3.912   1.613   4.374 -0.7614  1.9334 -0.4939
 9037SOL     OW38569   3.834   4.088   5.796 -0.1495  0.0433  0.1810
 9037SOL    HW138570   3.784   4.044   5.727 -0.1097 -1.2298  0.9674
 9037SOL    HW238571   3.836   4.022   5.865 -1.0004 -0.0627  0.1044
 9038SOL     OW38572   3.020   2.580   3.229  0.4284  0.2497 -0.3460
 9038SOL    HW138573   3.084   2.512   3.252 -1.3402 -1.4997 -0.5494
 9038SOL    HW238574   3.011   2.619   3.316 -1.5793  1.7685 -1.2129
 9039SOL     OW38575   2.970   2.942   0.854  0.3719 -0.2456  0.3611
 9039SOL    HW138576   2.959   2.901   0.768 -1.0733 -0.8519  0.8399
 9039SOL    HW238577   2.960   2.872   0.918  1.5444 -0.4946  0.2705
 9040SOL     OW38578   2.551   2.778   2.964 -0.9778  0.5043  0.5238
 9040SOL    HW138579   2.461   2.762   2.936 -1.1183 -0.7705  1.6565
 9040SOL    HW238580   2.555   2.753   3.057 -2.5993 -1.2436  0.1296
 9041SOL     OW38581   4.453   1.207  11.607 -0.1660  0.1495  0.0865
 9041SOL    HW138582   4.443   1.148  11.682  0.9317 -0.6617 -0.4154
 9041SOL    HW238583   4.522   1.160  11.561  0.7259  0.2710  1.3127
 9042SOL     OW38584   2.647   4.169   2.091  0.8721 -0.1842 -0.1376
 9042SOL    HW138585   2.612   4.095   2.041  1.2479 -0.9801  0.7684
 9042SOL    HW238586   2.705   4.221   2.037  1.3788  0.5363  1.0941
 9043SOL     OW38587   0.266   0.096  11.562  0.0013  0.3041  0.0544
 9043SOL    HW138588   0.308   0.025  11.612 -2.4122 -0.7900  0.5482
 9043SOL    HW238589   0.212   0.046  11.501 -0.8866  0.5887  0.5996
 9044SOL     OW38590   4.666   3.941  12.024  0.4220 -0.2538 -0.0114
 9044SOL    HW138591   4.717   3.964  12.102  2.5473 -0.8997 -1.2034
 9044SOL    HW238592   0.014   3.895  11.979  0.5063  1.0608 -1.2173
 9045SOL     OW38593   4.718   3.583   2.248 -0.2798 -0.5891 -0.6857
 9045SOL    HW138594   4.653   3.527   2.292  0.8160 -0.8091  0.6701
 9045SOL    HW238595   4.660   3.648   2.210 -1.5881 -1.5039 -0.2717
 9046SOL     OW38596   0.006   1.932   7.132 -0.0793  0.0153 -0.1015
 9046SOL    HW138597   4.661   1.983   7.090 -2.2859 -1.2240  1.9662
 9046SOL    HW238598   0.015   1.987   7.210  0.7727  3.8778 -2.9356
 9047SOL     OW38599   2.539   2.540  14.667 -0.3494  0.4492  0.3956
 9047SOL    HW138600   2.634   2.538  14.672 -0.2855  0.3618 -0.6735
 9047SOL    HW238601   2.513   2.587  14.746  2.3219  0.2832  1.3556
 9048SOL     OW38602   4.527   2.647   8.253 -0.3237 -0.1006 -0.2196
 9048SOL    HW138603   4.471   2.685   8.321  0.1029 -0.2882  0.2355
 9048SOL    HW238604   4.538   2.558   8.286  2.5003  0.3874  0.1788
 9049SOL     OW38605   3.058   2.276  16.891 -0.0789  0.1574 -0.2509
 9049SOL    HW138606   2.994   2.333  16.849  1.2586 -1.5338 -4.5214
 9049SOL    HW238607   3.117   2.336  16.938  2.1881 -1.3811 -1.1670
 9050SOL     OW38608   1.565   2.709   7.623 -0.1254 -0.6679  0.1913
 9050SOL    HW138609   1.573   2.796   7.585 -0.6785 -0.4304  0.6200
 9050SOL    HW238610   1.494   2.689   7.561  0.8494  1.5016 -1.6280
 9051SOL     OW38611   1.408   2.481   1.655 -0.2873 -0.0134 -0.0468
 9051SOL    HW138612   1.438   2.449   1.570  0.3211 -1.8650  0.8832
 9051SOL    HW238613   1.387   2.404   1.707 -0.0043  0.9164  1.4342
 9052SOL     OW38614   3.435   3.088   3.480  0.3642  0.3520 -0.2713
 9052SOL    HW138615   3.508   3.029   3.498 -1.0157 -1.3746 -0.2853
 9052SOL    HW238616   3.449   3.173   3.521  1.3825 -0.6871  1.5091
 9053SOL     OW38617   0.052   3.987   2.861  0.3222 -0.4488 -0.0701
 9053SOL    HW138618   0.029   3.906   2.815  0.8920  0.4068 -1.8831
 9053SOL    HW238619   4.722   3.974   2.939 -0.2172 -0.7828 -0.4877
 9054SOL     OW38620   0.179   0.752   6.825 -0.0575 -0.0388  0.4161
 9054SOL    HW138621   0.094   0.779   6.860  0.6390  0.7974  1.4703
 9054SOL    HW238622   0.159   0.739   6.733  1.3195  1.1261 -0.0397
 9055SOL     OW38623   4.574   3.646   0.730  0.0590  0.3183 -0.6380
 9055SOL    HW138624   4.539   3.591   0.799  1.0283 -0.3403 -0.6770
 9055SOL    HW238625   4.499   3.641   0.672  0.5082  1.8038 -1.3560
 9056SOL     OW38626   1.110   3.525   8.601  0.1784 -0.0851 -0.0963
 9056SOL    HW138627   1.017   3.543   8.612  0.9335  3.0896  0.9751
 9056SOL    HW238628   1.147   3.554   8.684  1.9331  0.3707 -1.0389
 9057SOL     OW38629   3.145   2.789  15.379  0.5329 -0.4687  0.1651
 9057SOL    HW138630   3.217   2.827  15.329  0.1512 -2.1998 -1.7305
 9057SOL    HW238631   3.082   2.860  15.381 -0.9101 -1.8101  2.5426
 9058SOL     OW38632   0.107   2.933  15.062 -0.1977  0.4000 -0.6248
 9058SOL    HW138633   0.021   2.898  15.087 -0.7387  0.8093 -1.9041
 9058SOL    HW238634   0.137   2.848  15.028 -0.1685  0.3271 -0.4190
 9059SOL     OW38635   3.785   0.371   8.901 -0.2192 -0.0428 -0.0896
 9059SOL    HW138636   3.698   0.400   8.927 -0.6389 -1.8395  0.4935
 9059SOL    HW238637   3.784   0.299   8.964  0.5547  0.5745  0.6214
 9060SOL     OW38638   3.156   1.340   8.778 -0.2008 -0.0679 -0.2775
 9060SOL    HW138639   3.175   1.316   8.869 -0.7021  1.2567  0.1862
 9060SOL    HW238640   3.232   1.394   8.756  0.7866 -0.7590  1.4403
 9061SOL     OW38641   2.478   0.122   8.152 -0.6724  0.2310  0.0935
 9061SOL    HW138642   2.411   0.128   8.220  0.6287  0.3117  1.3643
 9061SOL    HW238643   2.502   0.212   8.128  1.2938 -0.6139 -1.1705
 9062SOL     OW38644   0.111   0.875   4.882 -0.5231 -0.4706 -0.0572
 9062SOL    HW138645   0.042   0.810   4.870 -0.3933 -0.2916 -1.6788
 9062SOL    HW238646   0.044   0.942   4.867 -0.2886  0.3631  2.5703
 9063SOL     OW38647   3.989   1.931   8.867  0.1407 -0.3821 -0.0712
 9063SOL    HW138648   4.069   1.981   8.851 -1.7933  2.5711 -0.6251
 9063SOL    HW238649   4.008   1.864   8.800  2.5271  0.3115 -0.0780
 9064SOL     OW38650   4.227   0.692   2.389  0.2002 -0.0825  0.2764
 9064SOL    HW138651   4.288   0.623   2.414 -0.4387 -0.5532  0.5416
 9064SOL    HW238652   4.196   0.731   2.471  1.7912  0.2024  0.7434
 9065SOL     OW38653   3.803   4.249  11.395 -0.3951 -0.0870 -0.2825
 9065SOL    HW138654   3.839   4.286  11.314 -1.3225 -0.4817 -0.8772
 9065SOL    HW238655   3.836   4.160  11.395 -0.6812 -0.1948  1.0788
 9066SOL     OW38656   0.617   2.021   8.916 -0.1322  0.0109  0.1738
 9066SOL    HW138657   0.699   2.063   8.944  0.0480  0.1807 -0.6016
 9066SOL    HW238658   0.653   1.933   8.901 -0.6963 -0.0720 -0.7245
 9067SOL     OW38659   3.463   1.354   5.850 -0.1137  0.3939 -0.0089
 9067SOL    HW138660   3.462   1.259   5.858  3.3369  0.4655  1.1919
 9067SOL    HW238661   3.419   1.377   5.932  1.8364  0.1902  1.0894
 9068SOL     OW38662   4.016   1.281  10.252  0.2518 -0.1783 -0.5844
 9068SOL    HW138663   4.065   1.224  10.312 -1.6857  1.7426  2.7970
 9068SOL    HW238664   3.951   1.325  10.306  1.7644  0.8428  0.4332
 9069SOL     OW38665   3.445   3.411   2.074  0.4178  0.2425  0.2166
 9069SOL    HW138666   3.375   3.426   2.138  0.4474 -0.5262  0.4236
 9069SOL    HW238667   3.401   3.403   1.990  0.2999 -0.4165  0.3458
 9070SOL     OW38668   4.197   3.014  11.268 -0.0100 -0.0063  0.3344
 9070SOL    HW138669   4.165   3.078  11.332 -0.2548  0.3471 -0.1441
 9070SOL    HW238670   4.286   3.001  11.302  0.4844 -2.7118 -2.0095
 9071SOL     OW38671   0.383   0.618   0.702  0.4847  0.0072 -0.5858
 9071SOL    HW138672   0.376   0.631   0.607 -1.1429 -2.0748 -0.7555
 9071SOL    HW238673   0.380   0.708   0.734  2.5515 -0.0012 -0.4270
 9072SOL     OW38674   2.203   0.173   2.928 -0.3342  0.0919 -0.4830
 9072SOL    HW138675   2.211   0.263   2.959 -1.5040  0.5227 -1.4075
 9072SOL    HW238676   2.126   0.180   2.870 -0.5023 -1.6659 -0.4571
 9073SOL     OW38677   0.276   4.420   7.722  0.4997 -0.4859 -0.4303
 9073SOL    HW138678   0.270   4.465   7.807 -3.4986 -0.1831 -0.8748
 9073SOL    HW238679   0.191   4.436   7.680  0.0085 -0.1480  0.6983
 9074SOL     OW38680   1.407   3.137   4.027 -0.3528 -0.4436  0.1358
 9074SOL    HW138681   1.447   3.070   4.083  2.2824  1.8424  1.0018
 9074SOL    HW238682   1.484   3.158   3.974 -0.1258 -0.4169  0.4799
 9075SOL     OW38683   0.393   4.612  14.982  0.0263  0.6661 -0.0850
 9075SOL    HW138684   0.406   4.600  15.076  0.5553  1.8607 -0.0142
 9075SOL    HW238685   0.341   4.692  14.983 -1.7249 -0.4760  0.7048
 9076SOL     OW38686   3.084   2.511   1.157 -0.3348 -0.1652 -0.1288
 9076SOL    HW138687   3.049   2.492   1.244 -1.2616  0.6807 -0.3175
 9076SOL    HW238688   3.164   2.459   1.169 -0.6770 -0.5222  0.5877
 9077SOL     OW38689   1.900   1.534  11.970  0.1522  0.1026  0.0931
 9077SOL    HW138690   1.855   1.500  11.893 -1.2251  1.0105  0.5053
 9077SOL    HW238691   1.959   1.596  11.927  0.3556  0.1093  0.3788
 9078SOL     OW38692   0.172   2.800   5.605  0.2903  0.0581 -0.0332
 9078SOL    HW138693   0.185   2.849   5.524  5.8292  0.9861  1.4682
 9078SOL    HW238694   0.133   2.719   5.572 -0.0444 -0.4277  1.5152
 9079SOL     OW38695   3.542   3.054   5.674 -0.3159 -0.2176 -0.9808
 9079SOL    HW138696   3.485   3.063   5.750  0.6037  1.8510 -0.5351
 9079SOL    HW238697   3.600   2.979   5.691  2.0209  1.3784 -1.9123
 9080SOL     OW38698   1.667   1.972   7.623  0.3753  0.4417 -0.1421
 9080SOL    HW138699   1.574   1.996   7.629 -0.4681 -1.7508 -4.4095
 9080SOL    HW238700   1.653   1.883   7.591 -1.5105  0.3678  0.8828
 9081SOL     OW38701   3.724   3.923  16.949 -1.0032 -0.3626  0.0414
 9081SOL    HW138702   3.761   3.964  16.871 -1.0304 -1.0616 -0.3375
 9081SOL    HW238703   3.800   3.903  17.004 -3.7404 -1.3740  3.4190
 9082SOL     OW38704   0.011   3.349  17.505 -0.3093  0.7184 -0.1595
 9082SOL    HW138705   0.090   3.403  17.502  1.0271 -1.2938 -1.1458
 9082SOL    HW238706   4.673   3.407  17.551 -3.3608 -2.6316  0.0359
 9083SOL     OW38707   3.610   1.094   0.992  0.2511 -0.4412 -0.0219
 9083SOL    HW138708   3.643   1.137   0.914  0.5962 -0.5657  0.0534
 9083SOL    HW238709   3.516   1.099   0.976  0.2088  0.7087  0.5752
 9084SOL     OW38710   3.578   4.209  17.357  0.6628 -0.3695  0.1952
 9084SOL    HW138711   3.644   4.193  17.290 -0.2134 -1.3293 -0.4348
 9084SOL    HW238712   3.499   4.214  17.303  1.1057  0.8201 -0.3306
 9085SOL     OW38713   3.141   0.737   6.231 -0.1163  0.4212 -0.3286
 9085SOL    HW138714   3.201   0.736   6.157  0.8527  2.1177  0.4106
 9085SOL    HW238715   3.186   0.795   6.292  0.2649 -0.6969  0.4484
 9086SOL     OW38716   0.114   4.371  12.298 -0.1600 -0.1101  0.3273
 9086SOL    HW138717   0.160   4.292  12.325  0.9971  0.4621  0.0246
 9086SOL    HW238718   0.069   4.322  12.229 -1.8783 -1.1913  2.2068
 9087SOL     OW38719   1.864   0.810  17.294 -0.0421  0.6600 -0.0858
 9087SOL    HW138720   1.772   0.802  17.271 -0.4719 -0.7847  2.1739
 9087SOL    HW238721   1.896   0.723  17.318 -0.2194  0.9351  1.1672
 9088SOL     OW38722   0.560   4.704   7.813 -0.2916 -0.1653 -0.5146
 9088SOL    HW138723   0.652   4.678   7.804 -0.4271 -0.9097  0.2025
 9088SOL    HW238724   0.510   4.642   7.760  0.2810 -0.5978 -0.5540
 9089SOL     OW38725   0.844   1.918  15.485 -0.5100  0.2326  0.3563
 9089SOL    HW138726   0.890   1.942  15.566  0.6126 -1.1734  0.1402
 9089SOL    HW238727   0.805   2.003  15.464 -2.2334 -0.6497  0.0128
 9090SOL     OW38728   2.911   4.130   5.124  0.3578  0.4460 -0.3425
 9090SOL    HW138729   2.974   4.199   5.141  1.3105 -1.0407  2.1932
 9090SOL    HW238730   2.865   4.115   5.206  0.8058 -1.9716 -0.5234
 9091SOL     OW38731   2.662   2.681   9.076 -0.4813  0.1816  0.1534
 9091SOL    HW138732   2.672   2.723   9.162 -1.4493 -0.4736  0.5768
 9091SOL    HW238733   2.608   2.607   9.102  0.8516 -0.7721  0.1995
 9092SOL     OW38734   0.447   3.182  17.529  0.0874 -0.1271 -0.0617
 9092SOL    HW138735   0.513   3.239  17.488 -0.3596  0.2233 -0.2976
 9092SOL    HW238736   0.390   3.244  17.574 -1.9064 -0.3842 -2.2163
 9093SOL     OW38737   3.372   2.255   6.648 -0.6899  0.2454  0.1685
 9093SOL    HW138738   3.442   2.191   6.651 -0.1802  0.7404 -1.2168
 9093SOL    HW238739   3.352   2.250   6.554 -0.6053  1.2550  0.0993
 9094SOL     OW38740   2.906   1.154   6.125 -0.5106  0.2576  0.3920
 9094SOL    HW138741   2.866   1.163   6.211 -1.4662  0.8508 -0.1135
 9094SOL    HW238742   2.995   1.125   6.145 -0.4468 -0.5462 -1.0057
 9095SOL     OW38743   0.428   2.866  16.280 -0.2376 -0.0259 -0.1335
 9095SOL    HW138744   0.370   2.941  16.268 -1.9118 -0.9559  2.1416
 9095SOL    HW238745   0.419   2.857  16.375 -2.5376 -1.4889 -0.4887
 9096SOL     OW38746   2.863   1.345   9.183 -0.1489  0.2408  0.1089
 9096SOL    HW138747   2.920   1.312   9.253  0.4299 -0.6616 -0.7861
 9096SOL    HW238748   2.856   1.438   9.202 -1.5326  0.2368 -0.4163
 9097SOL     OW38749   1.093   4.321   9.984  0.4938  0.5624  0.2665
 9097SOL    HW138750   1.115   4.311  10.077  0.4769 -0.6084  0.1473
 9097SOL    HW238751   1.126   4.238   9.951 -2.1417 -0.8832  1.2297
 9098SOL     OW38752   3.659   1.151   1.250  0.5250 -0.0912  0.5126
 9098SOL    HW138753   3.686   1.060   1.257 -1.2985 -0.6784  0.0082
 9098SOL    HW238754   3.627   1.147   1.160 -0.4440 -2.1622  0.9620
 9099SOL     OW38755   2.542   2.535   5.070 -0.7137  0.3514  0.2202
 9099SOL    HW138756   2.587   2.452   5.084  1.6568  1.8948  1.7028
 9099SOL    HW238757   2.486   2.508   4.997  0.0340  2.2485 -1.0526
 9100SOL     OW38758   1.524   3.778   6.552  0.0632  0.4001 -0.3325
 9100SOL    HW138759   1.616   3.752   6.560  0.1351  0.1643 -1.9714
 9100SOL    HW238760   1.509   3.758   6.459 -0.3636 -1.8478  0.2259
 9101SOL     OW38761   4.489   1.210   6.022 -0.2636 -0.1959 -0.5515
 9101SOL    HW138762   4.410   1.175   6.064  1.6841 -0.2446  3.1290
 9101SOL    HW238763   4.536   1.225   6.104  2.2828 -1.5230 -1.7541
 9102SOL     OW38764   0.593   2.485   2.179  0.1645  0.5403  0.1715
 9102SOL    HW138765   0.684   2.457   2.194  0.1536  0.5714  0.3019
 9102SOL    HW238766   0.615   2.578   2.183  0.1391  0.4594  2.4700
 9103SOL     OW38767   2.707   2.787  16.353 -0.3315 -0.1226  0.4441
 9103SOL    HW138768   2.694   2.694  16.372 -0.6146 -0.6997 -2.5086
 9103SOL    HW238769   2.616   2.815  16.349 -0.8856 -1.8516  0.8083
 9104SOL     OW38770   3.085   3.006   5.995  0.5649 -0.4578 -0.0627
 9104SOL    HW138771   3.150   3.005   5.925 -1.5002 -0.1404 -1.9842
 9104SOL    HW238772   3.003   2.980   5.953  0.7728 -1.3664  0.0896
 9105SOL     OW38773   3.055   1.871   5.038 -0.4431  0.3228  0.0158
 9105SOL    HW138774   3.115   1.804   5.070  0.5100  1.5639  0.8059
 9105SOL    HW238775   3.103   1.949   5.064  2.1774 -1.0965 -0.5015
 9106SOL     OW38776   1.465   0.073   9.301 -0.1000 -0.0108 -0.3486
 9106SOL    HW138777   1.437   0.155   9.340  0.8926 -0.5304  1.4231
 9106SOL    HW238778   1.559   0.070   9.319  0.2866 -1.0095 -2.4438
 9107SOL     OW38779   1.710   1.757   7.053 -0.0582  0.2892  0.2318
 9107SOL    HW138780   1.761   1.838   7.047  0.8645 -0.4428 -1.9271
 9107SOL    HW238781   1.632   1.794   7.094  0.0949 -1.0538  1.7186
 9108SOL     OW38782   4.315   0.652   5.990 -0.1837 -0.0094  0.8133
 9108SOL    HW138783   4.408   0.651   5.968 -0.4467 -2.8053 -0.1667
 9108SOL    HW238784   4.313   0.647   6.085 -1.7744  2.3817  0.9151
 9109SOL     OW38785   2.857   0.299   8.824 -0.2863 -0.0361 -0.5730
 9109SOL    HW138786   2.799   0.341   8.887 -0.5887  0.7700 -1.3978
 9109SOL    HW238787   2.892   0.367   8.768  2.2613 -0.8969 -0.0501
 9110SOL     OW38788   0.190   4.355  12.631 -0.0593  0.2155  0.7430
 9110SOL    HW138789   0.097   4.351  12.605  0.2451 -0.0234 -0.3069
 9110SOL    HW238790   0.186   4.412  12.708 -1.6040 -0.2433  1.0165
 9111SOL     OW38791   2.545   2.263   4.310  0.0666 -0.3700  0.4306
 9111SOL    HW138792   2.499   2.252   4.393 -0.6401  0.2247  0.1198
 9111SOL    HW238793   2.613   2.196   4.317  0.0024 -0.9335 -4.4513
 9112SOL     OW38794   3.933   2.303   5.487  0.3005 -0.6227  0.0612
 9112SOL    HW138795   3.870   2.298   5.415  1.4323  0.8659 -1.0257
 9112SOL    HW238796   3.873   2.348   5.546  1.0027 -0.3278  0.5468
 9113SOL     OW38797   0.956   1.844   6.963  0.1619 -0.7299 -0.0606
 9113SOL    HW138798   0.979   1.927   6.920  0.9844 -1.3574 -0.8207
 9113SOL    HW238799   1.008   1.790   6.904 -0.2186  0.5415 -1.5586
 9114SOL     OW38800   4.030   4.417   9.205  0.3328 -1.1347 -0.1935
 9114SOL    HW138801   4.045   4.487   9.141  1.8031 -1.3686 -0.0915
 9114SOL    HW238802   4.107   4.363   9.188  1.6578  0.7978 -0.2756
 9115SOL     OW38803   4.418   4.241   4.668 -0.5668  0.9077  0.0279
 9115SOL    HW138804   4.360   4.194   4.728 -0.2436 -0.9516 -1.1357
 9115SOL    HW238805   4.494   4.246   4.727 -0.2590 -0.3678 -0.2698
 9116SOL     OW38806   1.145   2.881   5.780 -0.7489 -0.2730 -0.6074
 9116SOL    HW138807   1.223   2.930   5.806  0.0169 -2.1759  0.7231
 9116SOL    HW238808   1.091   2.944   5.733 -1.4611 -0.5803 -0.1945
 9117SOL     OW38809   4.332   4.248   6.957 -0.3404 -0.0714  0.0162
 9117SOL    HW138810   4.404   4.277   6.901 -0.5401  1.4319  0.5508
 9117SOL    HW238811   4.334   4.331   7.004  0.7715 -1.0956  1.7653
 9118SOL     OW38812   0.367   4.633   5.592 -0.3160  0.0366  0.2473
 9118SOL    HW138813   0.320   4.564   5.638  0.5458  0.5897  1.9660
 9118SOL    HW238814   0.435   4.583   5.546  0.6778  1.5099  0.0918
 9119SOL     OW38815   0.633   2.993   2.315 -0.0041 -0.7936 -0.3268
 9119SOL    HW138816   0.710   2.971   2.368 -0.9138 -1.4790  0.6953
 9119SOL    HW238817   0.581   3.051   2.369 -0.1057 -0.9943 -0.2108
 9120SOL     OW38818   4.324   3.954   6.719  0.2926 -0.6709 -0.0914
 9120SOL    HW138819   4.384   3.972   6.791 -0.6999 -0.3172  0.6397
 9120SOL    HW238820   4.277   4.037   6.713  1.6427  0.1529  0.6484
 9121SOL     OW38821   0.612   1.429   8.633 -0.0363 -0.1254 -0.1589
 9121SOL    HW138822   0.575   1.511   8.601  1.8777  0.5708 -0.6338
 9121SOL    HW238823   0.706   1.447   8.644  0.7122 -1.9477 -3.5410
 9122SOL     OW38824   3.477   1.256   9.103  0.1634  0.4735  0.5412
 9122SOL    HW138825   3.490   1.323   9.036 -1.6116  2.3297  2.0536
 9122SOL    HW238826   3.465   1.175   9.053 -1.1365  0.2782  1.1554
 9123SOL     OW38827   4.007   1.342   5.727 -0.5722 -0.2780  0.1656
 9123SOL    HW138828   4.059   1.362   5.649 -3.5606  1.2139 -1.4703
 9123SOL    HW238829   4.082   1.326   5.784 -0.1126 -3.6243 -1.3965
 9124SOL     OW38830   0.683   2.857  15.757 -0.6416  0.4047  0.1531
 9124SOL    HW138831   0.656   2.848  15.666 -0.3355 -1.3929  0.2287
 9124SOL    HW238832   0.625   2.926  15.789 -1.0223 -0.0003  0.3430
 9125SOL     OW38833   4.140   1.268   2.959  0.0742 -0.1615 -0.1785
 9125SOL    HW138834   4.139   1.174   2.975  1.1857 -0.1040  0.2591
 9125SOL    HW238835   4.222   1.274   2.909  0.3606  1.5992  0.4805
 9126SOL     OW38836   0.474   2.697   3.169  0.3169 -0.5987  0.0773
 9126SOL    HW138837   0.455   2.767   3.108 -0.4461 -0.1324  0.8589
 9126SOL    HW238838   0.502   2.630   3.106 -0.6806  0.1025 -1.0990
 9127SOL     OW38839   2.081   3.600   1.283 -0.5547 -0.0077  0.0541
 9127SOL    HW138840   2.155   3.659   1.267  0.5794 -0.7320  2.5976
 9127SOL    HW238841   2.041   3.656   1.351  2.2884  0.8019  1.0456
 9128SOL     OW38842   1.474   0.592  11.061 -0.2112 -0.1823 -0.3583
 9128SOL    HW138843   1.427   0.668  11.027 -1.7100 -0.8908  0.1452
 9128SOL    HW238844   1.432   0.586  11.146  0.8051 -0.7268  0.1078
 9129SOL     OW38845   3.189   1.546   8.225 -0.1126 -0.0392 -0.3385
 9129SOL    HW138846   3.208   1.459   8.189  0.6675  0.1768 -0.4347
 9129SOL    HW238847   3.094   1.549   8.210 -0.5009 -2.4867  1.5396
 9130SOL     OW38848   1.536   0.780   0.341 -0.6013  0.0855  0.0478
 9130SOL    HW138849   1.607   0.797   0.403 -0.0494  0.9667 -0.8299
 9130SOL    HW238850   1.458   0.805   0.389  0.1146  0.2654  1.1160
 9131SOL     OW38851   0.464   0.215   6.077  0.2799 -0.7971 -0.7401
 9131SOL    HW138852   0.417   0.204   5.994  0.7334  0.4933 -1.1660
 9131SOL    HW238853   0.406   0.172   6.140  2.0582 -0.7178  0.9119
 9132SOL     OW38854   0.678   4.042   7.930  0.0696  0.3921  0.7133
 9132SOL    HW138855   0.759   4.077   7.965  0.3765  0.7629 -0.3569
 9132SOL    HW238856   0.723   3.972   7.883 -2.5061 -0.9824  0.2737
 9133SOL     OW38857   1.913   3.636  17.440  0.1514 -0.7206  0.2941
 9133SOL    HW138858   1.925   3.661  17.348  0.4400 -0.7429  0.3253
 9133SOL    HW238859   1.987   3.679  17.484  1.2293 -1.1558 -1.0506
 9134SOL     OW38860   1.729   3.969   5.556 -0.0382  0.6943  0.5965
 9134SOL    HW138861   1.753   3.926   5.639  1.2758 -0.4921 -0.3874
 9134SOL    HW238862   1.793   3.923   5.501 -0.2897  1.7855 -0.5875
 9135SOL     OW38863   2.655   1.146   3.325 -0.1593  0.2163 -0.1430
 9135SOL    HW138864   2.700   1.227   3.350  0.3012  0.1020 -0.6094
 9135SOL    HW238865   2.702   1.105   3.253 -0.4766  0.4528 -0.4876
 9136SOL     OW38866   4.518   3.954   7.425  0.3685  0.6186 -0.5607
 9136SOL    HW138867   4.430   3.976   7.396  0.3735  1.7555  0.2688
 9136SOL    HW238868   4.564   4.035   7.403 -0.5951  1.0782 -0.8583
 9137SOL     OW38869   3.393   4.134   3.314  0.5597 -0.8700  0.0380
 9137SOL    HW138870   3.459   4.142   3.383  1.6658 -1.5212 -0.9394
 9137SOL    HW238871   3.325   4.193   3.347  0.1425 -0.8232 -0.9008
 9138SOL     OW38872   3.030   4.631   2.704 -0.1514 -0.4279  0.4754
 9138SOL    HW138873   2.957   4.571   2.719  0.0369 -0.2258  2.1836
 9138SOL    HW238874   2.997   4.680   2.629  1.7251  0.5368  0.2691
 9139SOL     OW38875   3.786   1.800   3.850  0.0785  0.7382 -0.6052
 9139SOL    HW138876   3.736   1.742   3.908 -1.2919  3.3668  0.8152
 9139SOL    HW238877   3.717   1.850   3.806  1.2055  1.2865 -1.7281
 9140SOL     OW38878   3.620   2.086   5.689 -0.0863 -0.2754  0.0287
 9140SOL    HW138879   3.686   2.034   5.736 -0.2055 -1.2058 -0.8365
 9140SOL    HW238880   3.602   2.161   5.746 -3.5822 -0.7879 -0.4122
 9141SOL     OW38881   2.234   3.392   6.703  0.5536  0.3405 -0.2329
 9141SOL    HW138882   2.167   3.441   6.750  0.6396 -1.3224  1.6147
 9141SOL    HW238883   2.223   3.310   6.751 -0.7000  0.6583  0.0146
 9142SOL     OW38884   1.534   4.448   7.153 -0.5265  0.0677  0.2893
 9142SOL    HW138885   1.605   4.398   7.195  0.2800  0.7756 -0.2363
 9142SOL    HW238886   1.456   4.401   7.185 -0.6801  1.2705  1.7020
 9143SOL     OW38887   2.759   0.596  10.398 -0.1612 -0.0049  0.1116
 9143SOL    HW138888   2.834   0.640  10.360 -1.0009  0.8660 -0.5502
 9143SOL    HW238889   2.774   0.603  10.493  0.1359  1.8598 -0.0749
 9144SOL     OW38890   3.404   1.117   8.293 -0.5436 -0.0590 -0.1862
 9144SOL    HW138891   3.378   1.041   8.240  2.6228  0.0608 -1.9346
 9144SOL    HW238892   3.498   1.104   8.306 -0.7662  0.1904  1.7505
 9145SOL     OW38893   1.499   1.661   1.434  0.0836 -0.5479  0.5394
 9145SOL    HW138894   1.534   1.687   1.348 -0.4404  0.4454  0.6254
 9145SOL    HW238895   1.514   1.567   1.441  0.3033 -0.5063  0.6269
 9146SOL     OW38896   4.661   0.090   3.394  0.3963  0.9065  0.3173
 9146SOL    HW138897   4.661   0.166   3.337  0.0724  0.3273 -0.4625
 9146SOL    HW238898   4.597   0.035   3.348  0.8691  0.9263 -0.3656
 9147SOL     OW38899   1.543   4.083   2.855 -0.3389 -0.2100  0.3316
 9147SOL    HW138900   1.636   4.101   2.841 -0.2420 -0.7497  0.3007
 9147SOL    HW238901   1.557   4.039   2.939 -0.4350 -2.5025 -0.8622
 9148SOL     OW38902   2.337   3.739  11.630 -0.0758 -0.7897 -0.0536
 9148SOL    HW138903   2.267   3.792  11.668  0.6042 -0.5683  0.8730
 9148SOL    HW238904   2.357   3.794  11.554  0.5000  1.2123  1.5498
 9149SOL     OW38905   1.740   1.544  15.172 -0.2310 -0.0524  0.4853
 9149SOL    HW138906   1.715   1.452  15.160  2.4330 -0.6044 -0.7817
 9149SOL    HW238907   1.833   1.529  15.191 -0.2447 -0.6093  0.1103
 9150SOL     OW38908   3.664   3.779   8.745 -0.1459 -0.2501 -0.8609
 9150SOL    HW138909   3.678   3.688   8.717 -0.5053 -0.7235  0.4784
 9150SOL    HW238910   3.753   3.808   8.766 -0.0960 -1.2686  0.3661
 9151SOL     OW38911   3.256   1.891  15.173  0.0277  0.0479 -0.1387
 9151SOL    HW138912   3.330   1.832  15.187 -0.0154 -0.1690 -0.8518
 9151SOL    HW238913   3.226   1.892  15.264  0.7136 -0.0469  0.0885
 9152SOL     OW38914   2.190   4.277   9.426 -0.2894  0.4519  0.2220
 9152SOL    HW138915   2.233   4.192   9.441 -0.4580  0.5098  1.0540
 9152SOL    HW238916   2.223   4.299   9.339  0.7737 -1.9637  0.0025
 9153SOL     OW38917   3.289   3.506   8.852 -0.0969 -0.2437 -0.3345
 9153SOL    HW138918   3.242   3.492   8.934  2.3003 -2.0142  0.7289
 9153SOL    HW238919   3.310   3.600   8.851  1.4719 -0.5684  0.8990
 9154SOL     OW38920   0.040   4.234  13.284 -0.6901  0.2726  0.7393
 9154SOL    HW138921   4.711   4.296  13.334  1.4401  1.6013  1.3127
 9154SOL    HW238922   0.085   4.179  13.348 -1.0011  0.2324  0.9207
 9155SOL     OW38923   1.735   1.948   2.739  0.1000 -0.7191  0.4037
 9155SOL    HW138924   1.704   1.944   2.649  0.2817 -1.1788  0.3613
 9155SOL    HW238925   1.799   1.877   2.744  0.2658 -0.8221 -3.3810
 9156SOL     OW38926   2.510   3.737  16.606  0.3604 -0.2149 -0.3696
 9156SOL    HW138927   2.416   3.738  16.586  0.4347  0.2163 -0.7155
 9156SOL    HW238928   2.545   3.654  16.574  0.3993  0.6900 -2.6829
 9157SOL     OW38929   3.032   2.821   3.868  0.4652  0.2398  0.3345
 9157SOL    HW138930   3.013   2.868   3.949 -1.4559 -1.2780  0.7504
 9157SOL    HW238931   3.105   2.879   3.845  1.0023 -0.9719 -1.0118
 9158SOL     OW38932   3.269   3.218  14.530  0.0411  0.3860  0.3033
 9158SOL    HW138933   3.303   3.289  14.474 -0.6423 -0.1631 -0.7926
 9158SOL    HW238934   3.336   3.225  14.598  1.7411 -0.7965 -1.2498
 9159SOL     OW38935   4.049   0.254   4.802  0.2039 -0.7201  0.2009
 9159SOL    HW138936   3.978   0.257   4.866  0.5035  0.8992  0.4591
 9159SOL    HW238937   4.000   0.254   4.720 -0.0377 -1.7788  0.3578
 9160SOL     OW38938   3.784   4.429  13.030  0.2818  0.2600 -0.6941
 9160SOL    HW138939   3.695   4.422  13.065  0.2249  1.6542 -0.5739
 9160SOL    HW238940   3.768   4.452  12.938  1.0162  0.5014 -0.7655
 9161SOL     OW38941   3.558   1.060   8.028 -0.0536 -0.0261 -0.6402
 9161SOL    HW138942   3.603   1.011   8.097 -1.8807  0.9110  1.2285
 9161SOL    HW238943   3.619   1.131   8.007  1.5240 -0.4429  2.5225
 9162SOL     OW38944   0.361   1.550   4.154  0.1638  0.6278  0.5520
 9162SOL    HW138945   0.378   1.587   4.067 -1.2468  0.0604  0.0382
 9162SOL    HW238946   0.369   1.457   4.135  0.5252  0.4942  1.3580
 9163SOL     OW38947   3.064   3.680   0.232  0.6019 -0.1121 -0.2366
 9163SOL    HW138948   3.059   3.616   0.303  0.6750 -0.6290 -0.7025
 9163SOL    HW238949   3.037   3.767   0.263 -0.4716 -1.0059  1.3884
 9164SOL     OW38950   2.007   0.318   3.214 -0.1539  0.2620  0.5528
 9164SOL    HW138951   1.941   0.283   3.154  0.1675 -0.7836  0.8164
 9164SOL    HW238952   2.031   0.387   3.153  0.6823 -1.2043 -0.7587
 9165SOL     OW38953   3.241   4.560   3.728 -0.2102 -0.1378  0.3540
 9165SOL    HW138954   3.278   4.473   3.743  3.0367  0.9496 -1.5721
 9165SOL    HW238955   3.220   4.570   3.821 -0.0551  0.1241  0.3604
 9166SOL     OW38956   0.865   2.011   5.523  0.6713 -0.0801  0.2942
 9166SOL    HW138957   0.811   2.041   5.450 -0.7233 -2.9152  0.1333
 9166SOL    HW238958   0.947   1.993   5.477  1.7771 -0.2753  2.3167
 9167SOL     OW38959   1.159   3.872   4.271 -0.3383  0.0042  0.0193
 9167SOL    HW138960   1.187   3.869   4.179 -1.2573  0.9990 -0.2927
 9167SOL    HW238961   1.108   3.791   4.277  1.0982 -0.6382  3.1683
 9168SOL     OW38962   2.038   3.130   4.044  0.3065  0.5027  0.6424
 9168SOL    HW138963   2.045   3.202   4.106  0.4924  1.1624 -0.1380
 9168SOL    HW238964   1.982   3.180   3.984 -0.1215  1.8650  2.1751
 9169SOL     OW38965   4.576   3.717   3.829 -0.1917 -0.0640 -0.1291
 9169SOL    HW138966   4.541   3.767   3.903 -1.1473 -1.0142  0.0588
 9169SOL    HW238967   4.648   3.776   3.806  0.0110 -0.0563  0.5323
 9170SOL     OW38968   3.565   1.642   8.381 -0.1559  0.0506 -0.2248
 9170SOL    HW138969   3.516   1.724   8.381 -0.6701 -0.2432 -3.6624
 9170SOL    HW238970   3.589   1.654   8.473 -2.6763 -1.5656  0.6481
 9171SOL     OW38971   2.803   0.414   2.566  0.2977  0.1330 -0.1512
 9171SOL    HW138972   2.738   0.465   2.518  0.2466  0.9048  0.7258
 9171SOL    HW238973   2.863   0.374   2.503  0.7190  1.8035 -0.8325
 9172SOL     OW38974   4.174   0.259   9.367 -0.1970 -0.2657  0.1486
 9172SOL    HW138975   4.098   0.317   9.359 -0.6022 -0.6585  1.0556
 9172SOL    HW238976   4.166   0.223   9.456  0.8000 -0.1666  0.2744
 9173SOL     OW38977   2.134   1.806  17.362  0.3597  0.1054  0.1053
 9173SOL    HW138978   2.211   1.794  17.308  0.0200 -0.8420 -0.1739
 9173SOL    HW238979   2.093   1.720  17.358  1.8035 -0.5619 -0.1991
 9174SOL     OW38980   2.144   3.798   3.383 -0.2657  0.0878 -0.2143
 9174SOL    HW138981   2.116   3.885   3.354  0.1266  0.0038 -0.8506
 9174SOL    HW238982   2.118   3.806   3.474 -1.2930 -0.4671 -0.4659
 9175SOL     OW38983   2.767   0.824   9.039 -0.4659  0.7122  0.2423
 9175SOL    HW138984   2.673   0.842   9.031 -0.2598  1.4107 -0.6035
 9175SOL    HW238985   2.761   0.731   9.015  0.6716  0.7911 -0.3324
 9176SOL     OW38986   0.390   3.356   8.640 -0.2592  1.0526 -0.2827
 9176SOL    HW138987   0.336   3.346   8.561 -2.2998 -2.5994  1.5827
 9176SOL    HW238988   0.326   3.335   8.708 -1.5771  1.1592 -1.4729
 9177SOL     OW38989   0.143   3.634  11.079  0.3379 -0.3248 -0.1260
 9177SOL    HW138990   0.184   3.548  11.081 -0.4554 -0.7078 -0.1668
 9177SOL    HW238991   0.217   3.691  11.101 -1.0452  2.3822 -2.5638
 9178SOL     OW38992   3.181   1.761   9.047 -0.6978  0.5655  0.5365
 9178SOL    HW138993   3.205   1.673   9.076  0.5288 -0.5159 -3.8148
 9178SOL    HW238994   3.110   1.781   9.108 -0.1537 -0.4795  1.5210
 9179SOL     OW38995   1.942   3.624  12.667 -0.0731 -0.2570 -0.1053
 9179SOL    HW138996   2.006   3.554  12.673 -1.2618 -1.5425 -2.4763
 9179SOL    HW238997   1.870   3.591  12.721  0.2632 -0.2694  0.3333
 9180SOL     OW38998   0.001   2.811   4.702  0.5565 -0.1804 -0.3235
 9180SOL    HW138999   4.709   2.875   4.632 -1.8406  0.7295  1.0546
 9180SOL    HW239000   4.662   2.843   4.767  0.2811 -0.2626 -0.5467
 9181SOL     OW39001   2.378   4.462   3.171  0.1464 -0.1884 -0.1384
 9181SOL    HW139002   2.461   4.426   3.202  1.4679  1.9364 -1.2294
 9181SOL    HW239003   2.316   4.389   3.174  0.0969 -0.1207  0.6353
 9182SOL     OW39004   2.516   4.385   2.758 -0.0046  0.4280  0.2802
 9182SOL    HW139005   2.509   4.318   2.826  0.2347 -2.4234 -2.4741
 9182SOL    HW239006   2.536   4.331   2.681 -0.0554  1.9802 -0.8084
 9183SOL     OW39007   3.746   1.930  10.920  0.3702  0.3223 -0.0939
 9183SOL    HW139008   3.760   1.836  10.908  0.8288  0.1084  2.0031
 9183SOL    HW239009   3.658   1.934  10.957 -0.3978  1.5896 -2.0966
 9184SOL     OW39010   3.565   4.023  13.663  0.3845  0.2701  0.0966
 9184SOL    HW139011   3.563   4.000  13.756 -1.6864 -1.1402 -0.2768
 9184SOL    HW239012   3.629   3.964  13.624  1.3813  1.6314 -0.2698
 9185SOL     OW39013   4.521   3.380   5.511 -0.4086  0.2161 -1.1494
 9185SOL    HW139014   4.464   3.428   5.451  0.3825  0.6601 -1.5568
 9185SOL    HW239015   4.474   3.304   5.544  2.7442 -0.7800  1.0810
 9186SOL     OW39016   0.507   1.758   5.879 -0.4634  0.3218  0.1536
 9186SOL    HW139017   0.415   1.753   5.854  0.0323 -1.3429 -1.3594
 9186SOL    HW239018   0.554   1.741   5.797 -2.2323 -1.6315 -0.4495
 9187SOL     OW39019   3.164   3.866  12.348  0.0589 -0.4090 -0.1773
 9187SOL    HW139020   3.223   3.927  12.392  0.1248 -0.4311 -0.2342
 9187SOL    HW239021   3.230   3.824  12.292 -0.6887 -4.4653  1.9688
 9188SOL     OW39022   2.673   0.949   3.708  0.6878  0.2861 -0.0453
 9188SOL    HW139023   2.768   0.949   3.721  0.8634  2.0577 -1.3984
 9188SOL    HW239024   2.678   0.862   3.668  0.3489  0.4503 -0.4354
 9189SOL     OW39025   0.526   0.184   5.006  0.0590 -0.0963 -0.7266
 9189SOL    HW139026   0.501   0.262   5.056 -0.0462  0.0701 -1.0416
 9189SOL    HW239027   0.582   0.140   5.070  0.2386 -0.4084 -1.0983
 9190SOL     OW39028   1.222   3.109   5.295  0.9944 -0.0117  0.0213
 9190SOL    HW139029   1.244   3.055   5.218  2.9019 -0.5384  0.9332
 9190SOL    HW239030   1.173   3.040   5.339  0.3207  0.0295 -0.6630
 9191SOL     OW39031   1.002   1.572  16.376 -0.1551 -0.4712  0.3712
 9191SOL    HW139032   0.982   1.567  16.282 -2.3749 -0.6156  0.8681
 9191SOL    HW239033   1.098   1.576  16.377 -0.2924  2.9453 -0.8683
 9192SOL     OW39034   3.178   4.580  11.112  0.4466 -0.2165 -0.3215
 9192SOL    HW139035   3.262   4.618  11.138 -0.4598  0.5231  1.5043
 9192SOL    HW239036   3.119   4.655  11.119 -0.5475 -1.0742  0.2516
 9193SOL     OW39037   0.306   0.393   7.082  0.5758 -0.3323  0.0927
 9193SOL    HW139038   0.399   0.371   7.084  0.2602 -1.8914 -1.7468
 9193SOL    HW239039   0.276   0.319   7.029 -0.6434 -1.6670  2.6756
 9194SOL     OW39040   2.031   4.522   7.817 -0.6370 -0.2821  0.4309
 9194SOL    HW139041   2.027   4.551   7.908 -1.8146 -0.1943  0.3494
 9194SOL    HW239042   2.064   4.604   7.782  1.4288 -2.1902 -2.0910
 9195SOL     OW39043   1.014   1.842   7.253 -0.7869  0.0654 -0.2158
 9195SOL    HW139044   0.992   1.886   7.171  0.8301  3.8016  1.3599
 9195SOL    HW239045   0.931   1.796   7.268 -1.4072  0.6639 -1.7462
 9196SOL     OW39046   1.748   3.556   3.302  0.0604 -0.1454  0.0115
 9196SOL    HW139047   1.778   3.625   3.362 -0.2326 -0.4746  0.5418
 9196SOL    HW239048   1.715   3.602   3.225 -1.5352 -0.7568  0.3408
 9197SOL     OW39049   0.281   2.178   9.980 -0.5820 -0.6861 -0.1286
 9197SOL    HW139050   0.207   2.135   9.938  0.0721 -0.1944 -1.7954
 9197SOL    HW239051   0.348   2.147   9.918 -1.2901 -0.5163 -0.9801
 9198SOL     OW39052   0.991   2.507   8.414  0.3275 -0.0888  0.7193
 9198SOL    HW139053   0.954   2.439   8.357 -1.1968 -0.0612  1.6676
 9198SOL    HW239054   0.982   2.585   8.360 -0.8756 -1.0047 -0.4075
 9199SOL     OW39055   4.512   3.434   7.236  0.2351  0.0247 -0.6700
 9199SOL    HW139056   4.533   3.381   7.313 -2.9968  2.2772  1.7875
 9199SOL    HW239057   4.416   3.427   7.237  0.3060 -1.0937 -1.6095
 9200SOL     OW39058   1.613   4.040   3.839  0.2737 -0.2651  0.4586
 9200SOL    HW139059   1.616   4.056   3.933 -0.3965  1.0487  0.2552
 9200SOL    HW239060   1.550   4.107   3.811  1.7367  1.2613  0.8365
 9201SOL     OW39061   1.163   0.562  16.190  0.2023 -0.0745  0.6326
 9201SOL    HW139062   1.230   0.573  16.257 -0.1750  3.0618  0.5052
 9201SOL    HW239063   1.153   0.649  16.152  1.4016 -0.8363 -1.3999
 9202SOL     OW39064   3.467   1.075   5.871 -0.2378  0.2771  0.1061
 9202SOL    HW139065   3.426   1.013   5.933 -1.4790  2.0187  1.0209
 9202SOL    HW239066   3.504   1.032   5.794 -0.1205 -1.3032  1.0344
 9203SOL     OW39067   2.514   3.611   4.129  0.3151  0.2599  0.5127
 9203SOL    HW139068   2.486   3.521   4.148  0.3577 -0.0239 -0.7589
 9203SOL    HW239069   2.429   3.656   4.137 -0.6095 -1.3790 -0.0033
 9204SOL     OW39070   1.702   2.810   9.273 -0.3262 -0.0963  0.2066
 9204SOL    HW139071   1.666   2.810   9.184  0.9216  1.4323 -0.3080
 9204SOL    HW239072   1.634   2.789   9.337  0.9152 -1.3939  1.0966
 9205SOL     OW39073   2.207   0.402   5.817 -0.2711 -0.7128  0.2024
 9205SOL    HW139074   2.264   0.414   5.894 -1.7643  0.6637  1.0802
 9205SOL    HW239075   2.121   0.428   5.851 -0.2563  0.4489 -0.6620
 9206SOL     OW39076   2.616   4.697  14.683  0.3744 -0.3823  0.0475
 9206SOL    HW139077   2.549   0.006  14.622  0.6401 -0.6769 -0.4028
 9206SOL    HW239078   2.563   4.662  14.754  0.9266 -4.4158 -1.5306
 9207SOL     OW39079   4.000   3.796  10.005 -0.0756  0.2606 -0.1070
 9207SOL    HW139080   3.920   3.842   9.981  0.1291  0.4539 -0.4108
 9207SOL    HW239081   4.020   3.836  10.090  2.5386 -1.1331 -0.0604
 9208SOL     OW39082   2.508   0.933   6.937 -0.3630  0.1582 -0.7146
 9208SOL    HW139083   2.437   0.870   6.945  0.9633 -0.9785  2.0928
 9208SOL    HW239084   2.447   1.006   6.925  1.7846  2.3044  1.3023
 9209SOL     OW39085   3.105   4.399   7.007 -0.4007 -0.0962 -0.0376
 9209SOL    HW139086   3.132   4.373   6.919 -0.1616 -0.8163  0.2494
 9209SOL    HW239087   3.021   4.354   7.015 -0.2750 -0.0448  1.4723
 9210SOL     OW39088   2.871   3.223   2.839  0.0358  0.3156  0.1482
 9210SOL    HW139089   2.857   3.147   2.894 -0.2970 -0.5229 -1.0934
 9210SOL    HW239090   2.929   3.176   2.779 -0.8739 -0.2230 -0.3049
 9211SOL     OW39091   3.823   2.491   5.663 -0.3058 -0.1321 -0.0825
 9211SOL    HW139092   3.787   2.580   5.654  0.5570  0.4374  2.1145
 9211SOL    HW239093   3.879   2.505   5.739  1.6768 -0.3392 -1.5071
 9212SOL     OW39094   0.637   4.471   7.250 -0.4120 -0.1453  0.2388
 9212SOL    HW139095   0.597   4.387   7.276 -0.4455 -0.6602 -1.4517
 9212SOL    HW239096   0.715   4.436   7.207  0.2686  0.2369  1.1787
 9213SOL     OW39097   1.542   1.041   1.360 -0.0643  0.0583  0.1735
 9213SOL    HW139098   1.538   1.137   1.357 -2.4679 -0.0553  0.1606
 9213SOL    HW239099   1.468   1.026   1.419  0.1424 -3.0538 -0.3630
 9214SOL     OW39100   3.819   1.892   5.297  0.4685  0.0640 -0.3278
 9214SOL    HW139101   3.896   1.948   5.306  1.6575 -1.4109 -1.4085
 9214SOL    HW239102   3.756   1.947   5.344 -0.5873 -0.6563 -0.8928
 9215SOL     OW39103   3.573   4.481   8.253 -0.2003 -0.3872 -1.6011
 9215SOL    HW139104   3.521   4.561   8.268  0.5206  0.1493 -1.9709
 9215SOL    HW239105   3.545   4.418   8.319  1.4534  1.5664  0.9057
 9216SOL     OW39106   0.014   0.563   3.374  0.1829 -0.6023  0.0573
 9216SOL    HW139107   4.714   0.552   3.466 -2.7412 -1.9542 -0.8645
 9216SOL    HW239108   0.072   0.488   3.357 -1.0615 -2.0123  2.0856
 9217SOL     OW39109   4.171   3.693   7.376  0.3889 -0.2264  0.5737
 9217SOL    HW139110   4.211   3.617   7.333 -2.0345 -1.9224  1.3101
 9217SOL    HW239111   4.083   3.686   7.338  0.2918  2.8338  0.2666
 9218SOL     OW39112   3.933   1.855   7.323 -0.1834 -0.1084  0.6711
 9218SOL    HW139113   3.959   1.767   7.351  1.1594  0.6089  1.6474
 9218SOL    HW239114   3.980   1.851   7.239  0.8845 -0.1466  1.2778
 9219SOL     OW39115   3.665   1.405   3.776  0.1774  0.2596 -0.1954
 9219SOL    HW139116   3.759   1.395   3.787  0.1951  2.1480  1.3491
 9219SOL    HW239117   3.655   1.388   3.682 -0.3276  0.2393 -0.1389
 9220SOL     OW39118   2.712   1.005  15.332  0.2476 -0.7432 -0.0722
 9220SOL    HW139119   2.727   0.915  15.360  2.0487  0.4686  2.8695
 9220SOL    HW239120   2.678   1.001  15.242  0.6976  0.9992 -0.3338
 9221SOL     OW39121   0.799   1.041   7.017 -0.3395 -0.0488 -0.4041
 9221SOL    HW139122   0.743   1.118   7.031  0.6224  0.6713 -0.5627
 9221SOL    HW239123   0.880   1.080   7.049  0.3990 -0.9577 -1.2171
 9222SOL     OW39124   1.485   3.449   8.518  0.1231  0.0452 -0.4292
 9222SOL    HW139125   1.499   3.491   8.603 -1.2950 -3.4627  1.5194
 9222SOL    HW239126   1.574   3.457   8.484 -0.5840  0.6435 -2.1464
 9223SOL     OW39127   0.669   0.650   4.063 -0.1176 -0.5184 -0.6537
 9223SOL    HW139128   0.623   0.603   3.994 -1.2558  1.1593 -1.0320
 9223SOL    HW239129   0.603   0.718   4.079  2.5874  1.7355  0.8686
 9224SOL     OW39130   3.777   0.101   8.105  0.0862  0.5647  0.6141
 9224SOL    HW139131   3.838   0.164   8.066 -0.3921 -0.6493 -2.1412
 9224SOL    HW239132   3.778   0.021   8.052  0.3229  0.0556  1.3846
 9225SOL     OW39133   3.651   2.635   7.356 -0.2844 -0.3185  0.0098
 9225SOL    HW139134   3.620   2.546   7.337 -1.7675  0.3757 -0.8044
 9225SOL    HW239135   3.661   2.637   7.451  0.0497  0.9445 -0.0604
 9226SOL     OW39136   3.396   0.993   4.203 -0.3992  0.5353 -0.3368
 9226SOL    HW139137   3.485   1.013   4.175 -0.4321  1.1840  0.0235
 9226SOL    HW239138   3.410   0.919   4.263 -1.8519  1.8498  1.6214
 9227SOL     OW39139   2.842   1.322   2.999 -0.4906  0.0827 -0.3137
 9227SOL    HW139140   2.892   1.386   3.049 -0.1682  1.1765 -2.0491
 9227SOL    HW239141   2.858   1.349   2.908  0.3566  0.3993 -0.0672
 9228SOL     OW39142   2.740   4.355  11.352  0.0730  0.5297 -0.0065
 9228SOL    HW139143   2.751   4.352  11.447 -0.9520 -0.5995  0.0690
 9228SOL    HW239144   2.651   4.389  11.348  0.2030  0.8013 -0.6673
 9229SOL     OW39145   1.542   2.882   3.537 -0.1649  0.4273  0.2875
 9229SOL    HW139146   1.598   2.812   3.503 -0.5783  1.0586 -1.7238
 9229SOL    HW239147   1.602   2.957   3.539 -0.0526  0.3934 -1.2128
 9230SOL     OW39148   0.041   1.467  12.783  0.2405 -0.7611  0.2427
 9230SOL    HW139149   0.073   1.419  12.859 -0.7244  0.2847  1.3137
 9230SOL    HW239150   4.709   1.398  12.746  1.0684 -0.9614 -0.6128
 9231SOL     OW39151   2.004   0.380   8.988 -0.0928  0.2131  0.1251
 9231SOL    HW139152   1.943   0.314   9.021  0.0353 -0.5060 -1.0685
 9231SOL    HW239153   2.019   0.351   8.898 -1.8056 -1.0589  0.2498
 9232SOL     OW39154   2.869   4.698   7.694  0.1956 -0.5641 -0.0559
 9232SOL    HW139155   2.878   0.065   7.723 -2.0818 -0.1723 -0.6241
 9232SOL    HW239156   2.810   4.705   7.619  1.6027 -0.0978 -1.1159
 9233SOL     OW39157   4.093   0.637   3.493  0.1369 -0.2493 -0.4653
 9233SOL    HW139158   4.022   0.670   3.438 -0.6797  0.4753  1.0051
 9233SOL    HW239159   4.074   0.696   3.566 -1.7153 -1.8689  0.3461
 9234SOL     OW39160   1.543   1.278   4.172  0.0444 -0.4471 -0.0869
 9234SOL    HW139161   1.578   1.310   4.089 -0.4856 -0.4918 -0.3283
 9234SOL    HW239162   1.622   1.230   4.196  0.4562  0.2867  0.0423
 9235SOL     OW39163   0.434   1.711   0.262 -0.1742 -0.1177 -0.4254
 9235SOL    HW139164   0.449   1.652   0.188 -0.3924 -0.6077 -0.0800
 9235SOL    HW239165   0.460   1.791   0.216  2.7152 -0.5155  0.5285
 9236SOL     OW39166   4.471   0.547   3.216  0.3673 -0.2813  0.7852
 9236SOL    HW139167   4.417   0.478   3.255  2.3272 -1.1687  1.9515
 9236SOL    HW239168   4.521   0.582   3.289 -0.7108 -1.4674  2.0987
 9237SOL     OW39169   2.397   1.032   3.417 -0.1416 -0.7503 -0.1741
 9237SOL    HW139170   2.403   0.938   3.399  3.4198 -0.8653  1.6131
 9237SOL    HW239171   2.482   1.066   3.390 -0.6050  0.1676 -0.4637
 9238SOL     OW39172   3.292   1.343   2.239  0.0840 -0.1616  0.1122
 9238SOL    HW139173   3.328   1.347   2.150  1.4627  1.1594  0.7340
 9238SOL    HW239174   3.222   1.279   2.230  0.5606 -0.9799  2.2268
 9239SOL     OW39175   1.711   0.572  13.280 -0.7025 -0.7444 -0.4226
 9239SOL    HW139176   1.798   0.590  13.313 -0.8816 -2.4792  0.9857
 9239SOL    HW239177   1.720   0.480  13.257 -0.7954 -0.8688  0.0539
 9240SOL     OW39178   3.279   0.126  15.050  0.0714 -0.4723  0.0414
 9240SOL    HW139179   3.273   0.073  15.130  0.7135 -1.0788 -0.3160
 9240SOL    HW239180   3.209   0.183  15.082  0.6574  0.4739 -0.3998
 9241SOL     OW39181   0.480   1.558   3.506  0.1066  0.0014 -0.1735
 9241SOL    HW139182   0.508   1.472   3.536  0.6395 -0.0494 -0.8029
 9241SOL    HW239183   0.425   1.533   3.431  0.3970 -1.1867  0.0097
 9242SOL     OW39184   0.979   4.466   2.206 -0.2667  0.3875  0.2251
 9242SOL    HW139185   0.949   4.376   2.224 -0.1507  0.2722 -0.1562
 9242SOL    HW239186   1.056   4.450   2.151  0.1951  0.4454  0.8481
 9243SOL     OW39187   1.695   4.465   6.937  0.2576 -0.0484  0.0359
 9243SOL    HW139188   1.754   4.395   6.965  0.4829  0.0053 -0.3058
 9243SOL    HW239189   1.643   4.474   7.016 -0.0766  0.8718 -0.2923
 9244SOL     OW39190   2.448   2.460   5.616  0.1293 -0.3056  0.0826
 9244SOL    HW139191   2.483   2.400   5.550  4.3094  1.1733  0.9454
 9244SOL    HW239192   2.400   2.404   5.677 -0.1138  0.2345  0.3830
 9245SOL     OW39193   2.066   0.401  15.431 -0.1126  0.4079 -0.6553
 9245SOL    HW139194   2.077   0.315  15.473 -1.2365  1.1102  1.1018
 9245SOL    HW239195   2.048   0.379  15.339 -2.0148  0.8958 -0.3974
 9246SOL     OW39196   1.842   4.040   8.654  0.3217 -0.5468  0.1968
 9246SOL    HW139197   1.896   3.977   8.702 -0.0052 -0.8983  0.0958
 9246SOL    HW239198   1.846   4.111   8.719 -1.7727  0.9499 -1.3272
 9247SOL     OW39199   3.743   4.051   7.043  0.5423 -0.2869 -0.1553
 9247SOL    HW139200   3.696   3.978   7.003 -0.1539  0.4257 -0.6434
 9247SOL    HW239201   3.687   4.071   7.117 -1.1239 -0.7250 -1.2958
 9248SOL     OW39202   3.373   3.298  12.976  0.2387  0.1194 -0.5959
 9248SOL    HW139203   3.283   3.274  12.999  0.6781  0.3151  1.3131
 9248SOL    HW239204   3.394   3.235  12.907  0.5706 -0.0986 -0.2931
 9249SOL     OW39205   1.906   4.412   8.313  0.4335 -0.2532 -0.1305
 9249SOL    HW139206   1.875   4.495   8.349 -0.2463 -0.6720  0.2646
 9249SOL    HW239207   1.839   4.392   8.247 -0.1042  1.1542 -0.0110
 9250SOL     OW39208   2.194   2.670   7.876 -0.2826 -0.4251  0.2934
 9250SOL    HW139209   2.249   2.688   7.953 -1.6034 -1.3129  1.4614
 9250SOL    HW239210   2.233   2.584   7.858  1.7268  0.4100  0.6356
 9251SOL     OW39211   3.156   3.402   5.235  0.1645  0.0787 -0.1315
 9251SOL    HW139212   3.127   3.389   5.325 -1.7779 -1.3453 -0.9671
 9251SOL    HW239213   3.106   3.331   5.196 -0.1426 -1.3820  2.9094
 9252SOL     OW39214   2.547   0.168  15.121  0.3858  0.3078 -0.1127
 9252SOL    HW139215   2.509   0.242  15.168  0.7040 -0.2143  0.9730
 9252SOL    HW239216   2.476   0.120  15.079  0.9059  0.1270 -0.7915
 9253SOL     OW39217   4.198   3.299   8.793  0.0860  0.0344  0.4171
 9253SOL    HW139218   4.173   3.234   8.859 -1.1917 -0.3124 -0.4135
 9253SOL    HW239219   4.294   3.300   8.788 -0.0829 -1.9044 -3.0715
 9254SOL     OW39220   1.026   1.318   8.363 -0.6594 -0.2803 -0.4399
 9254SOL    HW139221   1.105   1.336   8.414 -1.8439 -1.7327  1.9224
 9254SOL    HW239222   0.988   1.247   8.415 -2.2243 -0.3054 -1.6075
 9255SOL     OW39223   2.164   4.248   8.104  0.2404 -0.3493  0.2216
 9255SOL    HW139224   2.128   4.336   8.096 -1.4866 -0.9452  1.3409
 9255SOL    HW239225   2.090   4.190   8.125 -0.4351  0.7133  0.7968
 9256SOL     OW39226   2.518   3.970   9.981 -0.5783  0.4379 -0.5792
 9256SOL    HW139227   2.435   3.970   9.935 -1.7002 -0.3102  1.4559
 9256SOL    HW239228   2.480   3.962  10.069  0.9644 -1.1619 -0.0599
 9257SOL     OW39229   2.400   4.382   5.618 -0.1112  0.1783  0.2693
 9257SOL    HW139230   2.460   4.430   5.675  0.4763  1.6580 -1.5844
 9257SOL    HW239231   2.317   4.413   5.657  0.5421  2.9235 -0.5031
 9258SOL     OW39232   1.931   0.632  13.430  0.6354 -0.1746 -0.0540
 9258SOL    HW139233   1.985   0.635  13.351 -1.8772 -1.4643 -1.8115
 9258SOL    HW239234   1.938   0.721  13.465  0.4897  0.1251 -0.8059
 9259SOL     OW39235   0.137   3.570   8.518  0.1824  0.1963 -0.6528
 9259SOL    HW139236   0.129   3.587   8.612  0.5662 -0.9662 -0.4144
 9259SOL    HW239237   0.070   3.625   8.477 -0.8843  2.2647  3.8888
 9260SOL     OW39238   1.143   0.014  16.938 -0.0694 -0.0938  0.5858
 9260SOL    HW139239   1.186   4.671  16.884 -0.4775  0.2925 -0.2086
 9260SOL    HW239240   1.060   4.692  16.952 -0.6747  0.4922 -1.0726
 9261SOL     OW39241   2.572   1.782   0.615  0.4973  0.3705 -0.0741
 9261SOL    HW139242   2.624   1.781   0.695 -2.5812  2.8227  1.9457
 9261SOL    HW239243   2.484   1.782   0.651 -0.0703 -2.0404 -1.4230
 9262SOL     OW39244   4.087   4.155  11.889  0.5699  0.3471 -0.2927
 9262SOL    HW139245   4.081   4.090  11.959  1.6442  0.0311 -0.5024
 9262SOL    HW239246   4.008   4.135  11.838  0.7274 -1.9468  0.3395
 9263SOL     OW39247   1.701   3.971   6.245 -0.5980 -0.1963  0.4723
 9263SOL    HW139248   1.720   3.879   6.232  0.6544 -0.1280  1.8214
 9263SOL    HW239249   1.714   4.012   6.160  0.2244  2.1840  1.7319
 9264SOL     OW39250   2.465   2.864   1.651  0.9271 -0.4791  0.6781
 9264SOL    HW139251   2.465   2.959   1.654  0.2307 -0.3725 -2.7246
 9264SOL    HW239252   2.444   2.833   1.740 -1.3465  0.9992  0.6528
 9265SOL     OW39253   1.870   3.938   5.159  0.0564 -0.0194  0.0691
 9265SOL    HW139254   1.933   3.882   5.113  0.1503  1.1699 -1.2511
 9265SOL    HW239255   1.911   4.022   5.142 -3.3003  1.7257  0.7482
 9266SOL     OW39256   3.301   0.730   3.524  0.4173  0.1550  0.2532
 9266SOL    HW139257   3.262   0.649   3.490  0.3245  0.5652 -0.6160
 9266SOL    HW239258   3.380   0.722   3.471  0.7035 -0.5969  0.7889
 9267SOL     OW39259   0.031   1.104  16.545  0.4129  0.1039 -0.1352
 9267SOL    HW139260   0.028   1.195  16.574 -2.4811 -0.2557  0.7703
 9267SOL    HW239261   4.661   1.085  16.555  0.4593  0.2134  0.5447
 9268SOL     OW39262   2.923   2.086   7.860  0.4169 -0.9775 -0.2974
 9268SOL    HW139263   2.838   2.121   7.884  0.6214 -1.2427  0.8269
 9268SOL    HW239264   2.927   2.135   7.778  1.7310  0.8463  0.8498
 9269SOL     OW39265   1.159   0.002  12.326 -0.3334 -0.6758  0.2228
 9269SOL    HW139266   1.250   4.697  12.321  0.2193  0.6873  2.1796
 9269SOL    HW239267   1.162   0.032  12.417 -0.3868  0.5917 -0.1802
 9270SOL     OW39268   2.590   3.357  12.433 -0.6924 -0.0182 -0.3385
 9270SOL    HW139269   2.635   3.385  12.354  0.1204 -0.4098 -0.0212
 9270SOL    HW239270   2.602   3.262  12.435  2.3722  0.3962  2.5644
 9271SOL     OW39271   3.201   3.255   4.007 -0.3191  0.8002 -0.1879
 9271SOL    HW139272   3.272   3.264   3.943  0.4510  1.4157  0.7444
 9271SOL    HW239273   3.228   3.324   4.069 -2.0868 -0.2307  1.7297
 9272SOL     OW39274   3.024   0.793  11.600  0.0841  0.6456  0.1550
 9272SOL    HW139275   2.985   0.834  11.522  0.1596 -1.1267 -0.8081
 9272SOL    HW239276   3.082   0.865  11.625  0.2015 -0.0353  1.8454
 9273SOL     OW39277   0.888   0.956   3.265  0.2665 -0.1133  0.0165
 9273SOL    HW139278   0.959   0.895   3.246 -0.9134 -1.3308 -0.4697
 9273SOL    HW239279   0.869   0.948   3.358  2.0054  0.3991  0.4273
 9274SOL     OW39280   0.328   0.551  12.063 -0.0420 -0.3323 -0.0929
 9274SOL    HW139281   0.340   0.502  12.145  1.7927  0.2134 -0.0330
 9274SOL    HW239282   0.233   0.539  12.057 -0.3058  2.2736 -1.0834
 9275SOL     OW39283   2.509   1.849   6.681 -0.1149 -0.6428 -0.0055
 9275SOL    HW139284   2.461   1.903   6.744  0.6688  1.1554 -0.9536
 9275SOL    HW239285   2.595   1.834   6.721  0.1153  0.8880  0.0725
 9276SOL     OW39286   1.778   0.768   7.922 -0.2244 -0.0103 -0.1673
 9276SOL    HW139287   1.873   0.758   7.917 -0.3131 -0.1038 -1.5994
 9276SOL    HW239288   1.763   0.725   8.006  1.5664 -1.1887 -0.4733
 9277SOL     OW39289   2.371   1.810  16.530 -0.3662 -0.3321  0.2576
 9277SOL    HW139290   2.428   1.878  16.495  0.4110 -0.6959  0.8188
 9277SOL    HW239291   2.364   1.854  16.614  0.8573 -0.5281  0.4670
 9278SOL     OW39292   0.891   0.719   3.958 -0.6798  0.2349 -0.1173
 9278SOL    HW139293   0.804   0.706   3.996 -1.5392 -0.0913 -2.1849
 9278SOL    HW239294   0.878   0.682   3.870  1.5966  0.0489 -0.3668
 9279SOL     OW39295   4.692   1.297   7.613 -0.3450 -0.4537 -0.3045
 9279SOL    HW139296   0.000   1.335   7.531  0.9974  0.4955  0.6518
 9279SOL    HW239297   0.043   1.243   7.636  0.4325 -0.4515 -2.7732
 9280SOL     OW39298   4.117   0.812   3.905  0.2434  0.0737 -0.1024
 9280SOL    HW139299   4.196   0.812   3.851 -0.4024  1.9869 -1.0624
 9280SOL    HW239300   4.140   0.851   3.989 -1.7830  0.8902  0.0691
 9281SOL     OW39301   0.351   0.158   6.336  0.4709  0.4488 -0.2269
 9281SOL    HW139302   0.373   0.081   6.389 -2.1567  0.4664  0.8974
 9281SOL    HW239303   0.374   0.228   6.396  2.2722  1.7534 -2.4514
 9282SOL     OW39304   1.847   0.745  14.067 -0.0847 -0.4658  0.1096
 9282SOL    HW139305   1.839   0.654  14.095  0.5367 -0.4638  0.3064
 9282SOL    HW239306   1.835   0.798  14.146 -0.7065  1.2657 -1.1554
 9283SOL     OW39307   1.247   1.540   1.454 -0.1088 -0.1786 -0.2273
 9283SOL    HW139308   1.210   1.595   1.523  0.4241  0.2997 -0.3221
 9283SOL    HW239309   1.335   1.578   1.447 -0.4891  0.8261  0.4196
 9284SOL     OW39310   1.260   1.611  16.363  0.4835 -0.0479  0.1077
 9284SOL    HW139311   1.336   1.572  16.320 -1.2474 -0.3313 -2.7387
 9284SOL    HW239312   1.267   1.703  16.336  4.1036 -0.1703  0.6836
 9285SOL     OW39313   2.984   4.025   9.895 -0.4758  0.0380 -0.1716
 9285SOL    HW139314   2.901   4.054   9.931 -0.7092 -0.4473 -0.3220
 9285SOL    HW239315   3.010   3.960   9.961  1.5779  0.4361 -0.5643
 9286SOL     OW39316   3.155   3.893  15.656 -0.1012  0.0023 -0.1566
 9286SOL    HW139317   3.250   3.878  15.652 -0.2342 -0.4471 -1.8262
 9286SOL    HW239318   3.159   3.979  15.697  0.2475 -0.6919  1.2692
 9287SOL     OW39319   1.927   2.829   9.999 -0.1585 -0.0399 -0.0947
 9287SOL    HW139320   1.834   2.808  10.004  0.0331 -1.1616 -1.4844
 9287SOL    HW239321   1.965   2.754  10.045  0.3566  0.3585  0.1269
 9288SOL     OW39322   4.623   0.586   2.761  0.0714 -0.0669  0.7647
 9288SOL    HW139323   4.549   0.526   2.762 -0.6249  0.7799 -0.3445
 9288SOL    HW239324   4.588   0.661   2.712 -2.2030 -1.2496  0.5911
 9289SOL     OW39325   3.918   2.152  12.720  0.4903 -0.7419  0.1236
 9289SOL    HW139326   4.004   2.120  12.747 -0.4577 -2.6000  0.9009
 9289SOL    HW239327   3.929   2.125  12.629 -0.5730 -1.2057  0.1353
 9290SOL     OW39328   4.286   0.143  15.367  0.2124  0.2180  0.6485
 9290SOL    HW139329   4.292   0.083  15.442  1.3845 -1.0408 -0.4497
 9290SOL    HW239330   4.197   0.176  15.377 -1.2402 -2.7582 -2.3982
 9291SOL     OW39331   3.076   0.548   8.899  0.4876 -0.1453 -0.2503
 9291SOL    HW139332   2.989   0.555   8.860 -0.2204 -1.5235  1.1026
 9291SOL    HW239333   3.124   0.493   8.837 -0.0466 -0.8277 -0.0573
 9292SOL     OW39334   4.433   0.843   1.322  0.6383 -0.2969  0.5922
 9292SOL    HW139335   4.461   0.852   1.413 -1.8126  1.2468  1.1812
 9292SOL    HW239336   4.517   0.817   1.283  0.6423  0.2725  0.2166
 9293SOL     OW39337   2.440   3.560   8.443  0.0153  0.3244 -0.4416
 9293SOL    HW139338   2.398   3.507   8.511  2.0967  1.4416  1.7368
 9293SOL    HW239339   2.517   3.594   8.489 -1.6267 -0.1324  2.6665
 9294SOL     OW39340   0.835   1.187   3.110  0.2440 -0.2340  0.1018
 9294SOL    HW139341   0.756   1.138   3.092 -0.5263  0.5664  1.2929
 9294SOL    HW239342   0.884   1.129   3.169  0.5521  2.4474  2.4942
 9295SOL     OW39343   2.058   2.478  11.733  0.4643 -0.3152 -0.4447
 9295SOL    HW139344   1.984   2.418  11.734 -1.4911  2.1186  0.4028
 9295SOL    HW239345   2.108   2.457  11.812  0.1132 -1.6617 -0.5857
 9296SOL     OW39346   3.743   2.903   7.929  0.4947 -0.4861  0.1564
 9296SOL    HW139347   3.729   2.941   8.016  2.5771 -0.0808  0.3219
 9296SOL    HW239348   3.652   2.900   7.900  1.2250  0.3386 -2.1800
 9297SOL     OW39349   4.232   3.185   7.792 -0.6713  0.3043 -0.3966
 9297SOL    HW139350   4.257   3.276   7.773 -0.7226  0.7909  1.8402
 9297SOL    HW239351   4.287   3.162   7.866 -4.1426 -2.8059  1.2426
 9298SOL     OW39352   3.650   1.737   7.335  0.8461  0.2927 -0.3155
 9298SOL    HW139353   3.613   1.728   7.248  0.3689 -2.0692  0.1300
 9298SOL    HW239354   3.737   1.767   7.308  1.1702 -0.2472  0.1155
 9299SOL     OW39355   3.702   2.226   1.013 -0.1085  0.3808 -0.4375
 9299SOL    HW139356   3.750   2.166   1.070 -0.7562 -0.1244 -0.4198
 9299SOL    HW239357   3.696   2.170   0.935 -1.8281 -2.5178  1.8081
 9300SOL     OW39358   4.100   4.310   0.491  0.1215  0.1793 -0.7510
 9300SOL    HW139359   4.032   4.270   0.437 -0.8902  1.0711 -0.1112
 9300SOL    HW239360   4.153   4.361   0.431  1.9382 -0.6067  0.1517
 9301SOL     OW39361   2.966   3.632   1.979 -0.1899 -0.0722  0.6728
 9301SOL    HW139362   2.934   3.594   1.897  1.1147 -0.0755  0.1593
 9301SOL    HW239363   2.942   3.566   2.044  2.4227 -0.7134  0.9943
 9302SOL     OW39364   2.327   0.443   3.858 -0.3443 -0.1831 -0.1412
 9302SOL    HW139365   2.391   0.378   3.828 -0.5027  0.4504 -1.8481
 9302SOL    HW239366   2.344   0.444   3.952 -1.6255  1.2551  0.0649
 9303SOL     OW39367   1.196   4.356   6.305 -0.1732  0.0262 -0.7055
 9303SOL    HW139368   1.200   4.344   6.400 -1.5796 -1.9834 -0.8805
 9303SOL    HW239369   1.225   4.446   6.295 -1.5056  0.1943 -3.1877
 9304SOL     OW39370   3.769   1.666   4.272 -0.5692 -0.4726 -0.0293
 9304SOL    HW139371   3.744   1.681   4.181 -1.1608  0.9690  0.3827
 9304SOL    HW239372   3.730   1.745   4.310  0.4542  1.2800 -2.6052
 9305SOL     OW39373   3.106   1.488   5.006  0.4916 -0.2556  0.2724
 9305SOL    HW139374   3.149   1.564   4.965 -3.2731  0.6142 -2.0787
 9305SOL    HW239375   3.116   1.512   5.098  0.9371  0.3450  0.0679
 9306SOL     OW39376   3.168   4.621   7.141 -0.3467  0.0615  0.3929
 9306SOL    HW139377   3.138   4.536   7.109 -1.5105 -0.6863  3.3927
 9306SOL    HW239378   3.186   4.670   7.061  1.1642 -0.1502  0.5879
 9307SOL     OW39379   1.828   1.834   1.497 -0.3845 -1.0033  0.0985
 9307SOL    HW139380   1.757   1.832   1.434  0.1182  0.0511 -0.5016
 9307SOL    HW239381   1.786   1.794   1.573  2.0132  0.5214  2.2420
 9308SOL     OW39382   0.192   1.708   0.096  0.1698  0.1265 -0.5472
 9308SOL    HW139383   0.246   1.783   0.073  0.8488 -0.6090 -1.3259
 9308SOL    HW239384   0.153   1.750   0.172 -0.0869 -1.0238 -0.0379
 9309SOL     OW39385   1.413   1.639   2.683 -0.3686  0.6218  0.6086
 9309SOL    HW139386   1.389   1.685   2.763 -2.3646  0.4862  0.0895
 9309SOL    HW239387   1.389   1.711   2.624  0.5202  0.6416  0.2781
 9310SOL     OW39388   1.363   4.664   4.340  0.1465  0.1049 -0.1885
 9310SOL    HW139389   1.453   4.698   4.338  0.4109 -0.5904 -0.4832
 9310SOL    HW239390   1.340   4.666   4.247  0.4788 -2.7130 -0.3301
 9311SOL     OW39391   1.810   0.081   1.124  0.0458  0.2395  0.2957
 9311SOL    HW139392   1.717   0.090   1.145 -0.9446 -3.3983 -2.6158
 9311SOL    HW239393   1.822   0.150   1.059  0.1623  1.7392  1.9034
 9312SOL     OW39394   1.741   0.360   3.663  0.5904 -0.6002  0.0859
 9312SOL    HW139395   1.755   0.449   3.694  0.0895 -0.0501 -1.2661
 9312SOL    HW239396   1.646   0.351   3.666  0.5337 -0.1412 -0.4299
 9313SOL     OW39397   2.836   1.614   9.188  0.3970 -0.0955 -0.2492
 9313SOL    HW139398   2.744   1.637   9.177  0.6251  0.0722 -1.8800
 9313SOL    HW239399   2.871   1.694   9.226 -0.3830 -0.9683  2.2843
 9314SOL     OW39400   3.842   2.583   4.666 -0.2328  0.3426 -0.7169
 9314SOL    HW139401   3.868   2.492   4.670  1.4911  0.9745  2.6357
 9314SOL    HW239402   3.768   2.594   4.606  0.8115 -0.0943 -2.0889
 9315SOL     OW39403   1.644   4.466   9.057 -0.4245 -0.4789 -0.5698
 9315SOL    HW139404   1.556   4.501   9.068 -0.5731 -1.5509  1.6331
 9315SOL    HW239405   1.656   4.470   8.962 -2.3898 -2.5026 -0.8985
 9316SOL     OW39406   2.170   2.895   3.608  0.4719 -0.6616 -0.3978
 9316SOL    HW139407   2.239   2.954   3.577 -1.5081  1.8565  0.0388
 9316SOL    HW239408   2.092   2.941   3.577 -1.6875 -3.8828  0.3386
 9317SOL     OW39409   3.777   0.728  16.820  0.0657 -0.1570  0.2226
 9317SOL    HW139410   3.727   0.801  16.783  2.4311  1.5575  0.3952
 9317SOL    HW239411   3.859   0.750  16.777  0.2018  0.5481  0.8361
 9318SOL     OW39412   0.869   4.523   5.231  0.7938  0.0555 -0.0321
 9318SOL    HW139413   0.869   4.505   5.325  0.7870  3.8342  0.7149
 9318SOL    HW239414   0.943   4.468   5.204 -0.2655 -1.8559  0.9767
 9319SOL     OW39415   4.045   4.189   3.956 -0.0183 -0.6581 -0.5649
 9319SOL    HW139416   4.074   4.107   3.916 -2.3773 -0.1677 -3.3246
 9319SOL    HW239417   3.953   4.206   3.937 -0.0587  1.6753  1.7397
 9320SOL     OW39418   4.333   1.090   1.650 -0.8413  0.0949 -0.2521
 9320SOL    HW139419   4.385   1.012   1.629  0.1037 -0.0430  2.6252
 9320SOL    HW239420   4.334   1.097   1.745  0.3279  0.4785 -0.2874
 9321SOL     OW39421   1.818   4.713   8.096 -0.3815 -0.6896  0.2272
 9321SOL    HW139422   1.857   0.055   8.153 -0.2468 -1.1898  0.7137
 9321SOL    HW239423   1.884   4.644   8.086 -0.0633 -0.5462  1.3219
 9322SOL     OW39424   2.477   1.495   4.719 -0.4347 -0.1380  0.0555
 9322SOL    HW139425   2.417   1.422   4.702 -0.1944 -0.3660  0.1899
 9322SOL    HW239426   2.450   1.526   4.805 -0.2952 -0.1137  0.0899
 9323SOL     OW39427   0.901   1.821  12.061  0.2372  0.2648  0.2434
 9323SOL    HW139428   0.987   1.782  12.074  0.1417 -0.0473 -0.0707
 9323SOL    HW239429   0.911   1.858  11.973 -0.2642 -0.5178 -0.1427
 9324SOL     OW39430   2.964   3.420   6.612  0.5258  0.1851 -0.0213
 9324SOL    HW139431   3.028   3.413   6.682  1.1115  0.7159 -0.5005
 9324SOL    HW239432   2.884   3.430   6.664  0.2389  0.2436 -0.4643
 9325SOL     OW39433   4.293   1.749   4.670 -0.2199  0.3532 -0.1174
 9325SOL    HW139434   4.337   1.815   4.724  1.3482 -1.6161  0.9966
 9325SOL    HW239435   4.234   1.806   4.620 -2.2623 -1.4903  0.2322
 9326SOL     OW39436   1.437   4.346   9.851  0.2115 -0.5778 -0.0301
 9326SOL    HW139437   1.373   4.276   9.861 -0.1954 -0.2514 -0.3651
 9326SOL    HW239438   1.487   4.296   9.785 -2.3851 -0.3825 -2.1354
 9327SOL     OW39439   1.949   4.169  10.536 -0.6124  0.4063  0.1420
 9327SOL    HW139440   1.974   4.088  10.492  2.7885  1.6416 -0.2167
 9327SOL    HW239441   2.029   4.164  10.588 -1.1526  2.8776  1.2191
 9328SOL     OW39442   1.796   4.278   6.278 -0.0269 -0.4002  0.1448
 9328SOL    HW139443   1.720   4.238   6.319 -1.4006  0.5338 -1.5123
 9328SOL    HW239444   1.753   4.340   6.219  0.3046 -0.9477 -0.6725
 9329SOL     OW39445   3.898   0.639   5.313  0.2421 -0.4568  0.2627
 9329SOL    HW139446   3.986   0.609   5.290  0.1526 -0.6340  0.1551
 9329SOL    HW239447   3.921   0.707   5.376  0.4070  0.3706 -0.7046
 9330SOL     OW39448   3.900   3.445  12.657  0.3016  0.4975  0.4030
 9330SOL    HW139449   3.987   3.411  12.635  0.2209  0.1661  0.5864
 9330SOL    HW239450   3.918   3.535  12.682 -1.8324  1.3275 -1.0434
 9331SOL     OW39451   3.304   3.870  12.912 -0.5977 -0.1281  0.1022
 9331SOL    HW139452   3.262   3.812  12.849 -0.6235 -0.8761  0.7927
 9331SOL    HW239453   3.264   3.833  12.991  0.8261 -0.0290  0.8861
 9332SOL     OW39454   4.530   2.256  10.347 -0.3273  0.0774  0.1769
 9332SOL    HW139455   4.533   2.200  10.425 -1.4743 -0.4274 -0.1374
 9332SOL    HW239456   4.559   2.338  10.386 -1.0670  1.4199 -2.1222
 9333SOL     OW39457   2.835   4.140  13.350 -0.4742 -0.1158  0.0613
 9333SOL    HW139458   2.912   4.102  13.308 -0.3032 -1.7434  1.8513
 9333SOL    HW239459   2.787   4.066  13.386 -1.3087  0.8530  0.9693
 9334SOL     OW39460   2.732   4.191   5.892 -0.0206  0.8434  0.6001
 9334SOL    HW139461   2.660   4.129   5.892  2.8852 -2.5083 -1.2303
 9334SOL    HW239462   2.671   4.261   5.867 -0.1990  0.5622  0.2530
 9335SOL     OW39463   0.288   4.580  12.482 -0.3180 -0.2887  0.0684
 9335SOL    HW139464   0.250   4.514  12.540 -1.3332  1.0479  0.9290
 9335SOL    HW239465   0.261   4.542  12.399 -0.0245 -0.7153  0.1667
 9336SOL     OW39466   1.021   1.991  16.204  0.3459 -0.1115 -0.1651
 9336SOL    HW139467   0.953   1.933  16.170  1.5859 -0.3649 -2.1710
 9336SOL    HW239468   1.015   2.068  16.148  0.0437  0.7724  1.0850
 9337SOL     OW39469   4.122   2.833  17.122  0.8421  0.2604 -0.0579
 9337SOL    HW139470   4.129   2.805  17.214 -0.6198 -1.1163 -0.3591
 9337SOL    HW239471   4.031   2.863  17.113  0.8498  0.3218  0.0703
 9338SOL     OW39472   1.483   0.323   8.954  0.2943  0.2537 -0.4728
 9338SOL    HW139473   1.549   0.288   9.015  0.0075  0.3991 -0.0788
 9338SOL    HW239474   1.434   0.245   8.930  0.1581  0.4701 -0.9016
 9339SOL     OW39475   0.867   0.605   3.439 -0.3043  0.5703 -0.1607
 9339SOL    HW139476   0.959   0.582   3.441 -0.5878 -0.6178 -0.5529
 9339SOL    HW239477   0.873   0.695   3.469  3.9277 -0.1821  1.2563
 9340SOL     OW39478   2.986   3.191   1.744 -0.1193 -0.2946 -0.1875
 9340SOL    HW139479   3.029   3.163   1.663 -1.1309  0.6757 -1.0578
 9340SOL    HW239480   2.894   3.201   1.721 -0.0304  0.5266 -0.2020
 9341SOL     OW39481   0.345   1.681   0.573  0.4483 -0.4880 -0.2692
 9341SOL    HW139482   0.291   1.703   0.497 -0.4340 -0.7551  0.2726
 9341SOL    HW239483   0.390   1.764   0.582 -2.0454  0.7427  0.9921
 9342SOL     OW39484   0.891   3.999   5.959  0.0505 -0.0826  0.0291
 9342SOL    HW139485   0.971   4.048   5.940  0.0316  0.0422  0.2708
 9342SOL    HW239486   0.857   3.972   5.874  0.7160 -0.4351 -0.1187
 9343SOL     OW39487   3.181   4.296   3.383 -0.4858  0.2367 -0.6953
 9343SOL    HW139488   3.131   4.279   3.462 -0.1275 -1.3107 -0.8026
 9343SOL    HW239489   3.209   4.388   3.382 -0.2039  0.1403 -1.6813
 9344SOL     OW39490   2.318   1.127   6.437  0.2647 -0.4682  0.1410
 9344SOL    HW139491   2.238   1.158   6.394 -1.3452 -3.2944  1.1184
 9344SOL    HW239492   2.350   1.055   6.382  1.3225  1.2754 -1.5434
 9345SOL     OW39493   4.583   1.376   3.123  0.5813  0.3031 -0.9634
 9345SOL    HW139494   4.651   1.330   3.174  0.7769  1.6437 -0.0191
 9345SOL    HW239495   4.523   1.401   3.193 -0.8091  1.8447 -2.7241
 9346SOL     OW39496   4.208   1.075  15.202  0.3006  0.4874  0.4381
 9346SOL    HW139497   4.167   1.049  15.119 -1.5609  0.7590  1.2743
 9346SOL    HW239498   4.134   1.098  15.258  0.5588  2.9107 -0.2145
 9347SOL     OW39499   3.315   3.238  11.363 -0.0204  0.7467  0.0301
 9347SOL    HW139500   3.343   3.181  11.434 -2.2793 -0.2052  0.1705
 9347SOL    HW239501   3.326   3.320  11.412 -0.2161  0.5720  0.3665
 9348SOL     OW39502   2.920   4.245   6.765  0.1970 -0.4360 -0.3069
 9348SOL    HW139503   2.909   4.338   6.746  0.7989 -0.1504  0.7802
 9348SOL    HW239504   2.874   4.210   6.688 -1.5042 -0.9706  0.9540
 9349SOL     OW39505   1.118   3.990  17.563 -0.2175  0.3318 -0.5713
 9349SOL    HW139506   1.179   4.032  17.623  0.2002 -1.3293  0.1709
 9349SOL    HW239507   1.148   3.899  17.564 -1.5039 -0.1389 -2.1922
 9350SOL     OW39508   2.364   1.552  16.699 -0.3367 -0.0666  0.2854
 9350SOL    HW139509   2.398   1.472  16.739 -2.2708 -1.8739 -1.6976
 9350SOL    HW239510   2.415   1.611  16.756 -2.5804  1.5488  0.6115
 9351SOL     OW39511   1.450   1.455   8.103  0.0109 -0.2787  0.5694
 9351SOL    HW139512   1.498   1.444   8.020 -0.8388 -0.4449  0.1020
 9351SOL    HW239513   1.520   1.496   8.154 -0.5712  1.7458 -0.2222
 9352SOL     OW39514   0.828   0.844   8.887 -0.0221  0.2956  0.3001
 9352SOL    HW139515   0.734   0.830   8.885  0.0193  0.0639 -0.0781
 9352SOL    HW239516   0.854   0.849   8.979 -0.9538 -2.4828  0.7239
 9353SOL     OW39517   2.602   1.571  17.007  0.6196  0.0871 -0.4482
 9353SOL    HW139518   2.612   1.488  17.054  0.5391  1.2602  1.6699
 9353SOL    HW239519   2.687   1.607  17.033  1.2630 -1.8678  0.0822
 9354SOL     OW39520   2.904   1.228   5.100 -0.5072 -0.2609 -0.2139
 9354SOL    HW139521   2.994   1.258   5.112 -0.2165 -1.3462  0.2717
 9354SOL    HW239522   2.889   1.175   5.178 -0.1260 -1.3392 -0.8733
 9355SOL     OW39523   4.281   0.254   0.881  0.1672  0.0064  0.8232
 9355SOL    HW139524   4.370   0.252   0.916  0.4415 -0.3191  0.1016
 9355SOL    HW239525   4.246   0.337   0.916  0.1518 -0.0646  0.9756
 9356SOL     OW39526   2.821   1.690  11.959 -0.3438 -0.3895  0.7695
 9356SOL    HW139527   2.833   1.763  11.899 -1.7989  0.1353  1.1210
 9356SOL    HW239528   2.893   1.708  12.019  1.1971 -1.3640 -0.7813
 9357SOL     OW39529   0.777   2.961   3.164 -0.1627 -0.6713 -0.3670
 9357SOL    HW139530   0.803   2.971   3.256  1.5602 -1.8129 -0.7180
 9357SOL    HW239531   0.836   2.888   3.145  0.1260 -0.0373 -1.8811
 9358SOL     OW39532   3.652   3.319   4.606  0.0555  0.5601 -0.3640
 9358SOL    HW139533   3.718   3.250   4.598  0.8690  1.1681  1.1088
 9358SOL    HW239534   3.579   3.265   4.636  0.3358  1.5812  2.1855
 9359SOL     OW39535   0.919   3.190  11.723  0.4395  0.4307 -0.5375
 9359SOL    HW139536   0.992   3.185  11.661 -0.5306 -1.0189 -1.5495
 9359SOL    HW239537   0.884   3.102  11.716 -0.1484  0.6583 -0.4960
 9360SOL     OW39538   0.421   1.198   5.636  1.2354  0.1738  0.0087
 9360SOL    HW139539   0.450   1.145   5.562  0.7361  2.2481 -1.6669
 9360SOL    HW239540   0.502   1.234   5.670  0.1932  1.6592  0.9369
 9361SOL     OW39541   2.148   2.645  12.423  0.3303 -0.6004  0.0425
 9361SOL    HW139542   2.205   2.669  12.496  1.1301 -0.2559 -0.7024
 9361SOL    HW239543   2.070   2.630  12.476 -0.7405  2.6342 -0.5951
 9362SOL     OW39544   1.202   0.034   7.815  0.3453  0.0857 -0.4509
 9362SOL    HW139545   1.234   0.027   7.905  0.2989  2.1397 -0.2681
 9362SOL    HW239546   1.108   0.051   7.820  0.5676  0.8227  1.2590
 9363SOL     OW39547   1.794   4.036   6.489 -0.4467  0.6161 -0.0876
 9363SOL    HW139548   1.753   3.995   6.413  2.6679 -3.1371  0.2153
 9363SOL    HW239549   1.866   4.084   6.447 -1.8557  1.4424 -1.5137
 9364SOL     OW39550   4.317   1.624  14.835 -0.9110  0.9798 -0.1257
 9364SOL    HW139551   4.408   1.615  14.863 -0.9406  0.0640 -0.3088
 9364SOL    HW239552   4.310   1.539  14.790  0.4485  0.4294  0.7081
 9365SOL     OW39553   3.496   0.925   5.237  0.5040  0.0784  0.2634
 9365SOL    HW139554   3.463   0.959   5.154  2.8984 -1.0201 -1.1514
 9365SOL    HW239555   3.527   1.009   5.272 -1.3606  0.8759 -0.0147
 9366SOL     OW39556   1.862   3.732   7.391 -0.1639  0.5316 -0.3589
 9366SOL    HW139557   1.955   3.738   7.410 -0.1788 -0.6375  0.0459
 9366SOL    HW239558   1.847   3.640   7.413  2.4621 -0.0839 -1.1849
 9367SOL     OW39559   0.325   1.760  14.213  0.0179  0.1380  0.0133
 9367SOL    HW139560   0.372   1.684  14.178 -1.6133 -0.9668  0.2282
 9367SOL    HW239561   0.351   1.775  14.304  0.8991 -0.3351 -0.1506
 9368SOL     OW39562   4.128   1.160   8.281 -0.0956  0.4747  0.1172
 9368SOL    HW139563   4.215   1.192   8.258  0.6153  0.2318  2.5166
 9368SOL    HW239564   4.092   1.135   8.195 -0.4172  0.7401  0.1719
 9369SOL     OW39565   1.628   4.105   8.496  0.0511  0.4770  0.3804
 9369SOL    HW139566   1.617   4.200   8.491 -0.1507  0.3584 -1.4155
 9369SOL    HW239567   1.718   4.098   8.528  0.6092 -1.3732 -1.5580
 9370SOL     OW39568   4.268   4.069   4.407  0.2133  0.3211 -0.6651
 9370SOL    HW139569   4.336   4.086   4.473  1.8211 -1.5800 -1.8212
 9370SOL    HW239570   4.277   3.973   4.400  2.2786  0.6002 -2.1164
 9371SOL     OW39571   1.268   4.307   4.267  1.2155 -0.3264 -0.1913
 9371SOL    HW139572   1.191   4.352   4.303  1.1498  0.2203 -1.0146
 9371SOL    HW239573   1.247   4.223   4.308 -0.2842  0.9020  1.5803
 9372SOL     OW39574   2.716   1.899   3.180  0.4310 -0.1724  0.7009
 9372SOL    HW139575   2.787   1.962   3.167  0.3026 -0.4579 -1.3425
 9372SOL    HW239576   2.681   1.935   3.261 -1.5793  2.7029 -1.4481
 9373SOL     OW39577   1.551   3.451   3.949 -0.0675 -0.2521 -0.4999
 9373SOL    HW139578   1.459   3.466   3.974 -0.7976  0.3764 -3.6258
 9373SOL    HW239579   1.540   3.401   3.869  1.6706  0.4079 -1.1548
 9374SOL     OW39580   1.604   2.169  14.760  0.0822 -0.3711  0.3596
 9374SOL    HW139581   1.617   2.257  14.726 -1.3733 -0.9910 -1.8239
 9374SOL    HW239582   1.517   2.148  14.725  0.8633 -0.2255 -1.6562
 9375SOL     OW39583   3.984   1.100   1.345 -0.3416  0.1939 -0.0203
 9375SOL    HW139584   3.919   1.036   1.319  1.7795 -2.0482  0.1544
 9375SOL    HW239585   4.014   1.127   1.258 -1.6474 -0.5361 -0.6946
 9376SOL     OW39586   2.639   3.763   7.661  0.1502  0.3244  0.2441
 9376SOL    HW139587   2.712   3.793   7.608 -1.6385  0.4293 -2.1733
 9376SOL    HW239588   2.571   3.827   7.639  1.2150  1.1707 -0.6059
 9377SOL     OW39589   3.405   1.776   2.754  0.5284  0.1468 -0.3858
 9377SOL    HW139590   3.356   1.734   2.683  1.4982 -2.2960  0.3906
 9377SOL    HW239591   3.457   1.834   2.699  1.1272  0.7738  0.8273
 9378SOL     OW39592   3.018   4.030   1.144  0.0195  0.0934 -0.0839
 9378SOL    HW139593   2.980   4.035   1.056  2.2366  3.9637 -0.8202
 9378SOL    HW239594   3.060   3.946   1.128  0.4317  0.2670  0.0782
 9379SOL     OW39595   2.694   0.691   7.771 -0.2941 -0.3827  0.7477
 9379SOL    HW139596   2.765   0.634   7.800 -0.2064  0.1659  1.6197
 9379SOL    HW239597   2.719   0.723   7.684  0.8209  1.6296  1.7974
 9380SOL     OW39598   3.319   2.274   5.692 -0.3036  0.1863 -0.0732
 9380SOL    HW139599   3.355   2.223   5.765 -1.4301 -0.7860 -0.2000
 9380SOL    HW239600   3.270   2.347   5.728  1.4367  1.8956 -1.1536
 9381SOL     OW39601   2.931   0.381   2.822 -0.5587 -0.5231  0.8961
 9381SOL    HW139602   2.883   0.380   2.739 -0.1142 -1.4326  0.6526
 9381SOL    HW239603   2.876   0.441   2.874  0.4131  0.3521  0.9167
 9382SOL     OW39604   2.279   4.091   8.917  0.3799  0.3138  0.3672
 9382SOL    HW139605   2.299   4.146   8.841 -0.8462 -0.3219 -0.4209
 9382SOL    HW239606   2.235   4.024   8.864 -0.2741  1.8536 -1.0110
 9383SOL     OW39607   4.210   2.902   8.080 -0.2626 -0.1697 -0.3690
 9383SOL    HW139608   4.230   2.915   8.172 -0.3582 -1.1544 -0.2143
 9383SOL    HW239609   4.162   2.984   8.066  1.7607  1.0869  0.0005
 9384SOL     OW39610   4.540   1.034   2.208  0.5125 -0.1710 -0.2608
 9384SOL    HW139611   4.556   1.093   2.135 -0.2746  0.8633  0.4090
 9384SOL    HW239612   4.563   1.091   2.281 -0.0221 -0.3062  0.0198
 9385SOL     OW39613   0.793   2.572  17.106  0.0231  0.0601  0.1602
 9385SOL    HW139614   0.716   2.627  17.123 -1.0615 -1.1754 -0.7291
 9385SOL    HW239615   0.808   2.559  17.199 -2.9233  1.9208  0.9290
 9386SOL     OW39616   3.001   3.475   9.300  0.0594  0.2594 -0.6173
 9386SOL    HW139617   3.021   3.424   9.379 -1.3028 -0.9138 -1.0227
 9386SOL    HW239618   2.906   3.469   9.287  0.0239  2.1609 -1.1073
 9387SOL     OW39619   2.202   3.328   5.757 -0.2171  0.0649  0.5517
 9387SOL    HW139620   2.204   3.249   5.703  0.5510  0.5210 -0.0786
 9387SOL    HW239621   2.217   3.397   5.693 -1.3639  1.3845  1.6995
 9388SOL     OW39622   0.550   1.465   7.031 -0.4218 -0.0800  0.0061
 9388SOL    HW139623   0.628   1.518   7.046 -0.1262 -0.4058 -0.3876
 9388SOL    HW239624   0.491   1.516   7.087 -0.6441 -0.4773  0.1377
 9389SOL     OW39625   1.218   3.078  11.583  0.4487 -0.4115  0.4410
 9389SOL    HW139626   1.292   3.029  11.619  0.5875 -1.2405 -0.9834
 9389SOL    HW239627   1.159   3.004  11.567 -2.0623  1.4368  1.1564
 9390SOL     OW39628   3.923   4.665   9.299  0.1630  0.3395  0.0541
 9390SOL    HW139629   3.955   4.717   9.373  1.1817 -0.3524  0.1058
 9390SOL    HW239630   3.979   4.588   9.292  0.1393  0.1807  1.6920
 9391SOL     OW39631   2.234   4.463   6.366 -0.3085 -0.1011  0.0272
 9391SOL    HW139632   2.166   4.469   6.298  2.6615  1.5164 -2.8125
 9391SOL    HW239633   2.205   4.537   6.419  0.9307 -1.1761  2.1673
 9392SOL     OW39634   0.781   4.573  15.935 -0.5484 -0.2827  0.6701
 9392SOL    HW139635   0.848   4.605  15.995  0.5019 -2.5358  0.6832
 9392SOL    HW239636   0.716   4.644  15.937  0.9709  1.1251  0.0506
 9393SOL     OW39637   0.426   2.896   7.888  0.1581  0.3104  0.3511
 9393SOL    HW139638   0.517   2.918   7.908  0.4481  1.3420 -2.0815
 9393SOL    HW239639   0.381   2.900   7.972 -0.9332  2.8271 -0.3544
 9394SOL     OW39640   3.108   2.110   4.576 -0.1168  0.3539  0.6185
 9394SOL    HW139641   3.033   2.143   4.627 -0.2059 -1.2845  1.5617
 9394SOL    HW239642   3.090   2.016   4.568 -0.5041  0.7616 -2.9868
 9395SOL     OW39643   1.770   0.782   8.665  0.2143  0.0130  0.1911
 9395SOL    HW139644   1.822   0.838   8.723 -0.8491  1.1074  0.0779
 9395SOL    HW239645   1.757   0.696   8.704 -0.9839  0.2988  0.3977
 9396SOL     OW39646   1.116   3.489   7.290 -0.0234 -0.5745  0.2067
 9396SOL    HW139647   1.165   3.528   7.218 -1.6036 -1.7875 -1.5137
 9396SOL    HW239648   1.026   3.516   7.273 -0.6481 -3.4082 -0.9047
 9397SOL     OW39649   1.156   0.627   3.439  0.3763 -0.2173  0.4097
 9397SOL    HW139650   1.215   0.590   3.373  0.2129 -0.3057  0.3105
 9397SOL    HW239651   1.171   0.721   3.435 -1.2146  0.1256  2.6234
 9398SOL     OW39652   0.670   2.382   7.797 -0.4843  0.3496  0.2320
 9398SOL    HW139653   0.597   2.363   7.856  0.6957  0.6135  1.7693
 9398SOL    HW239654   0.627   2.449   7.744 -0.1909 -1.2050 -1.9858
 9399SOL     OW39655   0.351   0.764   7.337  0.3788 -0.0309 -0.2328
 9399SOL    HW139656   0.388   0.804   7.258 -3.3732 -1.4977 -2.7464
 9399SOL    HW239657   0.281   0.715   7.293 -0.7357  1.3186  0.0274
 9400SOL     OW39658   1.585   0.985   5.232  0.6823 -0.5599 -0.0935
 9400SOL    HW139659   1.655   0.920   5.226  0.4173 -0.6376 -2.4414
 9400SOL    HW239660   1.543   0.966   5.316 -1.4660 -0.1765 -1.0720
 9401SOL     OW39661   3.650   3.595   4.601  1.1852  0.4337 -0.2106
 9401SOL    HW139662   3.642   3.500   4.593 -0.0998  0.5398 -0.2855
 9401SOL    HW239663   3.644   3.627   4.511  0.8638  1.3516  0.1323
 9402SOL     OW39664   0.361   3.921   2.914  0.6628 -0.0019 -0.2413
 9402SOL    HW139665   0.296   3.989   2.932  0.1612 -0.0952 -1.7548
 9402SOL    HW239666   0.312   3.869   2.851  0.0810  1.5999 -1.0897
 9403SOL     OW39667   3.756   0.443   5.533  0.0197 -0.6897  0.7496
 9403SOL    HW139668   3.681   0.433   5.591  1.4495 -1.4731  2.4506
 9403SOL    HW239669   3.728   0.531   5.507 -2.3110 -1.4889  0.4916
 9404SOL     OW39670   0.022   2.655   5.319 -0.3908 -0.0444 -0.0073
 9404SOL    HW139671   4.700   2.576   5.293 -0.3411  0.3471 -1.2802
 9404SOL    HW239672   0.115   2.636   5.334  0.3240  2.7380 -0.7168
 9405SOL     OW39673   0.202   0.961   0.570  0.3334 -0.5517 -0.0331
 9405SOL    HW139674   0.176   0.928   0.484 -2.8058 -1.4507  1.2514
 9405SOL    HW239675   0.289   0.988   0.541 -0.3243  0.4226 -1.0476
 9406SOL     OW39676   3.440   3.168   4.653  0.2900  0.9731 -0.1860
 9406SOL    HW139677   3.459   3.146   4.744 -0.1014 -0.7604 -0.5280
 9406SOL    HW239678   3.358   3.124   4.630  2.1449 -2.3759 -0.4628
 9407SOL     OW39679   3.366   1.985   4.843  0.2843  0.0461  0.2268
 9407SOL    HW139680   3.404   1.979   4.931  0.9314  0.3771 -0.0330
 9407SOL    HW239681   3.337   1.895   4.829 -3.5297  0.7901  3.3844
 9408SOL     OW39682   1.034   0.815  12.197 -0.2078 -0.3168  0.1033
 9408SOL    HW139683   1.034   0.826  12.292  0.8878  0.1561  0.0479
 9408SOL    HW239684   0.943   0.807  12.170 -0.6893 -1.5950  2.1223
 9409SOL     OW39685   2.816   4.345   9.024 -0.8085 -0.1141  0.2256
 9409SOL    HW139686   2.895   4.300   9.056 -0.3609  0.2447 -0.3866
 9409SOL    HW239687   2.739   4.290   9.039 -0.5480 -0.4532  0.3135
 9410SOL     OW39688   2.314   4.184   2.048 -0.1333  0.3255  0.1091
 9410SOL    HW139689   2.360   4.170   1.965 -1.2952  2.5719 -0.8941
 9410SOL    HW239690   2.382   4.240   2.084 -1.2029  1.7504 -0.1204
 9411SOL     OW39691   2.923   3.585   2.717  0.7274  0.7073  0.3971
 9411SOL    HW139692   2.872   3.632   2.783 -0.6763 -2.5905  1.6695
 9411SOL    HW239693   2.996   3.646   2.726  2.9928 -1.7762 -1.0149
 9412SOL     OW39694   0.052   2.091   7.369 -0.0209 -0.7680 -0.0289
 9412SOL    HW139695   0.015   2.060   7.451  0.7463 -0.8047  0.2971
 9412SOL    HW239696   0.055   2.186   7.383 -1.2832 -0.7572  0.1719
 9413SOL     OW39697   1.926   2.283   6.980  0.0208  0.3401 -0.0426
 9413SOL    HW139698   1.954   2.364   6.937 -0.6750  0.1547 -0.8543
 9413SOL    HW239699   2.003   2.231   6.958 -0.0600  0.1755  0.0694
 9414SOL     OW39700   2.270   3.748   4.125 -0.6750 -0.8091 -0.4959
 9414SOL    HW139701   2.197   3.720   4.179 -1.1666 -1.1903 -1.3550
 9414SOL    HW239702   2.224   3.783   4.049 -1.2919 -0.9773 -0.1920
 9415SOL     OW39703   1.786   3.898  10.077 -0.2555  0.3524  0.4455
 9415SOL    HW139704   1.804   3.979  10.125 -0.1915 -0.4494  1.7725
 9415SOL    HW239705   1.745   3.934   9.998 -1.7442 -0.6686  0.7411
 9416SOL     OW39706   1.692   0.634  12.495  0.3425  0.4738  0.5942
 9416SOL    HW139707   1.627   0.571  12.527 -0.5633  2.0600  1.8830
 9416SOL    HW239708   1.741   0.636  12.578  1.0571 -1.3338  0.2336
 9417SOL     OW39709   2.652   3.723   5.449 -0.2506  0.8774 -0.3868
 9417SOL    HW139710   2.705   3.649   5.419 -0.5132 -0.2589  1.9397
 9417SOL    HW239711   2.598   3.677   5.514 -0.0342  0.1125 -0.7502
 9418SOL     OW39712   3.745   3.817   7.606  0.5201  0.9793  0.3923
 9418SOL    HW139713   3.776   3.898   7.565 -1.5123  1.4192 -0.3079
 9418SOL    HW239714   3.661   3.839   7.647  0.8583  2.5590  0.2549
 9419SOL     OW39715   4.589   0.291  16.402  0.1410 -0.0093 -0.8305
 9419SOL    HW139716   4.664   0.233  16.417 -0.4190 -0.5931 -0.3138
 9419SOL    HW239717   4.628   0.374  16.427  1.4798 -1.1546  0.8709
 9420SOL     OW39718   0.905   2.397   4.617  0.4880  0.0520  0.1368
 9420SOL    HW139719   0.852   2.344   4.678  0.6717  1.4943  1.5484
 9420SOL    HW239720   0.950   2.453   4.680  0.0782 -0.5493  0.9634
 9421SOL     OW39721   3.504   4.372   3.999  0.7195 -0.4814  0.2472
 9421SOL    HW139722   3.537   4.433   3.933  0.5340 -0.8160 -0.1571
 9421SOL    HW239723   3.429   4.347   3.945  1.4792  0.1611 -1.1085
 9422SOL     OW39724   2.491   4.371   2.478  0.2750 -0.8737 -0.2360
 9422SOL    HW139725   2.504   4.309   2.406 -0.5467 -1.4855  0.1406
 9422SOL    HW239726   2.397   4.375   2.497  0.2493  1.4376 -0.9447
 9423SOL     OW39727   0.340   1.925   0.423 -0.1838 -0.4778  0.3623
 9423SOL    HW139728   0.378   1.859   0.365  0.1722 -2.3309  2.7142
 9423SOL    HW239729   0.410   1.988   0.440 -0.1028 -0.3214 -0.5589
 9424SOL     OW39730   3.037   0.545   3.531  0.2204 -0.3086 -0.1584
 9424SOL    HW139731   2.971   0.566   3.596  0.1096 -1.1034 -0.0045
 9424SOL    HW239732   3.019   0.610   3.464 -1.3070  2.2315  2.7231
 9425SOL     OW39733   3.122   2.549   7.856 -0.5928  0.0397  0.1109
 9425SOL    HW139734   3.141   2.460   7.884  1.5718  0.1781 -0.8534
 9425SOL    HW239735   3.152   2.559   7.765 -2.4908  0.6792 -0.4486
 9426SOL     OW39736   4.184   4.065   8.811  0.0876 -0.8075  0.3257
 9426SOL    HW139737   4.220   4.066   8.900 -2.6124  0.0056  1.4187
 9426SOL    HW239738   4.095   4.095   8.831 -0.3705 -0.6365 -1.9376
 9427SOL     OW39739   0.875   0.501   8.898 -1.0543  0.4375 -0.0370
 9427SOL    HW139740   0.823   0.561   8.952 -0.5670 -0.6415  1.6048
 9427SOL    HW239741   0.962   0.539   8.911 -0.7457 -1.5662  3.7240
 9428SOL     OW39742   0.970   1.405   3.872  0.1163  0.2787 -0.2244
 9428SOL    HW139743   1.062   1.416   3.850  0.6015 -3.2721  0.0969
 9428SOL    HW239744   0.948   1.483   3.925 -1.7766 -0.4431  0.0664
 9429SOL     OW39745   4.352   2.020  16.698  0.4944  0.9588 -0.2110
 9429SOL    HW139746   4.342   1.989  16.608  1.6598 -1.9163  0.6503
 9429SOL    HW239747   4.447   2.032  16.701  0.4300  0.9955  2.0834
 9430SOL     OW39748   4.327   3.861  15.643 -0.1127  0.0655  0.4176
 9430SOL    HW139749   4.285   3.945  15.623  2.0444  0.4103 -2.8068
 9430SOL    HW239750   4.316   3.866  15.738  2.9653 -0.0535  0.7867
 9431SOL     OW39751   1.811   1.962   4.228  0.0785  0.0314  0.1745
 9431SOL    HW139752   1.785   1.873   4.252 -2.2215  1.4328  2.9014
 9431SOL    HW239753   1.820   1.955   4.133  1.8478 -1.5467  0.4713
 9432SOL     OW39754   0.966   1.092   6.277 -0.3915  0.3754  0.1979
 9432SOL    HW139755   0.959   1.059   6.367 -1.7234 -0.0327 -0.0559
 9432SOL    HW239756   1.055   1.064   6.258 -1.4436 -3.7763  1.3423
 9433SOL     OW39757   4.336   0.499   6.636 -0.8996 -0.0223 -0.0980
 9433SOL    HW139758   4.302   0.588   6.645  0.0055  0.3839 -0.7144
 9433SOL    HW239759   4.306   0.456   6.716 -0.5781  1.4122  0.8054
 9434SOL     OW39760   1.040   2.170  15.187 -0.2080  0.0486  0.3756
 9434SOL    HW139761   1.134   2.154  15.201 -0.4260 -2.3698 -0.9387
 9434SOL    HW239762   1.038   2.136  15.097  0.0746 -1.1934  0.8466
 9435SOL     OW39763   1.923   2.416  10.224 -0.0217  0.2893 -0.5802
 9435SOL    HW139764   1.922   2.363  10.144  0.1183  0.7386 -0.8771
 9435SOL    HW239765   1.856   2.483  10.210 -1.0629 -0.3035  1.5374
 9436SOL     OW39766   4.634   2.397   5.237  0.2435 -0.2651  0.0974
 9436SOL    HW139767   4.673   2.367   5.154 -0.1036 -0.9786  0.1866
 9436SOL    HW239768   4.674   2.333   5.296  0.2345 -0.6118 -0.2713
 9437SOL     OW39769   3.463   2.172  14.697 -0.2165  0.2359  0.0806
 9437SOL    HW139770   3.552   2.205  14.707 -0.9751  2.6265 -1.1665
 9437SOL    HW239771   3.471   2.133  14.610 -0.3570 -3.7868  1.8941
 9438SOL     OW39772   4.083   1.442   6.311  0.5237  0.6007 -0.1392
 9438SOL    HW139773   4.054   1.414   6.224 -0.4825  0.3133  0.2841
 9438SOL    HW239774   4.006   1.488   6.345  1.9241  1.6006  1.6538
 9439SOL     OW39775   0.352   4.380  11.498  0.5097  0.3489  0.4942
 9439SOL    HW139776   0.420   4.341  11.554  1.0382 -0.0525 -0.4233
 9439SOL    HW239777   0.404   4.445  11.451  0.0000  0.6394  0.3390
 9440SOL     OW39778   3.681   4.684   4.492  0.2752  0.0496 -0.4029
 9440SOL    HW139779   3.775   4.668   4.501  0.2127  0.2576  0.5930
 9440SOL    HW239780   3.661   4.644   4.407  3.9720  1.9736 -2.1897
 9441SOL     OW39781   2.127   2.764   1.620  0.0791  0.3683  0.1330
 9441SOL    HW139782   2.070   2.775   1.544  1.6679  1.5516 -0.8788
 9441SOL    HW239783   2.130   2.855   1.650 -0.7811  0.8620 -1.3160
 9442SOL     OW39784   1.556   0.530   6.154 -0.8194 -0.0936 -0.3471
 9442SOL    HW139785   1.498   0.491   6.089 -0.1725 -1.3197 -0.1783
 9442SOL    HW239786   1.513   0.499   6.234  0.1663 -1.9435 -0.5349
 9443SOL     OW39787   3.207   0.807  16.748 -0.7117  0.7888 -0.5220
 9443SOL    HW139788   3.185   0.826  16.840  2.8486  1.6072  0.1459
 9443SOL    HW239789   3.301   0.823  16.736 -0.8199  0.4950 -1.7573
 9444SOL     OW39790   4.071   2.389  17.255  0.2043  0.0892  0.0550
 9444SOL    HW139791   4.013   2.406  17.181  0.2130  0.3261  0.1043
 9444SOL    HW239792   4.031   2.435  17.328  1.2641  0.7615  0.2064
 9445SOL     OW39793   2.249   3.182   4.448  0.2406 -0.5170  0.8854
 9445SOL    HW139794   2.277   3.162   4.537 -0.5553 -1.8685  0.8320
 9445SOL    HW239795   2.158   3.201   4.471 -0.4631 -2.7842 -0.0578
 9446SOL     OW39796   0.924   1.189  12.361  0.0638  0.4663  0.2765
 9446SOL    HW139797   0.830   1.174  12.352  0.0995  0.4836 -0.1316
 9446SOL    HW239798   0.912   1.244  12.439  1.0683 -1.6300  1.8834
 9447SOL     OW39799   4.698   4.012   6.680  0.1529 -0.1694 -0.0322
 9447SOL    HW139800   4.695   3.978   6.591  1.3149 -2.7488  0.9301
 9447SOL    HW239801   0.067   4.011   6.704 -0.5684  2.0615  2.9677
 9448SOL     OW39802   1.113   0.472  13.627  0.1655 -0.1086  0.3458
 9448SOL    HW139803   1.097   0.535  13.697 -2.1072 -0.0058 -0.2414
 9448SOL    HW239804   1.164   0.536  13.577  1.3817  1.5548  3.6860
 9449SOL     OW39805   1.436   0.610  12.949  0.1816 -0.0616  0.5658
 9449SOL    HW139806   1.450   0.664  13.027  2.6110 -0.7253  0.6012
 9449SOL    HW239807   1.365   0.556  12.982  0.3061 -0.1314  0.7243
 9450SOL     OW39808   0.439   2.059   1.397 -0.0303 -0.4287  0.2839
 9450SOL    HW139809   0.345   2.068   1.414 -0.2403  0.2902 -1.2527
 9450SOL    HW239810   0.468   2.105   1.475 -1.0642 -1.4166  1.2455
 9451SOL     OW39811   4.276   2.928   0.496  0.8169 -0.1011 -0.2387
 9451SOL    HW139812   4.206   2.885   0.446  0.1785 -0.2216  0.7483
 9451SOL    HW239813   4.222   2.974   0.560  0.5031 -2.3343  1.0860
 9452SOL     OW39814   0.395   1.050   2.253 -0.3454  0.1603 -0.0965
 9452SOL    HW139815   0.485   1.061   2.284  0.0196 -3.7604  0.2922
 9452SOL    HW239816   0.362   1.138   2.271  0.7913  1.1232 -2.7189
 9453SOL     OW39817   0.479   1.071   5.407 -0.4958  0.3392 -0.0391
 9453SOL    HW139818   0.444   1.001   5.352 -0.3360 -0.3316  0.7091
 9453SOL    HW239819   0.512   1.123   5.334 -1.2678  1.3578  0.3258
 9454SOL     OW39820   0.643   2.636   0.560 -0.4595 -0.0847  0.0285
 9454SOL    HW139821   0.620   2.642   0.653  1.7405  0.9752  0.5204
 9454SOL    HW239822   0.579   2.699   0.526 -2.6114 -2.5795 -0.4692
 9455SOL     OW39823   4.679   4.674   8.414  0.3031  0.2177 -0.3383
 9455SOL    HW139824   4.702   4.589   8.450 -2.2312  0.0217  0.7920
 9455SOL    HW239825   0.041   4.714   8.427  0.2546 -0.2844  1.5410
 9456SOL     OW39826   3.198   0.903  13.618  0.0714  0.1197  0.1824
 9456SOL    HW139827   3.258   0.856  13.677  0.3998  1.1977  0.7010
 9456SOL    HW239828   3.252   0.977  13.592 -1.3214  1.0516 -0.0131
 9457SOL     OW39829   0.907   1.169   9.392 -0.1804  0.0610 -0.2581
 9457SOL    HW139830   0.980   1.166   9.454  0.2978  0.9696 -0.7849
 9457SOL    HW239831   0.838   1.129   9.445 -1.0082  1.1585 -0.4976
 9458SOL     OW39832   3.256   1.516  16.421  0.4801  0.2878  0.2323
 9458SOL    HW139833   3.299   1.494  16.338  1.7247  0.2010  0.8995
 9458SOL    HW239834   3.328   1.566  16.459 -0.5440  1.1329  1.0668
 9459SOL     OW39835   1.327   4.283  16.923  0.3638 -0.4261 -0.0063
 9459SOL    HW139836   1.269   4.243  16.858  0.4101 -0.9128  0.2498
 9459SOL    HW239837   1.276   4.361  16.943 -0.1395 -0.7716  0.0718
 9460SOL     OW39838   0.780   0.769  13.086  0.1454 -0.0162 -0.7144
 9460SOL    HW139839   0.849   0.703  13.076  1.0683  0.7799  0.3441
 9460SOL    HW239840   0.704   0.711  13.095  0.9025 -0.6718  1.4822
 9461SOL     OW39841   1.230   1.499   6.059  0.5188  0.1999 -0.0451
 9461SOL    HW139842   1.245   1.593   6.051 -0.5738  0.4824  1.2600
 9461SOL    HW239843   1.273   1.463   5.982  1.3300 -2.0421  1.4540
 9462SOL     OW39844   0.254   0.550   2.594 -0.1676  0.0466 -0.3263
 9462SOL    HW139845   0.333   0.553   2.648 -1.2378 -2.7474  1.3638
 9462SOL    HW239846   0.230   0.457   2.600 -1.6849  0.5119  0.6793
 9463SOL     OW39847   2.641   0.380   3.112 -0.7167  0.3781  0.1590
 9463SOL    HW139848   2.646   0.286   3.093 -1.4053 -0.0405  1.9852
 9463SOL    HW239849   2.626   0.410   3.023 -1.7649 -1.7141 -0.3709
 9464SOL     OW39850   2.319   1.278   7.234  0.5842  0.2854 -0.1393
 9464SOL    HW139851   2.256   1.217   7.197  0.6900  0.2460 -0.2516
 9464SOL    HW239852   2.396   1.221   7.229  1.6557  1.6445  0.6113
 9465SOL     OW39853   0.963   2.759   4.572 -0.3366  0.1709  0.1348
 9465SOL    HW139854   0.955   2.731   4.481  1.1347  1.0921 -0.2701
 9465SOL    HW239855   0.875   2.745   4.606 -0.1991  0.8367  0.7707
 9466SOL     OW39856   0.599   2.314  11.905  0.4920 -0.0906 -0.1506
 9466SOL    HW139857   0.554   2.232  11.883  2.0623 -0.9611 -0.1119
 9466SOL    HW239858   0.556   2.385  11.857  2.2448  1.5582  0.7183
 9467SOL     OW39859   0.315   3.308   8.119 -0.6657  0.3757 -0.0532
 9467SOL    HW139860   0.403   3.283   8.089 -0.7092  2.1191 -1.6474
 9467SOL    HW239861   0.334   3.337   8.209 -0.9621 -0.7075  0.3554
 9468SOL     OW39862   2.344   2.750   8.081  0.2243 -0.2362  0.2146
 9468SOL    HW139863   2.414   2.796   8.129 -0.7020  0.3057  1.0489
 9468SOL    HW239864   2.280   2.735   8.150  1.5850  0.0503  1.5483
 9469SOL     OW39865   3.687   1.903   4.665 -0.1109  0.0971 -0.1115
 9469SOL    HW139866   3.638   1.864   4.592  1.7371 -0.9366 -0.7934
 9469SOL    HW239867   3.648   1.847   4.732  1.5316  0.5515  1.2208
 9470SOL     OW39868   2.997   3.685   4.823 -0.0429 -0.0384 -0.5879
 9470SOL    HW139869   3.041   3.668   4.906  0.2551  1.1588 -0.4942
 9470SOL    HW239870   2.974   3.777   4.838 -0.0623 -0.1455  0.0175
 9471SOL     OW39871   0.875   2.825  15.922  0.2465 -0.3386 -0.7683
 9471SOL    HW139872   0.928   2.884  15.869  0.6301  0.7489  0.8316
 9471SOL    HW239873   0.801   2.844  15.865 -1.9877  0.6033  2.4779
 9472SOL     OW39874   3.933   3.737   4.526 -0.4691  0.1688 -0.3079
 9472SOL    HW139875   3.920   3.691   4.443  1.9928 -3.4382  1.2892
 9472SOL    HW239876   4.027   3.719   4.533 -1.0491 -2.3733  0.8609
 9473SOL     OW39877   4.309   2.907  16.519 -0.3520 -0.0903 -0.0208
 9473SOL    HW139878   4.359   2.952  16.586 -1.6345 -2.2927  2.4414
 9473SOL    HW239879   4.375   2.905  16.450  0.1259  2.1671  0.3797
 9474SOL     OW39880   3.578   0.354   6.146 -0.4673  0.2549 -0.3535
 9474SOL    HW139881   3.664   0.394   6.162 -0.1639 -0.6464  0.2493
 9474SOL    HW239882   3.570   0.318   6.234 -1.4656  2.2990  0.3887
 9475SOL     OW39883   4.706   3.623   6.481  0.0720 -0.3845  0.4183
 9475SOL    HW139884   0.001   3.529   6.481 -1.3646 -0.6752 -0.7112
 9475SOL    HW239885   4.702   3.642   6.574  0.0581  1.5848  0.0160
 9476SOL     OW39886   1.880   3.944   3.767 -0.6428  0.1046  0.0976
 9476SOL    HW139887   1.800   3.992   3.788 -1.6983 -0.9537 -1.4737
 9476SOL    HW239888   1.902   4.006   3.697  2.2612 -0.6228  0.3753
 9477SOL     OW39889   0.375   3.295   6.656 -0.3035 -0.0297  0.3025
 9477SOL    HW139890   0.334   3.210   6.675  0.2499 -0.2853  0.3544
 9477SOL    HW239891   0.405   3.283   6.566 -3.0838 -1.3942 -0.4499
 9478SOL     OW39892   1.150   3.759   6.324  0.1563 -0.6431  0.2826
 9478SOL    HW139893   1.085   3.771   6.255 -0.4383  1.4707  1.2333
 9478SOL    HW239894   1.084   3.752   6.393  0.3579  1.0578  0.6233
 9479SOL     OW39895   2.191   2.733   3.158 -0.0619 -0.5313 -0.2003
 9479SOL    HW139896   2.104   2.714   3.191 -1.1734 -0.0098 -2.8076
 9479SOL    HW239897   2.228   2.755   3.243  1.8128  2.0330 -1.6666
 9480SOL     OW39898   0.302   1.656   7.633  0.0275  1.0747  0.7201
 9480SOL    HW139899   0.246   1.627   7.706 -2.0218  0.5490 -1.0397
 9480SOL    HW239900   0.239   1.673   7.563 -1.0291 -0.8767  1.1679
 9481SOL     OW39901   3.072   1.303   8.490  0.1356  0.4000 -0.0794
 9481SOL    HW139902   3.014   1.369   8.452  1.0183 -0.2338 -2.5286
 9481SOL    HW239903   3.084   1.345   8.575  0.1366  0.3607 -0.0603
 9482SOL     OW39904   1.825   0.701  13.782  0.1506  0.0746 -0.0721
 9482SOL    HW139905   1.902   0.740  13.741 -0.7321  0.6476 -1.1860
 9482SOL    HW239906   1.835   0.729  13.873  0.2102 -1.9088  0.5211
 9483SOL     OW39907   0.263   2.887   4.376  0.6007 -0.1698 -0.1376
 9483SOL    HW139908   0.279   2.819   4.441  0.8985  0.4380  0.4289
 9483SOL    HW239909   0.309   2.967   4.403 -0.6498  0.8286 -0.9902
 9484SOL     OW39910   4.384   0.997  13.666 -0.1849  0.4602  0.0366
 9484SOL    HW139911   4.397   1.084  13.629 -1.8775  0.8441  0.3561
 9484SOL    HW239912   4.390   0.938  13.591  0.5563 -0.7166  1.0339
 9485SOL     OW39913   3.584   0.466   9.297 -0.0574 -0.4074  0.1882
 9485SOL    HW139914   3.544   0.545   9.334 -1.3356 -0.6536 -0.7064
 9485SOL    HW239915   3.553   0.400   9.359  1.1006  1.2750  2.5469
 9486SOL     OW39916   4.256   3.320   5.103  0.4200  0.5328  0.0114
 9486SOL    HW139917   4.262   3.268   5.183 -2.8651  1.2495  0.7151
 9486SOL    HW239918   4.170   3.362   5.102  0.3942  0.4629 -3.0820
 9487SOL     OW39919   0.413   3.325   0.966  0.0178  0.2626 -0.2985
 9487SOL    HW139920   0.405   3.415   0.997  0.2148  0.1678  0.0401
 9487SOL    HW239921   0.333   3.295   0.925 -1.4762  3.8796 -0.0100
 9488SOL     OW39922   4.247   1.685   9.307 -0.6047 -0.1690  0.1559
 9488SOL    HW139923   4.333   1.644   9.309  0.1304  1.3293 -0.7690
 9488SOL    HW239924   4.206   1.603   9.280 -1.8300  0.5149 -0.0584
 9489SOL     OW39925   1.461   0.367   3.681 -0.6877 -0.9514 -0.5066
 9489SOL    HW139926   1.422   0.363   3.594 -1.6000  0.0275 -0.1369
 9489SOL    HW239927   1.401   0.436   3.708  2.1341  1.1546  0.3422
 9490SOL     OW39928   1.096   1.860  17.501 -0.2407  0.0364 -0.4795
 9490SOL    HW139929   1.061   1.777  17.535  3.7042 -1.0336  0.9938
 9490SOL    HW239930   1.083   1.911  17.581 -2.0477  1.8095 -1.8992
 9491SOL     OW39931   2.790   0.574   4.477 -0.1530 -0.1652 -0.3726
 9491SOL    HW139932   2.698   0.548   4.472 -0.4295  0.1960  2.8537
 9491SOL    HW239933   2.839   0.522   4.414 -0.4124  0.5540 -1.1759
 9492SOL     OW39934   0.682   4.389   6.552 -0.1383 -0.0137  0.0723
 9492SOL    HW139935   0.738   4.408   6.628  1.0852 -0.1894 -0.7937
 9492SOL    HW239936   0.715   4.454   6.490  1.5776 -0.0019  0.9945
 9493SOL     OW39937   0.147   2.827  15.379  0.5752 -0.0216 -0.5540
 9493SOL    HW139938   0.193   2.744  15.394 -3.0820 -1.7991  0.8199
 9493SOL    HW239939   0.052   2.813  15.385  0.8535 -0.7711  2.4937
 9494SOL     OW39940   2.027   0.282   4.576  0.2574 -0.0406  0.6076
 9494SOL    HW139941   1.948   0.301   4.627  0.2207  0.9593  0.1834
 9494SOL    HW239942   1.982   0.220   4.518 -1.0285 -0.8536  2.4782
 9495SOL     OW39943   1.417   0.910   6.857 -0.4548 -0.5538  0.0920
 9495SOL    HW139944   1.324   0.902   6.876 -0.4582 -2.9361 -0.9426
 9495SOL    HW239945   1.443   0.883   6.946  0.5558  0.3699  0.0774
 9496SOL     OW39946   0.713   4.265  16.699 -0.2292 -0.0600  0.0541
 9496SOL    HW139947   0.621   4.278  16.677 -0.3725  2.2055  2.0282
 9496SOL    HW239948   0.745   4.225  16.618 -0.6665 -2.0729  0.8728
 9497SOL     OW39949   1.388   3.142   6.058 -0.1830  0.1874  0.3352
 9497SOL    HW139950   1.374   3.059   6.104 -0.9865  0.8392  1.2553
 9497SOL    HW239951   1.444   3.200   6.110  0.9675  1.3017 -2.1119
 9498SOL     OW39952   2.399   1.968   8.275 -0.5986 -0.0568 -0.2724
 9498SOL    HW139953   2.410   2.060   8.251 -2.3353  0.5046  1.0299
 9498SOL    HW239954   2.328   1.975   8.339 -1.9109 -2.3605 -1.4764
 9499SOL     OW39955   1.209   4.702   3.116  0.3006 -0.4606  0.4884
 9499SOL    HW139956   1.230   4.641   3.045 -0.1415 -0.9324  0.7668
 9499SOL    HW239957   1.117   4.705   3.090  0.2581 -0.0233  0.6991
 9500SOL     OW39958   2.731   0.742   2.104 -0.3329 -0.2606 -0.0679
 9500SOL    HW139959   2.682   0.682   2.048 -1.0942  1.5319 -1.3372
 9500SOL    HW239960   2.822   0.731   2.074  0.0741  1.3140  0.5485
 9501SOL     OW39961   1.449   3.601   3.653  0.4922 -0.3300  0.2104
 9501SOL    HW139962   1.496   3.677   3.686  0.3857  0.0973 -0.6090
 9501SOL    HW239963   1.503   3.579   3.577  0.7510 -2.0130  0.8977
 9502SOL     OW39964   0.377   1.370   8.765  0.5859 -0.8960 -0.0168
 9502SOL    HW139965   0.458   1.369   8.713  0.8022  0.2610  0.3047
 9502SOL    HW239966   0.396   1.430   8.837  1.1155  2.3795 -2.8693
 9503SOL     OW39967   2.570   1.149  14.635 -0.3010 -0.3710  0.1853
 9503SOL    HW139968   2.649   1.203  14.641 -0.1572 -0.2787 -2.3438
 9503SOL    HW239969   2.502   1.203  14.675  0.7812  0.2201  1.2347
 9504SOL     OW39970   0.373   2.233   7.240  0.0123 -0.1097 -0.2685
 9504SOL    HW139971   0.314   2.269   7.174  0.7966 -0.7006 -1.2839
 9504SOL    HW239972   0.455   2.228   7.191 -0.2154  0.8430 -0.7397
 9505SOL     OW39973   4.531   1.720   5.575 -0.1011  0.4425  0.4780
 9505SOL    HW139974   4.552   1.790   5.513 -0.0792  1.1195  1.2384
 9505SOL    HW239975   4.437   1.733   5.577  0.1228  1.9380  2.0525
 9506SOL     OW39976   4.297   0.315   7.701 -0.2338 -0.7730 -0.0998
 9506SOL    HW139977   4.372   0.374   7.709 -1.0627  0.4982 -1.7877
 9506SOL    HW239978   4.246   0.353   7.773 -0.3415  1.1042 -1.1595
 9507SOL     OW39979   0.023   1.739   3.235 -0.2342 -0.0954 -0.0591
 9507SOL    HW139980   4.666   1.781   3.266 -0.7339 -0.8162 -0.3709
 9507SOL    HW239981   0.024   1.779   3.148  0.8242 -1.9555 -0.8939
 9508SOL     OW39982   1.843   0.807   0.966 -0.4996 -0.3570  0.6584
 9508SOL    HW139983   1.902   0.782   0.894  0.0869  2.4645  0.1746
 9508SOL    HW239984   1.835   0.726   1.016  0.2133 -0.9679 -0.2070
 9509SOL     OW39985   0.217   3.851   7.273  0.0257  0.5947  0.3516
 9509SOL    HW139986   0.209   3.842   7.368  1.2991  0.8751  0.4922
 9509SOL    HW239987   0.310   3.859   7.251  0.2037 -0.4493  0.7075
 9510SOL     OW39988   3.499   0.158   7.676 -0.1448 -0.1505 -0.1559
 9510SOL    HW139989   3.551   0.082   7.700  0.2637 -0.1220 -0.9282
 9510SOL    HW239990   3.522   0.220   7.745  2.1305  0.6653 -1.6575
 9511SOL     OW39991   0.516   1.970  17.435 -0.2740 -0.1392 -0.0306
 9511SOL    HW139992   0.610   1.965  17.452 -0.4204  0.9057  1.0668
 9511SOL    HW239993   0.488   1.902  17.497  0.0508 -1.1651 -1.0113
 9512SOL     OW39994   2.695   4.591   6.150 -0.2142  0.0461 -0.3264
 9512SOL    HW139995   2.644   4.533   6.207  0.9218 -1.0873 -0.4787
 9512SOL    HW239996   2.662   4.676   6.180  0.9518  0.0524  0.9472
 9513SOL     OW39997   0.306   0.421   4.596 -0.2995  0.0160  0.0948
 9513SOL    HW139998   0.266   0.437   4.682 -0.3114 -1.7143  0.4154
 9513SOL    HW239999   0.396   0.447   4.615 -0.1169 -0.0953 -0.6452
 9514SOL     OW40000   3.484   0.157   7.217  0.1030 -0.1402  0.0947
 9514SOL    HW140001   3.434   0.216   7.273 -0.7342 -0.5048 -0.2770
 9514SOL    HW240002   3.559   0.151   7.276  1.0887 -0.0291 -1.1595
 9515SOL     OW40003   3.491   4.517   5.776  0.0183  0.0070  0.4314
 9515SOL    HW140004   3.505   4.587   5.840  1.8105  0.6134 -0.6384
 9515SOL    HW240005   3.583   4.515   5.749 -0.5874 -1.7448 -1.5086
 9516SOL     OW40006   3.165   2.391  11.314 -0.1717 -0.2733 -0.3517
 9516SOL    HW140007   3.159   2.346  11.230  0.5159 -1.8575  0.4444
 9516SOL    HW240008   3.215   2.466  11.283 -0.3556 -0.1975 -0.4661
 9517SOL     OW40009   4.074   3.032   7.376 -0.2508 -0.1102  0.2818
 9517SOL    HW140010   4.106   2.983   7.300 -1.8779 -0.1074 -0.3992
 9517SOL    HW240011   4.104   2.975   7.447 -3.0175 -1.3170  0.4668
 9518SOL     OW40012   0.502   0.856   7.132 -0.3475  0.1392 -0.8692
 9518SOL    HW140013   0.591   0.858   7.166 -0.2684 -0.6105 -1.0211
 9518SOL    HW240014   0.516   0.813   7.047  0.0295 -0.8996 -0.2715
 9519SOL     OW40015   1.219   2.178  17.581  0.0744  0.0626 -0.0181
 9519SOL    HW140016   1.149   2.178  17.516  1.2160  1.7463 -1.2760
 9519SOL    HW240017   1.176   2.125  17.648  1.3630 -0.7113  0.2128
 9520SOL     OW40018   0.685   3.856   2.492  1.2159  0.2579  0.9319
 9520SOL    HW140019   0.603   3.829   2.451  0.1563  0.0763  3.1996
 9520SOL    HW240020   0.656   3.906   2.568 -0.8791 -0.7068  0.7820
 9521SOL     OW40021   2.978   3.229   9.091 -0.1260 -0.0646  0.2764
 9521SOL    HW140022   2.998   3.322   9.089 -0.4184 -0.0284 -1.1507
 9521SOL    HW240023   3.063   3.187   9.077  0.3395  1.1948 -0.7004
 9522SOL     OW40024   0.293   0.048   7.351 -0.3213 -0.1224  0.1289
 9522SOL    HW140025   0.347   4.710   7.301 -1.6747  0.5314 -2.1751
 9522SOL    HW240026   0.290   0.022   7.443 -1.2928  1.2876  0.4901
 9523SOL     OW40027   4.163   1.073   3.539  0.2444 -0.0676  0.0949
 9523SOL    HW140028   4.071   1.046   3.543  0.2318  0.2067  1.3756
 9523SOL    HW240029   4.150   1.144   3.476 -2.5189 -1.5817 -1.0287
 9524SOL     OW40030   1.150   1.126   9.531 -0.4726 -0.3958  0.7624
 9524SOL    HW140031   1.190   1.073   9.601  0.3362 -1.3788 -0.4509
 9524SOL    HW240032   1.220   1.187   9.513 -1.6964  0.3363 -1.5547
 9525SOL     OW40033   4.289   0.733   6.922 -0.6424  0.6632 -0.3331
 9525SOL    HW140034   4.294   0.738   6.827  0.9048 -0.0977 -0.2825
 9525SOL    HW240035   4.285   0.825   6.948  0.6059  0.2200  1.4517
 9526SOL     OW40036   0.268   3.134   0.406  0.1021  0.6125 -0.0756
 9526SOL    HW140037   0.270   3.060   0.345  1.9610  1.2003 -0.7330
 9526SOL    HW240038   0.357   3.117   0.436  0.3043  2.7052  0.4930
 9527SOL     OW40039   4.031   1.700   2.167  0.3928 -0.9666 -0.2332
 9527SOL    HW140040   4.007   1.668   2.080 -0.9137  0.3655 -0.3557
 9527SOL    HW240041   4.068   1.621   2.208 -0.3894 -1.5431 -0.6472
 9528SOL     OW40042   1.127   4.702   9.113 -0.2313  0.2258  0.4863
 9528SOL    HW140043   1.131   0.002   9.021 -2.2611  1.8124  0.8034
 9528SOL    HW240044   1.218   4.678   9.131 -0.4658  0.3567  1.8674
 9529SOL     OW40045   1.999   4.709   9.413  0.2034 -0.4058 -0.4100
 9529SOL    HW140046   2.018   4.649   9.485  2.3843  1.1689  0.3353
 9529SOL    HW240047   2.065   4.676   9.353  0.9574 -1.5395  1.0615
 9530SOL     OW40048   2.896   4.533   6.763 -0.6024  0.0091  0.4559
 9530SOL    HW140049   2.863   4.530   6.853  0.4179 -2.0761  0.7593
 9530SOL    HW240050   2.885   4.625   6.738 -2.0911 -0.6077 -1.1129
 9531SOL     OW40051   4.360   0.264  10.306  0.2797  0.3766  0.9373
 9531SOL    HW140052   4.430   0.219  10.259  1.3424  1.6488  1.2764
 9531SOL    HW240053   4.391   0.354  10.290 -2.4308  1.3131  0.9880
 9532SOL     OW40054   3.692   3.082   7.013  0.6194  0.1453 -0.2893
 9532SOL    HW140055   3.726   3.098   7.101  0.4498  0.4446 -0.2764
 9532SOL    HW240056   3.598   3.096   7.029  0.4363 -0.7667 -0.6233
 9533SOL     OW40057   4.535   1.314  13.192 -0.7963  0.2093 -0.1087
 9533SOL    HW140058   4.441   1.306  13.176 -1.5502  3.1658  2.8605
 9533SOL    HW240059   4.540   1.220  13.209 -1.1941  0.1525 -0.3030
 9534SOL     OW40060   3.242   0.623  11.201 -0.4455 -0.8341 -0.2313
 9534SOL    HW140061   3.250   0.593  11.292 -0.1491 -2.4118 -0.7718
 9534SOL    HW240062   3.165   0.679  11.202 -0.8169 -1.4228  3.3372
 9535SOL     OW40063   0.660   1.852   3.096 -0.3973 -0.2442 -0.1331
 9535SOL    HW140064   0.701   1.886   3.175 -0.0693 -0.3410 -0.2631
 9535SOL    HW240065   0.725   1.893   3.039  0.2300 -2.5833 -1.0831
 9536SOL     OW40066   1.023   0.039   6.689 -0.0474 -0.3627 -0.4703
 9536SOL    HW140067   1.103   0.087   6.668  0.1408 -0.7739 -0.6995
 9536SOL    HW240068   0.955   0.105   6.675  1.2157  1.0346  0.0132
 9537SOL     OW40069   3.812   2.438  10.486  0.6587 -0.5197  0.5199
 9537SOL    HW140070   3.831   2.368  10.549  1.4698 -0.3303  0.4829
 9537SOL    HW240071   3.880   2.501  10.510 -1.4877  0.2467  4.6786
 9538SOL     OW40072   0.478   1.676   8.577  0.6943 -0.4715 -0.4533
 9538SOL    HW140073   0.387   1.670   8.606  1.5158  1.1925  2.4655
 9538SOL    HW240074   0.476   1.741   8.506  1.4746  0.5563  0.4746
 9539SOL     OW40075   0.931   0.624   6.424 -0.4900  0.0954  0.1648
 9539SOL    HW140076   0.866   0.669   6.479 -0.8604 -0.1498 -0.0661
 9539SOL    HW240077   1.003   0.607   6.485  0.3140 -4.3557 -1.9830
 9540SOL     OW40078   0.042   2.635   4.367  0.3468 -0.3206  0.1798
 9540SOL    HW140079   4.708   2.705   4.336  1.5695  0.6485  0.0918
 9540SOL    HW240080   4.704   2.562   4.369 -1.4047  1.1238 -0.8365
 9541SOL     OW40081   1.944   3.770  13.843 -0.4530 -0.4988  0.2260
 9541SOL    HW140082   1.967   3.863  13.839  1.3653 -0.9856 -0.9335
 9541SOL    HW240083   2.013   3.730  13.896  0.2366  0.5476  0.1366
 9542SOL     OW40084   0.499   2.187   0.456  0.5984 -0.5046 -0.4281
 9542SOL    HW140085   0.554   2.264   0.466 -0.3270  0.4349 -2.7410
 9542SOL    HW240086   0.422   2.213   0.406  1.6596 -1.2486 -2.4142
 9543SOL     OW40087   0.457   0.589   7.559  0.6564 -0.0177 -0.0619
 9543SOL    HW140088   0.426   0.637   7.482 -2.0889 -0.2514  0.9269
 9543SOL    HW240089   0.469   0.662   7.621 -1.4866  0.5635 -0.3224
 9544SOL     OW40090   4.259   0.526   1.217 -0.1434 -0.6855  0.0310
 9544SOL    HW140091   4.259   0.570   1.302 -3.4937 -1.1047  0.2456
 9544SOL    HW240092   4.199   0.453   1.229 -2.5453  1.6339  2.3181
 9545SOL     OW40093   1.769   3.794   3.442  0.1423 -0.0482  0.1247
 9545SOL    HW140094   1.840   3.805   3.505 -1.5627  0.5541  1.9693
 9545SOL    HW240095   1.803   3.838   3.364 -0.6829  0.1003 -0.1580
 9546SOL     OW40096   1.767   0.087  13.240  0.1807  0.1747  0.2607
 9546SOL    HW140097   1.797   0.170  13.277 -0.6312  0.5771  0.0000
 9546SOL    HW240098   1.849   0.039  13.252 -0.1967 -1.3521 -3.3208
 9547SOL     OW40099   3.795   0.359   4.582 -0.2032  0.1212  0.3804
 9547SOL    HW140100   3.834   0.295   4.523  1.1053 -0.2899  1.6986
 9547SOL    HW240101   3.854   0.432   4.566  0.5580 -0.2458  1.5329
 9548SOL     OW40102   3.979   1.604   3.928 -0.2336 -0.5624  0.2406
 9548SOL    HW140103   3.940   1.658   3.860  0.8780  0.3377  0.3118
 9548SOL    HW240104   4.031   1.541   3.880  0.3021 -1.7538  2.3763
 9549SOL     OW40105   3.803   2.873   0.901 -0.8358  0.2943  0.1529
 9549SOL    HW140106   3.813   2.964   0.873 -0.1597 -0.1472 -1.0486
 9549SOL    HW240107   3.771   2.898   0.988 -2.1849 -0.0279 -0.2548
 9550SOL     OW40108   2.618   3.599  11.952  0.1104  0.5740 -0.6410
 9550SOL    HW140109   2.537   3.569  11.911  1.5151 -2.4244 -1.2200
 9550SOL    HW240110   2.669   3.520  11.934  0.5697  1.0076 -1.1957
 9551SOL     OW40111   2.438   1.502  11.219 -0.2166 -0.0755  0.0151
 9551SOL    HW140112   2.441   1.597  11.214  0.6004 -0.1108 -0.2506
 9551SOL    HW240113   2.440   1.479  11.126 -0.8962  1.5536 -0.3831
 9552SOL     OW40114   0.997   3.397  10.578 -0.4810 -0.4022  0.2430
 9552SOL    HW140115   0.998   3.391  10.482  0.3611 -1.3742  0.3115
 9552SOL    HW240116   0.931   3.329  10.594  1.9471 -2.9579 -0.5818
 9553SOL     OW40117   2.554   3.523   3.012  0.8951  0.1470  0.1468
 9553SOL    HW140118   2.579   3.616   3.009  0.2788  0.3283  0.4966
 9553SOL    HW240119   2.621   3.486   2.955 -0.3697 -1.9639  0.0353
 9554SOL     OW40120   2.154   4.157   3.690  0.0953 -0.0026  0.5785
 9554SOL    HW140121   2.249   4.159   3.683 -0.0222  2.6697 -0.5095
 9554SOL    HW240122   2.154   4.194   3.778  0.9568  0.4715  0.3848
 9555SOL     OW40123   1.043   3.101   5.691  0.2281  0.4489 -0.6295
 9555SOL    HW140124   0.984   3.176   5.698  0.3564  0.5266 -0.3890
 9555SOL    HW240125   1.082   3.116   5.777  0.1400  3.0718 -1.0505
 9556SOL     OW40126   2.687   2.445   7.484 -0.3225 -0.2975 -0.4051
 9556SOL    HW140127   2.703   2.350   7.491 -1.3164 -0.2378  2.5070
 9556SOL    HW240128   2.691   2.470   7.576 -1.0486 -0.4316 -0.3344
 9557SOL     OW40129   2.837   4.510   5.422 -0.3342 -0.5198  0.2791
 9557SOL    HW140130   2.762   4.474   5.374  0.2336  0.2803 -1.2061
 9557SOL    HW240131   2.903   4.444   5.398 -0.3879 -1.2043  2.0266
 9558SOL     OW40132   3.077   1.174   2.207 -0.2388  0.6901  0.6776
 9558SOL    HW140133   3.064   1.080   2.221  0.5614  0.1103 -2.3393
 9558SOL    HW240134   3.023   1.191   2.130 -0.2181  0.7319  0.6722
 9559SOL     OW40135   2.791   4.614   7.043 -0.2323  0.3987  0.1130
 9559SOL    HW140136   2.720   4.614   6.978 -1.1649  0.4960  1.1233
 9559SOL    HW240137   2.820   4.705   7.052  1.8285 -0.1595 -0.9893
 9560SOL     OW40138   3.205   1.933   6.224  0.8119 -0.1639  0.2523
 9560SOL    HW140139   3.256   1.852   6.231  1.3850  0.1326 -0.5516
 9560SOL    HW240140   3.257   1.995   6.173  0.0486  0.1244 -0.1791
 9561SOL     OW40141   4.605   2.456  11.406 -0.2733 -0.3080  0.0751
 9561SOL    HW140142   4.673   2.445  11.473 -0.6242 -3.9117 -0.1355
 9561SOL    HW240143   4.525   2.455  11.459  0.5968 -2.3817  1.3616
 9562SOL     OW40144   3.842   3.014   3.185 -0.4866 -0.1181  0.3174
 9562SOL    HW140145   3.865   3.100   3.220 -1.8579  0.7211 -0.8237
 9562SOL    HW240146   3.765   3.031   3.131  0.7222 -0.6237 -1.5627
 9563SOL     OW40147   4.451   1.568   0.273  0.1986 -0.2422  0.8174
 9563SOL    HW140148   4.362   1.534   0.277 -0.6761  2.2896  2.6521
 9563SOL    HW240149   4.480   1.544   0.185  1.2637 -0.6498  1.2802
 9564SOL     OW40150   2.661   3.800   6.900  0.2055 -0.0093 -0.5257
 9564SOL    HW140151   2.707   3.853   6.966 -0.9062 -0.9990  1.0563
 9564SOL    HW240152   2.593   3.751   6.946  0.4949  0.6523  0.6129
 9565SOL     OW40153   1.747   2.808   4.042  0.1707 -0.4560  0.0370
 9565SOL    HW140154   1.813   2.817   3.973  0.1731  1.8287  0.3550
 9565SOL    HW240155   1.808   2.790   4.114 -0.2847  1.9285  1.0150
   4.72369   4.72369  17.69651
